<event>
 7    1  0.2797450E-013  0.7246154E+02  0.7816164E-02  0.1226708E+00
        -11   -1    0    0    0    0  0.00000000000E+00  0.00000000000E+00  0.45593999997E+02  0.45594000000E+02  0.51100000000E-03 0. -1.
         11   -1    0    0    0    0 -0.00000000000E+00 -0.00000000000E+00 -0.45593999997E+02  0.45594000000E+02  0.51100000000E-03 0.  1.
    9900012    2    1    2    0    0 -0.34357135179E+01 -0.18201327138E+02  0.27545926777E+01  0.72461542306E+02  0.69999963540E+02 0.  0.
         12    1    1    2    0    0  0.34357135179E+01  0.18201327138E+02 -0.27545926777E+01  0.18726457694E+02  0.00000000000E+00 0. -1.
         11    1    3    3    0    0 -0.98003547959E+01  0.21422861464E+02 -0.58958209935E+01  0.24284699975E+02  0.51100000000E-03 0. -1.
        -11    1    3    3    0    0  0.23305231927E+01 -0.14103031245E+02 -0.89945276776E+01  0.16888705014E+02  0.51100000000E-03 0.  1.
        -12    1    3    3    0    0  0.40341180852E+01 -0.25521157357E+02  0.17644941349E+02  0.31288137317E+02  0.00000000000E+00 0.  1.
</event>
<event>
 7    1  0.2797450E-013  0.7246161E+02  0.7816164E-02  0.1226708E+00
        -11   -1    0    0    0    0  0.00000000000E+00  0.00000000000E+00  0.45593999997E+02  0.45594000000E+02  0.51100000000E-03 0.  1.
         11   -1    0    0    0    0 -0.00000000000E+00 -0.00000000000E+00 -0.45593999997E+02  0.45594000000E+02  0.51100000000E-03 0. -1.
    9900012    2    1    2    0    0 -0.34651737273E+01 -0.97137970831E+01  0.15630491315E+02  0.72461613764E+02  0.70000056627E+02 0.  0.
         12    1    1    2    0    0  0.34651737273E+01  0.97137970831E+01 -0.15630491315E+02  0.18726386236E+02  0.00000000000E+00 0. -1.
         11    1    3    3    0    0 -0.99055301587E+01 -0.11720700330E+02 -0.77458975889E+01  0.17189917791E+02  0.51100000000E-03 0. -1.
        -11    1    3    3    0    0  0.83756397447E+01 -0.19488674210E+01 -0.14652021613E+02  0.16989148388E+02  0.51100000000E-03 0.  1.
        -12    1    3    3    0    0 -0.19352833133E+01  0.39557706681E+01  0.38028410517E+02  0.38282547584E+02  0.00000000000E+00 0.  1.
</event>
<event>
 7    1  0.2797450E-013  0.7246170E+02  0.7816164E-02  0.1226708E+00
        -11   -1    0    0    0    0  0.00000000000E+00  0.00000000000E+00  0.45593999997E+02  0.45594000000E+02  0.51100000000E-03 0. -1.
         11   -1    0    0    0    0 -0.00000000000E+00 -0.00000000000E+00 -0.45593999997E+02  0.45594000000E+02  0.51100000000E-03 0.  1.
    9900012    2    1    2    0    0  0.16776735509E+02  0.34920757671E+01 -0.75512106566E+01  0.72461702184E+02  0.70000171810E+02 0.  0.
         12    1    1    2    0    0 -0.16776735509E+02 -0.34920757671E+01  0.75512106566E+01  0.18726297816E+02  0.00000000000E+00 0. -1.
         11    1    3    3    0    0 -0.12031390861E+02  0.37601757986E+01 -0.21819634817E+01  0.12792742199E+02  0.51100000000E-03 0. -1.
        -11    1    3    3    0    0  0.99585321369E+00  0.49965665555E+01 -0.24811304671E+02  0.25328999995E+02  0.51100000000E-03 0.  1.
         12    1    3    3    0    0  0.27812273157E+02 -0.52646665869E+01  0.19442057497E+02  0.34339959990E+02  0.00000000000E+00 0. -1.
</event>
<event>
 7    1  0.2797450E-013  0.7246140E+02  0.7816164E-02  0.1226708E+00
        -11   -1    0    0    0    0  0.00000000000E+00  0.00000000000E+00  0.45593999997E+02  0.45594000000E+02  0.51100000000E-03 0.  1.
         11   -1    0    0    0    0 -0.00000000000E+00 -0.00000000000E+00 -0.45593999997E+02  0.45594000000E+02  0.51100000000E-03 0. -1.
    9900012    2    1    2    0    0  0.32308969000E+01  0.29477391773E+01  0.18208720443E+02  0.72461404976E+02  0.69999784642E+02 0.  0.
         12    1    1    2    0    0 -0.32308969000E+01 -0.29477391773E+01 -0.18208720443E+02  0.18726595024E+02  0.00000000000E+00 0. -1.
         11    1    3    3    0    0 -0.52044991984E+01  0.49401653970E+01 -0.16527928800E+02  0.18018448233E+02  0.51100000000E-03 0. -1.
        -11    1    3    3    0    0  0.20262220988E+02 -0.45382789385E+01  0.36464763666E+01  0.21081991492E+02  0.51100000000E-03 0.  1.
        -12    1    3    3    0    0 -0.11826824890E+02  0.25458527189E+01  0.31090172876E+02  0.33360965251E+02  0.00000000000E+00 0.  1.
</event>
<event>
 7    1  0.2797450E-013  0.7246160E+02  0.7816164E-02  0.1226708E+00
        -11   -1    0    0    0    0  0.00000000000E+00  0.00000000000E+00  0.45593999997E+02  0.45594000000E+02  0.51100000000E-03 0.  1.
         11   -1    0    0    0    0 -0.00000000000E+00 -0.00000000000E+00 -0.45593999997E+02  0.45594000000E+02  0.51100000000E-03 0. -1.
    9900012    2    1    2    0    0 -0.25320366477E+01  0.15183962824E+02  0.10663682193E+02  0.72461600065E+02  0.70000038782E+02 0.  0.
         12    1    1    2    0    0  0.25320366477E+01 -0.15183962824E+02 -0.10663682193E+02  0.18726399935E+02  0.00000000000E+00 0. -1.
         11    1    3    3    0    0 -0.13570311331E+02  0.31414417245E+02 -0.55816036942E+01  0.34672370275E+02  0.51100000000E-03 0. -1.
        -11    1    3    3    0    0  0.19470145402E+02 -0.59889682208E+01  0.12888015597E+02  0.24105087609E+02  0.51100000000E-03 0.  1.
         12    1    3    3    0    0 -0.84318707192E+01 -0.10241486200E+02  0.33572702903E+01  0.13684142181E+02  0.00000000000E+00 0. -1.
</event>
<event>
 7    1  0.2797450E-013  0.7246159E+02  0.7816164E-02  0.1226708E+00
        -11   -1    0    0    0    0  0.00000000000E+00  0.00000000000E+00  0.45593999997E+02  0.45594000000E+02  0.51100000000E-03 0.  1.
         11   -1    0    0    0    0 -0.00000000000E+00 -0.00000000000E+00 -0.45593999997E+02  0.45594000000E+02  0.51100000000E-03 0. -1.
    9900012    2    1    2    0    0 -0.81334121681E+01 -0.27747136320E+00  0.16865613828E+02  0.72461593146E+02  0.70000029769E+02 0.  0.
         12    1    1    2    0    0  0.81334121681E+01  0.27747136320E+00 -0.16865613828E+02  0.18726406854E+02  0.00000000000E+00 0. -1.
         11    1    3    3    0    0  0.22171318190E+02  0.92425971780E+01  0.19373101757E+02  0.30859520813E+02  0.51100000000E-03 0. -1.
        -11    1    3    3    0    0 -0.47180041542E+01 -0.70885582138E+01  0.99031234355E+01  0.13060592436E+02  0.51100000000E-03 0.  1.
        -12    1    3    3    0    0 -0.25586726203E+02 -0.24315103274E+01 -0.12410611364E+02  0.28541479897E+02  0.00000000000E+00 0.  1.
</event>
<event>
 7    1  0.2797450E-013  0.7246153E+02  0.7816164E-02  0.1226708E+00
        -11   -1    0    0    0    0  0.00000000000E+00  0.00000000000E+00  0.45593999997E+02  0.45594000000E+02  0.51100000000E-03 0.  1.
         11   -1    0    0    0    0 -0.00000000000E+00 -0.00000000000E+00 -0.45593999997E+02  0.45594000000E+02  0.51100000000E-03 0. -1.
    9900012    2    1    2    0    0  0.12209654850E+02  0.11301236324E+01  0.14153720482E+02  0.72461530646E+02  0.69999948350E+02 0.  0.
         12    1    1    2    0    0 -0.12209654850E+02 -0.11301236324E+01 -0.14153720482E+02  0.18726469354E+02  0.00000000000E+00 0. -1.
         11    1    3    3    0    0  0.48579116146E+01 -0.38819868348E+01 -0.15014222058E+02  0.16251030469E+02  0.51100000000E-03 0. -1.
        -11    1    3    3    0    0 -0.72077575826E+00  0.24884353687E+02  0.81882058512E+01  0.26206817652E+02  0.51100000000E-03 0.  1.
         12    1    3    3    0    0  0.80725189935E+01 -0.19872243220E+02  0.20979736689E+02  0.30003682525E+02  0.00000000000E+00 0. -1.
</event>
<event>
 7    1  0.2797450E-013  0.7246159E+02  0.7816164E-02  0.1226708E+00
        -11   -1    0    0    0    0  0.00000000000E+00  0.00000000000E+00  0.45593999997E+02  0.45594000000E+02  0.51100000000E-03 0.  1.
         11   -1    0    0    0    0 -0.00000000000E+00 -0.00000000000E+00 -0.45593999997E+02  0.45594000000E+02  0.51100000000E-03 0. -1.
    9900012    2    1    2    0    0 -0.93660605548E+01  0.90675458077E+01  0.13443774698E+02  0.72461586691E+02  0.70000021360E+02 0.  0.
         12    1    1    2    0    0  0.93660605548E+01 -0.90675458077E+01 -0.13443774698E+02  0.18726413309E+02  0.00000000000E+00 0. -1.
         11    1    3    3    0    0  0.22523938341E+02 -0.93284451312E+01  0.18229057297E+01  0.24447303993E+02  0.51100000000E-03 0. -1.
        -11    1    3    3    0    0 -0.76139987860E+01 -0.77674105816E+01  0.32958381662E+01  0.11365218614E+02  0.51100000000E-03 0.  1.
         12    1    3    3    0    0 -0.24276000109E+02  0.26163401521E+02  0.83250308020E+01  0.36649064085E+02  0.00000000000E+00 0. -1.
</event>
<event>
 7    1  0.2797450E-013  0.7246152E+02  0.7816164E-02  0.1226708E+00
        -11   -1    0    0    0    0  0.00000000000E+00  0.00000000000E+00  0.45593999997E+02  0.45594000000E+02  0.51100000000E-03 0. -1.
         11   -1    0    0    0    0 -0.00000000000E+00 -0.00000000000E+00 -0.45593999997E+02  0.45594000000E+02  0.51100000000E-03 0.  1.
    9900012    2    1    2    0    0  0.67556359197E+01 -0.13798690422E+02 -0.10706936282E+02  0.72461522526E+02  0.69999937773E+02 0.  0.
         12    1    1    2    0    0 -0.67556359197E+01  0.13798690422E+02  0.10706936282E+02  0.18726477474E+02  0.00000000000E+00 0. -1.
         11    1    3    3    0    0 -0.92908846951E+01  0.41723015703E+01  0.95739737846E+01  0.13978183469E+02  0.51100000000E-03 0. -1.
        -11    1    3    3    0    0 -0.55891147726E+01  0.14569190378E+02 -0.79146778022E+01  0.17496903645E+02  0.51100000000E-03 0.  1.
        -12    1    3    3    0    0  0.21635635387E+02 -0.32540182370E+02 -0.12366232264E+02  0.40986435411E+02  0.00000000000E+00 0.  1.
</event>
<event>
 7    1  0.2797450E-013  0.7246157E+02  0.7816164E-02  0.1226708E+00
        -11   -1    0    0    0    0  0.00000000000E+00  0.00000000000E+00  0.45593999997E+02  0.45594000000E+02  0.51100000000E-03 0.  1.
         11   -1    0    0    0    0 -0.00000000000E+00 -0.00000000000E+00 -0.45593999997E+02  0.45594000000E+02  0.51100000000E-03 0. -1.
    9900012    2    1    2    0    0  0.16562306013E+02  0.72856001004E+01  0.48258743534E+01  0.72461574485E+02  0.70000005459E+02 0.  0.
         12    1    1    2    0    0 -0.16562306013E+02 -0.72856001004E+01 -0.48258743534E+01  0.18726425515E+02  0.00000000000E+00 0. -1.
         11    1    3    3    0    0 -0.32956186340E+01  0.16727962031E+02  0.11003848999E+02  0.20292129236E+02  0.51100000000E-03 0. -1.
        -11    1    3    3    0    0  0.14713440313E+02  0.17179357365E+02  0.44395458411E+01  0.23050492682E+02  0.51100000000E-03 0.  1.
         12    1    3    3    0    0  0.51444843335E+01 -0.26621719296E+02 -0.10617520487E+02  0.29118952567E+02  0.00000000000E+00 0. -1.
</event>
<event>
 7    1  0.2797450E-013  0.7246156E+02  0.7816164E-02  0.1226708E+00
        -11   -1    0    0    0    0  0.00000000000E+00  0.00000000000E+00  0.45593999997E+02  0.45594000000E+02  0.51100000000E-03 0.  1.
         11   -1    0    0    0    0 -0.00000000000E+00 -0.00000000000E+00 -0.45593999997E+02  0.45594000000E+02  0.51100000000E-03 0. -1.
    9900012    2    1    2    0    0 -0.18316689481E+02  0.34554590257E+01 -0.17995221398E+01  0.72461559053E+02  0.69999985356E+02 0.  0.
         12    1    1    2    0    0  0.18316689481E+02 -0.34554590257E+01  0.17995221398E+01  0.18726440947E+02  0.00000000000E+00 0. -1.
         11    1    3    3    0    0  0.20632698429E+02  0.36688096051E+01  0.85277307093E+01  0.22624999441E+02  0.51100000000E-03 0. -1.
        -11    1    3    3    0    0 -0.11623926672E+02  0.87501873293E+01  0.71218438552E+01  0.16198830505E+02  0.51100000000E-03 0.  1.
        -12    1    3    3    0    0 -0.27325461237E+02 -0.89635379087E+01 -0.17449096704E+02  0.33637729107E+02  0.00000000000E+00 0.  1.
</event>
<event>
 7    1  0.2797450E-013  0.7246159E+02  0.7816164E-02  0.1226708E+00
        -11   -1    0    0    0    0  0.00000000000E+00  0.00000000000E+00  0.45593999997E+02  0.45594000000E+02  0.51100000000E-03 0. -1.
         11   -1    0    0    0    0 -0.00000000000E+00 -0.00000000000E+00 -0.45593999997E+02  0.45594000000E+02  0.51100000000E-03 0.  1.
    9900012    2    1    2    0    0 -0.25151106645E+01  0.18548225189E+02  0.56226186167E+00  0.72461586096E+02  0.70000020584E+02 0.  0.
         12    1    1    2    0    0  0.25151106645E+01 -0.18548225189E+02 -0.56226186167E+00  0.18726413904E+02  0.00000000000E+00 0. -1.
         11    1    3    3    0    0 -0.17469484724E+02  0.44654327662E+01  0.97464426300E+01  0.20496734631E+02  0.51100000000E-03 0. -1.
        -11    1    3    3    0    0  0.22623381423E+02  0.12704294577E+02  0.12589164159E+02  0.28839270833E+02  0.51100000000E-03 0.  1.
        -12    1    3    3    0    0 -0.76690073631E+01  0.13784978462E+01 -0.21773344927E+02  0.23125580632E+02  0.00000000000E+00 0.  1.
</event>
<event>
 7    1  0.2797450E-013  0.7246176E+02  0.7816164E-02  0.1226708E+00
        -11   -1    0    0    0    0  0.00000000000E+00  0.00000000000E+00  0.45593999997E+02  0.45594000000E+02  0.51100000000E-03 0. -1.
         11   -1    0    0    0    0 -0.00000000000E+00 -0.00000000000E+00 -0.45593999997E+02  0.45594000000E+02  0.51100000000E-03 0.  1.
    9900012    2    1    2    0    0 -0.11013063968E+02 -0.72263498948E+01 -0.13310307430E+02  0.72461761867E+02  0.70000249558E+02 0.  0.
         12    1    1    2    0    0  0.11013063968E+02  0.72263498948E+01  0.13310307430E+02  0.18726238133E+02  0.00000000000E+00 0. -1.
         11    1    3    3    0    0  0.15431442441E+02 -0.17011494368E+01 -0.19036884119E+02  0.24564736563E+02  0.51100000000E-03 0. -1.
        -11    1    3    3    0    0  0.80995582295E+01  0.51230201751E+01 -0.41202144467E+01  0.10431890844E+02  0.51100000000E-03 0.  1.
        -12    1    3    3    0    0 -0.34544064638E+02 -0.10648220633E+02  0.98467911359E+01  0.37465134459E+02  0.00000000000E+00 0.  1.
</event>
<event>
 7    1  0.2797450E-013  0.7246166E+02  0.7816164E-02  0.1226708E+00
        -11   -1    0    0    0    0  0.00000000000E+00  0.00000000000E+00  0.45593999997E+02  0.45594000000E+02  0.51100000000E-03 0.  1.
         11   -1    0    0    0    0 -0.00000000000E+00 -0.00000000000E+00 -0.45593999997E+02  0.45594000000E+02  0.51100000000E-03 0. -1.
    9900012    2    1    2    0    0  0.11511956017E+02  0.10102188842E+02  0.10774805943E+02  0.72461660426E+02  0.70000117413E+02 0.  0.
         12    1    1    2    0    0 -0.11511956017E+02 -0.10102188842E+02 -0.10774805943E+02  0.18726339574E+02  0.00000000000E+00 0. -1.
         11    1    3    3    0    0  0.10316956335E+02 -0.83032585577E+00 -0.37081083409E+01  0.10994503026E+02  0.51100000000E-03 0. -1.
        -11    1    3    3    0    0  0.13216269938E+02  0.97200473495E+01  0.34434162391E+02  0.38142635611E+02  0.51100000000E-03 0.  1.
         12    1    3    3    0    0 -0.12021270257E+02  0.12124673484E+01 -0.19951248107E+02  0.23324521789E+02  0.00000000000E+00 0. -1.
</event>
<event>
 7    1  0.2797450E-013  0.7246159E+02  0.7816164E-02  0.1226708E+00
        -11   -1    0    0    0    0  0.00000000000E+00  0.00000000000E+00  0.45593999997E+02  0.45594000000E+02  0.51100000000E-03 0.  1.
         11   -1    0    0    0    0 -0.00000000000E+00 -0.00000000000E+00 -0.45593999997E+02  0.45594000000E+02  0.51100000000E-03 0. -1.
    9900012    2    1    2    0    0 -0.74757078554E+01 -0.88595300467E+01  0.14707175132E+02  0.72461588679E+02  0.70000023949E+02 0.  0.
         12    1    1    2    0    0  0.74757078554E+01  0.88595300467E+01 -0.14707175132E+02  0.18726411321E+02  0.00000000000E+00 0. -1.
         11    1    3    3    0    0  0.34038681386E+00  0.99212368777E+01 -0.76653447286E+01  0.12542101675E+02  0.51100000000E-03 0. -1.
        -11    1    3    3    0    0 -0.28803547972E+02 -0.12182524018E+02  0.21405652188E+02  0.37898023867E+02  0.51100000000E-03 0.  1.
         12    1    3    3    0    0  0.20987453302E+02 -0.65982429064E+01  0.96686767338E+00  0.22021463136E+02  0.00000000000E+00 0. -1.
</event>
<event>
 7    1  0.2797450E-013  0.7246159E+02  0.7816164E-02  0.1226708E+00
        -11   -1    0    0    0    0  0.00000000000E+00  0.00000000000E+00  0.45593999997E+02  0.45594000000E+02  0.51100000000E-03 0.  1.
         11   -1    0    0    0    0 -0.00000000000E+00 -0.00000000000E+00 -0.45593999997E+02  0.45594000000E+02  0.51100000000E-03 0. -1.
    9900012    2    1    2    0    0  0.35716291301E+01  0.17837733284E+02  0.44426661255E+01  0.72461586952E+02  0.70000021700E+02 0.  0.
         12    1    1    2    0    0 -0.35716291301E+01 -0.17837733284E+02 -0.44426661255E+01  0.18726413048E+02  0.00000000000E+00 0. -1.
         11    1    3    3    0    0  0.20769139879E+01  0.32795004659E+01  0.21510754678E+01  0.44379974029E+01  0.51100000000E-03 0. -1.
        -11    1    3    3    0    0  0.27468776749E+02 -0.12716112621E+02  0.23446713164E+01  0.30360018118E+02  0.51100000000E-03 0.  1.
         12    1    3    3    0    0 -0.25974061607E+02  0.27274345438E+02 -0.53080658702E-01  0.37663571432E+02  0.00000000000E+00 0. -1.
</event>
<event>
 7    1  0.2797450E-013  0.7246159E+02  0.7816164E-02  0.1226708E+00
        -11   -1    0    0    0    0  0.00000000000E+00  0.00000000000E+00  0.45593999997E+02  0.45594000000E+02  0.51100000000E-03 0. -1.
         11   -1    0    0    0    0 -0.00000000000E+00 -0.00000000000E+00 -0.45593999997E+02  0.45594000000E+02  0.51100000000E-03 0.  1.
    9900012    2    1    2    0    0  0.23286660580E+01 -0.40108140958E+01 -0.18143021826E+02  0.72461586667E+02  0.70000021329E+02 0.  0.
         12    1    1    2    0    0 -0.23286660580E+01  0.40108140958E+01  0.18143021826E+02  0.18726413333E+02  0.00000000000E+00 0. -1.
         11    1    3    3    0    0 -0.83949775852E+01  0.18527188715E+02 -0.67041658029E+01  0.21416774026E+02  0.51100000000E-03 0. -1.
        -11    1    3    3    0    0  0.12663665258E+02  0.98280827879E+01 -0.93406329253E+01  0.18552817920E+02  0.51100000000E-03 0.  1.
        -12    1    3    3    0    0 -0.19400216148E+01 -0.32366085598E+02 -0.20982230979E+01  0.32491994722E+02  0.00000000000E+00 0.  1.
</event>
<event>
 7    1  0.2797450E-013  0.7246161E+02  0.7816164E-02  0.1226708E+00
        -11   -1    0    0    0    0  0.00000000000E+00  0.00000000000E+00  0.45593999997E+02  0.45594000000E+02  0.51100000000E-03 0.  1.
         11   -1    0    0    0    0 -0.00000000000E+00 -0.00000000000E+00 -0.45593999997E+02  0.45594000000E+02  0.51100000000E-03 0. -1.
    9900012    2    1    2    0    0 -0.11317119182E+02  0.29421650976E+00  0.14916903385E+02  0.72461608021E+02  0.70000049147E+02 0.  0.
         12    1    1    2    0    0  0.11317119182E+02 -0.29421650976E+00 -0.14916903385E+02  0.18726391979E+02  0.00000000000E+00 0. -1.
         11    1    3    3    0    0 -0.24438170374E+02 -0.17243532220E+02  0.72033881452E+01  0.30764466120E+02  0.51100000000E-03 0. -1.
        -11    1    3    3    0    0 -0.11134070628E+02  0.94875733265E+00 -0.49930693115E+00  0.11185570030E+02  0.51100000000E-03 0.  1.
        -12    1    3    3    0    0  0.24255121819E+02  0.16588991397E+02  0.82128221710E+01  0.30511571871E+02  0.00000000000E+00 0.  1.
</event>
<event>
 7    1  0.2797450E-013  0.7246136E+02  0.7816164E-02  0.1226709E+00
        -11   -1    0    0    0    0  0.00000000000E+00  0.00000000000E+00  0.45593999997E+02  0.45594000000E+02  0.51100000000E-03 0. -1.
         11   -1    0    0    0    0 -0.00000000000E+00 -0.00000000000E+00 -0.45593999997E+02  0.45594000000E+02  0.51100000000E-03 0.  1.
    9900012    2    1    2    0    0 -0.37914026098E+01  0.12047236960E+02 -0.13826660119E+02  0.72461356356E+02  0.69999721305E+02 0.  0.
         12    1    1    2    0    0  0.37914026098E+01 -0.12047236960E+02  0.13826660119E+02  0.18726643644E+02  0.00000000000E+00 0. -1.
         11    1    3    3    0    0  0.27150872310E+00 -0.12025239273E+02 -0.30831692343E+02  0.33094914255E+02  0.51100000000E-03 0. -1.
        -11    1    3    3    0    0 -0.83917878668E+01  0.14315686715E+02 -0.28377569112E+01  0.16834899889E+02  0.51100000000E-03 0.  1.
         12    1    3    3    0    0  0.43288765339E+01  0.97567895180E+01  0.19842789135E+02  0.22531542211E+02  0.00000000000E+00 0. -1.
</event>
<event>
 7    1  0.2797450E-013  0.7246157E+02  0.7816164E-02  0.1226708E+00
        -11   -1    0    0    0    0  0.00000000000E+00  0.00000000000E+00  0.45593999997E+02  0.45594000000E+02  0.51100000000E-03 0.  1.
         11   -1    0    0    0    0 -0.00000000000E+00 -0.00000000000E+00 -0.45593999997E+02  0.45594000000E+02  0.51100000000E-03 0. -1.
    9900012    2    1    2    0    0  0.15633782672E+02 -0.80842954284E+01 -0.63959441326E+01  0.72461572295E+02  0.70000002607E+02 0.  0.
         12    1    1    2    0    0 -0.15633782672E+02  0.80842954284E+01  0.63959441326E+01  0.18726427705E+02  0.00000000000E+00 0. -1.
         11    1    3    3    0    0 -0.80778897193E+01 -0.36302221866E+01 -0.97509314577E+01  0.13172375640E+02  0.51100000000E-03 0. -1.
        -11    1    3    3    0    0 -0.17345663286E+02  0.24980769601E+01  0.16473574592E+00  0.17525397612E+02  0.51100000000E-03 0.  1.
         12    1    3    3    0    0  0.41057335678E+02 -0.69521502019E+01  0.31902515792E+01  0.41763799044E+02  0.00000000000E+00 0. -1.
</event>
<event>
 7    1  0.2797450E-013  0.7246152E+02  0.7816164E-02  0.1226708E+00
        -11   -1    0    0    0    0  0.00000000000E+00  0.00000000000E+00  0.45593999997E+02  0.45594000000E+02  0.51100000000E-03 0.  1.
         11   -1    0    0    0    0 -0.00000000000E+00 -0.00000000000E+00 -0.45593999997E+02  0.45594000000E+02  0.51100000000E-03 0. -1.
    9900012    2    1    2    0    0  0.26397585762E+01 -0.17268995797E+02 -0.67449558012E+01  0.72461522223E+02  0.69999937378E+02 0.  0.
         12    1    1    2    0    0 -0.26397585762E+01  0.17268995797E+02  0.67449558012E+01  0.18726477777E+02  0.00000000000E+00 0. -1.
         11    1    3    3    0    0 -0.95467846954E+01 -0.97194979596E+01  0.42899604033E+01  0.14283329413E+02  0.51100000000E-03 0. -1.
        -11    1    3    3    0    0 -0.11785720715E+02 -0.24499034569E+02 -0.94290606252E+01  0.28775216630E+02  0.51100000000E-03 0.  1.
         12    1    3    3    0    0  0.23972263987E+02  0.16949536732E+02 -0.16058555793E+01  0.29402976180E+02  0.00000000000E+00 0. -1.
</event>
<event>
 7    1  0.2797450E-013  0.7246152E+02  0.7816164E-02  0.1226708E+00
        -11   -1    0    0    0    0  0.00000000000E+00  0.00000000000E+00  0.45593999997E+02  0.45594000000E+02  0.51100000000E-03 0.  1.
         11   -1    0    0    0    0 -0.00000000000E+00 -0.00000000000E+00 -0.45593999997E+02  0.45594000000E+02  0.51100000000E-03 0. -1.
    9900012    2    1    2    0    0  0.95368701083E+01  0.10670219513E+01  0.16080756853E+02  0.72461516927E+02  0.69999930479E+02 0.  0.
         12    1    1    2    0    0 -0.95368701083E+01 -0.10670219513E+01 -0.16080756853E+02  0.18726483073E+02  0.00000000000E+00 0. -1.
         11    1    3    3    0    0 -0.26063660091E+01 -0.80929270653E+01  0.55430567773E+01  0.10149585753E+02  0.51100000000E-03 0. -1.
        -11    1    3    3    0    0  0.13972596256E+02 -0.67731269072E+01  0.31971203358E+02  0.35542461066E+02  0.51100000000E-03 0.  1.
         12    1    3    3    0    0 -0.18293601382E+01  0.15933075924E+02 -0.21433503282E+02  0.26769470108E+02  0.00000000000E+00 0. -1.
</event>
<event>
 7    1  0.2797450E-013  0.7246156E+02  0.7816164E-02  0.1226708E+00
        -11   -1    0    0    0    0  0.00000000000E+00  0.00000000000E+00  0.45593999997E+02  0.45594000000E+02  0.51100000000E-03 0. -1.
         11   -1    0    0    0    0 -0.00000000000E+00 -0.00000000000E+00 -0.45593999997E+02  0.45594000000E+02  0.51100000000E-03 0.  1.
    9900012    2    1    2    0    0 -0.90175045066E+01 -0.62319304947E+01  0.15183122477E+02  0.72461560045E+02  0.69999986649E+02 0.  0.
         12    1    1    2    0    0  0.90175045066E+01  0.62319304947E+01 -0.15183122477E+02  0.18726439955E+02  0.00000000000E+00 0. -1.
         11    1    3    3    0    0 -0.23706070491E+02 -0.80969078209E+01 -0.11784069341E+00  0.25050979643E+02  0.51100000000E-03 0. -1.
        -11    1    3    3    0    0 -0.11571994486E+02 -0.51759889673E+01 -0.48458594402E+01  0.13571450628E+02  0.51100000000E-03 0.  1.
         12    1    3    3    0    0  0.26260560470E+02  0.70409662935E+01  0.20146822611E+02  0.33839129774E+02  0.00000000000E+00 0. -1.
</event>
<event>
 7    1  0.2797450E-013  0.7246122E+02  0.7816164E-02  0.1226709E+00
        -11   -1    0    0    0    0  0.00000000000E+00  0.00000000000E+00  0.45593999997E+02  0.45594000000E+02  0.51100000000E-03 0.  1.
         11   -1    0    0    0    0 -0.00000000000E+00 -0.00000000000E+00 -0.45593999997E+02  0.45594000000E+02  0.51100000000E-03 0. -1.
    9900012    2    1    2    0    0 -0.39463663468E+00  0.18721729657E+02 -0.18259061419E+00  0.72461221346E+02  0.69999545429E+02 0.  0.
         12    1    1    2    0    0  0.39463663468E+00 -0.18721729657E+02  0.18259061419E+00  0.18726778654E+02  0.00000000000E+00 0. -1.
         11    1    3    3    0    0  0.37776991637E+01  0.12869561706E+01  0.12290217049E+02  0.12921946546E+02  0.51100000000E-03 0. -1.
        -11    1    3    3    0    0  0.49343508815E+01 -0.17399585814E+02  0.60218670993E+01  0.19061906745E+02  0.51100000000E-03 0.  1.
         12    1    3    3    0    0 -0.91066866799E+01  0.34834359300E+02 -0.18494674763E+02  0.40477368056E+02  0.00000000000E+00 0. -1.
</event>
<event>
 7    1  0.2797450E-013  0.7246159E+02  0.7816164E-02  0.1226708E+00
        -11   -1    0    0    0    0  0.00000000000E+00  0.00000000000E+00  0.45593999997E+02  0.45594000000E+02  0.51100000000E-03 0. -1.
         11   -1    0    0    0    0 -0.00000000000E+00 -0.00000000000E+00 -0.45593999997E+02  0.45594000000E+02  0.51100000000E-03 0.  1.
    9900012    2    1    2    0    0  0.12537091105E+02 -0.13346107804E+02  0.39219063691E+01  0.72461585595E+02  0.70000019932E+02 0.  0.
         12    1    1    2    0    0 -0.12537091105E+02  0.13346107804E+02 -0.39219063691E+01  0.18726414405E+02  0.00000000000E+00 0. -1.
         11    1    3    3    0    0  0.15588655536E+01 -0.11521159615E+02 -0.47343934584E+01  0.12553153483E+02  0.51100000000E-03 0. -1.
        -11    1    3    3    0    0  0.26988296313E+02 -0.11977954028E+02 -0.11999032313E+02  0.31871873137E+02  0.51100000000E-03 0.  1.
         12    1    3    3    0    0 -0.16010070762E+02  0.10153005838E+02  0.20655332140E+02  0.28036558975E+02  0.00000000000E+00 0. -1.
</event>
<event>
 7    1  0.2797450E-013  0.7246155E+02  0.7816164E-02  0.1226708E+00
        -11   -1    0    0    0    0  0.00000000000E+00  0.00000000000E+00  0.45593999997E+02  0.45594000000E+02  0.51100000000E-03 0. -1.
         11   -1    0    0    0    0 -0.00000000000E+00 -0.00000000000E+00 -0.45593999997E+02  0.45594000000E+02  0.51100000000E-03 0.  1.
    9900012    2    1    2    0    0 -0.87242256310E+01  0.10953035186E+02 -0.12433784983E+02  0.72461545406E+02  0.69999967578E+02 0.  0.
         12    1    1    2    0    0  0.87242256310E+01 -0.10953035186E+02  0.12433784983E+02  0.18726454594E+02  0.00000000000E+00 0. -1.
         11    1    3    3    0    0  0.18718021394E+02 -0.11095065799E+02 -0.19001854406E+02  0.28888324304E+02  0.51100000000E-03 0. -1.
        -11    1    3    3    0    0 -0.13321398711E+02  0.24841077353E+01  0.12813964864E+02  0.18650151492E+02  0.51100000000E-03 0.  1.
        -12    1    3    3    0    0 -0.14120848313E+02  0.19563993249E+02 -0.62458954417E+01  0.24923069611E+02  0.00000000000E+00 0.  1.
</event>
<event>
 7    1  0.2797450E-013  0.7246163E+02  0.7816164E-02  0.1226708E+00
        -11   -1    0    0    0    0  0.00000000000E+00  0.00000000000E+00  0.45593999997E+02  0.45594000000E+02  0.51100000000E-03 0.  1.
         11   -1    0    0    0    0 -0.00000000000E+00 -0.00000000000E+00 -0.45593999997E+02  0.45594000000E+02  0.51100000000E-03 0. -1.
    9900012    2    1    2    0    0 -0.17671814091E+01  0.34958356215E+01  0.18312101516E+02  0.72461631992E+02  0.70000080373E+02 0.  0.
         12    1    1    2    0    0  0.17671814091E+01 -0.34958356215E+01 -0.18312101516E+02  0.18726368008E+02  0.00000000000E+00 0. -1.
         11    1    3    3    0    0  0.51540534763E+01 -0.99469049444E+01 -0.13655162063E+02  0.17662633904E+02  0.51100000000E-03 0. -1.
        -11    1    3    3    0    0  0.24671798448E+01 -0.13772199138E+02  0.18007424121E+02  0.22804117374E+02  0.51100000000E-03 0.  1.
         12    1    3    3    0    0 -0.93884147301E+01  0.27214939704E+02  0.13959839458E+02  0.31994880714E+02  0.00000000000E+00 0. -1.
</event>
<event>
 7    1  0.2797450E-013  0.7246163E+02  0.7816164E-02  0.1226708E+00
        -11   -1    0    0    0    0  0.00000000000E+00  0.00000000000E+00  0.45593999997E+02  0.45594000000E+02  0.51100000000E-03 0. -1.
         11   -1    0    0    0    0 -0.00000000000E+00 -0.00000000000E+00 -0.45593999997E+02  0.45594000000E+02  0.51100000000E-03 0.  1.
    9900012    2    1    2    0    0 -0.14160143753E+02  0.33425914962E+01 -0.11789583545E+02  0.72461631714E+02  0.70000080011E+02 0.  0.
         12    1    1    2    0    0  0.14160143753E+02 -0.33425914962E+01  0.11789583545E+02  0.18726368286E+02  0.00000000000E+00 0. -1.
         11    1    3    3    0    0 -0.14168030026E+02 -0.11241246740E+01 -0.25153416435E+02  0.28891020919E+02  0.51100000000E-03 0. -1.
        -11    1    3    3    0    0 -0.11195729710E+02 -0.83100282920E+01 -0.81539187024E+01  0.16152006823E+02  0.51100000000E-03 0.  1.
         12    1    3    3    0    0  0.11203615984E+02  0.12776744462E+02  0.21517751593E+02  0.27418603972E+02  0.00000000000E+00 0. -1.
</event>
<event>
 7    1  0.2797450E-013  0.7246150E+02  0.7816164E-02  0.1226708E+00
        -11   -1    0    0    0    0  0.00000000000E+00  0.00000000000E+00  0.45593999997E+02  0.45594000000E+02  0.51100000000E-03 0.  1.
         11   -1    0    0    0    0 -0.00000000000E+00 -0.00000000000E+00 -0.45593999997E+02  0.45594000000E+02  0.51100000000E-03 0. -1.
    9900012    2    1    2    0    0 -0.88253801427E+00  0.16056988801E+02  0.95956242197E+01  0.72461500944E+02  0.69999909659E+02 0.  0.
         12    1    1    2    0    0  0.88253801427E+00 -0.16056988801E+02 -0.95956242197E+01  0.18726499056E+02  0.00000000000E+00 0. -1.
         11    1    3    3    0    0 -0.12477163905E+02 -0.20348597956E+02  0.16928125388E+01  0.23929284830E+02  0.51100000000E-03 0. -1.
        -11    1    3    3    0    0 -0.94021691021E+01  0.68911765344E+01  0.15882883346E+01  0.11764852653E+02  0.51100000000E-03 0.  1.
        -12    1    3    3    0    0  0.20996794993E+02  0.29514410223E+02  0.63145233463E+01  0.36767363462E+02  0.00000000000E+00 0.  1.
</event>
<event>
 7    1  0.2797450E-013  0.7246155E+02  0.7816164E-02  0.1226708E+00
        -11   -1    0    0    0    0  0.00000000000E+00  0.00000000000E+00  0.45593999997E+02  0.45594000000E+02  0.51100000000E-03 0.  1.
         11   -1    0    0    0    0 -0.00000000000E+00 -0.00000000000E+00 -0.45593999997E+02  0.45594000000E+02  0.51100000000E-03 0. -1.
    9900012    2    1    2    0    0 -0.12444044903E+02 -0.32011184421E+00  0.13990104503E+02  0.72461554818E+02  0.69999979840E+02 0.  0.
         12    1    1    2    0    0  0.12444044903E+02  0.32011184421E+00 -0.13990104503E+02  0.18726445182E+02  0.00000000000E+00 0. -1.
         11    1    3    3    0    0 -0.96582050429E+01  0.16460707568E+02 -0.72546521812E+01  0.20417291613E+02  0.51100000000E-03 0. -1.
        -11    1    3    3    0    0  0.26361783869E+01  0.13688374648E+02  0.14991235549E+02  0.20470910594E+02  0.51100000000E-03 0.  1.
        -12    1    3    3    0    0 -0.54220182472E+01 -0.30469194060E+02  0.62535211343E+01  0.31573352611E+02  0.00000000000E+00 0.  1.
</event>
<event>
 7    1  0.2797450E-013  0.7246158E+02  0.7816164E-02  0.1226708E+00
        -11   -1    0    0    0    0  0.00000000000E+00  0.00000000000E+00  0.45593999997E+02  0.45594000000E+02  0.51100000000E-03 0. -1.
         11   -1    0    0    0    0 -0.00000000000E+00 -0.00000000000E+00 -0.45593999997E+02  0.45594000000E+02  0.51100000000E-03 0.  1.
    9900012    2    1    2    0    0 -0.91032141593E+01  0.14915867116E+02 -0.67325477760E+01  0.72461580177E+02  0.70000012874E+02 0.  0.
         12    1    1    2    0    0  0.91032141593E+01 -0.14915867116E+02  0.67325477760E+01  0.18726419823E+02  0.00000000000E+00 0. -1.
         11    1    3    3    0    0  0.20219312309E+01 -0.13333765843E+02  0.19891905426E+02  0.24032590772E+02  0.51100000000E-03 0. -1.
        -11    1    3    3    0    0  0.62796205411E+01 -0.10378874425E+01 -0.36438339232E+01  0.73340555223E+01  0.51100000000E-03 0.  1.
        -12    1    3    3    0    0 -0.17404765931E+02  0.29287520401E+02 -0.22980619279E+02  0.41094933883E+02  0.00000000000E+00 0.  1.
</event>
<event>
 7    1  0.2797450E-013  0.7246156E+02  0.7816164E-02  0.1226708E+00
        -11   -1    0    0    0    0  0.00000000000E+00  0.00000000000E+00  0.45593999997E+02  0.45594000000E+02  0.51100000000E-03 0. -1.
         11   -1    0    0    0    0 -0.00000000000E+00 -0.00000000000E+00 -0.45593999997E+02  0.45594000000E+02  0.51100000000E-03 0.  1.
    9900012    2    1    2    0    0  0.12354518584E+02 -0.68292798689E+01 -0.12304731394E+02  0.72461558597E+02  0.69999984762E+02 0.  0.
         12    1    1    2    0    0 -0.12354518584E+02  0.68292798689E+01  0.12304731394E+02  0.18726441403E+02  0.00000000000E+00 0. -1.
         11    1    3    3    0    0 -0.11194014177E+02 -0.92478198907E+01 -0.10777565660E+02  0.18082700239E+02  0.51100000000E-03 0. -1.
        -11    1    3    3    0    0  0.28887994034E+00 -0.20876460136E+02 -0.43916765823E+01  0.21335343047E+02  0.51100000000E-03 0.  1.
         12    1    3    3    0    0  0.23259652820E+02  0.23295000158E+02  0.28645108491E+01  0.33043515311E+02  0.00000000000E+00 0. -1.
</event>
<event>
 7    1  0.2797450E-013  0.7246163E+02  0.7816164E-02  0.1226708E+00
        -11   -1    0    0    0    0  0.00000000000E+00  0.00000000000E+00  0.45593999997E+02  0.45594000000E+02  0.51100000000E-03 0. -1.
         11   -1    0    0    0    0 -0.00000000000E+00 -0.00000000000E+00 -0.45593999997E+02  0.45594000000E+02  0.51100000000E-03 0.  1.
    9900012    2    1    2    0    0  0.90093962887E+00 -0.38088849423E+01 -0.18312774994E+02  0.72461627561E+02  0.70000074601E+02 0.  0.
         12    1    1    2    0    0 -0.90093962887E+00  0.38088849423E+01  0.18312774994E+02  0.18726372439E+02  0.00000000000E+00 0. -1.
         11    1    3    3    0    0  0.23859734234E+02  0.17852146489E+01  0.35814561623E+01  0.24192989430E+02  0.51100000000E-03 0. -1.
        -11    1    3    3    0    0 -0.19719466390E+02 -0.97580099099E+01  0.35473334602E+01  0.22285862941E+02  0.51100000000E-03 0.  1.
        -12    1    3    3    0    0 -0.32393282157E+01  0.41639103186E+01 -0.25441564617E+02  0.25982775190E+02  0.00000000000E+00 0.  1.
</event>
<event>
 7    1  0.2797450E-013  0.7246157E+02  0.7816164E-02  0.1226708E+00
        -11   -1    0    0    0    0  0.00000000000E+00  0.00000000000E+00  0.45593999997E+02  0.45594000000E+02  0.51100000000E-03 0. -1.
         11   -1    0    0    0    0 -0.00000000000E+00 -0.00000000000E+00 -0.45593999997E+02  0.45594000000E+02  0.51100000000E-03 0.  1.
    9900012    2    1    2    0    0  0.10484311930E+02 -0.22472540182E+01 -0.15352791451E+02  0.72461570746E+02  0.70000000588E+02 0.  0.
         12    1    1    2    0    0 -0.10484311930E+02  0.22472540182E+01  0.15352791451E+02  0.18726429254E+02  0.00000000000E+00 0. -1.
         11    1    3    3    0    0  0.76453752731E+01 -0.43457657768E+01 -0.27225056154E+01  0.92059480957E+01  0.51100000000E-03 0. -1.
        -11    1    3    3    0    0  0.25604854303E+02  0.18714610818E+02  0.14526400094E+01  0.31748313108E+02  0.51100000000E-03 0.  1.
         12    1    3    3    0    0 -0.22765917646E+02 -0.16616099060E+02 -0.14082925845E+02  0.31507309542E+02  0.00000000000E+00 0. -1.
</event>
<event>
 7    1  0.2797450E-013  0.7246160E+02  0.7816164E-02  0.1226708E+00
        -11   -1    0    0    0    0  0.00000000000E+00  0.00000000000E+00  0.45593999997E+02  0.45594000000E+02  0.51100000000E-03 0.  1.
         11   -1    0    0    0    0 -0.00000000000E+00 -0.00000000000E+00 -0.45593999997E+02  0.45594000000E+02  0.51100000000E-03 0. -1.
    9900012    2    1    2    0    0  0.16780102427E+02 -0.16219724457E+01  0.81532487897E+01  0.72461598907E+02  0.70000037273E+02 0.  0.
         12    1    1    2    0    0 -0.16780102427E+02  0.16219724457E+01 -0.81532487897E+01  0.18726401093E+02  0.00000000000E+00 0. -1.
         11    1    3    3    0    0  0.17768136823E+01 -0.22170503565E+01  0.14683837019E+02  0.14956184306E+02  0.51100000000E-03 0. -1.
        -11    1    3    3    0    0  0.25350055901E+02  0.86876941715E+01  0.16155665149E+02  0.31290683611E+02  0.51100000000E-03 0.  1.
         12    1    3    3    0    0 -0.10346767156E+02 -0.80926162607E+01 -0.22686253378E+02  0.26214730989E+02  0.00000000000E+00 0. -1.
</event>
<event>
 7    1  0.2797450E-013  0.7246157E+02  0.7816164E-02  0.1226708E+00
        -11   -1    0    0    0    0  0.00000000000E+00  0.00000000000E+00  0.45593999997E+02  0.45594000000E+02  0.51100000000E-03 0.  1.
         11   -1    0    0    0    0 -0.00000000000E+00 -0.00000000000E+00 -0.45593999997E+02  0.45594000000E+02  0.51100000000E-03 0. -1.
    9900012    2    1    2    0    0  0.28176132119E+01 -0.87640649300E+01  0.16307402383E+02  0.72461570795E+02  0.70000000652E+02 0.  0.
         12    1    1    2    0    0 -0.28176132119E+01  0.87640649300E+01 -0.16307402383E+02  0.18726429205E+02  0.00000000000E+00 0. -1.
         11    1    3    3    0    0  0.80103014301E+01  0.45398740793E-01  0.94218699616E+00  0.80656497968E+01  0.51100000000E-03 0. -1.
        -11    1    3    3    0    0 -0.23377085567E+01  0.17895158510E+02  0.29091482343E+02  0.34234718117E+02  0.51100000000E-03 0.  1.
         12    1    3    3    0    0 -0.28549796615E+01 -0.26704622180E+02 -0.13726266956E+02  0.30161202881E+02  0.00000000000E+00 0. -1.
</event>
<event>
 7    1  0.2797450E-013  0.7246154E+02  0.7816164E-02  0.1226708E+00
        -11   -1    0    0    0    0  0.00000000000E+00  0.00000000000E+00  0.45593999997E+02  0.45594000000E+02  0.51100000000E-03 0.  1.
         11   -1    0    0    0    0 -0.00000000000E+00 -0.00000000000E+00 -0.45593999997E+02  0.45594000000E+02  0.51100000000E-03 0. -1.
    9900012    2    1    2    0    0 -0.44097885048E+01  0.15469272733E+02 -0.95883037592E+01  0.72461542713E+02  0.69999964070E+02 0.  0.
         12    1    1    2    0    0  0.44097885048E+01 -0.15469272733E+02  0.95883037592E+01  0.18726457287E+02  0.00000000000E+00 0. -1.
         11    1    3    3    0    0 -0.98971455304E+01  0.28287464944E+02  0.23329491357E+01  0.30059554463E+02  0.51100000000E-03 0. -1.
        -11    1    3    3    0    0  0.31319535987E+01 -0.69609503414E+01  0.13879571670E+02  0.15840027557E+02  0.51100000000E-03 0.  1.
        -12    1    3    3    0    0  0.23554034269E+01 -0.58572418691E+01 -0.25800824565E+02  0.26561960693E+02  0.00000000000E+00 0.  1.
</event>
<event>
 7    1  0.2797450E-013  0.7246158E+02  0.7816164E-02  0.1226708E+00
        -11   -1    0    0    0    0  0.00000000000E+00  0.00000000000E+00  0.45593999997E+02  0.45594000000E+02  0.51100000000E-03 0.  1.
         11   -1    0    0    0    0 -0.00000000000E+00 -0.00000000000E+00 -0.45593999997E+02  0.45594000000E+02  0.51100000000E-03 0. -1.
    9900012    2    1    2    0    0  0.54307537697E+00 -0.18494177697E+02 -0.28894775908E+01  0.72461584959E+02  0.70000019103E+02 0.  0.
         12    1    1    2    0    0 -0.54307537697E+00  0.18494177697E+02  0.28894775908E+01  0.18726415041E+02  0.00000000000E+00 0. -1.
         11    1    3    3    0    0  0.12515732901E+02 -0.58700986219E+01 -0.12806931849E+02  0.18844604839E+02  0.51100000000E-03 0. -1.
        -11    1    3    3    0    0 -0.24204385769E+02 -0.55963868837E+01 -0.11970788481E+02  0.27576649791E+02  0.51100000000E-03 0.  1.
         12    1    3    3    0    0  0.12231728245E+02 -0.70276921910E+01  0.21888242740E+02  0.26040330329E+02  0.00000000000E+00 0. -1.
</event>
<event>
 7    1  0.2797450E-013  0.7246159E+02  0.7816164E-02  0.1226708E+00
        -11   -1    0    0    0    0  0.00000000000E+00  0.00000000000E+00  0.45593999997E+02  0.45594000000E+02  0.51100000000E-03 0.  1.
         11   -1    0    0    0    0 -0.00000000000E+00 -0.00000000000E+00 -0.45593999997E+02  0.45594000000E+02  0.51100000000E-03 0. -1.
    9900012    2    1    2    0    0 -0.96691085402E+01 -0.15392536694E+02  0.45007518519E+01  0.72461585152E+02  0.70000019354E+02 0.  0.
         12    1    1    2    0    0  0.96691085402E+01  0.15392536694E+02 -0.45007518519E+01  0.18726414848E+02  0.00000000000E+00 0. -1.
         11    1    3    3    0    0  0.12125932207E+02 -0.56565316631E+01 -0.22493158629E+02  0.26172060823E+02  0.51100000000E-03 0. -1.
        -11    1    3    3    0    0 -0.16096486714E+02 -0.69834242339E+01 -0.10141675195E+01  0.17575370112E+02  0.51100000000E-03 0.  1.
        -12    1    3    3    0    0 -0.56985540340E+01 -0.27525807971E+01  0.28008078000E+02  0.28714154217E+02  0.00000000000E+00 0.  1.
</event>
<event>
 7    1  0.2797450E-013  0.7246154E+02  0.7816164E-02  0.1226708E+00
        -11   -1    0    0    0    0  0.00000000000E+00  0.00000000000E+00  0.45593999997E+02  0.45594000000E+02  0.51100000000E-03 0.  1.
         11   -1    0    0    0    0 -0.00000000000E+00 -0.00000000000E+00 -0.45593999997E+02  0.45594000000E+02  0.51100000000E-03 0. -1.
    9900012    2    1    2    0    0 -0.12078588414E+01  0.17814628159E+01  0.18602361990E+02  0.72461537324E+02  0.69999957050E+02 0.  0.
         12    1    1    2    0    0  0.12078588414E+01 -0.17814628159E+01 -0.18602361990E+02  0.18726462676E+02  0.00000000000E+00 0. -1.
         11    1    3    3    0    0  0.92473203419E+01 -0.62332516554E+01  0.68153736243E+00  0.11172772849E+02  0.51100000000E-03 0. -1.
        -11    1    3    3    0    0  0.25112432938E+01 -0.22133744012E+02  0.17728840702E+02  0.28469646288E+02  0.51100000000E-03 0.  1.
         12    1    3    3    0    0 -0.12966422477E+02  0.30148458483E+02  0.19198392555E+00  0.32819118187E+02  0.00000000000E+00 0. -1.
</event>
<event>
 7    1  0.2797450E-013  0.7246158E+02  0.7816164E-02  0.1226708E+00
        -11   -1    0    0    0    0  0.00000000000E+00  0.00000000000E+00  0.45593999997E+02  0.45594000000E+02  0.51100000000E-03 0.  1.
         11   -1    0    0    0    0 -0.00000000000E+00 -0.00000000000E+00 -0.45593999997E+02  0.45594000000E+02  0.51100000000E-03 0. -1.
    9900012    2    1    2    0    0 -0.10480547189E+02  0.53080000456E+00  0.15509844161E+02  0.72461577919E+02  0.70000009933E+02 0.  0.
         12    1    1    2    0    0  0.10480547189E+02 -0.53080000456E+00 -0.15509844161E+02  0.18726422081E+02  0.00000000000E+00 0. -1.
         11    1    3    3    0    0  0.12886374243E+02  0.16552236461E+02 -0.10520038091E+02  0.23467133925E+02  0.51100000000E-03 0. -1.
        -11    1    3    3    0    0 -0.21517693691E+01  0.36117161610E+01 -0.50362730303E+01  0.65603849996E+01  0.51100000000E-03 0.  1.
        -12    1    3    3    0    0 -0.21215152063E+02 -0.19633152617E+02  0.31066155282E+02  0.42434058995E+02  0.00000000000E+00 0.  1.
</event>
<event>
 7    1  0.2797450E-013  0.7246157E+02  0.7816164E-02  0.1226708E+00
        -11   -1    0    0    0    0  0.00000000000E+00  0.00000000000E+00  0.45593999997E+02  0.45594000000E+02  0.51100000000E-03 0.  1.
         11   -1    0    0    0    0 -0.00000000000E+00 -0.00000000000E+00 -0.45593999997E+02  0.45594000000E+02  0.51100000000E-03 0. -1.
    9900012    2    1    2    0    0  0.82652120999E+01 -0.16315415016E+02 -0.40215041237E+01  0.72461574991E+02  0.70000006118E+02 0.  0.
         12    1    1    2    0    0 -0.82652120999E+01  0.16315415016E+02  0.40215041237E+01  0.18726425009E+02  0.00000000000E+00 0. -1.
         11    1    3    3    0    0  0.71056527371E+01  0.19895742840E+00  0.77794662145E+01  0.10538025419E+02  0.51100000000E-03 0. -1.
        -11    1    3    3    0    0 -0.24742383416E+02 -0.18900756302E+02  0.41495228427E+01  0.31410868596E+02  0.51100000000E-03 0.  1.
         12    1    3    3    0    0  0.25901942779E+02  0.23863838575E+01 -0.15950493181E+02  0.30512680976E+02  0.00000000000E+00 0. -1.
</event>
<event>
 7    1  0.3658276E-013  0.7246160E+02  0.7816164E-02  0.1226708E+00
        -11   -1    0    0    0    0  0.00000000000E+00  0.00000000000E+00  0.45593999997E+02  0.45594000000E+02  0.51100000000E-03 0. -1.
         11   -1    0    0    0    0 -0.00000000000E+00 -0.00000000000E+00 -0.45593999997E+02  0.45594000000E+02  0.51100000000E-03 0.  1.
    9900012    2    1    2    0    0 -0.59769124194E+01 -0.89846343975E+01 -0.15304601114E+02  0.72461602787E+02  0.70000042327E+02 0.  0.
         12    1    1    2    0    0  0.59769124194E+01  0.89846343975E+01  0.15304601114E+02  0.18726397213E+02  0.00000000000E+00 0. -1.
         11    1    3    3    0    0 -0.90941942647E+01  0.13172322356E+02  0.15966011969E+02  0.22608139774E+02  0.51100000000E-03 0. -1.
        -11    1    3    3    0    0  0.38254218924E+01 -0.31973381077E+01  0.61385238999E+01  0.79081160563E+01  0.51100000000E-03 0.  1.
        -12    1    3    3    0    0 -0.70814004708E+00 -0.18959618645E+02 -0.37409136983E+02  0.41945346957E+02  0.00000000000E+00 0.  1.
</event>
<event>
 7    1  0.2797450E-013  0.7246157E+02  0.7816164E-02  0.1226708E+00
        -11   -1    0    0    0    0  0.00000000000E+00  0.00000000000E+00  0.45593999997E+02  0.45594000000E+02  0.51100000000E-03 0.  1.
         11   -1    0    0    0    0 -0.00000000000E+00 -0.00000000000E+00 -0.45593999997E+02  0.45594000000E+02  0.51100000000E-03 0. -1.
    9900012    2    1    2    0    0 -0.20780756081E+01  0.14006570957E+02  0.12254664909E+02  0.72461568406E+02  0.69999997540E+02 0.  0.
         12    1    1    2    0    0  0.20780756081E+01 -0.14006570957E+02 -0.12254664909E+02  0.18726431594E+02  0.00000000000E+00 0. -1.
         11    1    3    3    0    0 -0.25630889238E+02  0.34056316141E+01 -0.77753837544E+00  0.25867844441E+02  0.51100000000E-03 0. -1.
        -11    1    3    3    0    0  0.13173187169E+02  0.11495938714E+02 -0.10823040935E+02  0.20562774191E+02  0.51100000000E-03 0.  1.
        -12    1    3    3    0    0  0.10379626462E+02 -0.89499937174E+00  0.23855244219E+02  0.26030949774E+02  0.00000000000E+00 0.  1.
</event>
<event>
 7    1  0.2797450E-013  0.7246158E+02  0.7816164E-02  0.1226708E+00
        -11   -1    0    0    0    0  0.00000000000E+00  0.00000000000E+00  0.45593999997E+02  0.45594000000E+02  0.51100000000E-03 0.  1.
         11   -1    0    0    0    0 -0.00000000000E+00 -0.00000000000E+00 -0.45593999997E+02  0.45594000000E+02  0.51100000000E-03 0. -1.
    9900012    2    1    2    0    0  0.16805395450E+02  0.75393127089E+01  0.33788189398E+01  0.72461575627E+02  0.70000006947E+02 0.  0.
         12    1    1    2    0    0 -0.16805395450E+02 -0.75393127089E+01 -0.33788189398E+01  0.18726424373E+02  0.00000000000E+00 0. -1.
         11    1    3    3    0    0  0.73942564427E+01  0.82240648783E+01 -0.13471091735E+02  0.17429302460E+02  0.51100000000E-03 0. -1.
        -11    1    3    3    0    0  0.32406571201E+01 -0.14134960982E+02 -0.14411803281E+02  0.20445025180E+02  0.51100000000E-03 0.  1.
        -12    1    3    3    0    0  0.61704818877E+01  0.13450208813E+02  0.31261713956E+02  0.34587247987E+02  0.00000000000E+00 0.  1.
</event>
<event>
 7    1  0.2797450E-013  0.7246153E+02  0.7816164E-02  0.1226708E+00
        -11   -1    0    0    0    0  0.00000000000E+00  0.00000000000E+00  0.45593999997E+02  0.45594000000E+02  0.51100000000E-03 0.  1.
         11   -1    0    0    0    0 -0.00000000000E+00 -0.00000000000E+00 -0.45593999997E+02  0.45594000000E+02  0.51100000000E-03 0. -1.
    9900012    2    1    2    0    0  0.12515800936E+02 -0.21721000024E+00  0.13927967923E+02  0.72461528263E+02  0.69999945246E+02 0.  0.
         12    1    1    2    0    0 -0.12515800936E+02  0.21721000024E+00 -0.13927967923E+02  0.18726471737E+02  0.00000000000E+00 0. -1.
         11    1    3    3    0    0 -0.23674281777E+02  0.76289790913E+01  0.11900926914E+02  0.27573628729E+02  0.51100000000E-03 0. -1.
        -11    1    3    3    0    0  0.20323451817E+02 -0.18645397441E+01  0.13450266002E+02  0.24442357865E+02  0.51100000000E-03 0.  1.
        -12    1    3    3    0    0  0.15866630896E+02 -0.59816493475E+01 -0.11423224993E+02  0.20445541669E+02  0.00000000000E+00 0.  1.
</event>
<event>
 7    1  0.2797450E-013  0.7246159E+02  0.7816164E-02  0.1226708E+00
        -11   -1    0    0    0    0  0.00000000000E+00  0.00000000000E+00  0.45593999997E+02  0.45594000000E+02  0.51100000000E-03 0.  1.
         11   -1    0    0    0    0 -0.00000000000E+00 -0.00000000000E+00 -0.45593999997E+02  0.45594000000E+02  0.51100000000E-03 0. -1.
    9900012    2    1    2    0    0  0.49272609668E+01 -0.58948064561E+01  0.17077810247E+02  0.72461594936E+02  0.70000032100E+02 0.  0.
         12    1    1    2    0    0 -0.49272609668E+01  0.58948064561E+01 -0.17077810247E+02  0.18726405064E+02  0.00000000000E+00 0. -1.
         11    1    3    3    0    0  0.74730644991E-01 -0.18942113595E+01  0.64550586916E+01  0.67276596463E+01  0.51100000000E-03 0. -1.
        -11    1    3    3    0    0 -0.24013731732E+02  0.49774421587E+01  0.22473373365E+02  0.33263895635E+02  0.51100000000E-03 0.  1.
         12    1    3    3    0    0  0.28866262054E+02 -0.89780372553E+01 -0.11850621809E+02  0.32470039655E+02  0.00000000000E+00 0. -1.
</event>
<event>
 7    1  0.2797450E-013  0.7246159E+02  0.7816164E-02  0.1226708E+00
        -11   -1    0    0    0    0  0.00000000000E+00  0.00000000000E+00  0.45593999997E+02  0.45594000000E+02  0.51100000000E-03 0. -1.
         11   -1    0    0    0    0 -0.00000000000E+00 -0.00000000000E+00 -0.45593999997E+02  0.45594000000E+02  0.51100000000E-03 0.  1.
    9900012    2    1    2    0    0  0.94788481626E+01 -0.76174688292E+01 -0.14240926517E+02  0.72461591324E+02  0.70000027394E+02 0.  0.
         12    1    1    2    0    0 -0.94788481626E+01  0.76174688292E+01  0.14240926517E+02  0.18726408676E+02  0.00000000000E+00 0. -1.
         11    1    3    3    0    0  0.20941175530E+02 -0.34358056258E+01 -0.91778843704E+01  0.23120794853E+02  0.51100000000E-03 0. -1.
        -11    1    3    3    0    0  0.85677312135E+01 -0.10328791068E+02 -0.19661303628E+02  0.23804554264E+02  0.51100000000E-03 0.  1.
         12    1    3    3    0    0 -0.20030058581E+02  0.61471278642E+01  0.14598261482E+02  0.25536242206E+02  0.00000000000E+00 0. -1.
</event>
<event>
 7    1  0.2797450E-013  0.7246188E+02  0.7816164E-02  0.1226707E+00
        -11   -1    0    0    0    0  0.00000000000E+00  0.00000000000E+00  0.45593999997E+02  0.45594000000E+02  0.51100000000E-03 0. -1.
         11   -1    0    0    0    0 -0.00000000000E+00 -0.00000000000E+00 -0.45593999997E+02  0.45594000000E+02  0.51100000000E-03 0.  1.
    9900012    2    1    2    0    0 -0.14972051535E+02 -0.78030407120E+01  0.81004720526E+01  0.72461884038E+02  0.70000408709E+02 0.  0.
         12    1    1    2    0    0  0.14972051535E+02  0.78030407120E+01 -0.81004720526E+01  0.18726115962E+02  0.00000000000E+00 0. -1.
         11    1    3    3    0    0 -0.88406814424E+01  0.57610159929E+01  0.89923722204E+01  0.13863971727E+02  0.51100000000E-03 0. -1.
        -11    1    3    3    0    0 -0.51201182845E+01  0.22191960636E+02  0.78290791268E+00  0.22788410940E+02  0.51100000000E-03 0.  1.
        -12    1    3    3    0    0 -0.10112518085E+01 -0.35756017341E+02 -0.16748080804E+01  0.35809501371E+02  0.00000000000E+00 0.  1.
</event>
<event>
 7    1  0.2797450E-013  0.7246158E+02  0.7816164E-02  0.1226708E+00
        -11   -1    0    0    0    0  0.00000000000E+00  0.00000000000E+00  0.45593999997E+02  0.45594000000E+02  0.51100000000E-03 0. -1.
         11   -1    0    0    0    0 -0.00000000000E+00 -0.00000000000E+00 -0.45593999997E+02  0.45594000000E+02  0.51100000000E-03 0.  1.
    9900012    2    1    2    0    0 -0.18683923152E+02 -0.12218503623E+01  0.31150960122E+00  0.72461576399E+02  0.70000007953E+02 0.  0.
         12    1    1    2    0    0  0.18683923152E+02  0.12218503623E+01 -0.31150960122E+00  0.18726423601E+02  0.00000000000E+00 0. -1.
         11    1    3    3    0    0 -0.15224855085E+02  0.31804234695E+01 -0.12919792644E+02  0.20219603063E+02  0.51100000000E-03 0.  1.
        -11    1    3    3    0    0  0.17065764429E+02 -0.15627933029E+02 -0.36048842318E+01  0.23419389336E+02  0.51100000000E-03 0. -1.
         12    1    3    3    0    0 -0.20524832495E+02  0.11225659197E+02  0.16836186477E+02  0.28822584000E+02  0.00000000000E+00 0. -1.
</event>
<event>
 7    1  0.2797450E-013  0.7246159E+02  0.7816164E-02  0.1226708E+00
        -11   -1    0    0    0    0  0.00000000000E+00  0.00000000000E+00  0.45593999997E+02  0.45594000000E+02  0.51100000000E-03 0. -1.
         11   -1    0    0    0    0 -0.00000000000E+00 -0.00000000000E+00 -0.45593999997E+02  0.45594000000E+02  0.51100000000E-03 0.  1.
    9900012    2    1    2    0    0 -0.16156207219E+02 -0.65183130677E+01  0.68678185502E+01  0.72461591680E+02  0.70000027858E+02 0.  0.
         12    1    1    2    0    0  0.16156207219E+02  0.65183130677E+01 -0.68678185502E+01  0.18726408320E+02  0.00000000000E+00 0. -1.
         11    1    3    3    0    0 -0.14418169825E+02  0.14838136337E+02 -0.13486863271E+02  0.24697153524E+02  0.51100000000E-03 0. -1.
        -11    1    3    3    0    0  0.84377005985E+01 -0.86390607658E+01 -0.84050110803E+01  0.14713000164E+02  0.51100000000E-03 0.  1.
         12    1    3    3    0    0 -0.10175737992E+02 -0.12717388639E+02  0.28759692902E+02  0.33051437991E+02  0.00000000000E+00 0. -1.
</event>
<event>
 7    1  0.2797450E-013  0.7246153E+02  0.7816164E-02  0.1226708E+00
        -11   -1    0    0    0    0  0.00000000000E+00  0.00000000000E+00  0.45593999997E+02  0.45594000000E+02  0.51100000000E-03 0.  1.
         11   -1    0    0    0    0 -0.00000000000E+00 -0.00000000000E+00 -0.45593999997E+02  0.45594000000E+02  0.51100000000E-03 0. -1.
    9900012    2    1    2    0    0 -0.36588276570E+01  0.18162014382E+02 -0.27267192002E+01  0.72461527192E+02  0.69999943851E+02 0.  0.
         12    1    1    2    0    0  0.36588276570E+01 -0.18162014382E+02  0.27267192002E+01  0.18726472808E+02  0.00000000000E+00 0. -1.
         11    1    3    3    0    0  0.11672373070E+02 -0.91750272782E+01 -0.67435672577E+01  0.16306474735E+02  0.51100000000E-03 0. -1.
        -11    1    3    3    0    0  0.79235776364E+01  0.73019740056E+01  0.19118757709E+02  0.21946043004E+02  0.51100000000E-03 0.  1.
        -12    1    3    3    0    0 -0.23254778364E+02  0.20035067655E+02 -0.15101909651E+02  0.34209009453E+02  0.00000000000E+00 0.  1.
</event>
<event>
 7    1  0.2797450E-013  0.7246159E+02  0.7816164E-02  0.1226708E+00
        -11   -1    0    0    0    0  0.00000000000E+00  0.00000000000E+00  0.45593999997E+02  0.45594000000E+02  0.51100000000E-03 0.  1.
         11   -1    0    0    0    0 -0.00000000000E+00 -0.00000000000E+00 -0.45593999997E+02  0.45594000000E+02  0.51100000000E-03 0. -1.
    9900012    2    1    2    0    0  0.30849583269E+01 -0.11986623966E+01  0.18431622270E+02  0.72461589267E+02  0.70000024716E+02 0.  0.
         12    1    1    2    0    0 -0.30849583269E+01  0.11986623966E+01 -0.18431622270E+02  0.18726410733E+02  0.00000000000E+00 0. -1.
         11    1    3    3    0    0  0.38959387176E+00 -0.21182501046E+02  0.24527111117E+02  0.32410327273E+02  0.51100000000E-03 0.  1.
        -11    1    3    3    0    0  0.13482567869E+02  0.18433376299E+02  0.61570800403E+01  0.23653300679E+02  0.51100000000E-03 0. -1.
         12    1    3    3    0    0 -0.10787203414E+02  0.15504623501E+01 -0.12252568887E+02  0.16397961316E+02  0.00000000000E+00 0. -1.
</event>
<event>
 7    1  0.2797450E-013  0.7246156E+02  0.7816164E-02  0.1226708E+00
        -11   -1    0    0    0    0  0.00000000000E+00  0.00000000000E+00  0.45593999997E+02  0.45594000000E+02  0.51100000000E-03 0.  1.
         11   -1    0    0    0    0 -0.00000000000E+00 -0.00000000000E+00 -0.45593999997E+02  0.45594000000E+02  0.51100000000E-03 0. -1.
    9900012    2    1    2    0    0  0.73505671500E+01 -0.51541119968E+01  0.16434229125E+02  0.72461558939E+02  0.69999985207E+02 0.  0.
         12    1    1    2    0    0 -0.73505671500E+01  0.51541119968E+01 -0.16434229125E+02  0.18726441061E+02  0.00000000000E+00 0. -1.
         11    1    3    3    0    0  0.29589032205E+02  0.11031131012E+02  0.40030019002E+01  0.31831127890E+02  0.51100000000E-03 0. -1.
        -11    1    3    3    0    0  0.24456217614E+01  0.53428810008E+01  0.26666602438E+01  0.64527916676E+01  0.51100000000E-03 0.  1.
        -12    1    3    3    0    0 -0.24684086817E+02 -0.21528124010E+02  0.97645669806E+01  0.34177639381E+02  0.00000000000E+00 0.  1.
</event>
<event>
 7    1  0.2797450E-013  0.7246165E+02  0.7816164E-02  0.1226708E+00
        -11   -1    0    0    0    0  0.00000000000E+00  0.00000000000E+00  0.45593999997E+02  0.45594000000E+02  0.51100000000E-03 0.  1.
         11   -1    0    0    0    0 -0.00000000000E+00 -0.00000000000E+00 -0.45593999997E+02  0.45594000000E+02  0.51100000000E-03 0. -1.
    9900012    2    1    2    0    0 -0.16052379569E+02  0.95811280650E+01 -0.10950551311E+01  0.72461653572E+02  0.70000108484E+02 0.  0.
         12    1    1    2    0    0  0.16052379569E+02 -0.95811280650E+01  0.10950551311E+01  0.18726346428E+02  0.00000000000E+00 0. -1.
         11    1    3    3    0    0  0.99297941277E+01  0.30406608259E+02  0.28161404216E+01  0.32110641294E+02  0.51100000000E-03 0. -1.
        -11    1    3    3    0    0 -0.66848458163E+01 -0.13436365310E+02 -0.10888290511E+02  0.18541249873E+02  0.51100000000E-03 0.  1.
        -12    1    3    3    0    0 -0.19297327880E+02 -0.73891148835E+01  0.69770949586E+01  0.21809762404E+02  0.00000000000E+00 0.  1.
</event>
<event>
 7    1  0.2797450E-013  0.7246153E+02  0.7816164E-02  0.1226708E+00
        -11   -1    0    0    0    0  0.00000000000E+00  0.00000000000E+00  0.45593999997E+02  0.45594000000E+02  0.51100000000E-03 0.  1.
         11   -1    0    0    0    0 -0.00000000000E+00 -0.00000000000E+00 -0.45593999997E+02  0.45594000000E+02  0.51100000000E-03 0. -1.
    9900012    2    1    2    0    0 -0.12186923435E+02 -0.56589261570E+01  0.13043626502E+02  0.72461528352E+02  0.69999945362E+02 0.  0.
         12    1    1    2    0    0  0.12186923435E+02  0.56589261570E+01 -0.13043626502E+02  0.18726471648E+02  0.00000000000E+00 0. -1.
         11    1    3    3    0    0  0.14609728502E+02  0.77865522208E+01  0.47571505925E+01  0.17225128284E+02  0.51100000000E-03 0. -1.
        -11    1    3    3    0    0 -0.24285251612E+02  0.10288049720E+02  0.15133117496E+02  0.30407707219E+02  0.51100000000E-03 0.  1.
         12    1    3    3    0    0 -0.25114003257E+01 -0.23733528098E+02 -0.68466415874E+01  0.24828692849E+02  0.00000000000E+00 0. -1.
</event>
<event>
 7    1  0.2797450E-013  0.7246156E+02  0.7816164E-02  0.1226708E+00
        -11   -1    0    0    0    0  0.00000000000E+00  0.00000000000E+00  0.45593999997E+02  0.45594000000E+02  0.51100000000E-03 0.  1.
         11   -1    0    0    0    0 -0.00000000000E+00 -0.00000000000E+00 -0.45593999997E+02  0.45594000000E+02  0.51100000000E-03 0. -1.
    9900012    2    1    2    0    0  0.10135542665E+01 -0.16044958548E+02  0.96026813076E+01  0.72461562129E+02  0.69999989363E+02 0.  0.
         12    1    1    2    0    0 -0.10135542665E+01  0.16044958548E+02 -0.96026813076E+01  0.18726437871E+02  0.00000000000E+00 0. -1.
         11    1    3    3    0    0  0.11000989120E+02 -0.22300580417E+02 -0.74206909147E+01  0.25950034730E+02  0.51100000000E-03 0. -1.
        -11    1    3    3    0    0 -0.20981396471E+02 -0.87990988167E+01  0.25168846770E+01  0.22890562391E+02  0.51100000000E-03 0.  1.
        -12    1    3    3    0    0  0.10993961617E+02  0.15054720686E+02  0.14506487545E+02  0.23620965007E+02  0.00000000000E+00 0.  1.
</event>
<event>
 7    1  0.2797450E-013  0.7246156E+02  0.7816164E-02  0.1226708E+00
        -11   -1    0    0    0    0  0.00000000000E+00  0.00000000000E+00  0.45593999997E+02  0.45594000000E+02  0.51100000000E-03 0. -1.
         11   -1    0    0    0    0 -0.00000000000E+00 -0.00000000000E+00 -0.45593999997E+02  0.45594000000E+02  0.51100000000E-03 0.  1.
    9900012    2    1    2    0    0 -0.15266109588E+02  0.10833113996E+02  0.51869448497E+00  0.72461561343E+02  0.69999988339E+02 0.  0.
         12    1    1    2    0    0  0.15266109588E+02 -0.10833113996E+02 -0.51869448497E+00  0.18726438657E+02  0.00000000000E+00 0. -1.
         11    1    3    3    0    0 -0.11096296120E+02  0.85577231733E+00 -0.13346521309E+02  0.17377852720E+02  0.51100000000E-03 0. -1.
        -11    1    3    3    0    0  0.35361216066E+01  0.13880911031E+02 -0.17463055138E+02  0.22586326441E+02  0.51100000000E-03 0.  1.
         12    1    3    3    0    0 -0.77059350749E+01 -0.39035693523E+01  0.31328270932E+02  0.32497382182E+02  0.00000000000E+00 0. -1.
</event>
<event>
 7    1  0.2797450E-013  0.7246146E+02  0.7816164E-02  0.1226708E+00
        -11   -1    0    0    0    0  0.00000000000E+00  0.00000000000E+00  0.45593999997E+02  0.45594000000E+02  0.51100000000E-03 0. -1.
         11   -1    0    0    0    0 -0.00000000000E+00 -0.00000000000E+00 -0.45593999997E+02  0.45594000000E+02  0.51100000000E-03 0.  1.
    9900012    2    1    2    0    0  0.18117087088E+02  0.37705340368E+01 -0.28700902413E+01  0.72461462961E+02  0.69999860178E+02 0.  0.
         12    1    1    2    0    0 -0.18117087088E+02 -0.37705340368E+01  0.28700902413E+01  0.18726537039E+02  0.00000000000E+00 0. -1.
         11    1    3    3    0    0 -0.84297331834E+01 -0.10602062346E+02  0.16130614189E+02  0.21063258103E+02  0.51100000000E-03 0. -1.
        -11    1    3    3    0    0 -0.24360656917E+01  0.17557606620E+02 -0.12019764997E+02  0.21416785873E+02  0.51100000000E-03 0.  1.
         12    1    3    3    0    0  0.28982885964E+02 -0.31850102369E+01 -0.69809394333E+01  0.29981418985E+02  0.00000000000E+00 0. -1.
</event>
<event>
 7    1  0.2797450E-013  0.7246158E+02  0.7816164E-02  0.1226708E+00
        -11   -1    0    0    0    0  0.00000000000E+00  0.00000000000E+00  0.45593999997E+02  0.45594000000E+02  0.51100000000E-03 0. -1.
         11   -1    0    0    0    0 -0.00000000000E+00 -0.00000000000E+00 -0.45593999997E+02  0.45594000000E+02  0.51100000000E-03 0.  1.
    9900012    2    1    2    0    0 -0.42878316867E+01  0.69623997762E+01 -0.16846909823E+02  0.72461577977E+02  0.70000010008E+02 0.  0.
         12    1    1    2    0    0  0.42878316867E+01 -0.69623997762E+01  0.16846909823E+02  0.18726422023E+02  0.00000000000E+00 0. -1.
         11    1    3    3    0    0 -0.42162566178E+01 -0.18687600293E+02 -0.12008631625E+02  0.22609963696E+02  0.51100000000E-03 0. -1.
        -11    1    3    3    0    0 -0.11118716669E+00  0.39786365600E+01 -0.21906947418E+02  0.22265584584E+02  0.51100000000E-03 0.  1.
         12    1    3    3    0    0  0.39612097770E-01  0.21671363509E+02  0.17068669219E+02  0.27586029696E+02  0.00000000000E+00 0. -1.
</event>
<event>
 7    1  0.2797450E-013  0.7246150E+02  0.7816164E-02  0.1226708E+00
        -11   -1    0    0    0    0  0.00000000000E+00  0.00000000000E+00  0.45593999997E+02  0.45594000000E+02  0.51100000000E-03 0.  1.
         11   -1    0    0    0    0 -0.00000000000E+00 -0.00000000000E+00 -0.45593999997E+02  0.45594000000E+02  0.51100000000E-03 0. -1.
    9900012    2    1    2    0    0  0.12280894228E+02  0.13434936395E+02  0.44004666259E+01  0.72461495107E+02  0.69999902055E+02 0.  0.
         12    1    1    2    0    0 -0.12280894228E+02 -0.13434936395E+02 -0.44004666259E+01  0.18726504893E+02  0.00000000000E+00 0. -1.
         11    1    3    3    0    0  0.86730997761E+01  0.57851651665E+01  0.17318545693E+02  0.20214421112E+02  0.51100000000E-03 0. -1.
        -11    1    3    3    0    0  0.75273244853E+01  0.26705756127E+02  0.18707975043E+01  0.27809313328E+02  0.51100000000E-03 0.  1.
         12    1    3    3    0    0 -0.39195300333E+01 -0.19055984899E+02 -0.14788876571E+02  0.24437760667E+02  0.00000000000E+00 0. -1.
</event>
<event>
 7    1  0.2797450E-013  0.7246208E+02  0.7816164E-02  0.1226707E+00
        -11   -1    0    0    0    0  0.00000000000E+00  0.00000000000E+00  0.45593999997E+02  0.45594000000E+02  0.51100000000E-03 0. -1.
         11   -1    0    0    0    0 -0.00000000000E+00 -0.00000000000E+00 -0.45593999997E+02  0.45594000000E+02  0.51100000000E-03 0.  1.
    9900012    2    1    2    0    0 -0.91595280685E+01  0.84958478862E+01 -0.13949320867E+02  0.72462083777E+02  0.70000668903E+02 0.  0.
         12    1    1    2    0    0  0.91595280685E+01 -0.84958478862E+01  0.13949320867E+02  0.18725916223E+02  0.00000000000E+00 0. -1.
         11    1    3    3    0    0 -0.54743173488E+01  0.31171973527E+01  0.11406883234E+02  0.13030811761E+02  0.51100000000E-03 0. -1.
        -11    1    3    3    0    0  0.21623543643E+02  0.80867462217E+01  0.57777502185E+00  0.23093439076E+02  0.51100000000E-03 0.  1.
        -12    1    3    3    0    0 -0.25308754363E+02 -0.27080956882E+01 -0.25933979122E+02  0.36337832940E+02  0.00000000000E+00 0.  1.
</event>
<event>
 7    1  0.2797450E-013  0.7246171E+02  0.7816164E-02  0.1226708E+00
        -11   -1    0    0    0    0  0.00000000000E+00  0.00000000000E+00  0.45593999997E+02  0.45594000000E+02  0.51100000000E-03 0.  1.
         11   -1    0    0    0    0 -0.00000000000E+00 -0.00000000000E+00 -0.45593999997E+02  0.45594000000E+02  0.51100000000E-03 0. -1.
    9900012    2    1    2    0    0 -0.12204764318E+02  0.73268514928E+01  0.12166959875E+02  0.72461709992E+02  0.70000181982E+02 0.  0.
         12    1    1    2    0    0  0.12204764318E+02 -0.73268514928E+01 -0.12166959875E+02  0.18726290008E+02  0.00000000000E+00 0. -1.
         11    1    3    3    0    0  0.13590845392E+02  0.17631662877E+02 -0.18783441334E+01  0.22340877136E+02  0.51100000000E-03 0. -1.
        -11    1    3    3    0    0  0.71129685362E+01  0.45850197768E+01  0.10991058242E+02  0.13871556844E+02  0.51100000000E-03 0.  1.
         12    1    3    3    0    0 -0.32908578246E+02 -0.14889831161E+02  0.30542457670E+01  0.36249276012E+02  0.00000000000E+00 0. -1.
</event>
<event>
 7    1  0.2797450E-013  0.7246163E+02  0.7816164E-02  0.1226708E+00
        -11   -1    0    0    0    0  0.00000000000E+00  0.00000000000E+00  0.45593999997E+02  0.45594000000E+02  0.51100000000E-03 0. -1.
         11   -1    0    0    0    0 -0.00000000000E+00 -0.00000000000E+00 -0.45593999997E+02  0.45594000000E+02  0.51100000000E-03 0.  1.
    9900012    2    1    2    0    0 -0.87549612361E+00  0.90086298313E+01 -0.16393755142E+02  0.72461625216E+02  0.70000071545E+02 0.  0.
         12    1    1    2    0    0  0.87549612361E+00 -0.90086298313E+01  0.16393755142E+02  0.18726374784E+02  0.00000000000E+00 0. -1.
         11    1    3    3    0    0 -0.18683407384E+02  0.67492617513E+01  0.82657204608E+01  0.21516142328E+02  0.51100000000E-03 0. -1.
        -11    1    3    3    0    0  0.14862548156E+02  0.14057966328E+02 -0.31068645726E+02  0.37199227176E+02  0.51100000000E-03 0.  1.
         12    1    3    3    0    0  0.29453631042E+01 -0.11798598248E+02  0.64091701228E+01  0.13746255712E+02  0.00000000000E+00 0. -1.
</event>
<event>
 7    1  0.2797450E-013  0.7246155E+02  0.7816164E-02  0.1226708E+00
        -11   -1    0    0    0    0  0.00000000000E+00  0.00000000000E+00  0.45593999997E+02  0.45594000000E+02  0.51100000000E-03 0.  1.
         11   -1    0    0    0    0 -0.00000000000E+00 -0.00000000000E+00 -0.45593999997E+02  0.45594000000E+02  0.51100000000E-03 0. -1.
    9900012    2    1    2    0    0  0.87242730485E+01 -0.45141218067E+01  0.15943325686E+02  0.72461551596E+02  0.69999975642E+02 0.  0.
         12    1    1    2    0    0 -0.87242730485E+01  0.45141218067E+01 -0.15943325686E+02  0.18726448404E+02  0.00000000000E+00 0. -1.
         11    1    3    3    0    0  0.14141643969E+02 -0.24765299320E+01  0.10151782382E+02  0.17583457579E+02  0.51100000000E-03 0. -1.
        -11    1    3    3    0    0 -0.28453633279E+01  0.23789207538E+02  0.13884343106E+02  0.27691108167E+02  0.51100000000E-03 0.  1.
        -12    1    3    3    0    0 -0.25720075926E+01 -0.25826799413E+02 -0.80927998020E+01  0.27186985850E+02  0.00000000000E+00 0.  1.
</event>
<event>
 7    1  0.2797450E-013  0.7246156E+02  0.7816164E-02  0.1226708E+00
        -11   -1    0    0    0    0  0.00000000000E+00  0.00000000000E+00  0.45593999997E+02  0.45594000000E+02  0.51100000000E-03 0.  1.
         11   -1    0    0    0    0 -0.00000000000E+00 -0.00000000000E+00 -0.45593999997E+02  0.45594000000E+02  0.51100000000E-03 0. -1.
    9900012    2    1    2    0    0  0.12474924101E+02  0.48549296243E+00  0.13957794419E+02  0.72461562544E+02  0.69999989904E+02 0.  0.
         12    1    1    2    0    0 -0.12474924101E+02 -0.48549296243E+00 -0.13957794419E+02  0.18726437456E+02  0.00000000000E+00 0. -1.
         11    1    3    3    0    0  0.23152954968E+02 -0.14273621008E+02  0.21878810423E+02  0.34906703170E+02  0.51100000000E-03 0. -1.
        -11    1    3    3    0    0 -0.66249098863E+00  0.58399369394E+01  0.12102980066E+02  0.13454586002E+02  0.51100000000E-03 0.  1.
         12    1    3    3    0    0 -0.10015539878E+02  0.89191770313E+01 -0.20023996070E+02  0.24100273371E+02  0.00000000000E+00 0. -1.
</event>
<event>
 7    1  0.2797450E-013  0.7246157E+02  0.7816164E-02  0.1226708E+00
        -11   -1    0    0    0    0  0.00000000000E+00  0.00000000000E+00  0.45593999997E+02  0.45594000000E+02  0.51100000000E-03 0. -1.
         11   -1    0    0    0    0 -0.00000000000E+00 -0.00000000000E+00 -0.45593999997E+02  0.45594000000E+02  0.51100000000E-03 0.  1.
    9900012    2    1    2    0    0 -0.17404864757E+02 -0.15980740701E+01 -0.67227998646E+01  0.72461569589E+02  0.69999999081E+02 0.  0.
         12    1    1    2    0    0  0.17404864757E+02  0.15980740701E+01  0.67227998646E+01  0.18726430411E+02  0.00000000000E+00 0. -1.
         11    1    3    3    0    0 -0.10190761283E+02 -0.35306198897E+01 -0.78467156457E+00  0.10813537907E+02  0.51100000000E-03 0. -1.
        -11    1    3    3    0    0 -0.15246178807E+02  0.17574875890E+02 -0.26053832591E+02  0.34930279468E+02  0.51100000000E-03 0.  1.
         12    1    3    3    0    0  0.80320753334E+01 -0.15642330071E+02  0.20115704291E+02  0.26717752213E+02  0.00000000000E+00 0. -1.
</event>
<event>
 7    1  0.2797450E-013  0.7246156E+02  0.7816164E-02  0.1226708E+00
        -11   -1    0    0    0    0  0.00000000000E+00  0.00000000000E+00  0.45593999997E+02  0.45594000000E+02  0.51100000000E-03 0.  1.
         11   -1    0    0    0    0 -0.00000000000E+00 -0.00000000000E+00 -0.45593999997E+02  0.45594000000E+02  0.51100000000E-03 0. -1.
    9900012    2    1    2    0    0 -0.48770215065E+01 -0.15128415265E+02  0.99007701220E+01  0.72461560503E+02  0.69999987245E+02 0.  0.
         12    1    1    2    0    0  0.48770215065E+01  0.15128415265E+02 -0.99007701220E+01  0.18726439497E+02  0.00000000000E+00 0. -1.
         11    1    3    3    0    0 -0.17894568022E+02 -0.11411934948E+02  0.98163683220E+01  0.23383945588E+02  0.51100000000E-03 0. -1.
        -11    1    3    3    0    0  0.95346438280E+01 -0.25291010570E+02  0.22203042589E+01  0.27119631263E+02  0.51100000000E-03 0.  1.
         12    1    3    3    0    0  0.34829026873E+01  0.21574530253E+02 -0.21359024589E+01  0.21957983652E+02  0.00000000000E+00 0. -1.
</event>
<event>
 7    1  0.2797450E-013  0.7246129E+02  0.7816164E-02  0.1226709E+00
        -11   -1    0    0    0    0  0.00000000000E+00  0.00000000000E+00  0.45593999997E+02  0.45594000000E+02  0.51100000000E-03 0.  1.
         11   -1    0    0    0    0 -0.00000000000E+00 -0.00000000000E+00 -0.45593999997E+02  0.45594000000E+02  0.51100000000E-03 0. -1.
    9900012    2    1    2    0    0 -0.51224142405E+01 -0.28352894357E+01  0.17787961726E+02  0.72461292436E+02  0.69999638037E+02 0.  0.
         12    1    1    2    0    0  0.51224142405E+01  0.28352894357E+01 -0.17787961726E+02  0.18726707564E+02  0.00000000000E+00 0. -1.
         11    1    3    3    0    0 -0.36122213784E+01 -0.20360854040E+02  0.21128954819E+02  0.29564256333E+02  0.51100000000E-03 0. -1.
        -11    1    3    3    0    0  0.13129670908E+02 -0.64523597284E+01 -0.20618327625E+01  0.14774043415E+02  0.51100000000E-03 0.  1.
        -12    1    3    3    0    0 -0.14639863771E+02  0.23977924333E+02 -0.12791603307E+01  0.28122992687E+02  0.00000000000E+00 0.  1.
</event>
<event>
 7    1  0.2797450E-013  0.7246162E+02  0.7816164E-02  0.1226708E+00
        -11   -1    0    0    0    0  0.00000000000E+00  0.00000000000E+00  0.45593999997E+02  0.45594000000E+02  0.51100000000E-03 0.  1.
         11   -1    0    0    0    0 -0.00000000000E+00 -0.00000000000E+00 -0.45593999997E+02  0.45594000000E+02  0.51100000000E-03 0. -1.
    9900012    2    1    2    0    0 -0.14378806413E+02  0.93643034582E+01 -0.74991423294E+01  0.72461617840E+02  0.70000061938E+02 0.  0.
         12    1    1    2    0    0  0.14378806413E+02 -0.93643034582E+01  0.74991423294E+01  0.18726382160E+02  0.00000000000E+00 0. -1.
         11    1    3    3    0    0  0.15239859199E+02 -0.43474272752E+00  0.29560538829E+01  0.15529989197E+02  0.51100000000E-03 0.  1.
        -11    1    3    3    0    0 -0.38311901049E+02  0.13344806605E+02  0.28251815945E+01  0.40667767047E+02  0.51100000000E-03 0. -1.
         12    1    3    3    0    0  0.86932354379E+01 -0.35457604194E+01 -0.13280377807E+02  0.16263861596E+02  0.00000000000E+00 0. -1.
</event>
<event>
 7    1  0.2797450E-013  0.7246158E+02  0.7816164E-02  0.1226708E+00
        -11   -1    0    0    0    0  0.00000000000E+00  0.00000000000E+00  0.45593999997E+02  0.45594000000E+02  0.51100000000E-03 0. -1.
         11   -1    0    0    0    0 -0.00000000000E+00 -0.00000000000E+00 -0.45593999997E+02  0.45594000000E+02  0.51100000000E-03 0.  1.
    9900012    2    1    2    0    0 -0.14649943264E+02 -0.10896395346E+02 -0.41625205805E+01  0.72461578912E+02  0.70000011227E+02 0.  0.
         12    1    1    2    0    0  0.14649943264E+02  0.10896395346E+02  0.41625205805E+01  0.18726421088E+02  0.00000000000E+00 0. -1.
         11    1    3    3    0    0 -0.59727758424E+01 -0.18386176085E+02  0.17385035250E+02  0.25999326399E+02  0.51100000000E-03 0. -1.
        -11    1    3    3    0    0 -0.19892581240E+02 -0.15084224391E+01  0.71203544577E+00  0.19962392677E+02  0.51100000000E-03 0.  1.
         12    1    3    3    0    0  0.11215413819E+02  0.89982031783E+01 -0.22259591276E+02  0.26499859836E+02  0.00000000000E+00 0. -1.
</event>
<event>
 7    1  0.2797450E-013  0.7246160E+02  0.7816164E-02  0.1226708E+00
        -11   -1    0    0    0    0  0.00000000000E+00  0.00000000000E+00  0.45593999997E+02  0.45594000000E+02  0.51100000000E-03 0. -1.
         11   -1    0    0    0    0 -0.00000000000E+00 -0.00000000000E+00 -0.45593999997E+02  0.45594000000E+02  0.51100000000E-03 0.  1.
    9900012    2    1    2    0    0 -0.15708369467E+02 -0.90041158670E+01 -0.47802929749E+01  0.72461596854E+02  0.70000034599E+02 0.  0.
         12    1    1    2    0    0  0.15708369467E+02  0.90041158670E+01  0.47802929749E+01  0.18726403146E+02  0.00000000000E+00 0. -1.
         11    1    3    3    0    0  0.38843420600E+01 -0.16688982686E+02 -0.12461480010E+02  0.21187230603E+02  0.51100000000E-03 0. -1.
        -11    1    3    3    0    0  0.26938467015E+00 -0.22710777131E+01 -0.17525309404E+02  0.17673902570E+02  0.51100000000E-03 0.  1.
         12    1    3    3    0    0 -0.19862096197E+02  0.99559445323E+01  0.25206496439E+02  0.33600463681E+02  0.00000000000E+00 0. -1.
</event>
<event>
 7    1  0.2797450E-013  0.7246157E+02  0.7816164E-02  0.1226708E+00
        -11   -1    0    0    0    0  0.00000000000E+00  0.00000000000E+00  0.45593999997E+02  0.45594000000E+02  0.51100000000E-03 0. -1.
         11   -1    0    0    0    0 -0.00000000000E+00 -0.00000000000E+00 -0.45593999997E+02  0.45594000000E+02  0.51100000000E-03 0.  1.
    9900012    2    1    2    0    0  0.18194664815E+02  0.27728627493E+01  0.34560840052E+01  0.72461571825E+02  0.70000001994E+02 0.  0.
         12    1    1    2    0    0 -0.18194664815E+02 -0.27728627493E+01 -0.34560840052E+01  0.18726428175E+02  0.00000000000E+00 0. -1.
         11    1    3    3    0    0 -0.37659838658E+00 -0.95228566332E+01  0.18955940588E+02  0.21216840214E+02  0.51100000000E-03 0. -1.
        -11    1    3    3    0    0 -0.92072469229E+01 -0.14511812557E+01  0.80523870904E+01  0.12317477869E+02  0.51100000000E-03 0.  1.
        -12    1    3    3    0    0  0.27778510124E+02  0.13746900638E+02 -0.23552243673E+02  0.38927253742E+02  0.00000000000E+00 0.  1.
</event>
<event>
 7    1  0.2797450E-013  0.7246159E+02  0.7816164E-02  0.1226708E+00
        -11   -1    0    0    0    0  0.00000000000E+00  0.00000000000E+00  0.45593999997E+02  0.45594000000E+02  0.51100000000E-03 0. -1.
         11   -1    0    0    0    0 -0.00000000000E+00 -0.00000000000E+00 -0.45593999997E+02  0.45594000000E+02  0.51100000000E-03 0.  1.
    9900012    2    1    2    0    0  0.41885284226E+01 -0.83016954109E+01 -0.16254737106E+02  0.72461590963E+02  0.70000026925E+02 0.  0.
         12    1    1    2    0    0 -0.41885284226E+01  0.83016954109E+01  0.16254737106E+02  0.18726409037E+02  0.00000000000E+00 0. -1.
         11    1    3    3    0    0 -0.71221787116E+01 -0.26359987519E+02 -0.21142892889E+02  0.34533987485E+02  0.51100000000E-03 0. -1.
        -11    1    3    3    0    0 -0.50526523356E-01 -0.94448012097E-01  0.14467415411E+02  0.14467811939E+02  0.51100000000E-03 0.  1.
        -12    1    3    3    0    0  0.11361233658E+02  0.18152740120E+02 -0.95792596272E+01  0.23459791540E+02  0.00000000000E+00 0.  1.
</event>
<event>
 7    1  0.2797450E-013  0.7246155E+02  0.7816164E-02  0.1226708E+00
        -11   -1    0    0    0    0  0.00000000000E+00  0.00000000000E+00  0.45593999997E+02  0.45594000000E+02  0.51100000000E-03 0.  1.
         11   -1    0    0    0    0 -0.00000000000E+00 -0.00000000000E+00 -0.45593999997E+02  0.45594000000E+02  0.51100000000E-03 0. -1.
    9900012    2    1    2    0    0  0.18657340266E+02 -0.80293917520E+00  0.13924359264E+01  0.72461549858E+02  0.69999973378E+02 0.  0.
         12    1    1    2    0    0 -0.18657340266E+02  0.80293917520E+00 -0.13924359264E+01  0.18726450142E+02  0.00000000000E+00 0. -1.
         11    1    3    3    0    0 -0.13726445554E+02  0.16603958202E+02 -0.55175508279E+01  0.22238482478E+02  0.51100000000E-03 0. -1.
        -11    1    3    3    0    0  0.81368383017E+01 -0.32528059099E+01  0.18013091571E+02  0.20031484020E+02  0.51100000000E-03 0.  1.
        -12    1    3    3    0    0  0.24246947518E+02 -0.14154091467E+02 -0.11103104817E+02  0.30191583360E+02  0.00000000000E+00 0.  1.
</event>
<event>
 7    1  0.2797450E-013  0.7246148E+02  0.7816164E-02  0.1226708E+00
        -11   -1    0    0    0    0  0.00000000000E+00  0.00000000000E+00  0.45593999997E+02  0.45594000000E+02  0.51100000000E-03 0.  1.
         11   -1    0    0    0    0 -0.00000000000E+00 -0.00000000000E+00 -0.45593999997E+02  0.45594000000E+02  0.51100000000E-03 0. -1.
    9900012    2    1    2    0    0  0.67254404302E+01  0.17114554652E+02 -0.35415960760E+01  0.72461483167E+02  0.69999886501E+02 0.  0.
         12    1    1    2    0    0 -0.67254404302E+01 -0.17114554652E+02  0.35415960760E+01  0.18726516833E+02  0.00000000000E+00 0. -1.
         11    1    3    3    0    0 -0.22909292894E+01 -0.68883238284E+01  0.39541604218E+01  0.82663623848E+01  0.51100000000E-03 0. -1.
        -11    1    3    3    0    0 -0.99979155033E+01 -0.15639465330E+02 -0.80318876335E+01  0.20225291332E+02  0.51100000000E-03 0.  1.
        -12    1    3    3    0    0  0.19014285223E+02  0.39642343811E+02  0.53613113578E+00  0.43969829451E+02  0.00000000000E+00 0.  1.
</event>
<event>
 7    1  0.2797450E-013  0.7246164E+02  0.7816164E-02  0.1226708E+00
        -11   -1    0    0    0    0  0.00000000000E+00  0.00000000000E+00  0.45593999997E+02  0.45594000000E+02  0.51100000000E-03 0.  1.
         11   -1    0    0    0    0 -0.00000000000E+00 -0.00000000000E+00 -0.45593999997E+02  0.45594000000E+02  0.51100000000E-03 0. -1.
    9900012    2    1    2    0    0  0.12059455938E+02  0.94379066082E+01  0.10778313456E+02  0.72461638911E+02  0.70000089386E+02 0.  0.
         12    1    1    2    0    0 -0.12059455938E+02 -0.94379066082E+01 -0.10778313456E+02  0.18726361089E+02  0.00000000000E+00 0. -1.
         11    1    3    3    0    0 -0.14328014222E+02 -0.43982941000E+01  0.17655657477E+01  0.15091527597E+02  0.51100000000E-03 0. -1.
        -11    1    3    3    0    0  0.40451846920E+01 -0.15202085957E+02  0.13143478122E+02  0.20499218376E+02  0.51100000000E-03 0.  1.
         12    1    3    3    0    0  0.22342285468E+02  0.29038286665E+02 -0.41307304137E+01  0.36870892939E+02  0.00000000000E+00 0. -1.
</event>
<event>
 7    1  0.2797450E-013  0.7246152E+02  0.7816164E-02  0.1226708E+00
        -11   -1    0    0    0    0  0.00000000000E+00  0.00000000000E+00  0.45593999997E+02  0.45594000000E+02  0.51100000000E-03 0. -1.
         11   -1    0    0    0    0 -0.00000000000E+00 -0.00000000000E+00 -0.45593999997E+02  0.45594000000E+02  0.51100000000E-03 0.  1.
    9900012    2    1    2    0    0  0.40158609803E+01 -0.82119004149E+01 -0.16343766940E+02  0.72461516998E+02  0.69999930572E+02 0.  0.
         12    1    1    2    0    0 -0.40158609803E+01  0.82119004149E+01  0.16343766940E+02  0.18726483002E+02  0.00000000000E+00 0. -1.
         11    1    3    3    0    0 -0.18824742661E+02 -0.78622438155E+01  0.13670080367E+01  0.20446381717E+02  0.51100000000E-03 0. -1.
        -11    1    3    3    0    0  0.20345888488E+00  0.18660408206E+02 -0.11138322699E+02  0.21732796938E+02  0.51100000000E-03 0.  1.
         12    1    3    3    0    0  0.22637144757E+02 -0.19010064805E+02 -0.65724522771E+01  0.30282338344E+02  0.00000000000E+00 0. -1.
</event>
<event>
 7    1  0.2797450E-013  0.7246156E+02  0.7816164E-02  0.1226708E+00
        -11   -1    0    0    0    0  0.00000000000E+00  0.00000000000E+00  0.45593999997E+02  0.45594000000E+02  0.51100000000E-03 0.  1.
         11   -1    0    0    0    0 -0.00000000000E+00 -0.00000000000E+00 -0.45593999997E+02  0.45594000000E+02  0.51100000000E-03 0. -1.
    9900012    2    1    2    0    0 -0.30911414757E+01  0.18454346746E+02 -0.74932186807E+00  0.72461560064E+02  0.69999986673E+02 0.  0.
         12    1    1    2    0    0  0.30911414757E+01 -0.18454346746E+02  0.74932186807E+00  0.18726439936E+02  0.00000000000E+00 0. -1.
         11    1    3    3    0    0  0.14310026034E+02  0.80982643533E+01 -0.37583288870E+01  0.16866646582E+02  0.51100000000E-03 0. -1.
        -11    1    3    3    0    0  0.90954786719E+01  0.16316793468E+02  0.16810165160E+02  0.25130601551E+02  0.51100000000E-03 0.  1.
         12    1    3    3    0    0 -0.26496646182E+02 -0.59607110753E+01 -0.13801158141E+02  0.30464311931E+02  0.00000000000E+00 0. -1.
</event>
<event>
 7    1  0.2797450E-013  0.7246155E+02  0.7816164E-02  0.1226708E+00
        -11   -1    0    0    0    0  0.00000000000E+00  0.00000000000E+00  0.45593999997E+02  0.45594000000E+02  0.51100000000E-03 0.  1.
         11   -1    0    0    0    0 -0.00000000000E+00 -0.00000000000E+00 -0.45593999997E+02  0.45594000000E+02  0.51100000000E-03 0. -1.
    9900012    2    1    2    0    0 -0.18385950986E+02 -0.47900273810E+00 -0.35223883888E+01  0.72461551932E+02  0.69999976079E+02 0.  0.
         12    1    1    2    0    0  0.18385950986E+02  0.47900273810E+00  0.35223883888E+01  0.18726448068E+02  0.00000000000E+00 0. -1.
         11    1    3    3    0    0  0.13817078280E+02  0.14283001731E+02 -0.61235621773E+01  0.20794561901E+02  0.51100000000E-03 0. -1.
        -11    1    3    3    0    0 -0.27021681975E+02 -0.21376061408E+02 -0.10574288648E+02  0.36040572675E+02  0.51100000000E-03 0.  1.
        -12    1    3    3    0    0 -0.51813472917E+01  0.66140569388E+01  0.13175462437E+02  0.15626417356E+02  0.00000000000E+00 0.  1.
</event>
<event>
 7    1  0.2797450E-013  0.7246157E+02  0.7816164E-02  0.1226708E+00
        -11   -1    0    0    0    0  0.00000000000E+00  0.00000000000E+00  0.45593999997E+02  0.45594000000E+02  0.51100000000E-03 0.  1.
         11   -1    0    0    0    0 -0.00000000000E+00 -0.00000000000E+00 -0.45593999997E+02  0.45594000000E+02  0.51100000000E-03 0. -1.
    9900012    2    1    2    0    0  0.11930119197E+02 -0.14193074218E+02 -0.26283046630E+01  0.72461572545E+02  0.70000002932E+02 0.  0.
         12    1    1    2    0    0 -0.11930119197E+02  0.14193074218E+02  0.26283046630E+01  0.18726427455E+02  0.00000000000E+00 0. -1.
         11    1    3    3    0    0 -0.35254979137E+00 -0.12755794533E+01  0.22372190247E+01  0.25993352079E+01  0.51100000000E-03 0. -1.
        -11    1    3    3    0    0  0.37379610769E+02 -0.87427799724E+01  0.10932226465E+02  0.39914722580E+02  0.51100000000E-03 0.  1.
         12    1    3    3    0    0 -0.25096941780E+02 -0.41747147918E+01 -0.15797750153E+02  0.29947514758E+02  0.00000000000E+00 0. -1.
</event>
<event>
 7    1  0.2797450E-013  0.7246159E+02  0.7816164E-02  0.1226708E+00
        -11   -1    0    0    0    0  0.00000000000E+00  0.00000000000E+00  0.45593999997E+02  0.45594000000E+02  0.51100000000E-03 0.  1.
         11   -1    0    0    0    0 -0.00000000000E+00 -0.00000000000E+00 -0.45593999997E+02  0.45594000000E+02  0.51100000000E-03 0. -1.
    9900012    2    1    2    0    0  0.97675043491E+01 -0.15592859477E+02  0.34838410798E+01  0.72461586661E+02  0.70000021321E+02 0.  0.
         12    1    1    2    0    0 -0.97675043491E+01  0.15592859477E+02 -0.34838410798E+01  0.18726413339E+02  0.00000000000E+00 0. -1.
         11    1    3    3    0    0  0.21300110908E+02  0.16791706019E+02 -0.90704182544E+01  0.28599451101E+02  0.51100000000E-03 0. -1.
        -11    1    3    3    0    0  0.38007906928E+01 -0.20817381801E+02  0.12651055410E+02  0.24654788545E+02  0.51100000000E-03 0.  1.
        -12    1    3    3    0    0 -0.15333397252E+02 -0.11567183695E+02 -0.96796075454E-01  0.19207347016E+02  0.00000000000E+00 0.  1.
</event>
<event>
 7    1  0.2797450E-013  0.7246159E+02  0.7816164E-02  0.1226708E+00
        -11   -1    0    0    0    0  0.00000000000E+00  0.00000000000E+00  0.45593999997E+02  0.45594000000E+02  0.51100000000E-03 0. -1.
         11   -1    0    0    0    0 -0.00000000000E+00 -0.00000000000E+00 -0.45593999997E+02  0.45594000000E+02  0.51100000000E-03 0.  1.
    9900012    2    1    2    0    0  0.63818830101E+01 -0.17569174766E+02  0.11288263733E+01  0.72461585989E+02  0.70000020445E+02 0.  0.
         12    1    1    2    0    0 -0.63818830101E+01  0.17569174766E+02 -0.11288263733E+01  0.18726414011E+02  0.00000000000E+00 0. -1.
         11    1    3    3    0    0 -0.19557004631E+02  0.14632064309E+02 -0.13473318163E+02  0.27894516283E+02  0.51100000000E-03 0. -1.
        -11    1    3    3    0    0  0.78223831915E+01 -0.15366470103E+02  0.42639299822E+01  0.17762296624E+02  0.51100000000E-03 0.  1.
        -12    1    3    3    0    0  0.18116504449E+02 -0.16834768973E+02  0.10338214554E+02  0.26804773082E+02  0.00000000000E+00 0.  1.
</event>
<event>
 7    1  0.2797450E-013  0.7246156E+02  0.7816164E-02  0.1226708E+00
        -11   -1    0    0    0    0  0.00000000000E+00  0.00000000000E+00  0.45593999997E+02  0.45594000000E+02  0.51100000000E-03 0. -1.
         11   -1    0    0    0    0 -0.00000000000E+00 -0.00000000000E+00 -0.45593999997E+02  0.45594000000E+02  0.51100000000E-03 0.  1.
    9900012    2    1    2    0    0 -0.66988908771E+01  0.10777811208E+02 -0.13771099017E+02  0.72461560895E+02  0.69999987756E+02 0.  0.
         12    1    1    2    0    0  0.66988908771E+01 -0.10777811208E+02  0.13771099017E+02  0.18726439105E+02  0.00000000000E+00 0. -1.
         11    1    3    3    0    0  0.81342491915E+01  0.23713690116E+02  0.94651727935E+01  0.26797287271E+02  0.51100000000E-03 0. -1.
        -11    1    3    3    0    0  0.75807082740E+01  0.60204480324E+01 -0.35113857715E+01  0.10297706674E+02  0.51100000000E-03 0.  1.
         12    1    3    3    0    0 -0.22413848343E+02 -0.18956326940E+02 -0.19724886039E+02  0.35366566950E+02  0.00000000000E+00 0. -1.
</event>
<event>
 7    1  0.2797450E-013  0.7246157E+02  0.7816164E-02  0.1226708E+00
        -11   -1    0    0    0    0  0.00000000000E+00  0.00000000000E+00  0.45593999997E+02  0.45594000000E+02  0.51100000000E-03 0. -1.
         11   -1    0    0    0    0 -0.00000000000E+00 -0.00000000000E+00 -0.45593999997E+02  0.45594000000E+02  0.51100000000E-03 0.  1.
    9900012    2    1    2    0    0 -0.89126456721E+01  0.11665586498E+02 -0.11625756005E+02  0.72461565104E+02  0.69999993239E+02 0.  0.
         12    1    1    2    0    0  0.89126456721E+01 -0.11665586498E+02  0.11625756005E+02  0.18726434896E+02  0.00000000000E+00 0. -1.
         11    1    3    3    0    0  0.83670791181E+01  0.13536139328E+02  0.11602067784E+02  0.19693731439E+02  0.51100000000E-03 0. -1.
        -11    1    3    3    0    0  0.25367253188E+01  0.12447413824E+02 -0.25220336954E+02  0.28238953284E+02  0.51100000000E-03 0.  1.
        -12    1    3    3    0    0 -0.19816450109E+02 -0.14317966654E+02  0.19925131643E+01  0.24528880381E+02  0.00000000000E+00 0.  1.
</event>
<event>
 7    1  0.2797450E-013  0.7246157E+02  0.7816164E-02  0.1226708E+00
        -11   -1    0    0    0    0  0.00000000000E+00  0.00000000000E+00  0.45593999997E+02  0.45594000000E+02  0.51100000000E-03 0.  1.
         11   -1    0    0    0    0 -0.00000000000E+00 -0.00000000000E+00 -0.45593999997E+02  0.45594000000E+02  0.51100000000E-03 0. -1.
    9900012    2    1    2    0    0  0.59809931508E+01 -0.16240877689E+02 -0.71512794666E+01  0.72461569876E+02  0.69999999455E+02 0.  0.
         12    1    1    2    0    0 -0.59809931508E+01  0.16240877689E+02  0.71512794666E+01  0.18726430124E+02  0.00000000000E+00 0. -1.
         11    1    3    3    0    0  0.60231199042E+00 -0.54521472404E+01 -0.20054226397E+02  0.20790879874E+02  0.51100000000E-03 0. -1.
        -11    1    3    3    0    0 -0.74424738245E+01  0.15865192748E+02  0.13446369385E+02  0.22088449639E+02  0.51100000000E-03 0.  1.
         12    1    3    3    0    0  0.12821154985E+02 -0.26653923197E+02 -0.54342245381E+00  0.29582240363E+02  0.00000000000E+00 0. -1.
</event>
<event>
 7    1  0.2797450E-013  0.7246158E+02  0.7816164E-02  0.1226708E+00
        -11   -1    0    0    0    0  0.00000000000E+00  0.00000000000E+00  0.45593999997E+02  0.45594000000E+02  0.51100000000E-03 0.  1.
         11   -1    0    0    0    0 -0.00000000000E+00 -0.00000000000E+00 -0.45593999997E+02  0.45594000000E+02  0.51100000000E-03 0. -1.
    9900012    2    1    2    0    0 -0.43103196742E+01  0.50442104084E+01  0.17511595777E+02  0.72461577464E+02  0.70000009340E+02 0.  0.
         12    1    1    2    0    0  0.43103196742E+01 -0.50442104084E+01 -0.17511595777E+02  0.18726422536E+02  0.00000000000E+00 0. -1.
         11    1    3    3    0    0  0.28029547076E+02  0.17842594491E+00 -0.37286104857E+01  0.28277020379E+02  0.51100000000E-03 0. -1.
        -11    1    3    3    0    0 -0.28734286207E+01  0.15216697558E+01 -0.40611098800E+01  0.52023729780E+01  0.51100000000E-03 0.  1.
         12    1    3    3    0    0 -0.29466438129E+02  0.33441147077E+01  0.25301316142E+02  0.38982184107E+02  0.00000000000E+00 0. -1.
</event>
<event>
 7    1  0.2797450E-013  0.7246154E+02  0.7816164E-02  0.1226708E+00
        -11   -1    0    0    0    0  0.00000000000E+00  0.00000000000E+00  0.45593999997E+02  0.45594000000E+02  0.51100000000E-03 0.  1.
         11   -1    0    0    0    0 -0.00000000000E+00 -0.00000000000E+00 -0.45593999997E+02  0.45594000000E+02  0.51100000000E-03 0. -1.
    9900012    2    1    2    0    0 -0.14640598884E+02 -0.11449950767E+02  0.22872926140E+01  0.72461542360E+02  0.69999963611E+02 0.  0.
         12    1    1    2    0    0  0.14640598884E+02  0.11449950767E+02 -0.22872926140E+01  0.18726457640E+02  0.00000000000E+00 0. -1.
         11    1    3    3    0    0  0.24916145052E+01  0.37400349574E+01  0.21504657534E+02  0.21969212554E+02  0.51100000000E-03 0. -1.
        -11    1    3    3    0    0 -0.10532113689E+02 -0.59228701247E+01  0.12143820024E+02  0.17131204695E+02  0.51100000000E-03 0.  1.
         12    1    3    3    0    0 -0.66000996995E+01 -0.92671155996E+01 -0.31361184944E+02  0.33361125111E+02  0.00000000000E+00 0. -1.
</event>
<event>
 7    1  0.2797450E-013  0.7246162E+02  0.7816164E-02  0.1226708E+00
        -11   -1    0    0    0    0  0.00000000000E+00  0.00000000000E+00  0.45593999997E+02  0.45594000000E+02  0.51100000000E-03 0.  1.
         11   -1    0    0    0    0 -0.00000000000E+00 -0.00000000000E+00 -0.45593999997E+02  0.45594000000E+02  0.51100000000E-03 0. -1.
    9900012    2    1    2    0    0 -0.35280647205E+01  0.18292005260E+02  0.19059491613E+01  0.72461619162E+02  0.70000063659E+02 0.  0.
         12    1    1    2    0    0  0.35280647205E+01 -0.18292005260E+02 -0.19059491613E+01  0.18726380838E+02  0.00000000000E+00 0. -1.
         11    1    3    3    0    0  0.10791109618E+02  0.24766825686E+02 -0.23731433797E+02  0.35958651973E+02  0.51100000000E-03 0. -1.
        -11    1    3    3    0    0  0.41003297364E+01  0.27718179702E+01  0.78424707369E+01  0.92736199149E+01  0.51100000000E-03 0.  1.
        -12    1    3    3    0    0 -0.18419504075E+02 -0.92466383964E+01  0.17794912222E+02  0.27229347274E+02  0.00000000000E+00 0.  1.
</event>
<event>
 7    1  0.2797450E-013  0.7246155E+02  0.7816164E-02  0.1226708E+00
        -11   -1    0    0    0    0  0.00000000000E+00  0.00000000000E+00  0.45593999997E+02  0.45594000000E+02  0.51100000000E-03 0.  1.
         11   -1    0    0    0    0 -0.00000000000E+00 -0.00000000000E+00 -0.45593999997E+02  0.45594000000E+02  0.51100000000E-03 0. -1.
    9900012    2    1    2    0    0  0.80128201635E+01  0.11696021650E+02  0.12234291663E+02  0.72461545399E+02  0.69999967569E+02 0.  0.
         12    1    1    2    0    0 -0.80128201635E+01 -0.11696021650E+02 -0.12234291663E+02  0.18726454601E+02  0.00000000000E+00 0. -1.
         11    1    3    3    0    0 -0.40709262890E+01 -0.41078153741E+01  0.87412579448E+00  0.58489900124E+01  0.51100000000E-03 0. -1.
        -11    1    3    3    0    0  0.73310873540E+01 -0.20404639700E+02  0.19541341362E+02  0.29188322761E+02  0.51100000000E-03 0.  1.
         12    1    3    3    0    0  0.47526590986E+01  0.36208476724E+02 -0.81811754938E+01  0.37424232626E+02  0.00000000000E+00 0. -1.
</event>
<event>
 7    1  0.2797450E-013  0.7246155E+02  0.7816164E-02  0.1226708E+00
        -11   -1    0    0    0    0  0.00000000000E+00  0.00000000000E+00  0.45593999997E+02  0.45594000000E+02  0.51100000000E-03 0. -1.
         11   -1    0    0    0    0 -0.00000000000E+00 -0.00000000000E+00 -0.45593999997E+02  0.45594000000E+02  0.51100000000E-03 0.  1.
    9900012    2    1    2    0    0  0.13042837557E+02 -0.84214779685E+00 -0.13411009452E+02  0.72461548148E+02  0.69999971150E+02 0.  0.
         12    1    1    2    0    0 -0.13042837557E+02  0.84214779685E+00  0.13411009452E+02  0.18726451852E+02  0.00000000000E+00 0. -1.
         11    1    3    3    0    0  0.11326436232E+02  0.15462761145E+02 -0.91824134723E+01  0.21253278745E+02  0.51100000000E-03 0. -1.
        -11    1    3    3    0    0  0.14070524279E+02  0.12559570908E+02  0.27078582075E+01  0.19054001449E+02  0.51100000000E-03 0.  1.
        -12    1    3    3    0    0 -0.12354122955E+02 -0.28864479850E+02 -0.69364541870E+01  0.32154267954E+02  0.00000000000E+00 0.  1.
</event>
<event>
 7    1  0.2797450E-013  0.7246142E+02  0.7816164E-02  0.1226708E+00
        -11   -1    0    0    0    0  0.00000000000E+00  0.00000000000E+00  0.45593999997E+02  0.45594000000E+02  0.51100000000E-03 0. -1.
         11   -1    0    0    0    0 -0.00000000000E+00 -0.00000000000E+00 -0.45593999997E+02  0.45594000000E+02  0.51100000000E-03 0.  1.
    9900012    2    1    2    0    0 -0.54141870051E+01 -0.17753363908E+02 -0.24878562306E+01  0.72461420504E+02  0.69999804870E+02 0.  0.
         12    1    1    2    0    0  0.54141870051E+01  0.17753363908E+02  0.24878562306E+01  0.18726579496E+02  0.00000000000E+00 0. -1.
         11    1    3    3    0    0 -0.42636306874E+00  0.52220284512E+01 -0.10741711405E+02  0.11951390328E+02  0.51100000000E-03 0. -1.
        -11    1    3    3    0    0 -0.30107680221E+02 -0.10441923012E+02  0.47546354247E+01  0.32219756715E+02  0.51100000000E-03 0.  1.
        -12    1    3    3    0    0  0.25119856285E+02 -0.12533469347E+02  0.34992197497E+01  0.28290273461E+02  0.00000000000E+00 0.  1.
</event>
<event>
 7    1  0.2797450E-013  0.7246157E+02  0.7816164E-02  0.1226708E+00
        -11   -1    0    0    0    0  0.00000000000E+00  0.00000000000E+00  0.45593999997E+02  0.45594000000E+02  0.51100000000E-03 0.  1.
         11   -1    0    0    0    0 -0.00000000000E+00 -0.00000000000E+00 -0.45593999997E+02  0.45594000000E+02  0.51100000000E-03 0. -1.
    9900012    2    1    2    0    0  0.50307351026E+01  0.63493421835E+00  0.18026858666E+02  0.72461572938E+02  0.70000003444E+02 0.  0.
         12    1    1    2    0    0 -0.50307351026E+01 -0.63493421835E+00 -0.18026858666E+02  0.18726427062E+02  0.00000000000E+00 0. -1.
         11    1    3    3    0    0  0.51858381420E+01 -0.11847827777E+02 -0.28054195614E+01  0.13233832380E+02  0.51100000000E-03 0. -1.
        -11    1    3    3    0    0  0.23225223922E+02  0.34662590563E+01 -0.41466510211E+01  0.23845768871E+02  0.51100000000E-03 0.  1.
         12    1    3    3    0    0 -0.23380326962E+02  0.90165029395E+01  0.24978929249E+02  0.35381971688E+02  0.00000000000E+00 0. -1.
</event>
<event>
 7    1  0.2797450E-013  0.7246157E+02  0.7816164E-02  0.1226708E+00
        -11   -1    0    0    0    0  0.00000000000E+00  0.00000000000E+00  0.45593999997E+02  0.45594000000E+02  0.51100000000E-03 0. -1.
         11   -1    0    0    0    0 -0.00000000000E+00 -0.00000000000E+00 -0.45593999997E+02  0.45594000000E+02  0.51100000000E-03 0.  1.
    9900012    2    1    2    0    0  0.16742392774E+02 -0.69536481055E+01 -0.46923586677E+01  0.72461570345E+02  0.70000000066E+02 0.  0.
         12    1    1    2    0    0 -0.16742392774E+02  0.69536481055E+01  0.46923586677E+01  0.18726429655E+02  0.00000000000E+00 0. -1.
         11    1    3    3    0    0  0.12008044965E+02 -0.11404720824E+02  0.16698010440E+02  0.23517745510E+02  0.51100000000E-03 0. -1.
        -11    1    3    3    0    0  0.21807089304E+02 -0.74339322866E+01 -0.90250442086E+01  0.24743967272E+02  0.51100000000E-03 0.  1.
        -12    1    3    3    0    0 -0.17072741495E+02  0.11885005006E+02 -0.12365324899E+02  0.24199857562E+02  0.00000000000E+00 0.  1.
</event>
<event>
 7    1  0.2797450E-013  0.7246155E+02  0.7816164E-02  0.1226708E+00
        -11   -1    0    0    0    0  0.00000000000E+00  0.00000000000E+00  0.45593999997E+02  0.45594000000E+02  0.51100000000E-03 0. -1.
         11   -1    0    0    0    0 -0.00000000000E+00 -0.00000000000E+00 -0.45593999997E+02  0.45594000000E+02  0.51100000000E-03 0.  1.
    9900012    2    1    2    0    0 -0.13910114401E+02  0.12248826171E+02 -0.26748860130E+01  0.72461547042E+02  0.69999969709E+02 0.  0.
         12    1    1    2    0    0  0.13910114401E+02 -0.12248826171E+02  0.26748860130E+01  0.18726452958E+02  0.00000000000E+00 0. -1.
         11    1    3    3    0    0  0.78458071615E+01 -0.21286608520E+02  0.12534717516E+02  0.25919018804E+02  0.51100000000E-03 0. -1.
        -11    1    3    3    0    0 -0.42847207774E+00  0.33818419776E+01 -0.82936337912E+01  0.89668726547E+01  0.51100000000E-03 0.  1.
        -12    1    3    3    0    0 -0.21327449485E+02  0.30153592714E+02 -0.69159697379E+01  0.37575655583E+02  0.00000000000E+00 0.  1.
</event>
<event>
 7    1  0.2797450E-013  0.7246152E+02  0.7816164E-02  0.1226708E+00
        -11   -1    0    0    0    0  0.00000000000E+00  0.00000000000E+00  0.45593999997E+02  0.45594000000E+02  0.51100000000E-03 0.  1.
         11   -1    0    0    0    0 -0.00000000000E+00 -0.00000000000E+00 -0.45593999997E+02  0.45594000000E+02  0.51100000000E-03 0. -1.
    9900012    2    1    2    0    0 -0.15571528777E+02  0.89301522971E+01  0.53348768667E+01  0.72461520361E+02  0.69999934953E+02 0.  0.
         12    1    1    2    0    0  0.15571528777E+02 -0.89301522971E+01 -0.53348768667E+01  0.18726479639E+02  0.00000000000E+00 0. -1.
         11    1    3    3    0    0 -0.95132882391E+00 -0.47035535484E+00  0.10401014376E+01  0.14859582608E+01  0.51100000000E-03 0. -1.
        -11    1    3    3    0    0 -0.39458218117E+02 -0.81833082741E+01  0.44514513113E+01  0.40542976338E+02  0.51100000000E-03 0.  1.
         12    1    3    3    0    0  0.24838018164E+02  0.17583815926E+02 -0.15667588226E+00  0.30432585762E+02  0.00000000000E+00 0. -1.
</event>
<event>
 7    1  0.2797450E-013  0.7246156E+02  0.7816164E-02  0.1226708E+00
        -11   -1    0    0    0    0  0.00000000000E+00  0.00000000000E+00  0.45593999997E+02  0.45594000000E+02  0.51100000000E-03 0.  1.
         11   -1    0    0    0    0 -0.00000000000E+00 -0.00000000000E+00 -0.45593999997E+02  0.45594000000E+02  0.51100000000E-03 0. -1.
    9900012    2    1    2    0    0 -0.24438097035E+01 -0.98848759681E+01  0.15716125071E+02  0.72461559708E+02  0.69999986209E+02 0.  0.
         12    1    1    2    0    0  0.24438097035E+01  0.98848759681E+01 -0.15716125071E+02  0.18726440292E+02  0.00000000000E+00 0. -1.
         11    1    3    3    0    0 -0.13150005978E+02 -0.33849827584E+01  0.62017033260E+01  0.14927889666E+02  0.51100000000E-03 0. -1.
        -11    1    3    3    0    0 -0.45181719915E+01 -0.10810479886E+02  0.29675589159E+02  0.31904873385E+02  0.51100000000E-03 0.  1.
        -12    1    3    3    0    0  0.15224368266E+02  0.43105866764E+01 -0.20161167414E+02  0.25628796657E+02  0.00000000000E+00 0.  1.
</event>
<event>
 7    1  0.2797450E-013  0.7246162E+02  0.7816164E-02  0.1226708E+00
        -11   -1    0    0    0    0  0.00000000000E+00  0.00000000000E+00  0.45593999997E+02  0.45594000000E+02  0.51100000000E-03 0.  1.
         11   -1    0    0    0    0 -0.00000000000E+00 -0.00000000000E+00 -0.45593999997E+02  0.45594000000E+02  0.51100000000E-03 0. -1.
    9900012    2    1    2    0    0  0.72974608205E+01  0.31058788924E+01  0.16964022406E+02  0.72461615557E+02  0.70000058963E+02 0.  0.
         12    1    1    2    0    0 -0.72974608205E+01 -0.31058788924E+01 -0.16964022406E+02  0.18726384443E+02  0.00000000000E+00 0. -1.
         11    1    3    3    0    0  0.99707241341E+01  0.11234923383E+02 -0.63584673719E+01  0.16311620114E+02  0.51100000000E-03 0. -1.
        -11    1    3    3    0    0 -0.13079489646E+02  0.90090455119E+01  0.30878500910E+02  0.34723446965E+02  0.51100000000E-03 0.  1.
         12    1    3    3    0    0  0.10406226332E+02 -0.17138090002E+02 -0.75560111322E+01  0.21426548477E+02  0.00000000000E+00 0. -1.
</event>
<event>
 7    1  0.2797450E-013  0.7246158E+02  0.7816164E-02  0.1226708E+00
        -11   -1    0    0    0    0  0.00000000000E+00  0.00000000000E+00  0.45593999997E+02  0.45594000000E+02  0.51100000000E-03 0.  1.
         11   -1    0    0    0    0 -0.00000000000E+00 -0.00000000000E+00 -0.45593999997E+02  0.45594000000E+02  0.51100000000E-03 0. -1.
    9900012    2    1    2    0    0 -0.17015132591E+02  0.72912092324E+01 -0.28288644454E+01  0.72461576337E+02  0.70000007872E+02 0.  0.
         12    1    1    2    0    0  0.17015132591E+02 -0.72912092324E+01  0.28288644454E+01  0.18726423663E+02  0.00000000000E+00 0. -1.
         11    1    3    3    0    0 -0.56193742963E+01 -0.12398267147E+02 -0.26751661172E+01  0.13872667723E+02  0.51100000000E-03 0. -1.
        -11    1    3    3    0    0 -0.18910902093E+01 -0.17411411134E+02  0.82797758643E+01  0.19372355264E+02  0.51100000000E-03 0.  1.
         12    1    3    3    0    0 -0.95046680853E+01  0.37100887513E+02 -0.84334741925E+01  0.39216553350E+02  0.00000000000E+00 0. -1.
</event>
<event>
 7    1  0.2797450E-013  0.7246156E+02  0.7816164E-02  0.1226708E+00
        -11   -1    0    0    0    0  0.00000000000E+00  0.00000000000E+00  0.45593999997E+02  0.45594000000E+02  0.51100000000E-03 0.  1.
         11   -1    0    0    0    0 -0.00000000000E+00 -0.00000000000E+00 -0.45593999997E+02  0.45594000000E+02  0.51100000000E-03 0. -1.
    9900012    2    1    2    0    0 -0.16891537944E+02 -0.63368853174E+01 -0.50199168804E+01  0.72461555192E+02  0.69999980327E+02 0.  0.
         12    1    1    2    0    0  0.16891537944E+02  0.63368853174E+01  0.50199168804E+01  0.18726444808E+02  0.00000000000E+00 0. -1.
         11    1    3    3    0    0  0.37552791931E+01  0.23491924985E+01 -0.16012012210E+01  0.47100608090E+01  0.51100000000E-03 0. -1.
        -11    1    3    3    0    0 -0.16133230394E+02  0.26417427244E+02  0.50410713609E+01  0.31361983131E+02  0.51100000000E-03 0.  1.
        -12    1    3    3    0    0 -0.45135867427E+01 -0.35103505060E+02 -0.84597870204E+01  0.36389511253E+02  0.00000000000E+00 0.  1.
</event>
<event>
 7    1  0.2797450E-013  0.7246155E+02  0.7816164E-02  0.1226708E+00
        -11   -1    0    0    0    0  0.00000000000E+00  0.00000000000E+00  0.45593999997E+02  0.45594000000E+02  0.51100000000E-03 0.  1.
         11   -1    0    0    0    0 -0.00000000000E+00 -0.00000000000E+00 -0.45593999997E+02  0.45594000000E+02  0.51100000000E-03 0. -1.
    9900012    2    1    2    0    0  0.84426975354E+00 -0.17270672882E+02 -0.71896433663E+01  0.72461550658E+02  0.69999974420E+02 0.  0.
         12    1    1    2    0    0 -0.84426975354E+00  0.17270672882E+02  0.71896433663E+01  0.18726449342E+02  0.00000000000E+00 0. -1.
         11    1    3    3    0    0  0.11087594270E+02 -0.24814628061E+02 -0.15104219474E+02  0.31094018053E+02  0.51100000000E-03 0. -1.
        -11    1    3    3    0    0 -0.14857807968E+02 -0.11753261320E+02  0.99915340679E+01  0.21417851493E+02  0.51100000000E-03 0.  1.
        -12    1    3    3    0    0  0.46144834511E+01  0.19297216499E+02 -0.20769579606E+01  0.19949681112E+02  0.00000000000E+00 0.  1.
</event>
<event>
 7    1  0.2797450E-013  0.7246155E+02  0.7816164E-02  0.1226708E+00
        -11   -1    0    0    0    0  0.00000000000E+00  0.00000000000E+00  0.45593999997E+02  0.45594000000E+02  0.51100000000E-03 0. -1.
         11   -1    0    0    0    0 -0.00000000000E+00 -0.00000000000E+00 -0.45593999997E+02  0.45594000000E+02  0.51100000000E-03 0.  1.
    9900012    2    1    2    0    0 -0.37885284744E+01  0.18260972499E+02 -0.16922786316E+01  0.72461551550E+02  0.69999975582E+02 0.  0.
         12    1    1    2    0    0  0.37885284744E+01 -0.18260972499E+02  0.16922786316E+01  0.18726448450E+02  0.00000000000E+00 0. -1.
         11    1    3    3    0    0 -0.11829891585E+02  0.19267901936E+02 -0.13365827451E+02  0.26264876235E+02  0.51100000000E-03 0. -1.
        -11    1    3    3    0    0 -0.46966334738E+01 -0.80905636431E+01 -0.13903792123E+02  0.16758013657E+02  0.51100000000E-03 0.  1.
         12    1    3    3    0    0  0.12737996584E+02  0.70836342060E+01  0.25577340943E+02  0.29438661658E+02  0.00000000000E+00 0. -1.
</event>
<event>
 7    1  0.2797450E-013  0.7246166E+02  0.7816164E-02  0.1226708E+00
        -11   -1    0    0    0    0  0.00000000000E+00  0.00000000000E+00  0.45593999997E+02  0.45594000000E+02  0.51100000000E-03 0. -1.
         11   -1    0    0    0    0 -0.00000000000E+00 -0.00000000000E+00 -0.45593999997E+02  0.45594000000E+02  0.51100000000E-03 0.  1.
    9900012    2    1    2    0    0 -0.10125295675E+02  0.37405268730E+01 -0.15302370498E+02  0.72461663021E+02  0.70000120793E+02 0.  0.
         12    1    1    2    0    0  0.10125295675E+02 -0.37405268730E+01  0.15302370498E+02  0.18726336979E+02  0.00000000000E+00 0. -1.
         11    1    3    3    0    0 -0.12936086572E+02 -0.41138512770E+00  0.11938242217E+02  0.17607759682E+02  0.51100000000E-03 0. -1.
        -11    1    3    3    0    0  0.17783854419E+02 -0.10815518473E+02 -0.59692830612E+00  0.20822997899E+02  0.51100000000E-03 0.  1.
        -12    1    3    3    0    0 -0.14973063523E+02  0.14967430473E+02 -0.26643684409E+02  0.34030905441E+02  0.00000000000E+00 0.  1.
</event>
<event>
 7    1  0.2797450E-013  0.7246162E+02  0.7816164E-02  0.1226708E+00
        -11   -1    0    0    0    0  0.00000000000E+00  0.00000000000E+00  0.45593999997E+02  0.45594000000E+02  0.51100000000E-03 0.  1.
         11   -1    0    0    0    0 -0.00000000000E+00 -0.00000000000E+00 -0.45593999997E+02  0.45594000000E+02  0.51100000000E-03 0. -1.
    9900012    2    1    2    0    0  0.94134567080E+01  0.19198420208E+01  0.16074152595E+02  0.72461619083E+02  0.70000063557E+02 0.  0.
         12    1    1    2    0    0 -0.94134567080E+01 -0.19198420208E+01 -0.16074152595E+02  0.18726380917E+02  0.00000000000E+00 0. -1.
         11    1    3    3    0    0 -0.11490529934E+02 -0.65799553958E+01  0.71144801553E+01  0.15031431047E+02  0.51100000000E-03 0. -1.
        -11    1    3    3    0    0  0.16466890761E+02 -0.17278333342E+02 -0.92077192794E+01  0.25582833874E+02  0.51100000000E-03 0.  1.
        -12    1    3    3    0    0  0.44370958801E+01  0.25778130759E+02  0.18167391720E+02  0.31847354163E+02  0.00000000000E+00 0.  1.
</event>
<event>
 7    1  0.2797450E-013  0.7246155E+02  0.7816164E-02  0.1226708E+00
        -11   -1    0    0    0    0  0.00000000000E+00  0.00000000000E+00  0.45593999997E+02  0.45594000000E+02  0.51100000000E-03 0. -1.
         11   -1    0    0    0    0 -0.00000000000E+00 -0.00000000000E+00 -0.45593999997E+02  0.45594000000E+02  0.51100000000E-03 0.  1.
    9900012    2    1    2    0    0  0.14705592980E+02  0.40724759787E+01 -0.10855426840E+02  0.72461552997E+02  0.69999977467E+02 0.  0.
         12    1    1    2    0    0 -0.14705592980E+02 -0.40724759787E+01  0.10855426840E+02  0.18726447003E+02  0.00000000000E+00 0. -1.
         11    1    3    3    0    0  0.15651020665E+02  0.24281764202E+01  0.11348318236E+02  0.19484219657E+02  0.51100000000E-03 0. -1.
        -11    1    3    3    0    0  0.10333632823E+02  0.18799080738E+02  0.16376035311E+01  0.21514440488E+02  0.51100000000E-03 0.  1.
        -12    1    3    3    0    0 -0.11279060507E+02 -0.17154781180E+02 -0.23841348607E+02  0.31462892852E+02  0.00000000000E+00 0.  1.
</event>
<event>
 7    1  0.2797450E-013  0.7246157E+02  0.7816164E-02  0.1226708E+00
        -11   -1    0    0    0    0  0.00000000000E+00  0.00000000000E+00  0.45593999997E+02  0.45594000000E+02  0.51100000000E-03 0. -1.
         11   -1    0    0    0    0 -0.00000000000E+00 -0.00000000000E+00 -0.45593999997E+02  0.45594000000E+02  0.51100000000E-03 0.  1.
    9900012    2    1    2    0    0 -0.48726037740E+01  0.16115986746E+02 -0.81982942633E+01  0.72461566138E+02  0.69999994586E+02 0.  0.
         12    1    1    2    0    0  0.48726037740E+01 -0.16115986746E+02  0.81982942633E+01  0.18726433862E+02  0.00000000000E+00 0. -1.
         11    1    3    3    0    0  0.15384118559E+02  0.10057191447E+02  0.23146113402E+02  0.29556061468E+02  0.51100000000E-03 0. -1.
        -11    1    3    3    0    0  0.10414538269E+01 -0.44778776824E+01 -0.16737548614E+01  0.48925934032E+01  0.51100000000E-03 0.  1.
         12    1    3    3    0    0 -0.21298176160E+02  0.10536672981E+02 -0.29670652803E+02  0.38012911267E+02  0.00000000000E+00 0. -1.
</event>
<event>
 7    1  0.2797450E-013  0.7246154E+02  0.7816164E-02  0.1226708E+00
        -11   -1    0    0    0    0  0.00000000000E+00  0.00000000000E+00  0.45593999997E+02  0.45594000000E+02  0.51100000000E-03 0.  1.
         11   -1    0    0    0    0 -0.00000000000E+00 -0.00000000000E+00 -0.45593999997E+02  0.45594000000E+02  0.51100000000E-03 0. -1.
    9900012    2    1    2    0    0  0.15793506728E+02 -0.88237694909E+01  0.48359500388E+01  0.72461543433E+02  0.69999965007E+02 0.  0.
         12    1    1    2    0    0 -0.15793506728E+02  0.88237694909E+01 -0.48359500388E+01  0.18726456567E+02  0.00000000000E+00 0. -1.
         11    1    3    3    0    0 -0.16917695005E+01  0.10793396656E+02 -0.85463093491E+01  0.13870793026E+02  0.51100000000E-03 0. -1.
        -11    1    3    3    0    0  0.61225929940E+01  0.17318717023E+02  0.34446325313E+01  0.18689290993E+02  0.51100000000E-03 0.  1.
        -12    1    3    3    0    0  0.11362683234E+02 -0.36935883170E+02  0.99376268566E+01  0.39901459414E+02  0.00000000000E+00 0.  1.
</event>
<event>
 7    1  0.2797450E-013  0.7246163E+02  0.7816164E-02  0.1226708E+00
        -11   -1    0    0    0    0  0.00000000000E+00  0.00000000000E+00  0.45593999997E+02  0.45594000000E+02  0.51100000000E-03 0.  1.
         11   -1    0    0    0    0 -0.00000000000E+00 -0.00000000000E+00 -0.45593999997E+02  0.45594000000E+02  0.51100000000E-03 0. -1.
    9900012    2    1    2    0    0  0.12131478736E+02  0.87184547578E+01  0.11291265089E+02  0.72461630971E+02  0.70000079043E+02 0.  0.
         12    1    1    2    0    0 -0.12131478736E+02 -0.87184547578E+01 -0.11291265089E+02  0.18726369029E+02  0.00000000000E+00 0. -1.
         11    1    3    3    0    0 -0.19521781834E+02  0.83621758554E+01  0.20745024897E+02  0.29688078571E+02  0.51100000000E-03 0. -1.
        -11    1    3    3    0    0  0.13847896996E+02  0.48548713235E+01  0.86100331269E+01  0.17013720859E+02  0.51100000000E-03 0.  1.
        -12    1    3    3    0    0  0.17805363575E+02 -0.44985924211E+01 -0.18063792934E+02  0.25759831540E+02  0.00000000000E+00 0.  1.
</event>
<event>
 7    1  0.2797450E-013  0.7246157E+02  0.7816164E-02  0.1226708E+00
        -11   -1    0    0    0    0  0.00000000000E+00  0.00000000000E+00  0.45593999997E+02  0.45594000000E+02  0.51100000000E-03 0. -1.
         11   -1    0    0    0    0 -0.00000000000E+00 -0.00000000000E+00 -0.45593999997E+02  0.45594000000E+02  0.51100000000E-03 0.  1.
    9900012    2    1    2    0    0 -0.48757796253E+01 -0.16830268589E+02 -0.66066673207E+01  0.72461568925E+02  0.69999998216E+02 0.  0.
         12    1    1    2    0    0  0.48757796253E+01  0.16830268589E+02  0.66066673207E+01  0.18726431075E+02  0.00000000000E+00 0. -1.
         11    1    3    3    0    0 -0.44865959228E+00 -0.24940434378E+01  0.52034767447E+01  0.57877213645E+01  0.51100000000E-03 0. -1.
        -11    1    3    3    0    0  0.71654634248E+01 -0.29028390356E+01 -0.36383440743E+02  0.37195767248E+02  0.51100000000E-03 0.  1.
         12    1    3    3    0    0 -0.11592583458E+02 -0.11433386115E+02  0.24573296678E+02  0.29478080313E+02  0.00000000000E+00 0. -1.
</event>
<event>
 7    1  0.2797450E-013  0.7246158E+02  0.7816164E-02  0.1226708E+00
        -11   -1    0    0    0    0  0.00000000000E+00  0.00000000000E+00  0.45593999997E+02  0.45594000000E+02  0.51100000000E-03 0.  1.
         11   -1    0    0    0    0 -0.00000000000E+00 -0.00000000000E+00 -0.45593999997E+02  0.45594000000E+02  0.51100000000E-03 0. -1.
    9900012    2    1    2    0    0 -0.17170773987E+02 -0.71447520797E+01  0.21899150542E+01  0.72461583110E+02  0.70000016695E+02 0.  0.
         12    1    1    2    0    0  0.17170773987E+02  0.71447520797E+01 -0.21899150542E+01  0.18726416890E+02  0.00000000000E+00 0. -1.
         11    1    3    3    0    0 -0.31036708720E+02  0.54633640991E+01 -0.16637764689E+02  0.35636229452E+02  0.51100000000E-03 0. -1.
        -11    1    3    3    0    0  0.57134261327E+01  0.51909649673E+01 -0.22674943698E+01  0.80455507235E+01  0.51100000000E-03 0.  1.
        -12    1    3    3    0    0  0.81525086006E+01 -0.17799081146E+02  0.21095174113E+02  0.28779802935E+02  0.00000000000E+00 0.  1.
</event>
<event>
 7    1  0.2797450E-013  0.7246156E+02  0.7816164E-02  0.1226708E+00
        -11   -1    0    0    0    0  0.00000000000E+00  0.00000000000E+00  0.45593999997E+02  0.45594000000E+02  0.51100000000E-03 0.  1.
         11   -1    0    0    0    0 -0.00000000000E+00 -0.00000000000E+00 -0.45593999997E+02  0.45594000000E+02  0.51100000000E-03 0. -1.
    9900012    2    1    2    0    0  0.68053803132E+01 -0.38399635713E+01  0.17018261078E+02  0.72461555288E+02  0.69999980451E+02 0.  0.
         12    1    1    2    0    0 -0.68053803132E+01  0.38399635713E+01 -0.17018261078E+02  0.18726444712E+02  0.00000000000E+00 0. -1.
         11    1    3    3    0    0  0.54670755477E+01 -0.18147807062E+02 -0.80320838610E+01  0.20585096250E+02  0.51100000000E-03 0. -1.
        -11    1    3    3    0    0 -0.37659920105E+01 -0.58769325480E+01 -0.93488960384E+01  0.11667171439E+02  0.51100000000E-03 0.  1.
        -12    1    3    3    0    0  0.51042967760E+01  0.20184776039E+02  0.34399240978E+02  0.40209287598E+02  0.00000000000E+00 0.  1.
</event>
<event>
 7    1  0.2797450E-013  0.7246151E+02  0.7816164E-02  0.1226708E+00
        -11   -1    0    0    0    0  0.00000000000E+00  0.00000000000E+00  0.45593999997E+02  0.45594000000E+02  0.51100000000E-03 0.  1.
         11   -1    0    0    0    0 -0.00000000000E+00 -0.00000000000E+00 -0.45593999997E+02  0.45594000000E+02  0.51100000000E-03 0. -1.
    9900012    2    1    2    0    0 -0.10764697663E+02  0.12939361614E+02  0.82082577047E+01  0.72461513695E+02  0.69999926269E+02 0.  0.
         12    1    1    2    0    0  0.10764697663E+02 -0.12939361614E+02 -0.82082577047E+01  0.18726486305E+02  0.00000000000E+00 0. -1.
         11    1    3    3    0    0 -0.29908834958E+02  0.15812470241E+02 -0.33537871662E+01  0.33997360372E+02  0.51100000000E-03 0. -1.
        -11    1    3    3    0    0  0.12200792115E+01  0.98800235517E+01 -0.47965227679E+01  0.11050343415E+02  0.51100000000E-03 0.  1.
        -12    1    3    3    0    0  0.17924058083E+02 -0.12753132178E+02  0.16358567639E+02  0.27413809909E+02  0.00000000000E+00 0.  1.
</event>
<event>
 7    1  0.2797450E-013  0.7246157E+02  0.7816164E-02  0.1226708E+00
        -11   -1    0    0    0    0  0.00000000000E+00  0.00000000000E+00  0.45593999997E+02  0.45594000000E+02  0.51100000000E-03 0. -1.
         11   -1    0    0    0    0 -0.00000000000E+00 -0.00000000000E+00 -0.45593999997E+02  0.45594000000E+02  0.51100000000E-03 0.  1.
    9900012    2    1    2    0    0  0.25887011662E+01 -0.77781241489E+01 -0.16836824678E+02  0.72461568032E+02  0.69999997053E+02 0.  0.
         12    1    1    2    0    0 -0.25887011662E+01  0.77781241489E+01  0.16836824678E+02  0.18726431968E+02  0.00000000000E+00 0. -1.
         11    1    3    3    0    0 -0.16639709163E+01 -0.26135893562E+02  0.83233806996E+01  0.27479672451E+02  0.51100000000E-03 0. -1.
        -11    1    3    3    0    0 -0.47848869517E+01 -0.37252939647E+01 -0.19552074869E+02  0.20470871750E+02  0.51100000000E-03 0.  1.
        -12    1    3    3    0    0  0.90375590342E+01  0.22083063378E+02 -0.56081305092E+01  0.24511023831E+02  0.00000000000E+00 0.  1.
</event>
<event>
 7    1  0.2797450E-013  0.7246161E+02  0.7816164E-02  0.1226708E+00
        -11   -1    0    0    0    0  0.00000000000E+00  0.00000000000E+00  0.45593999997E+02  0.45594000000E+02  0.51100000000E-03 0.  1.
         11   -1    0    0    0    0 -0.00000000000E+00 -0.00000000000E+00 -0.45593999997E+02  0.45594000000E+02  0.51100000000E-03 0. -1.
    9900012    2    1    2    0    0 -0.99599763878E+00  0.18582127099E+02  0.20953121183E+01  0.72461607083E+02  0.70000047924E+02 0.  0.
         12    1    1    2    0    0  0.99599763878E+00 -0.18582127099E+02 -0.20953121183E+01  0.18726392917E+02  0.00000000000E+00 0. -1.
         11    1    3    3    0    0 -0.68820924575E+01 -0.14245579139E+02  0.14265972854E+02  0.21302997520E+02  0.51100000000E-03 0.  1.
        -11    1    3    3    0    0 -0.96174705588E+01 -0.27582971171E+01  0.12599582910E+01  0.10084217277E+02  0.51100000000E-03 0. -1.
        -12    1    3    3    0    0  0.15503565378E+02  0.35586003355E+02 -0.13430619026E+02  0.41074392286E+02  0.00000000000E+00 0.  1.
</event>
<event>
 7    1  0.2797450E-013  0.7246159E+02  0.7816164E-02  0.1226708E+00
        -11   -1    0    0    0    0  0.00000000000E+00  0.00000000000E+00  0.45593999997E+02  0.45594000000E+02  0.51100000000E-03 0. -1.
         11   -1    0    0    0    0 -0.00000000000E+00 -0.00000000000E+00 -0.45593999997E+02  0.45594000000E+02  0.51100000000E-03 0.  1.
    9900012    2    1    2    0    0  0.10095063462E+02  0.92591472700E+01  0.12768566027E+02  0.72461591031E+02  0.70000027014E+02 0.  0.
         12    1    1    2    0    0 -0.10095063462E+02 -0.92591472700E+01 -0.12768566027E+02  0.18726408969E+02  0.00000000000E+00 0. -1.
         11    1    3    3    0    0 -0.80517957820E+01  0.85717942848E+01 -0.15592011266E+01  0.11863312395E+02  0.51100000000E-03 0. -1.
        -11    1    3    3    0    0 -0.34373891680E+01  0.16292753610E+02 -0.13971374717E+02  0.21736346893E+02  0.51100000000E-03 0.  1.
         12    1    3    3    0    0  0.21584248412E+02 -0.15605400625E+02  0.28299141871E+02  0.38861931743E+02  0.00000000000E+00 0. -1.
</event>
<event>
 7    1  0.2797450E-013  0.7246155E+02  0.7816164E-02  0.1226708E+00
        -11   -1    0    0    0    0  0.00000000000E+00  0.00000000000E+00  0.45593999997E+02  0.45594000000E+02  0.51100000000E-03 0.  1.
         11   -1    0    0    0    0 -0.00000000000E+00 -0.00000000000E+00 -0.45593999997E+02  0.45594000000E+02  0.51100000000E-03 0. -1.
    9900012    2    1    2    0    0 -0.62441682485E+01 -0.16652639331E+02  0.58634499397E+01  0.72461546011E+02  0.69999968367E+02 0.  0.
         12    1    1    2    0    0  0.62441682485E+01  0.16652639331E+02 -0.58634499397E+01  0.18726453989E+02  0.00000000000E+00 0. -1.
         11    1    3    3    0    0  0.13185565574E+02 -0.12570313538E+02  0.11398064336E+02  0.21489248307E+02  0.51100000000E-03 0. -1.
        -11    1    3    3    0    0 -0.20566400017E+02  0.13346880638E+01  0.17651015054E+02  0.27135153115E+02  0.51100000000E-03 0.  1.
         12    1    3    3    0    0  0.11366661944E+01 -0.54170138567E+01 -0.23185629450E+02  0.23837144589E+02  0.00000000000E+00 0. -1.
</event>
<event>
 7    1  0.2797450E-013  0.7246157E+02  0.7816164E-02  0.1226708E+00
        -11   -1    0    0    0    0  0.00000000000E+00  0.00000000000E+00  0.45593999997E+02  0.45594000000E+02  0.51100000000E-03 0.  1.
         11   -1    0    0    0    0 -0.00000000000E+00 -0.00000000000E+00 -0.45593999997E+02  0.45594000000E+02  0.51100000000E-03 0. -1.
    9900012    2    1    2    0    0 -0.17267576969E+01 -0.83654534467E+01  0.16664836181E+02  0.72461567653E+02  0.69999996559E+02 0.  0.
         12    1    1    2    0    0  0.17267576969E+01  0.83654534467E+01 -0.16664836181E+02  0.18726432347E+02  0.00000000000E+00 0. -1.
         11    1    3    3    0    0  0.38587290986E+01 -0.33020133075E+02  0.13299090187E+02  0.35806211453E+02  0.51100000000E-03 0. -1.
        -11    1    3    3    0    0  0.77595171367E+01  0.24986549566E+01  0.67324101454E+01  0.10572546023E+02  0.51100000000E-03 0.  1.
        -12    1    3    3    0    0 -0.13345003932E+02  0.22156024671E+02 -0.33666641515E+01  0.26082810176E+02  0.00000000000E+00 0.  1.
</event>
<event>
 7    1  0.2797450E-013  0.7246152E+02  0.7816164E-02  0.1226708E+00
        -11   -1    0    0    0    0  0.00000000000E+00  0.00000000000E+00  0.45593999997E+02  0.45594000000E+02  0.51100000000E-03 0.  1.
         11   -1    0    0    0    0 -0.00000000000E+00 -0.00000000000E+00 -0.45593999997E+02  0.45594000000E+02  0.51100000000E-03 0. -1.
    9900012    2    1    2    0    0  0.38586600675E+01 -0.18315893737E+02  0.56564748412E+00  0.72461516668E+02  0.69999930142E+02 0.  0.
         12    1    1    2    0    0 -0.38586600675E+01  0.18315893737E+02 -0.56564748412E+00  0.18726483332E+02  0.00000000000E+00 0. -1.
         11    1    3    3    0    0  0.47775886582E+01 -0.13727083321E+02 -0.28116372390E+02  0.31651043688E+02  0.51100000000E-03 0. -1.
        -11    1    3    3    0    0 -0.67331136220E+01 -0.95136715595E+01  0.55370830436E+00  0.11668391437E+02  0.51100000000E-03 0.  1.
         12    1    3    3    0    0  0.58141850313E+01  0.49248611439E+01  0.28128311570E+02  0.29142081543E+02  0.00000000000E+00 0. -1.
</event>
<event>
 7    1  0.2797450E-013  0.7246158E+02  0.7816164E-02  0.1226708E+00
        -11   -1    0    0    0    0  0.00000000000E+00  0.00000000000E+00  0.45593999997E+02  0.45594000000E+02  0.51100000000E-03 0.  1.
         11   -1    0    0    0    0 -0.00000000000E+00 -0.00000000000E+00 -0.45593999997E+02  0.45594000000E+02  0.51100000000E-03 0. -1.
    9900012    2    1    2    0    0 -0.34170253363E+01 -0.11200694900E+02  0.14613249406E+02  0.72461583189E+02  0.70000016797E+02 0.  0.
         12    1    1    2    0    0  0.34170253363E+01  0.11200694900E+02 -0.14613249406E+02  0.18726416811E+02  0.00000000000E+00 0. -1.
         11    1    3    3    0    0  0.89909003457E+01  0.47099712711E+01 -0.21865671088E+02  0.24106590194E+02  0.51100000000E-03 0. -1.
        -11    1    3    3    0    0 -0.13825698381E+01 -0.23870001808E+01 -0.36626435223E+01  0.45852183212E+01  0.51100000000E-03 0.  1.
        -12    1    3    3    0    0 -0.11025355844E+02 -0.13523665990E+02  0.40141564016E+02  0.43769774673E+02  0.00000000000E+00 0.  1.
</event>
<event>
 7    1  0.2797450E-013  0.7246156E+02  0.7816164E-02  0.1226708E+00
        -11   -1    0    0    0    0  0.00000000000E+00  0.00000000000E+00  0.45593999997E+02  0.45594000000E+02  0.51100000000E-03 0. -1.
         11   -1    0    0    0    0 -0.00000000000E+00 -0.00000000000E+00 -0.45593999997E+02  0.45594000000E+02  0.51100000000E-03 0.  1.
    9900012    2    1    2    0    0 -0.85722038985E+01 -0.35153630629E+01 -0.16273876295E+02  0.72461561289E+02  0.69999988268E+02 0.  0.
         12    1    1    2    0    0  0.85722038985E+01  0.35153630629E+01  0.16273876295E+02  0.18726438711E+02  0.00000000000E+00 0. -1.
         11    1    3    3    0    0  0.18018281926E+01 -0.12041125228E+01 -0.13027079973E+02  0.13206107855E+02  0.51100000000E-03 0. -1.
        -11    1    3    3    0    0 -0.42917170908E+01  0.17293391654E+02 -0.24115289049E+02  0.29983785562E+02  0.51100000000E-03 0.  1.
         12    1    3    3    0    0 -0.60823150002E+01 -0.19604642194E+02  0.20868492726E+02  0.29271667871E+02  0.00000000000E+00 0. -1.
</event>
<event>
 7    1  0.2797450E-013  0.7246156E+02  0.7816164E-02  0.1226708E+00
        -11   -1    0    0    0    0  0.00000000000E+00  0.00000000000E+00  0.45593999997E+02  0.45594000000E+02  0.51100000000E-03 0.  1.
         11   -1    0    0    0    0 -0.00000000000E+00 -0.00000000000E+00 -0.45593999997E+02  0.45594000000E+02  0.51100000000E-03 0. -1.
    9900012    2    1    2    0    0  0.10876315319E+02  0.64180651530E+01  0.13827280481E+02  0.72461561985E+02  0.69999989176E+02 0.  0.
         12    1    1    2    0    0 -0.10876315319E+02 -0.64180651530E+01 -0.13827280481E+02  0.18726438015E+02  0.00000000000E+00 0. -1.
         11    1    3    3    0    0  0.81412576650E+01 -0.11366196924E+02 -0.14098095471E+02  0.19855145556E+02  0.51100000000E-03 0. -1.
        -11    1    3    3    0    0  0.19496894197E+02  0.11945189952E+02  0.46464679005E+01  0.23332511878E+02  0.51100000000E-03 0.  1.
        -12    1    3    3    0    0 -0.16761836543E+02  0.58390721252E+01  0.23278908051E+02  0.29273904551E+02  0.00000000000E+00 0.  1.
</event>
<event>
 7    1  0.2797450E-013  0.7246161E+02  0.7816164E-02  0.1226708E+00
        -11   -1    0    0    0    0  0.00000000000E+00  0.00000000000E+00  0.45593999997E+02  0.45594000000E+02  0.51100000000E-03 0.  1.
         11   -1    0    0    0    0 -0.00000000000E+00 -0.00000000000E+00 -0.45593999997E+02  0.45594000000E+02  0.51100000000E-03 0. -1.
    9900012    2    1    2    0    0  0.24481628033E+01  0.10073135262E+02  0.15595388921E+02  0.72461609245E+02  0.70000050740E+02 0.  0.
         12    1    1    2    0    0 -0.24481628033E+01 -0.10073135262E+02 -0.15595388921E+02  0.18726390755E+02  0.00000000000E+00 0. -1.
         11    1    3    3    0    0  0.97673469470E+01  0.46544132179E+00 -0.12875912578E+01  0.98628390190E+01  0.51100000000E-03 0.  1.
        -11    1    3    3    0    0 -0.73262369498E+01  0.35777055177E+01  0.38913226198E+02  0.39758180265E+02  0.51100000000E-03 0. -1.
         12    1    3    3    0    0  0.70528060602E-02  0.60299884223E+01 -0.22030246019E+02  0.22840589961E+02  0.00000000000E+00 0. -1.
</event>
<event>
 7    1  0.2797450E-013  0.7246163E+02  0.7816164E-02  0.1226708E+00
        -11   -1    0    0    0    0  0.00000000000E+00  0.00000000000E+00  0.45593999997E+02  0.45594000000E+02  0.51100000000E-03 0.  1.
         11   -1    0    0    0    0 -0.00000000000E+00 -0.00000000000E+00 -0.45593999997E+02  0.45594000000E+02  0.51100000000E-03 0. -1.
    9900012    2    1    2    0    0  0.17474383161E+02  0.62974957875E+01  0.23800146444E+01  0.72461628495E+02  0.70000075817E+02 0.  0.
         12    1    1    2    0    0 -0.17474383161E+02 -0.62974957875E+01 -0.23800146444E+01  0.18726371505E+02  0.00000000000E+00 0. -1.
         11    1    3    3    0    0  0.24728918492E+02  0.16334828199E+02  0.24747742897E+01  0.29740049262E+02  0.51100000000E-03 0. -1.
        -11    1    3    3    0    0  0.11327372925E+02 -0.27628164497E+01  0.14053023137E+02  0.18260065490E+02  0.51100000000E-03 0.  1.
        -12    1    3    3    0    0 -0.18581908257E+02 -0.72745159616E+01 -0.14147782783E+02  0.24461513743E+02  0.00000000000E+00 0.  1.
</event>
<event>
 7    1  0.2797450E-013  0.7246160E+02  0.7816164E-02  0.1226708E+00
        -11   -1    0    0    0    0  0.00000000000E+00  0.00000000000E+00  0.45593999997E+02  0.45594000000E+02  0.51100000000E-03 0. -1.
         11   -1    0    0    0    0 -0.00000000000E+00 -0.00000000000E+00 -0.45593999997E+02  0.45594000000E+02  0.51100000000E-03 0.  1.
    9900012    2    1    2    0    0 -0.17195746183E+02 -0.13687801422E+01  0.72877043054E+01  0.72461604727E+02  0.70000044855E+02 0.  0.
         12    1    1    2    0    0  0.17195746183E+02  0.13687801422E+01 -0.72877043054E+01  0.18726395273E+02  0.00000000000E+00 0. -1.
         11    1    3    3    0    0 -0.23078762436E+02 -0.15662775117E+02  0.25003410468E+02  0.37458274590E+02  0.51100000000E-03 0. -1.
        -11    1    3    3    0    0 -0.99050707491E-01 -0.66152269296E+01  0.49948079496E+00  0.66347961309E+01  0.51100000000E-03 0.  1.
         12    1    3    3    0    0  0.59820669604E+01  0.20909221905E+02 -0.18215186957E+02  0.28368534006E+02  0.00000000000E+00 0. -1.
</event>
<event>
 7    1  0.2797450E-013  0.7246156E+02  0.7816164E-02  0.1226708E+00
        -11   -1    0    0    0    0  0.00000000000E+00  0.00000000000E+00  0.45593999997E+02  0.45594000000E+02  0.51100000000E-03 0.  1.
         11   -1    0    0    0    0 -0.00000000000E+00 -0.00000000000E+00 -0.45593999997E+02  0.45594000000E+02  0.51100000000E-03 0. -1.
    9900012    2    1    2    0    0 -0.14152448165E+02  0.78054651938E+01  0.94584527546E+01  0.72461564022E+02  0.69999991829E+02 0.  0.
         12    1    1    2    0    0  0.14152448165E+02 -0.78054651938E+01 -0.94584527546E+01  0.18726435978E+02  0.00000000000E+00 0. -1.
         11    1    3    3    0    0 -0.10111693096E+02 -0.81766588444E+01  0.19160113617E+02  0.23156295930E+02  0.51100000000E-03 0. -1.
        -11    1    3    3    0    0 -0.18926439119E+02  0.17478440193E+02  0.71840012258E+01  0.26745389195E+02  0.51100000000E-03 0.  1.
         12    1    3    3    0    0  0.14885684051E+02 -0.14963161546E+01 -0.16885662088E+02  0.22559878897E+02  0.00000000000E+00 0. -1.
</event>
<event>
 7    1  0.2797450E-013  0.7246153E+02  0.7816164E-02  0.1226708E+00
        -11   -1    0    0    0    0  0.00000000000E+00  0.00000000000E+00  0.45593999997E+02  0.45594000000E+02  0.51100000000E-03 0. -1.
         11   -1    0    0    0    0 -0.00000000000E+00 -0.00000000000E+00 -0.45593999997E+02  0.45594000000E+02  0.51100000000E-03 0.  1.
    9900012    2    1    2    0    0  0.49331293808E+01 -0.10096367298E+02 -0.14980261932E+02  0.72461530881E+02  0.69999948657E+02 0.  0.
         12    1    1    2    0    0 -0.49331293808E+01  0.10096367298E+02  0.14980261932E+02  0.18726469119E+02  0.00000000000E+00 0. -1.
         11    1    3    3    0    0  0.14479696295E+02 -0.30572370001E+02 -0.30180429290E+01  0.33962332012E+02  0.51100000000E-03 0. -1.
        -11    1    3    3    0    0 -0.25922239367E+01 -0.70560712430E+01 -0.56644717816E+01  0.94124389587E+01  0.51100000000E-03 0.  1.
        -12    1    3    3    0    0 -0.69543429774E+01  0.27532073947E+02 -0.62977472218E+01  0.29086759911E+02  0.00000000000E+00 0.  1.
</event>
<event>
 7    1  0.2797450E-013  0.7246174E+02  0.7816164E-02  0.1226708E+00
        -11   -1    0    0    0    0  0.00000000000E+00  0.00000000000E+00  0.45593999997E+02  0.45594000000E+02  0.51100000000E-03 0.  1.
         11   -1    0    0    0    0 -0.00000000000E+00 -0.00000000000E+00 -0.45593999997E+02  0.45594000000E+02  0.51100000000E-03 0. -1.
    9900012    2    1    2    0    0  0.13234499356E+02 -0.12632046465E+02  0.39940105308E+01  0.72461743267E+02  0.70000225329E+02 0.  0.
         12    1    1    2    0    0 -0.13234499356E+02  0.12632046465E+02 -0.39940105308E+01  0.18726256733E+02  0.00000000000E+00 0. -1.
         11    1    3    3    0    0 -0.10871690495E+01  0.13888551194E+02 -0.11818986065E+02  0.18269160426E+02  0.51100000000E-03 0. -1.
        -11    1    3    3    0    0 -0.51766846752E+01  0.60413503106E+01 -0.64053523325E+01  0.10213937368E+02  0.51100000000E-03 0.  1.
        -12    1    3    3    0    0  0.19498353081E+02 -0.32561947970E+02  0.22218348928E+02  0.43978645472E+02  0.00000000000E+00 0.  1.
</event>
<event>
 7    1  0.2797450E-013  0.7246191E+02  0.7816164E-02  0.1226707E+00
        -11   -1    0    0    0    0  0.00000000000E+00  0.00000000000E+00  0.45593999997E+02  0.45594000000E+02  0.51100000000E-03 0.  1.
         11   -1    0    0    0    0 -0.00000000000E+00 -0.00000000000E+00 -0.45593999997E+02  0.45594000000E+02  0.51100000000E-03 0. -1.
    9900012    2    1    2    0    0 -0.96541193537E+01 -0.45849045937E+01  0.15376708225E+02  0.72461907870E+02  0.70000439754E+02 0.  0.
         12    1    1    2    0    0  0.96541193537E+01  0.45849045937E+01 -0.15376708225E+02  0.18726092130E+02  0.00000000000E+00 0. -1.
         11    1    3    3    0    0  0.18687053335E+02 -0.15441975884E+02 -0.75563971809E+01  0.25392119254E+02  0.51100000000E-03 0. -1.
        -11    1    3    3    0    0  0.53126619272E+01  0.42573902266E+01  0.36145446946E+01  0.77080919756E+01  0.51100000000E-03 0.  1.
        -12    1    3    3    0    0 -0.33653834616E+02  0.65996810640E+01  0.19318560711E+02  0.39361696641E+02  0.00000000000E+00 0.  1.
</event>
<event>
 7    1  0.2797450E-013  0.7246159E+02  0.7816164E-02  0.1226708E+00
        -11   -1    0    0    0    0  0.00000000000E+00  0.00000000000E+00  0.45593999997E+02  0.45594000000E+02  0.51100000000E-03 0.  1.
         11   -1    0    0    0    0 -0.00000000000E+00 -0.00000000000E+00 -0.45593999997E+02  0.45594000000E+02  0.51100000000E-03 0. -1.
    9900012    2    1    2    0    0  0.99784848183E+01 -0.14208048848E+02  0.70171055352E+01  0.72461585997E+02  0.70000020455E+02 0.  0.
         12    1    1    2    0    0 -0.99784848183E+01  0.14208048848E+02 -0.70171055352E+01  0.18726414003E+02  0.00000000000E+00 0. -1.
         11    1    3    3    0    0 -0.71843722302E+01 -0.27428819902E+02  0.36345744545E+01  0.28586106718E+02  0.51100000000E-03 0. -1.
        -11    1    3    3    0    0  0.60933205569E+01 -0.73467968736E+01  0.15007206522E+02  0.17785393658E+02  0.51100000000E-03 0.  1.
         12    1    3    3    0    0  0.11069536492E+02  0.20567567928E+02 -0.11624675441E+02  0.26090085621E+02  0.00000000000E+00 0. -1.
</event>
<event>
 7    1  0.2797450E-013  0.7246151E+02  0.7816164E-02  0.1226708E+00
        -11   -1    0    0    0    0  0.00000000000E+00  0.00000000000E+00  0.45593999997E+02  0.45594000000E+02  0.51100000000E-03 0. -1.
         11   -1    0    0    0    0 -0.00000000000E+00 -0.00000000000E+00 -0.45593999997E+02  0.45594000000E+02  0.51100000000E-03 0.  1.
    9900012    2    1    2    0    0 -0.64362463063E+01  0.21531839298E+01 -0.17453361507E+02  0.72461513532E+02  0.69999926057E+02 0.  0.
         12    1    1    2    0    0  0.64362463063E+01 -0.21531839298E+01  0.17453361507E+02  0.18726486468E+02  0.00000000000E+00 0. -1.
         11    1    3    3    0    0 -0.38148271384E+01  0.17467609576E+01 -0.87374613183E+01  0.96926420799E+01  0.51100000000E-03 0. -1.
        -11    1    3    3    0    0  0.16373457353E+02  0.44421174167E+01 -0.29683926604E+02  0.34190027958E+02  0.51100000000E-03 0.  1.
         12    1    3    3    0    0 -0.18994876521E+02 -0.40356944445E+01  0.20968026416E+02  0.28578843495E+02  0.00000000000E+00 0. -1.
</event>
<event>
 7    1  0.2797450E-013  0.7246157E+02  0.7816164E-02  0.1226708E+00
        -11   -1    0    0    0    0  0.00000000000E+00  0.00000000000E+00  0.45593999997E+02  0.45594000000E+02  0.51100000000E-03 0. -1.
         11   -1    0    0    0    0 -0.00000000000E+00 -0.00000000000E+00 -0.45593999997E+02  0.45594000000E+02  0.51100000000E-03 0.  1.
    9900012    2    1    2    0    0  0.13622179876E+01  0.15669635340E+02 -0.10162974071E+02  0.72461570776E+02  0.70000000627E+02 0.  0.
         12    1    1    2    0    0 -0.13622179876E+01 -0.15669635340E+02  0.10162974071E+02  0.18726429224E+02  0.00000000000E+00 0. -1.
         11    1    3    3    0    0  0.15422239352E+02 -0.48628879422E+01 -0.12114676750E+01  0.16216066106E+02  0.51100000000E-03 0. -1.
        -11    1    3    3    0    0  0.11984811628E+02 -0.57609197819E+01 -0.13510339524E+02  0.18956613116E+02  0.51100000000E-03 0.  1.
        -12    1    3    3    0    0 -0.26044832993E+02  0.26293443064E+02  0.45588331284E+01  0.37288891553E+02  0.00000000000E+00 0.  1.
</event>
<event>
 7    1  0.2797450E-013  0.7246158E+02  0.7816164E-02  0.1226708E+00
        -11   -1    0    0    0    0  0.00000000000E+00  0.00000000000E+00  0.45593999997E+02  0.45594000000E+02  0.51100000000E-03 0.  1.
         11   -1    0    0    0    0 -0.00000000000E+00 -0.00000000000E+00 -0.45593999997E+02  0.45594000000E+02  0.51100000000E-03 0. -1.
    9900012    2    1    2    0    0 -0.10040961809E+02 -0.32708371297E+01  0.15464782724E+02  0.72461580314E+02  0.70000013052E+02 0.  0.
         12    1    1    2    0    0  0.10040961809E+02  0.32708371297E+01 -0.15464782724E+02  0.18726419686E+02  0.00000000000E+00 0. -1.
         11    1    3    3    0    0 -0.10633619434E+02 -0.27225739986E+01  0.11801566766E+02  0.16117172514E+02  0.51100000000E-03 0. -1.
        -11    1    3    3    0    0 -0.26838298495E+02  0.44842188631E+01  0.74196689814E+01  0.28203793592E+02  0.51100000000E-03 0.  1.
        -12    1    3    3    0    0  0.27430956120E+02 -0.50324819942E+01 -0.37564530239E+01  0.28140614208E+02  0.00000000000E+00 0.  1.
</event>
<event>
 7    1  0.2797450E-013  0.7246157E+02  0.7816164E-02  0.1226708E+00
        -11   -1    0    0    0    0  0.00000000000E+00  0.00000000000E+00  0.45593999997E+02  0.45594000000E+02  0.51100000000E-03 0.  1.
         11   -1    0    0    0    0 -0.00000000000E+00 -0.00000000000E+00 -0.45593999997E+02  0.45594000000E+02  0.51100000000E-03 0. -1.
    9900012    2    1    2    0    0 -0.13051151340E+02 -0.11826072450E+02  0.63632193613E+01  0.72461572110E+02  0.70000002365E+02 0.  0.
         12    1    1    2    0    0  0.13051151340E+02  0.11826072450E+02 -0.63632193613E+01  0.18726427890E+02  0.00000000000E+00 0. -1.
         11    1    3    3    0    0 -0.30180371983E+01  0.83403454440E+01 -0.85374200987E-01  0.88700168924E+01  0.51100000000E-03 0. -1.
        -11    1    3    3    0    0  0.72908982074E+01  0.18231183872E+02  0.85469007339E+01  0.21414545861E+02  0.51100000000E-03 0.  1.
        -12    1    3    3    0    0 -0.17324012349E+02 -0.38397601765E+02 -0.20983071717E+01  0.42177009356E+02  0.00000000000E+00 0.  1.
</event>
<event>
 7    1  0.2797450E-013  0.7246157E+02  0.7816164E-02  0.1226708E+00
        -11   -1    0    0    0    0  0.00000000000E+00  0.00000000000E+00  0.45593999997E+02  0.45594000000E+02  0.51100000000E-03 0. -1.
         11   -1    0    0    0    0 -0.00000000000E+00 -0.00000000000E+00 -0.45593999997E+02  0.45594000000E+02  0.51100000000E-03 0.  1.
    9900012    2    1    2    0    0  0.50799797506E+01 -0.39418533341E+01  0.17587914833E+02  0.72461570811E+02  0.70000000674E+02 0.  0.
         12    1    1    2    0    0 -0.50799797506E+01  0.39418533341E+01 -0.17587914833E+02  0.18726429189E+02  0.00000000000E+00 0. -1.
         11    1    3    3    0    0 -0.52778445355E+01 -0.53133706397E+01 -0.14853348394E+02  0.16634587740E+02  0.51100000000E-03 0. -1.
        -11    1    3    3    0    0 -0.74783296301E+00  0.80193538441E+01 -0.91959670570E+01  0.12224365038E+02  0.51100000000E-03 0.  1.
         12    1    3    3    0    0  0.11105657249E+02 -0.66478365386E+01  0.41637230284E+02  0.43602618033E+02  0.00000000000E+00 0. -1.
</event>
<event>
 7    1  0.2797450E-013  0.7246204E+02  0.7816164E-02  0.1226707E+00
        -11   -1    0    0    0    0  0.00000000000E+00  0.00000000000E+00  0.45593999997E+02  0.45594000000E+02  0.51100000000E-03 0. -1.
         11   -1    0    0    0    0 -0.00000000000E+00 -0.00000000000E+00 -0.45593999997E+02  0.45594000000E+02  0.51100000000E-03 0.  1.
    9900012    2    1    2    0    0  0.18187806418E+02  0.41624734522E+01 -0.15935003888E+01  0.72462035912E+02  0.70000606551E+02 0.  0.
         12    1    1    2    0    0 -0.18187806418E+02 -0.41624734522E+01  0.15935003888E+01  0.18725964088E+02  0.00000000000E+00 0. -1.
         11    1    3    3    0    0 -0.16832496210E+01 -0.14801989061E+02 -0.13178052367E+02  0.19889526739E+02  0.51100000000E-03 0. -1.
        -11    1    3    3    0    0 -0.70372867482E+01  0.17221687558E+02 -0.69415636055E+01  0.19856868652E+02  0.51100000000E-03 0.  1.
        -12    1    3    3    0    0  0.26908342787E+02  0.17427749554E+01  0.18526115583E+02  0.32715640521E+02  0.00000000000E+00 0.  1.
</event>
<event>
 7    1  0.2797450E-013  0.7246152E+02  0.7816164E-02  0.1226708E+00
        -11   -1    0    0    0    0  0.00000000000E+00  0.00000000000E+00  0.45593999997E+02  0.45594000000E+02  0.51100000000E-03 0. -1.
         11   -1    0    0    0    0 -0.00000000000E+00 -0.00000000000E+00 -0.45593999997E+02  0.45594000000E+02  0.51100000000E-03 0.  1.
    9900012    2    1    2    0    0 -0.16250788672E+02  0.89378997204E+01 -0.25897913410E+01  0.72461515998E+02  0.69999929269E+02 0.  0.
         12    1    1    2    0    0  0.16250788672E+02 -0.89378997204E+01  0.25897913410E+01  0.18726484002E+02  0.00000000000E+00 0. -1.
         11    1    3    3    0    0  0.16460530251E+01  0.59561366332E+01  0.40648857105E+01  0.73965093291E+01  0.51100000000E-03 0. -1.
        -11    1    3    3    0    0  0.17500477822E+02 -0.12226026791E+02  0.94021990704E+01  0.23326890121E+02  0.51100000000E-03 0.  1.
        -12    1    3    3    0    0 -0.35397319520E+02  0.15207789879E+02 -0.16056876122E+02  0.41738116548E+02  0.00000000000E+00 0.  1.
</event>
<event>
 7    1  0.2797450E-013  0.7246158E+02  0.7816164E-02  0.1226708E+00
        -11   -1    0    0    0    0  0.00000000000E+00  0.00000000000E+00  0.45593999997E+02  0.45594000000E+02  0.51100000000E-03 0. -1.
         11   -1    0    0    0    0 -0.00000000000E+00 -0.00000000000E+00 -0.45593999997E+02  0.45594000000E+02  0.51100000000E-03 0.  1.
    9900012    2    1    2    0    0 -0.67314747537E+01  0.26925980659E+01 -0.17266037335E+02  0.72461577972E+02  0.70000010002E+02 0.  0.
         12    1    1    2    0    0  0.67314747537E+01 -0.26925980659E+01  0.17266037335E+02  0.18726422028E+02  0.00000000000E+00 0. -1.
         11    1    3    3    0    0 -0.10323990285E+02  0.23937186229E+00  0.33224499887E+01  0.10848075796E+02  0.51100000000E-03 0. -1.
        -11    1    3    3    0    0  0.10183713437E+02  0.20378338537E+02  0.10533575610E+02  0.25098623793E+02  0.51100000000E-03 0.  1.
         12    1    3    3    0    0 -0.65911979057E+01 -0.17925112334E+02 -0.31122062934E+02  0.36514878383E+02  0.00000000000E+00 0. -1.
</event>
<event>
 7    1  0.2797450E-013  0.7246155E+02  0.7816164E-02  0.1226708E+00
        -11   -1    0    0    0    0  0.00000000000E+00  0.00000000000E+00  0.45593999997E+02  0.45594000000E+02  0.51100000000E-03 0. -1.
         11   -1    0    0    0    0 -0.00000000000E+00 -0.00000000000E+00 -0.45593999997E+02  0.45594000000E+02  0.51100000000E-03 0.  1.
    9900012    2    1    2    0    0 -0.86504740085E+01  0.11548054575E+02 -0.11936984448E+02  0.72461551785E+02  0.69999975888E+02 0.  0.
         12    1    1    2    0    0  0.86504740085E+01 -0.11548054575E+02  0.11936984448E+02  0.18726448215E+02  0.00000000000E+00 0. -1.
         11    1    3    3    0    0  0.12626303790E+02 -0.71978210439E+01 -0.38812093307E+01  0.15043136685E+02  0.51100000000E-03 0. -1.
        -11    1    3    3    0    0 -0.24637166683E+02  0.13419918230E+02 -0.26092935470E+02  0.38313515490E+02  0.51100000000E-03 0.  1.
        -12    1    3    3    0    0  0.33603888844E+01  0.53259573883E+01  0.18037160352E+02  0.19104899610E+02  0.00000000000E+00 0.  1.
</event>
<event>
 7    1  0.2797450E-013  0.7246161E+02  0.7816164E-02  0.1226708E+00
        -11   -1    0    0    0    0  0.00000000000E+00  0.00000000000E+00  0.45593999997E+02  0.45594000000E+02  0.51100000000E-03 0. -1.
         11   -1    0    0    0    0 -0.00000000000E+00 -0.00000000000E+00 -0.45593999997E+02  0.45594000000E+02  0.51100000000E-03 0.  1.
    9900012    2    1    2    0    0  0.82811723854E+01  0.21472362445E+01 -0.16658004461E+02  0.72461613477E+02  0.70000056254E+02 0.  0.
         12    1    1    2    0    0 -0.82811723854E+01 -0.21472362445E+01  0.16658004461E+02  0.18726386523E+02  0.00000000000E+00 0. -1.
         11    1    3    3    0    0 -0.40207047001E+01 -0.12382139672E+02 -0.14548863369E+01  0.13099623798E+02  0.51100000000E-03 0. -1.
        -11    1    3    3    0    0 -0.95762781540E+01 -0.57568030952E+01 -0.25466716100E+02  0.27810061387E+02  0.51100000000E-03 0.  1.
         12    1    3    3    0    0  0.21878155239E+02  0.20286179011E+02  0.10263597976E+02  0.31551928292E+02  0.00000000000E+00 0. -1.
</event>
<event>
 7    1  0.2797450E-013  0.7246161E+02  0.7816164E-02  0.1226708E+00
        -11   -1    0    0    0    0  0.00000000000E+00  0.00000000000E+00  0.45593999997E+02  0.45594000000E+02  0.51100000000E-03 0. -1.
         11   -1    0    0    0    0 -0.00000000000E+00 -0.00000000000E+00 -0.45593999997E+02  0.45594000000E+02  0.51100000000E-03 0.  1.
    9900012    2    1    2    0    0 -0.17440074709E+01  0.71741309683E+01 -0.17209532754E+02  0.72461608601E+02  0.70000049901E+02 0.  0.
         12    1    1    2    0    0  0.17440074709E+01 -0.71741309683E+01  0.17209532754E+02  0.18726391399E+02  0.00000000000E+00 0. -1.
         11    1    3    3    0    0  0.92767708427E+00  0.41494388295E+01 -0.52781441195E+01  0.67777011575E+01  0.51100000000E-03 0. -1.
        -11    1    3    3    0    0 -0.82723677057E+01  0.20500182916E+02 -0.31741037921E+02  0.38680525535E+02  0.51100000000E-03 0.  1.
         12    1    3    3    0    0  0.56006831506E+01 -0.17475490777E+02  0.19809649287E+02  0.27003381909E+02  0.00000000000E+00 0. -1.
</event>
<event>
 7    1  0.2797450E-013  0.7246155E+02  0.7816164E-02  0.1226708E+00
        -11   -1    0    0    0    0  0.00000000000E+00  0.00000000000E+00  0.45593999997E+02  0.45594000000E+02  0.51100000000E-03 0.  1.
         11   -1    0    0    0    0 -0.00000000000E+00 -0.00000000000E+00 -0.45593999997E+02  0.45594000000E+02  0.51100000000E-03 0. -1.
    9900012    2    1    2    0    0 -0.46508534508E+01  0.12973411160E+02  0.12678324519E+02  0.72461554861E+02  0.69999979895E+02 0.  0.
         12    1    1    2    0    0  0.46508534508E+01 -0.12973411160E+02 -0.12678324519E+02  0.18726445139E+02  0.00000000000E+00 0. -1.
         11    1    3    3    0    0  0.88440715593E+01 -0.52766429922E+01 -0.19227449184E+02  0.21811817104E+02  0.51100000000E-03 0. -1.
        -11    1    3    3    0    0  0.60785114601E+01 -0.36998845738E+01 -0.18861146418E+00  0.71184985759E+01  0.51100000000E-03 0.  1.
        -12    1    3    3    0    0 -0.19573436470E+02  0.21949938726E+02  0.32094385167E+02  0.43531239180E+02  0.00000000000E+00 0.  1.
</event>
<event>
 7    1  0.2797450E-013  0.7246158E+02  0.7816164E-02  0.1226708E+00
        -11   -1    0    0    0    0  0.00000000000E+00  0.00000000000E+00  0.45593999997E+02  0.45594000000E+02  0.51100000000E-03 0.  1.
         11   -1    0    0    0    0 -0.00000000000E+00 -0.00000000000E+00 -0.45593999997E+02  0.45594000000E+02  0.51100000000E-03 0. -1.
    9900012    2    1    2    0    0 -0.16052603507E+02 -0.55494562929E+01  0.78864523023E+01  0.72461583514E+02  0.70000017221E+02 0.  0.
         12    1    1    2    0    0  0.16052603507E+02  0.55494562929E+01 -0.78864523023E+01  0.18726416486E+02  0.00000000000E+00 0. -1.
         11    1    3    3    0    0 -0.18273606620E+01 -0.66698777561E+00 -0.31260886980E+01  0.36819221190E+01  0.51100000000E-03 0. -1.
        -11    1    3    3    0    0 -0.35286835387E+02 -0.18684161584E+01 -0.12113899418E+02  0.37355030316E+02  0.51100000000E-03 0.  1.
         12    1    3    3    0    0  0.21061592542E+02 -0.30140523589E+01  0.23126440418E+02  0.31424631079E+02  0.00000000000E+00 0. -1.
</event>
<event>
 7    1  0.2797450E-013  0.7246156E+02  0.7816164E-02  0.1226708E+00
        -11   -1    0    0    0    0  0.00000000000E+00  0.00000000000E+00  0.45593999997E+02  0.45594000000E+02  0.51100000000E-03 0. -1.
         11   -1    0    0    0    0 -0.00000000000E+00 -0.00000000000E+00 -0.45593999997E+02  0.45594000000E+02  0.51100000000E-03 0.  1.
    9900012    2    1    2    0    0 -0.88672630752E+01 -0.16409136837E+02  0.16707066267E+01  0.72461564493E+02  0.69999992442E+02 0.  0.
         12    1    1    2    0    0  0.88672630752E+01  0.16409136837E+02 -0.16707066267E+01  0.18726435507E+02  0.00000000000E+00 0. -1.
         11    1    3    3    0    0  0.13302408212E+02 -0.78593704490E+01  0.90783261473E+01  0.17920373154E+02  0.51100000000E-03 0. -1.
        -11    1    3    3    0    0  0.54353893065E+00 -0.25543036741E+02 -0.53283824245E+01  0.26098540573E+02  0.51100000000E-03 0.  1.
         12    1    3    3    0    0 -0.22713210217E+02  0.16993270353E+02 -0.20792370960E+01  0.28442650766E+02  0.00000000000E+00 0. -1.
</event>
<event>
 7    1  0.2797450E-013  0.7246156E+02  0.7816164E-02  0.1226708E+00
        -11   -1    0    0    0    0  0.00000000000E+00  0.00000000000E+00  0.45593999997E+02  0.45594000000E+02  0.51100000000E-03 0.  1.
         11   -1    0    0    0    0 -0.00000000000E+00 -0.00000000000E+00 -0.45593999997E+02  0.45594000000E+02  0.51100000000E-03 0. -1.
    9900012    2    1    2    0    0 -0.72899074148E+00  0.13823492960E+02  0.12611861811E+02  0.72461562980E+02  0.69999990472E+02 0.  0.
         12    1    1    2    0    0  0.72899074148E+00 -0.13823492960E+02 -0.12611861811E+02  0.18726437020E+02  0.00000000000E+00 0. -1.
         11    1    3    3    0    0 -0.96733022747E-01 -0.14696773169E+01 -0.61004835608E+01  0.62757635894E+01  0.51100000000E-03 0. -1.
        -11    1    3    3    0    0  0.21454256772E+02 -0.12315571904E+02  0.18396255615E+02  0.30828244612E+02  0.51100000000E-03 0.  1.
         12    1    3    3    0    0 -0.22086514490E+02  0.27608742181E+02  0.31608975696E+00  0.35357554778E+02  0.00000000000E+00 0. -1.
</event>
<event>
 7    1  0.2797450E-013  0.7246157E+02  0.7816164E-02  0.1226708E+00
        -11   -1    0    0    0    0  0.00000000000E+00  0.00000000000E+00  0.45593999997E+02  0.45594000000E+02  0.51100000000E-03 0.  1.
         11   -1    0    0    0    0 -0.00000000000E+00 -0.00000000000E+00 -0.45593999997E+02  0.45594000000E+02  0.51100000000E-03 0. -1.
    9900012    2    1    2    0    0  0.96157848896E+01 -0.13639173277E+02  0.84964067104E+01  0.72461566978E+02  0.69999995680E+02 0.  0.
         12    1    1    2    0    0 -0.96157848896E+01  0.13639173277E+02 -0.84964067104E+01  0.18726433022E+02  0.00000000000E+00 0. -1.
         11    1    3    3    0    0  0.18886208044E+02  0.27689868576E+01 -0.79057914103E+00  0.19104480054E+02  0.51100000000E-03 0. -1.
        -11    1    3    3    0    0  0.90865206340E+01 -0.28893585801E+02  0.65462915079E+01  0.30988031406E+02  0.51100000000E-03 0.  1.
         12    1    3    3    0    0 -0.18356943788E+02  0.12485425666E+02  0.27406943436E+01  0.22369055518E+02  0.00000000000E+00 0. -1.
</event>
<event>
 7    1  0.2797450E-013  0.7246150E+02  0.7816164E-02  0.1226708E+00
        -11   -1    0    0    0    0  0.00000000000E+00  0.00000000000E+00  0.45593999997E+02  0.45594000000E+02  0.51100000000E-03 0. -1.
         11   -1    0    0    0    0 -0.00000000000E+00 -0.00000000000E+00 -0.45593999997E+02  0.45594000000E+02  0.51100000000E-03 0.  1.
    9900012    2    1    2    0    0 -0.16909797651E+02  0.80228337687E+01 -0.61213344420E+00  0.72461499375E+02  0.69999907615E+02 0.  0.
         12    1    1    2    0    0  0.16909797651E+02 -0.80228337687E+01  0.61213344420E+00  0.18726500625E+02  0.00000000000E+00 0. -1.
         11    1    3    3    0    0 -0.11295925339E+02 -0.13441050910E+02 -0.48906943857E+01  0.18225769412E+02  0.51100000000E-03 0. -1.
        -11    1    3    3    0    0 -0.23880226036E+02  0.25659252547E+02  0.18901906629E+00  0.35052791120E+02  0.51100000000E-03 0.  1.
        -12    1    3    3    0    0  0.18266353724E+02 -0.41953678685E+01  0.40895418753E+01  0.19182938844E+02  0.00000000000E+00 0.  1.
</event>
<event>
 7    1  0.2797450E-013  0.7246169E+02  0.7816164E-02  0.1226708E+00
        -11   -1    0    0    0    0  0.00000000000E+00  0.00000000000E+00  0.45593999997E+02  0.45594000000E+02  0.51100000000E-03 0. -1.
         11   -1    0    0    0    0 -0.00000000000E+00 -0.00000000000E+00 -0.45593999997E+02  0.45594000000E+02  0.51100000000E-03 0.  1.
    9900012    2    1    2    0    0 -0.15539542689E+02  0.68304664073E+01 -0.79083551946E+01  0.72461688558E+02  0.70000154061E+02 0.  0.
         12    1    1    2    0    0  0.15539542689E+02 -0.68304664073E+01  0.79083551946E+01  0.18726311442E+02  0.00000000000E+00 0. -1.
         11    1    3    3    0    0 -0.27520495912E+02 -0.33304777158E+00  0.40989237623E+01  0.27826063184E+02  0.51100000000E-03 0. -1.
        -11    1    3    3    0    0 -0.14364074822E+02  0.83123027526E+01 -0.53716396849E+01  0.17443495513E+02  0.51100000000E-03 0.  1.
         12    1    3    3    0    0  0.26345028045E+02 -0.11487885738E+01 -0.66356392721E+01  0.27192129862E+02  0.00000000000E+00 0. -1.
</event>
<event>
 7    1  0.2797450E-013  0.7246157E+02  0.7816164E-02  0.1226708E+00
        -11   -1    0    0    0    0  0.00000000000E+00  0.00000000000E+00  0.45593999997E+02  0.45594000000E+02  0.51100000000E-03 0. -1.
         11   -1    0    0    0    0 -0.00000000000E+00 -0.00000000000E+00 -0.45593999997E+02  0.45594000000E+02  0.51100000000E-03 0.  1.
    9900012    2    1    2    0    0  0.17249019753E+02  0.96110528935E-01 -0.72898033452E+01  0.72461570749E+02  0.70000000592E+02 0.  0.
         12    1    1    2    0    0 -0.17249019753E+02 -0.96110528935E-01  0.72898033452E+01  0.18726429251E+02  0.00000000000E+00 0. -1.
         11    1    3    3    0    0 -0.18969215942E+01 -0.43431927839E+01 -0.21550369601E+02  0.22065358943E+02  0.51100000000E-03 0. -1.
        -11    1    3    3    0    0  0.10776133888E+02  0.20753393101E+02 -0.48823187077E+01  0.23888604459E+02  0.51100000000E-03 0.  1.
         12    1    3    3    0    0  0.83698074597E+01 -0.16314089789E+02  0.19142884963E+02  0.26507607347E+02  0.00000000000E+00 0. -1.
</event>
<event>
 7    1  0.2797450E-013  0.7246141E+02  0.7816164E-02  0.1226708E+00
        -11   -1    0    0    0    0  0.00000000000E+00  0.00000000000E+00  0.45593999997E+02  0.45594000000E+02  0.51100000000E-03 0.  1.
         11   -1    0    0    0    0 -0.00000000000E+00 -0.00000000000E+00 -0.45593999997E+02  0.45594000000E+02  0.51100000000E-03 0. -1.
    9900012    2    1    2    0    0  0.25415986555E+01 -0.96314643253E+01 -0.15857501136E+02  0.72461410053E+02  0.69999791256E+02 0.  0.
         12    1    1    2    0    0 -0.25415986555E+01  0.96314643253E+01  0.15857501136E+02  0.18726589947E+02  0.00000000000E+00 0. -1.
         11    1    3    3    0    0 -0.63258428236E+01 -0.10986806633E+02 -0.15687996342E+02  0.20170261201E+02  0.51100000000E-03 0. -1.
        -11    1    3    3    0    0  0.10469153749E+02  0.25670541579E+02  0.21879810668E+01  0.27809479437E+02  0.51100000000E-03 0.  1.
         12    1    3    3    0    0 -0.16017122699E+01 -0.24315199270E+02 -0.23574858602E+01  0.24481669415E+02  0.00000000000E+00 0. -1.
</event>
<event>
 7    1  0.2797450E-013  0.7246156E+02  0.7816164E-02  0.1226708E+00
        -11   -1    0    0    0    0  0.00000000000E+00  0.00000000000E+00  0.45593999997E+02  0.45594000000E+02  0.51100000000E-03 0.  1.
         11   -1    0    0    0    0 -0.00000000000E+00 -0.00000000000E+00 -0.45593999997E+02  0.45594000000E+02  0.51100000000E-03 0. -1.
    9900012    2    1    2    0    0 -0.97027154288E+01  0.11624466879E+02  0.11018557540E+02  0.72461560745E+02  0.69999987560E+02 0.  0.
         12    1    1    2    0    0  0.97027154288E+01 -0.11624466879E+02 -0.11018557540E+02  0.18726439255E+02  0.00000000000E+00 0. -1.
         11    1    3    3    0    0 -0.10130295087E+02  0.39502553532E+01 -0.46286610914E+01  0.11817440487E+02  0.51100000000E-03 0. -1.
        -11    1    3    3    0    0  0.28588433366E+02  0.56681133500E+01  0.14081760160E+02  0.32368534115E+02  0.51100000000E-03 0.  1.
         12    1    3    3    0    0 -0.28160853709E+02  0.20060981761E+01  0.15654584716E+01  0.28275586143E+02  0.00000000000E+00 0. -1.
</event>
<event>
 7    1  0.2797450E-013  0.7246159E+02  0.7816164E-02  0.1226708E+00
        -11   -1    0    0    0    0  0.00000000000E+00  0.00000000000E+00  0.45593999997E+02  0.45594000000E+02  0.51100000000E-03 0.  1.
         11   -1    0    0    0    0 -0.00000000000E+00 -0.00000000000E+00 -0.45593999997E+02  0.45594000000E+02  0.51100000000E-03 0. -1.
    9900012    2    1    2    0    0 -0.13476383249E+02  0.95744046997E+01  0.87975256670E+01  0.72461585803E+02  0.70000020202E+02 0.  0.
         12    1    1    2    0    0  0.13476383249E+02 -0.95744046997E+01 -0.87975256670E+01  0.18726414197E+02  0.00000000000E+00 0. -1.
         11    1    3    3    0    0  0.15336155218E+02  0.14129361448E+02 -0.82604950976E+01  0.22429273090E+02  0.51100000000E-03 0.  1.
        -11    1    3    3    0    0 -0.20984164181E+02 -0.93073711795E+01 -0.72363056561E+01  0.24069200744E+02  0.51100000000E-03 0. -1.
         12    1    3    3    0    0 -0.78283742868E+01  0.47524144313E+01  0.24294326421E+02  0.25963111969E+02  0.00000000000E+00 0. -1.
</event>
<event>
 7    1  0.2797450E-013  0.7246179E+02  0.7816164E-02  0.1226707E+00
        -11   -1    0    0    0    0  0.00000000000E+00  0.00000000000E+00  0.45593999997E+02  0.45594000000E+02  0.51100000000E-03 0. -1.
         11   -1    0    0    0    0 -0.00000000000E+00 -0.00000000000E+00 -0.45593999997E+02  0.45594000000E+02  0.51100000000E-03 0.  1.
    9900012    2    1    2    0    0 -0.13961429886E+01  0.18307449449E+02 -0.36822770896E+01  0.72461786150E+02  0.70000281192E+02 0.  0.
         12    1    1    2    0    0  0.13961429886E+01 -0.18307449449E+02  0.36822770896E+01  0.18726213850E+02  0.00000000000E+00 0. -1.
         11    1    3    3    0    0 -0.62530652103E+01 -0.21842106500E+01  0.63704853317E+01  0.91899229764E+01  0.51100000000E-03 0. -1.
        -11    1    3    3    0    0 -0.20825498825E+02 -0.93662190801E+01 -0.97571377288E+00  0.22855622477E+02  0.51100000000E-03 0.  1.
         12    1    3    3    0    0  0.25682421047E+02  0.29857879179E+02 -0.90770486484E+01  0.40416240697E+02  0.00000000000E+00 0. -1.
</event>
<event>
 7    1  0.2797450E-013  0.7246149E+02  0.7816164E-02  0.1226708E+00
        -11   -1    0    0    0    0  0.00000000000E+00  0.00000000000E+00  0.45593999997E+02  0.45594000000E+02  0.51100000000E-03 0. -1.
         11   -1    0    0    0    0 -0.00000000000E+00 -0.00000000000E+00 -0.45593999997E+02  0.45594000000E+02  0.51100000000E-03 0.  1.
    9900012    2    1    2    0    0 -0.26532013774E+00 -0.10071843536E+02 -0.15785117137E+02  0.72461485375E+02  0.69999889376E+02 0.  0.
         12    1    1    2    0    0  0.26532013774E+00  0.10071843536E+02  0.15785117137E+02  0.18726514625E+02  0.00000000000E+00 0. -1.
         11    1    3    3    0    0 -0.26571874375E+01 -0.14469562918E+01 -0.39063703882E+01  0.49410583340E+01  0.51100000000E-03 0. -1.
        -11    1    3    3    0    0 -0.31746685083E+01 -0.12501631540E+02 -0.38210578831E+02  0.40328868644E+02  0.51100000000E-03 0.  1.
         12    1    3    3    0    0  0.55665358081E+01  0.38767442965E+01  0.26331832082E+02  0.27191558396E+02  0.00000000000E+00 0. -1.
</event>
<event>
 7    1  0.2797450E-013  0.7246156E+02  0.7816164E-02  0.1226708E+00
        -11   -1    0    0    0    0  0.00000000000E+00  0.00000000000E+00  0.45593999997E+02  0.45594000000E+02  0.51100000000E-03 0.  1.
         11   -1    0    0    0    0 -0.00000000000E+00 -0.00000000000E+00 -0.45593999997E+02  0.45594000000E+02  0.51100000000E-03 0. -1.
    9900012    2    1    2    0    0  0.49591253723E-01 -0.42127375754E+01  0.18246362953E+02  0.72461564723E+02  0.69999992742E+02 0.  0.
         12    1    1    2    0    0 -0.49591253723E-01  0.42127375754E+01 -0.18246362953E+02  0.18726435277E+02  0.00000000000E+00 0. -1.
         11    1    3    3    0    0 -0.47806904191E+01 -0.32400352926E+01 -0.13974878340E+02  0.15121179004E+02  0.51100000000E-03 0. -1.
        -11    1    3    3    0    0 -0.94356847520E+01  0.11330921908E+02 -0.50439312917E+01  0.15584068184E+02  0.51100000000E-03 0.  1.
        -12    1    3    3    0    0  0.14265966425E+02 -0.12303624191E+02  0.37265172585E+02  0.41756317535E+02  0.00000000000E+00 0.  1.
</event>
<event>
 7    1  0.2797450E-013  0.7246160E+02  0.7816164E-02  0.1226708E+00
        -11   -1    0    0    0    0  0.00000000000E+00  0.00000000000E+00  0.45593999997E+02  0.45594000000E+02  0.51100000000E-03 0.  1.
         11   -1    0    0    0    0 -0.00000000000E+00 -0.00000000000E+00 -0.45593999997E+02  0.45594000000E+02  0.51100000000E-03 0. -1.
    9900012    2    1    2    0    0 -0.64484190431E+01  0.11176650688E+02  0.13571241404E+02  0.72461595593E+02  0.70000032956E+02 0.  0.
         12    1    1    2    0    0  0.64484190431E+01 -0.11176650688E+02 -0.13571241404E+02  0.18726404407E+02  0.00000000000E+00 0. -1.
         11    1    3    3    0    0  0.85973467077E+01 -0.50313388398E+01  0.10917824664E+01  0.10021014427E+02  0.51100000000E-03 0. -1.
        -11    1    3    3    0    0 -0.19361815052E+02 -0.15912219088E+02  0.16165355723E+02  0.29822765202E+02  0.51100000000E-03 0.  1.
         12    1    3    3    0    0  0.43160493010E+01  0.32120208616E+02 -0.36858967849E+01  0.32617815963E+02  0.00000000000E+00 0. -1.
</event>
<event>
 7    1  0.2797450E-013  0.7246178E+02  0.7816164E-02  0.1226707E+00
        -11   -1    0    0    0    0  0.00000000000E+00  0.00000000000E+00  0.45593999997E+02  0.45594000000E+02  0.51100000000E-03 0.  1.
         11   -1    0    0    0    0 -0.00000000000E+00 -0.00000000000E+00 -0.45593999997E+02  0.45594000000E+02  0.51100000000E-03 0. -1.
    9900012    2    1    2    0    0  0.13417959730E+02 -0.35190530112E+01  0.12579589625E+02  0.72461776341E+02  0.70000268414E+02 0.  0.
         12    1    1    2    0    0 -0.13417959730E+02  0.35190530112E+01 -0.12579589625E+02  0.18726223659E+02  0.00000000000E+00 0. -1.
         11    1    3    3    0    0  0.89890607200E+01 -0.22177973422E+01  0.19554400263E+02  0.21635535759E+02  0.51100000000E-03 0.  1.
        -11    1    3    3    0    0 -0.16651691943E+02 -0.97293922775E+01 -0.17279206829E+02  0.25894225371E+02  0.51100000000E-03 0. -1.
         12    1    3    3    0    0  0.21080590953E+02  0.84281366085E+01  0.10304396191E+02  0.24932015211E+02  0.00000000000E+00 0. -1.
</event>
<event>
 7    1  0.2797450E-013  0.7246158E+02  0.7816164E-02  0.1226708E+00
        -11   -1    0    0    0    0  0.00000000000E+00  0.00000000000E+00  0.45593999997E+02  0.45594000000E+02  0.51100000000E-03 0.  1.
         11   -1    0    0    0    0 -0.00000000000E+00 -0.00000000000E+00 -0.45593999997E+02  0.45594000000E+02  0.51100000000E-03 0. -1.
    9900012    2    1    2    0    0  0.49289731672E+01  0.82455726831E+01  0.16074656067E+02  0.72461579813E+02  0.70000012399E+02 0.  0.
         12    1    1    2    0    0 -0.49289731672E+01 -0.82455726831E+01 -0.16074656067E+02  0.18726420187E+02  0.00000000000E+00 0. -1.
         11    1    3    3    0    0  0.48933799694E+01  0.23765792134E+01  0.21788553650E+01  0.58600944741E+01  0.51100000000E-03 0. -1.
        -11    1    3    3    0    0  0.20406667502E+02  0.27726987721E+02  0.12712419847E+02  0.36699094611E+02  0.51100000000E-03 0.  1.
         12    1    3    3    0    0 -0.20371074304E+02 -0.21857994251E+02  0.11833808553E+01  0.29902390728E+02  0.00000000000E+00 0. -1.
</event>
<event>
 7    1  0.2797450E-013  0.7246157E+02  0.7816164E-02  0.1226708E+00
        -11   -1    0    0    0    0  0.00000000000E+00  0.00000000000E+00  0.45593999997E+02  0.45594000000E+02  0.51100000000E-03 0.  1.
         11   -1    0    0    0    0 -0.00000000000E+00 -0.00000000000E+00 -0.45593999997E+02  0.45594000000E+02  0.51100000000E-03 0. -1.
    9900012    2    1    2    0    0  0.22323654220E+01 -0.40151303002E+01  0.18154186011E+02  0.72461569576E+02  0.69999999065E+02 0.  0.
         12    1    1    2    0    0 -0.22323654220E+01  0.40151303002E+01 -0.18154186011E+02  0.18726430424E+02  0.00000000000E+00 0. -1.
         11    1    3    3    0    0 -0.46722642540E+01 -0.14555788743E+02 -0.10699533902E+02  0.18659610531E+02  0.51100000000E-03 0. -1.
        -11    1    3    3    0    0  0.19442460933E+02 -0.27314400671E+00 -0.12084061390E+01  0.19481892630E+02  0.51100000000E-03 0.  1.
        -12    1    3    3    0    0 -0.12537831257E+02  0.10813802449E+02  0.30062126052E+02  0.34320066416E+02  0.00000000000E+00 0.  1.
</event>
<event>
 7    1  0.2797450E-013  0.7246161E+02  0.7816164E-02  0.1226708E+00
        -11   -1    0    0    0    0  0.00000000000E+00  0.00000000000E+00  0.45593999997E+02  0.45594000000E+02  0.51100000000E-03 0.  1.
         11   -1    0    0    0    0 -0.00000000000E+00 -0.00000000000E+00 -0.45593999997E+02  0.45594000000E+02  0.51100000000E-03 0. -1.
    9900012    2    1    2    0    0 -0.15104033469E+02 -0.42419564736E+01  0.10225052498E+02  0.72461608987E+02  0.70000050405E+02 0.  0.
         12    1    1    2    0    0  0.15104033469E+02  0.42419564736E+01 -0.10225052498E+02  0.18726391013E+02  0.00000000000E+00 0. -1.
         11    1    3    3    0    0  0.11150603941E+02 -0.14154053866E+02  0.78289988807E-01  0.18018860637E+02  0.51100000000E-03 0. -1.
        -11    1    3    3    0    0 -0.50559087316E+01 -0.16718703194E+02  0.10544272074E+02  0.20402424449E+02  0.51100000000E-03 0.  1.
        -12    1    3    3    0    0 -0.21198728678E+02  0.26630800586E+02 -0.39750956430E+00  0.34040323901E+02  0.00000000000E+00 0.  1.
</event>
<event>
 7    1  0.2797450E-013  0.7246149E+02  0.7816164E-02  0.1226708E+00
        -11   -1    0    0    0    0  0.00000000000E+00  0.00000000000E+00  0.45593999997E+02  0.45594000000E+02  0.51100000000E-03 0. -1.
         11   -1    0    0    0    0 -0.00000000000E+00 -0.00000000000E+00 -0.45593999997E+02  0.45594000000E+02  0.51100000000E-03 0.  1.
    9900012    2    1    2    0    0  0.12769943775E+02  0.58093031000E-01 -0.13696980972E+02  0.72461491341E+02  0.69999897149E+02 0.  0.
         12    1    1    2    0    0 -0.12769943775E+02 -0.58093031000E-01  0.13696980972E+02  0.18726508659E+02  0.00000000000E+00 0. -1.
         11    1    3    3    0    0 -0.12444360090E+02  0.11090818012E+02 -0.31289338650E+01  0.16960500276E+02  0.51100000000E-03 0. -1.
        -11    1    3    3    0    0  0.15652961127E+02 -0.72149173344E+01 -0.29376299788E+02  0.34059319043E+02  0.51100000000E-03 0.  1.
        -12    1    3    3    0    0  0.95613427376E+01 -0.38178076461E+01  0.18808252682E+02  0.21441672022E+02  0.00000000000E+00 0.  1.
</event>
<event>
 7    1  0.2797450E-013  0.7246154E+02  0.7816164E-02  0.1226708E+00
        -11   -1    0    0    0    0  0.00000000000E+00  0.00000000000E+00  0.45593999997E+02  0.45594000000E+02  0.51100000000E-03 0.  1.
         11   -1    0    0    0    0 -0.00000000000E+00 -0.00000000000E+00 -0.45593999997E+02  0.45594000000E+02  0.51100000000E-03 0. -1.
    9900012    2    1    2    0    0 -0.15709716803E+01  0.17261248038E+02  0.70895480013E+01  0.72461539397E+02  0.69999959751E+02 0.  0.
         12    1    1    2    0    0  0.15709716803E+01 -0.17261248038E+02 -0.70895480013E+01  0.18726460603E+02  0.00000000000E+00 0. -1.
         11    1    3    3    0    0  0.25820432703E+02  0.80985491440E+01 -0.16290678699E+02  0.31585874310E+02  0.51100000000E-03 0. -1.
        -11    1    3    3    0    0 -0.35807613922E+01  0.22017203429E+01  0.13557909670E+02  0.14194588388E+02  0.51100000000E-03 0.  1.
        -12    1    3    3    0    0 -0.23810642991E+02  0.69609785510E+01  0.98223170300E+01  0.26681076700E+02  0.00000000000E+00 0.  1.
</event>
<event>
 7    1  0.2797450E-013  0.7246162E+02  0.7816164E-02  0.1226708E+00
        -11   -1    0    0    0    0  0.00000000000E+00  0.00000000000E+00  0.45593999997E+02  0.45594000000E+02  0.51100000000E-03 0.  1.
         11   -1    0    0    0    0 -0.00000000000E+00 -0.00000000000E+00 -0.45593999997E+02  0.45594000000E+02  0.51100000000E-03 0. -1.
    9900012    2    1    2    0    0  0.91263864758E+01  0.52292910707E+01  0.15493255866E+02  0.72461617740E+02  0.70000061807E+02 0.  0.
         12    1    1    2    0    0 -0.91263864758E+01 -0.52292910707E+01 -0.15493255866E+02  0.18726382260E+02  0.00000000000E+00 0. -1.
         11    1    3    3    0    0 -0.58578351861E+01 -0.22390776904E+02 -0.18411676005E+01  0.23217472339E+02  0.51100000000E-03 0. -1.
        -11    1    3    3    0    0  0.14316062808E+02 -0.34819148570E+01  0.79973901685E+01  0.16763998185E+02  0.51100000000E-03 0.  1.
         12    1    3    3    0    0  0.66815885422E+00  0.31101982832E+02  0.93370332984E+01  0.32480147215E+02  0.00000000000E+00 0. -1.
</event>
<event>
 7    1  0.2797450E-013  0.7246155E+02  0.7816164E-02  0.1226708E+00
        -11   -1    0    0    0    0  0.00000000000E+00  0.00000000000E+00  0.45593999997E+02  0.45594000000E+02  0.51100000000E-03 0.  1.
         11   -1    0    0    0    0 -0.00000000000E+00 -0.00000000000E+00 -0.45593999997E+02  0.45594000000E+02  0.51100000000E-03 0. -1.
    9900012    2    1    2    0    0  0.18404883715E+02  0.34552985739E+01  0.31339119382E-01  0.72461553061E+02  0.69999977551E+02 0.  0.
         12    1    1    2    0    0 -0.18404883715E+02 -0.34552985739E+01 -0.31339119382E-01  0.18726446939E+02  0.00000000000E+00 0. -1.
         11    1    3    3    0    0  0.66958162813E+01  0.94711976744E+01  0.15955429682E+01  0.11708257713E+02  0.51100000000E-03 0. -1.
        -11    1    3    3    0    0 -0.29072285113E+01  0.71356939753E+01  0.25874309182E+02  0.26997221747E+02  0.51100000000E-03 0.  1.
         12    1    3    3    0    0  0.14616295945E+02 -0.13151593076E+02 -0.27438513031E+02  0.33756073601E+02  0.00000000000E+00 0. -1.
</event>
<event>
 7    1  0.2797450E-013  0.7246158E+02  0.7816164E-02  0.1226708E+00
        -11   -1    0    0    0    0  0.00000000000E+00  0.00000000000E+00  0.45593999997E+02  0.45594000000E+02  0.51100000000E-03 0.  1.
         11   -1    0    0    0    0 -0.00000000000E+00 -0.00000000000E+00 -0.45593999997E+02  0.45594000000E+02  0.51100000000E-03 0. -1.
    9900012    2    1    2    0    0 -0.13975859456E+02  0.60817055545E+01  0.10879654885E+02  0.72461583354E+02  0.70000017012E+02 0.  0.
         12    1    1    2    0    0  0.13975859456E+02 -0.60817055545E+01 -0.10879654885E+02  0.18726416646E+02  0.00000000000E+00 0. -1.
         11    1    3    3    0    0 -0.11488358705E+01  0.12434398906E+02 -0.21041858170E+02  0.24468222157E+02  0.51100000000E-03 0. -1.
        -11    1    3    3    0    0  0.93183417316E+01 -0.96285075618E+01  0.10705293688E+02  0.17150596599E+02  0.51100000000E-03 0.  1.
        -12    1    3    3    0    0 -0.22145365317E+02  0.32758142102E+01  0.21216219368E+02  0.30842764598E+02  0.00000000000E+00 0.  1.
</event>
<event>
 7    1  0.2797450E-013  0.7246158E+02  0.7816164E-02  0.1226708E+00
        -11   -1    0    0    0    0  0.00000000000E+00  0.00000000000E+00  0.45593999997E+02  0.45594000000E+02  0.51100000000E-03 0. -1.
         11   -1    0    0    0    0 -0.00000000000E+00 -0.00000000000E+00 -0.45593999997E+02  0.45594000000E+02  0.51100000000E-03 0.  1.
    9900012    2    1    2    0    0 -0.48646693449E+01  0.13094000834E+02 -0.12472410156E+02  0.72461578003E+02  0.70000010043E+02 0.  0.
         12    1    1    2    0    0  0.48646693449E+01 -0.13094000834E+02  0.12472410156E+02  0.18726421997E+02  0.00000000000E+00 0. -1.
         11    1    3    3    0    0 -0.75802737019E+00  0.12856576285E+01 -0.24314923249E+02  0.24360685825E+02  0.51100000000E-03 0. -1.
        -11    1    3    3    0    0  0.15395740319E+02  0.84996003407E+01 -0.86675625017E+01  0.19606087470E+02  0.51100000000E-03 0.  1.
         12    1    3    3    0    0 -0.19502382293E+02  0.33087428652E+01  0.20510075594E+02  0.28494804708E+02  0.00000000000E+00 0. -1.
</event>
<event>
 7    1  0.2797450E-013  0.7246158E+02  0.7816164E-02  0.1226708E+00
        -11   -1    0    0    0    0  0.00000000000E+00  0.00000000000E+00  0.45593999997E+02  0.45594000000E+02  0.51100000000E-03 0. -1.
         11   -1    0    0    0    0 -0.00000000000E+00 -0.00000000000E+00 -0.45593999997E+02  0.45594000000E+02  0.51100000000E-03 0.  1.
    9900012    2    1    2    0    0 -0.55410120977E+01  0.11717553954E+02 -0.13515731131E+02  0.72461578192E+02  0.70000010288E+02 0.  0.
         12    1    1    2    0    0  0.55410120977E+01 -0.11717553954E+02  0.13515731131E+02  0.18726421808E+02  0.00000000000E+00 0. -1.
         11    1    3    3    0    0  0.19062509714E+02 -0.71517369837E+01  0.14568060608E+01  0.20411979390E+02  0.51100000000E-03 0. -1.
        -11    1    3    3    0    0 -0.11261077978E+02  0.14658923400E+02 -0.27589684503E+02  0.33209736580E+02  0.51100000000E-03 0.  1.
         12    1    3    3    0    0 -0.13342443833E+02  0.42103675375E+01  0.12617147311E+02  0.18839862221E+02  0.00000000000E+00 0. -1.
</event>
<event>
 7    1  0.2797450E-013  0.7246157E+02  0.7816164E-02  0.1226708E+00
        -11   -1    0    0    0    0  0.00000000000E+00  0.00000000000E+00  0.45593999997E+02  0.45594000000E+02  0.51100000000E-03 0.  1.
         11   -1    0    0    0    0 -0.00000000000E+00 -0.00000000000E+00 -0.45593999997E+02  0.45594000000E+02  0.51100000000E-03 0. -1.
    9900012    2    1    2    0    0 -0.15827078059E+02 -0.60937156194E+01  0.79403565154E+01  0.72461573978E+02  0.70000004799E+02 0.  0.
         12    1    1    2    0    0  0.15827078059E+02  0.60937156194E+01 -0.79403565154E+01  0.18726426022E+02  0.00000000000E+00 0. -1.
         11    1    3    3    0    0 -0.25357059599E+01 -0.20185168218E+02  0.10090936384E+02  0.22708981000E+02  0.51100000000E-03 0. -1.
        -11    1    3    3    0    0 -0.15469400530E+02  0.19721201556E+02  0.16594179642E+02  0.30059855985E+02  0.51100000000E-03 0.  1.
         12    1    3    3    0    0  0.21780284301E+01 -0.56297489574E+01 -0.18744759511E+02  0.19692736993E+02  0.00000000000E+00 0. -1.
</event>
<event>
 7    1  0.2797450E-013  0.7246156E+02  0.7816164E-02  0.1226708E+00
        -11   -1    0    0    0    0  0.00000000000E+00  0.00000000000E+00  0.45593999997E+02  0.45594000000E+02  0.51100000000E-03 0.  1.
         11   -1    0    0    0    0 -0.00000000000E+00 -0.00000000000E+00 -0.45593999997E+02  0.45594000000E+02  0.51100000000E-03 0. -1.
    9900012    2    1    2    0    0 -0.15326932096E+01  0.97157416487E+00  0.18638309384E+02  0.72461556624E+02  0.69999982192E+02 0.  0.
         12    1    1    2    0    0  0.15326932096E+01 -0.97157416487E+00 -0.18638309384E+02  0.18726443376E+02  0.00000000000E+00 0. -1.
         11    1    3    3    0    0  0.83651555028E+01 -0.87647792837E+01  0.20760591688E+01  0.12292567039E+02  0.51100000000E-03 0. -1.
        -11    1    3    3    0    0 -0.17777982416E+02 -0.61393980062E+01  0.31700492358E+02  0.36860142195E+02  0.51100000000E-03 0.  1.
        -12    1    3    3    0    0  0.78801337039E+01  0.15875751455E+02 -0.15138242143E+02  0.23308847389E+02  0.00000000000E+00 0.  1.
</event>
<event>
 7    1  0.2797450E-013  0.7246157E+02  0.7816164E-02  0.1226708E+00
        -11   -1    0    0    0    0  0.00000000000E+00  0.00000000000E+00  0.45593999997E+02  0.45594000000E+02  0.51100000000E-03 0.  1.
         11   -1    0    0    0    0 -0.00000000000E+00 -0.00000000000E+00 -0.45593999997E+02  0.45594000000E+02  0.51100000000E-03 0. -1.
    9900012    2    1    2    0    0 -0.16979101370E+02 -0.34154770405E+01  0.71220631250E+01  0.72461570818E+02  0.70000000683E+02 0.  0.
         12    1    1    2    0    0  0.16979101370E+02  0.34154770405E+01 -0.71220631250E+01  0.18726429182E+02  0.00000000000E+00 0. -1.
         11    1    3    3    0    0 -0.18941560733E+02 -0.71333686296E+01  0.60649246357E+00  0.20249333430E+02  0.51100000000E-03 0. -1.
        -11    1    3    3    0    0  0.22350847512E+02 -0.30115639953E+01  0.17073342775E+02  0.28286550443E+02  0.51100000000E-03 0.  1.
         12    1    3    3    0    0 -0.20388388149E+02  0.67294555845E+01 -0.10557772114E+02  0.23925686945E+02  0.00000000000E+00 0. -1.
</event>
<event>
 7    1  0.2797450E-013  0.7246156E+02  0.7816164E-02  0.1226708E+00
        -11   -1    0    0    0    0  0.00000000000E+00  0.00000000000E+00  0.45593999997E+02  0.45594000000E+02  0.51100000000E-03 0. -1.
         11   -1    0    0    0    0 -0.00000000000E+00 -0.00000000000E+00 -0.45593999997E+02  0.45594000000E+02  0.51100000000E-03 0.  1.
    9900012    2    1    2    0    0  0.72325802189E+01 -0.16835469532E+02 -0.38647549065E+01  0.72461559295E+02  0.69999985671E+02 0.  0.
         12    1    1    2    0    0 -0.72325802189E+01  0.16835469532E+02  0.38647549065E+01  0.18726440705E+02  0.00000000000E+00 0. -1.
         11    1    3    3    0    0 -0.68737967951E+01 -0.25219944930E+02 -0.20296246695E+02  0.33094294597E+02  0.51100000000E-03 0.  1.
        -11    1    3    3    0    0 -0.97155474465E+01  0.47818622300E+01  0.92097442442E+01  0.14215395101E+02  0.51100000000E-03 0. -1.
        -12    1    3    3    0    0  0.23821924460E+02  0.36026131678E+01  0.72217475447E+01  0.25151869597E+02  0.00000000000E+00 0.  1.
</event>
<event>
 7    1  0.2797450E-013  0.7246163E+02  0.7816164E-02  0.1226708E+00
        -11   -1    0    0    0    0  0.00000000000E+00  0.00000000000E+00  0.45593999997E+02  0.45594000000E+02  0.51100000000E-03 0.  1.
         11   -1    0    0    0    0 -0.00000000000E+00 -0.00000000000E+00 -0.45593999997E+02  0.45594000000E+02  0.51100000000E-03 0. -1.
    9900012    2    1    2    0    0 -0.16998904306E+02  0.35025043087E+01  0.70318258525E+01  0.72461631990E+02  0.70000080370E+02 0.  0.
         12    1    1    2    0    0  0.16998904306E+02 -0.35025043087E+01 -0.70318258525E+01  0.18726368010E+02  0.00000000000E+00 0. -1.
         11    1    3    3    0    0  0.11169633030E+01  0.62642145598E+01  0.12547002345E+01  0.64855426921E+01  0.51100000000E-03 0. -1.
        -11    1    3    3    0    0 -0.15462361410E+01  0.16874937816E+02  0.27519106842E+02  0.32318038525E+02  0.51100000000E-03 0.  1.
         12    1    3    3    0    0 -0.16569631468E+02 -0.19636648067E+02 -0.21741981224E+02  0.33658050773E+02  0.00000000000E+00 0. -1.
</event>
<event>
 7    1  0.2797450E-013  0.7246159E+02  0.7816164E-02  0.1226708E+00
        -11   -1    0    0    0    0  0.00000000000E+00  0.00000000000E+00  0.45593999997E+02  0.45594000000E+02  0.51100000000E-03 0.  1.
         11   -1    0    0    0    0 -0.00000000000E+00 -0.00000000000E+00 -0.45593999997E+02  0.45594000000E+02  0.51100000000E-03 0. -1.
    9900012    2    1    2    0    0  0.30598088325E+01  0.56660219095E+01  0.17584425918E+02  0.72461594332E+02  0.70000031313E+02 0.  0.
         12    1    1    2    0    0 -0.30598088325E+01 -0.56660219095E+01 -0.17584425918E+02  0.18726405668E+02  0.00000000000E+00 0. -1.
         11    1    3    3    0    0 -0.10314042466E+02  0.12454337248E+02 -0.34637070944E+00  0.16174361230E+02  0.51100000000E-03 0. -1.
        -11    1    3    3    0    0 -0.12853145139E+02  0.13269290014E+02  0.13700787205E+02  0.22999760167E+02  0.51100000000E-03 0.  1.
         12    1    3    3    0    0  0.26226996438E+02 -0.20057605353E+02  0.42300094230E+01  0.33287472934E+02  0.00000000000E+00 0. -1.
</event>
<event>
 7    1  0.2797450E-013  0.7246161E+02  0.7816164E-02  0.1226708E+00
        -11   -1    0    0    0    0  0.00000000000E+00  0.00000000000E+00  0.45593999997E+02  0.45594000000E+02  0.51100000000E-03 0.  1.
         11   -1    0    0    0    0 -0.00000000000E+00 -0.00000000000E+00 -0.45593999997E+02  0.45594000000E+02  0.51100000000E-03 0. -1.
    9900012    2    1    2    0    0  0.19724268085E+01 -0.14292182076E+02  0.11938200538E+02  0.72461613053E+02  0.70000055700E+02 0.  0.
         12    1    1    2    0    0 -0.19724268085E+01  0.14292182076E+02 -0.11938200538E+02  0.18726386947E+02  0.00000000000E+00 0. -1.
         11    1    3    3    0    0 -0.15811408814E+02 -0.48078821730E+01  0.17572809275E+01  0.16619398791E+02  0.51100000000E-03 0. -1.
        -11    1    3    3    0    0  0.12189650658E+02 -0.21587645811E+02 -0.13822234985E+02  0.28384295219E+02  0.51100000000E-03 0.  1.
        -12    1    3    3    0    0  0.55941849641E+01  0.12103345908E+02  0.24003154596E+02  0.27457919042E+02  0.00000000000E+00 0.  1.
</event>
<event>
 7    1  0.2797450E-013  0.7246159E+02  0.7816164E-02  0.1226708E+00
        -11   -1    0    0    0    0  0.00000000000E+00  0.00000000000E+00  0.45593999997E+02  0.45594000000E+02  0.51100000000E-03 0.  1.
         11   -1    0    0    0    0 -0.00000000000E+00 -0.00000000000E+00 -0.45593999997E+02  0.45594000000E+02  0.51100000000E-03 0. -1.
    9900012    2    1    2    0    0 -0.93366582362E+01  0.61930201490E+00  0.16221030129E+02  0.72461587091E+02  0.70000021880E+02 0.  0.
         12    1    1    2    0    0  0.93366582362E+01 -0.61930201490E+00 -0.16221030129E+02  0.18726412909E+02  0.00000000000E+00 0. -1.
         11    1    3    3    0    0  0.18877199066E+01 -0.48028303316E+01  0.12481626040E+02  0.13506356078E+02  0.51100000000E-03 0. -1.
        -11    1    3    3    0    0 -0.14734130829E+01 -0.24536958382E+02  0.10503681911E+02  0.26731266463E+02  0.51100000000E-03 0.  1.
         12    1    3    3    0    0 -0.97509650600E+01  0.29959090728E+02 -0.67642778220E+01  0.32223964550E+02  0.00000000000E+00 0. -1.
</event>
<event>
 7    1  0.2797450E-013  0.7246152E+02  0.7816164E-02  0.1226708E+00
        -11   -1    0    0    0    0  0.00000000000E+00  0.00000000000E+00  0.45593999997E+02  0.45594000000E+02  0.51100000000E-03 0. -1.
         11   -1    0    0    0    0 -0.00000000000E+00 -0.00000000000E+00 -0.45593999997E+02  0.45594000000E+02  0.51100000000E-03 0.  1.
    9900012    2    1    2    0    0 -0.10022762295E+02 -0.22959836289E+01 -0.15651003582E+02  0.72461515600E+02  0.69999928751E+02 0.  0.
         12    1    1    2    0    0  0.10022762295E+02  0.22959836289E+01  0.15651003582E+02  0.18726484400E+02  0.00000000000E+00 0. -1.
         11    1    3    3    0    0 -0.64881732567E+01  0.12480075325E+02 -0.57663002231E+01  0.15201937075E+02  0.51100000000E-03 0. -1.
        -11    1    3    3    0    0 -0.71889006135E+01 -0.30912139252E+02 -0.20333097706E+02  0.37691849354E+02  0.51100000000E-03 0.  1.
         12    1    3    3    0    0  0.36543115750E+01  0.16136080298E+02  0.10448394347E+02  0.19567729171E+02  0.00000000000E+00 0. -1.
</event>
<event>
 7    1  0.2797450E-013  0.7246158E+02  0.7816164E-02  0.1226708E+00
        -11   -1    0    0    0    0  0.00000000000E+00  0.00000000000E+00  0.45593999997E+02  0.45594000000E+02  0.51100000000E-03 0. -1.
         11   -1    0    0    0    0 -0.00000000000E+00 -0.00000000000E+00 -0.45593999997E+02  0.45594000000E+02  0.51100000000E-03 0.  1.
    9900012    2    1    2    0    0 -0.18041952633E+02  0.47523130171E+00 -0.49940982420E+01  0.72461577040E+02  0.70000008788E+02 0.  0.
         12    1    1    2    0    0  0.18041952633E+02 -0.47523130171E+00  0.49940982420E+01  0.18726422960E+02  0.00000000000E+00 0. -1.
         11    1    3    3    0    0  0.11300959406E+02  0.50755729307E+01  0.20649995014E+02  0.24081017803E+02  0.51100000000E-03 0. -1.
        -11    1    3    3    0    0  0.35263629297E+01  0.55803056394E+01 -0.36665292364E+01  0.75510584320E+01  0.51100000000E-03 0.  1.
        -12    1    3    3    0    0 -0.32869274969E+02 -0.10180647268E+02 -0.21977564020E+02  0.40829500806E+02  0.00000000000E+00 0.  1.
</event>
<event>
 7    1  0.2797450E-013  0.7246155E+02  0.7816164E-02  0.1226708E+00
        -11   -1    0    0    0    0  0.00000000000E+00  0.00000000000E+00  0.45593999997E+02  0.45594000000E+02  0.51100000000E-03 0.  1.
         11   -1    0    0    0    0 -0.00000000000E+00 -0.00000000000E+00 -0.45593999997E+02  0.45594000000E+02  0.51100000000E-03 0. -1.
    9900012    2    1    2    0    0 -0.50407868839E+01  0.77535007739E+01  0.16283536201E+02  0.72461551915E+02  0.69999976058E+02 0.  0.
         12    1    1    2    0    0  0.50407868839E+01 -0.77535007739E+01 -0.16283536201E+02  0.18726448085E+02  0.00000000000E+00 0. -1.
         11    1    3    3    0    0  0.16326276037E+02  0.10307891166E+02  0.23255443708E+02  0.30226074370E+02  0.51100000000E-03 0. -1.
        -11    1    3    3    0    0 -0.25959619446E+01  0.27107576398E+01  0.13472592835E+02  0.13985634893E+02  0.51100000000E-03 0.  1.
        -12    1    3    3    0    0 -0.18771100977E+02 -0.52651480319E+01 -0.20444500341E+02  0.28249842652E+02  0.00000000000E+00 0.  1.
</event>
<event>
 7    1  0.2797450E-013  0.7246159E+02  0.7816164E-02  0.1226708E+00
        -11   -1    0    0    0    0  0.00000000000E+00  0.00000000000E+00  0.45593999997E+02  0.45594000000E+02  0.51100000000E-03 0. -1.
         11   -1    0    0    0    0 -0.00000000000E+00 -0.00000000000E+00 -0.45593999997E+02  0.45594000000E+02  0.51100000000E-03 0.  1.
    9900012    2    1    2    0    0 -0.15750567718E+02 -0.38184706147E+01  0.93817551239E+01  0.72461590027E+02  0.70000025705E+02 0.  0.
         12    1    1    2    0    0  0.15750567718E+02  0.38184706147E+01 -0.93817551239E+01  0.18726409973E+02  0.00000000000E+00 0. -1.
         11    1    3    3    0    0 -0.11945589514E+02 -0.18066044967E+02  0.20271441845E+02  0.29664969986E+02  0.51100000000E-03 0. -1.
        -11    1    3    3    0    0  0.13110755361E+02 -0.64423802497E+01 -0.27977324008E+01  0.14873583168E+02  0.51100000000E-03 0.  1.
         12    1    3    3    0    0 -0.16915733565E+02  0.20689954602E+02 -0.80919543198E+01  0.27923036872E+02  0.00000000000E+00 0. -1.
</event>
<event>
 7    1  0.2797450E-013  0.7246163E+02  0.7816164E-02  0.1226708E+00
        -11   -1    0    0    0    0  0.00000000000E+00  0.00000000000E+00  0.45593999997E+02  0.45594000000E+02  0.51100000000E-03 0. -1.
         11   -1    0    0    0    0 -0.00000000000E+00 -0.00000000000E+00 -0.45593999997E+02  0.45594000000E+02  0.51100000000E-03 0.  1.
    9900012    2    1    2    0    0 -0.10456754548E+02 -0.13988137540E+02  0.67576089766E+01  0.72461628579E+02  0.70000075927E+02 0.  0.
         12    1    1    2    0    0  0.10456754548E+02  0.13988137540E+02 -0.67576089766E+01  0.18726371421E+02  0.00000000000E+00 0. -1.
         11    1    3    3    0    0  0.12362442171E+02 -0.33682852752E+01  0.96572449034E+01  0.16044865269E+02  0.51100000000E-03 0. -1.
        -11    1    3    3    0    0  0.69513601273E+01  0.13654158194E+02 -0.86209278422E+01  0.17580609794E+02  0.51100000000E-03 0.  1.
         12    1    3    3    0    0 -0.29770556847E+02 -0.24274010459E+02  0.57212919154E+01  0.38836153516E+02  0.00000000000E+00 0. -1.
</event>
<event>
 7    1  0.2797450E-013  0.7246146E+02  0.7816164E-02  0.1226708E+00
        -11   -1    0    0    0    0  0.00000000000E+00  0.00000000000E+00  0.45593999997E+02  0.45594000000E+02  0.51100000000E-03 0.  1.
         11   -1    0    0    0    0 -0.00000000000E+00 -0.00000000000E+00 -0.45593999997E+02  0.45594000000E+02  0.51100000000E-03 0. -1.
    9900012    2    1    2    0    0 -0.12897581965E+02 -0.90332418770E+01 -0.10135888599E+02  0.72461459555E+02  0.69999855741E+02 0.  0.
         12    1    1    2    0    0  0.12897581965E+02  0.90332418770E+01  0.10135888599E+02  0.18726540445E+02  0.00000000000E+00 0. -1.
         11    1    3    3    0    0  0.49024124591E+01 -0.45358646231E+00 -0.55427011808E+01  0.74135635991E+01  0.51100000000E-03 0. -1.
        -11    1    3    3    0    0 -0.40454127754E+01  0.26450813610E+02 -0.58599872335E+01  0.27392523720E+02  0.51100000000E-03 0.  1.
         12    1    3    3    0    0 -0.13754581649E+02 -0.35030469024E+02  0.12667998156E+01  0.37655372235E+02  0.00000000000E+00 0. -1.
</event>
<event>
 7    1  0.2797450E-013  0.7246155E+02  0.7816164E-02  0.1226708E+00
        -11   -1    0    0    0    0  0.00000000000E+00  0.00000000000E+00  0.45593999997E+02  0.45594000000E+02  0.51100000000E-03 0. -1.
         11   -1    0    0    0    0 -0.00000000000E+00 -0.00000000000E+00 -0.45593999997E+02  0.45594000000E+02  0.51100000000E-03 0.  1.
    9900012    2    1    2    0    0 -0.42702260182E+01  0.32406748735E+01 -0.17942776441E+02  0.72461547312E+02  0.69999970061E+02 0.  0.
         12    1    1    2    0    0  0.42702260182E+01 -0.32406748735E+01  0.17942776441E+02  0.18726452688E+02  0.00000000000E+00 0. -1.
         11    1    3    3    0    0 -0.68185705924E+01  0.12459360925E+02 -0.29405639584E+02  0.32656090078E+02  0.51100000000E-03 0. -1.
        -11    1    3    3    0    0 -0.83199083424E+01 -0.49173776068E+01 -0.10902880867E+02  0.14569635850E+02  0.51100000000E-03 0.  1.
         12    1    3    3    0    0  0.10868252917E+02 -0.43013084451E+01  0.22365744010E+02  0.25235821384E+02  0.00000000000E+00 0. -1.
</event>
<event>
 7    1  0.2797450E-013  0.7246141E+02  0.7816164E-02  0.1226708E+00
        -11   -1    0    0    0    0  0.00000000000E+00  0.00000000000E+00  0.45593999997E+02  0.45594000000E+02  0.51100000000E-03 0.  1.
         11   -1    0    0    0    0 -0.00000000000E+00 -0.00000000000E+00 -0.45593999997E+02  0.45594000000E+02  0.51100000000E-03 0. -1.
    9900012    2    1    2    0    0  0.18593752694E+00  0.12278510271E+02 -0.14138197040E+02  0.72461414546E+02  0.69999797108E+02 0.  0.
         12    1    1    2    0    0 -0.18593752694E+00 -0.12278510271E+02  0.14138197040E+02  0.18726585454E+02  0.00000000000E+00 0. -1.
         11    1    3    3    0    0 -0.15086083306E+02  0.92560592044E+01 -0.18481203440E+01  0.17795507595E+02  0.51100000000E-03 0. -1.
        -11    1    3    3    0    0  0.16992486292E+02  0.18313670464E+02 -0.24523656211E+02  0.35007782427E+02  0.51100000000E-03 0.  1.
        -12    1    3    3    0    0 -0.17204654593E+01 -0.15291219397E+02  0.12233579515E+02  0.19658124524E+02  0.00000000000E+00 0.  1.
</event>
<event>
 7    1  0.2797450E-013  0.7246159E+02  0.7816164E-02  0.1226708E+00
        -11   -1    0    0    0    0  0.00000000000E+00  0.00000000000E+00  0.45593999997E+02  0.45594000000E+02  0.51100000000E-03 0. -1.
         11   -1    0    0    0    0 -0.00000000000E+00 -0.00000000000E+00 -0.45593999997E+02  0.45594000000E+02  0.51100000000E-03 0.  1.
    9900012    2    1    2    0    0 -0.50094971232E+01  0.94802318395E+01 -0.15352805234E+02  0.72461588552E+02  0.70000023784E+02 0.  0.
         12    1    1    2    0    0  0.50094971232E+01 -0.94802318395E+01  0.15352805234E+02  0.18726411448E+02  0.00000000000E+00 0. -1.
         11    1    3    3    0    0 -0.19147276275E+02  0.47115315888E+01  0.86395728653E+01  0.21528096484E+02  0.51100000000E-03 0. -1.
        -11    1    3    3    0    0 -0.81308834069E+01  0.10579396853E+02  0.47045080226E+01  0.14148049291E+02  0.51100000000E-03 0.  1.
         12    1    3    3    0    0  0.22268662559E+02 -0.58106966021E+01 -0.28696886122E+02  0.36785442777E+02  0.00000000000E+00 0. -1.
</event>
<event>
 7    1  0.2797450E-013  0.7246153E+02  0.7816164E-02  0.1226708E+00
        -11   -1    0    0    0    0  0.00000000000E+00  0.00000000000E+00  0.45593999997E+02  0.45594000000E+02  0.51100000000E-03 0. -1.
         11   -1    0    0    0    0 -0.00000000000E+00 -0.00000000000E+00 -0.45593999997E+02  0.45594000000E+02  0.51100000000E-03 0.  1.
    9900012    2    1    2    0    0  0.18720235932E+02  0.47953891882E+00  0.59624312326E-01  0.72461528202E+02  0.69999945167E+02 0.  0.
         12    1    1    2    0    0 -0.18720235932E+02 -0.47953891882E+00 -0.59624312326E-01  0.18726471798E+02  0.00000000000E+00 0. -1.
         11    1    3    3    0    0 -0.59500379254E+01 -0.25593804552E+01 -0.12989934087E+02  0.14515225367E+02  0.51100000000E-03 0. -1.
        -11    1    3    3    0    0  0.11756660155E+02 -0.73455937170E+01 -0.18019089131E+02  0.22734651491E+02  0.51100000000E-03 0.  1.
         12    1    3    3    0    0  0.12913613703E+02  0.10384513091E+02  0.31068647530E+02  0.35211651344E+02  0.00000000000E+00 0. -1.
</event>
<event>
 7    1  0.2797450E-013  0.7246158E+02  0.7816164E-02  0.1226708E+00
        -11   -1    0    0    0    0  0.00000000000E+00  0.00000000000E+00  0.45593999997E+02  0.45594000000E+02  0.51100000000E-03 0. -1.
         11   -1    0    0    0    0 -0.00000000000E+00 -0.00000000000E+00 -0.45593999997E+02  0.45594000000E+02  0.51100000000E-03 0.  1.
    9900012    2    1    2    0    0  0.17419991492E+02  0.24636118479E+01 -0.64150933473E+01  0.72461577235E+02  0.70000009041E+02 0.  0.
         12    1    1    2    0    0 -0.17419991492E+02 -0.24636118479E+01  0.64150933473E+01  0.18726422765E+02  0.00000000000E+00 0. -1.
         11    1    3    3    0    0  0.17464914611E+02 -0.47842405215E+01 -0.23381368753E+01  0.18258671475E+02  0.51100000000E-03 0. -1.
        -11    1    3    3    0    0  0.20282317227E+02 -0.71484711446E+01 -0.15788039165E+02  0.26678366006E+02  0.51100000000E-03 0.  1.
         12    1    3    3    0    0 -0.20327240346E+02  0.14396323514E+02  0.11711082693E+02  0.27524539753E+02  0.00000000000E+00 0. -1.
</event>
<event>
 7    1  0.2797450E-013  0.7246161E+02  0.7816164E-02  0.1226708E+00
        -11   -1    0    0    0    0  0.00000000000E+00  0.00000000000E+00  0.45593999997E+02  0.45594000000E+02  0.51100000000E-03 0.  1.
         11   -1    0    0    0    0 -0.00000000000E+00 -0.00000000000E+00 -0.45593999997E+02  0.45594000000E+02  0.51100000000E-03 0. -1.
    9900012    2    1    2    0    0  0.98897923069E+01  0.54868034996E+01  0.14925306508E+02  0.72461607425E+02  0.70000048369E+02 0.  0.
         12    1    1    2    0    0 -0.98897923069E+01 -0.54868034996E+01 -0.14925306508E+02  0.18726392575E+02  0.00000000000E+00 0. -1.
         11    1    3    3    0    0  0.22341490883E+02  0.86333446361E+01  0.11463400025E+02  0.26553462955E+02  0.51100000000E-03 0. -1.
        -11    1    3    3    0    0  0.82378522833E+01  0.45644509932E+01  0.17408368756E+02  0.19792617970E+02  0.51100000000E-03 0.  1.
        -12    1    3    3    0    0 -0.20689550860E+02 -0.77109921296E+01 -0.13946462273E+02  0.26115526499E+02  0.00000000000E+00 0.  1.
</event>
<event>
 7    1  0.2797450E-013  0.7246158E+02  0.7816164E-02  0.1226708E+00
        -11   -1    0    0    0    0  0.00000000000E+00  0.00000000000E+00  0.45593999997E+02  0.45594000000E+02  0.51100000000E-03 0. -1.
         11   -1    0    0    0    0 -0.00000000000E+00 -0.00000000000E+00 -0.45593999997E+02  0.45594000000E+02  0.51100000000E-03 0.  1.
    9900012    2    1    2    0    0 -0.12222669207E+02  0.13705250353E+02 -0.36675756049E+01  0.72461584417E+02  0.70000018397E+02 0.  0.
         12    1    1    2    0    0  0.12222669207E+02 -0.13705250353E+02  0.36675756049E+01  0.18726415583E+02  0.00000000000E+00 0. -1.
         11    1    3    3    0    0  0.11039554856E+02 -0.11356946572E+02 -0.91104534799E+01  0.18271627451E+02  0.51100000000E-03 0. -1.
        -11    1    3    3    0    0 -0.17354953983E+02  0.14395329638E+02 -0.17276077238E+02  0.28405682321E+02  0.51100000000E-03 0.  1.
         12    1    3    3    0    0 -0.59072700804E+01  0.10666867287E+02  0.22718955113E+02  0.25784274644E+02  0.00000000000E+00 0. -1.
</event>
<event>
 7    1  0.2797450E-013  0.7246160E+02  0.7816164E-02  0.1226708E+00
        -11   -1    0    0    0    0  0.00000000000E+00  0.00000000000E+00  0.45593999997E+02  0.45594000000E+02  0.51100000000E-03 0.  1.
         11   -1    0    0    0    0 -0.00000000000E+00 -0.00000000000E+00 -0.45593999997E+02  0.45594000000E+02  0.51100000000E-03 0. -1.
    9900012    2    1    2    0    0 -0.80946870232E+01 -0.51189321544E+01  0.16091945898E+02  0.72461597591E+02  0.70000035559E+02 0.  0.
         12    1    1    2    0    0  0.80946870232E+01  0.51189321544E+01 -0.16091945898E+02  0.18726402409E+02  0.00000000000E+00 0. -1.
         11    1    3    3    0    0  0.85496675002E+01 -0.12998047078E+02  0.37268040237E+01  0.15997972080E+02  0.51100000000E-03 0. -1.
        -11    1    3    3    0    0 -0.28832153209E+02 -0.40267285232E+01  0.22362179763E+02  0.36709326952E+02  0.51100000000E-03 0.  1.
         12    1    3    3    0    0  0.12187798686E+02  0.11905843446E+02 -0.99970378890E+01  0.19754298558E+02  0.00000000000E+00 0. -1.
</event>
<event>
 7    1  0.2797450E-013  0.7246158E+02  0.7816164E-02  0.1226708E+00
        -11   -1    0    0    0    0  0.00000000000E+00  0.00000000000E+00  0.45593999997E+02  0.45594000000E+02  0.51100000000E-03 0.  1.
         11   -1    0    0    0    0 -0.00000000000E+00 -0.00000000000E+00 -0.45593999997E+02  0.45594000000E+02  0.51100000000E-03 0. -1.
    9900012    2    1    2    0    0 -0.43370557459E+01 -0.18180927466E+02  0.11501234989E+01  0.72461575885E+02  0.70000007283E+02 0.  0.
         12    1    1    2    0    0  0.43370557459E+01  0.18180927466E+02 -0.11501234989E+01  0.18726424115E+02  0.00000000000E+00 0. -1.
         11    1    3    3    0    0 -0.79269871200E+01 -0.19231734337E+02 -0.27064365537E+02  0.34134683426E+02  0.51100000000E-03 0. -1.
        -11    1    3    3    0    0 -0.63349216043E+01  0.46549429164E+01 -0.35428598044E+00  0.78692594382E+01  0.51100000000E-03 0.  1.
        -12    1    3    3    0    0  0.99248529784E+01 -0.36041360456E+01  0.28568775017E+02  0.30457633021E+02  0.00000000000E+00 0.  1.
</event>
<event>
 7    1  0.2797450E-013  0.7246159E+02  0.7816164E-02  0.1226708E+00
        -11   -1    0    0    0    0  0.00000000000E+00  0.00000000000E+00  0.45593999997E+02  0.45594000000E+02  0.51100000000E-03 0. -1.
         11   -1    0    0    0    0 -0.00000000000E+00 -0.00000000000E+00 -0.45593999997E+02  0.45594000000E+02  0.51100000000E-03 0.  1.
    9900012    2    1    2    0    0 -0.54378145043E+01 -0.14335072502E+02  0.10752410588E+02  0.72461589141E+02  0.70000024551E+02 0.  0.
         12    1    1    2    0    0  0.54378145043E+01  0.14335072502E+02 -0.10752410588E+02  0.18726410859E+02  0.00000000000E+00 0. -1.
         11    1    3    3    0    0 -0.37386870480E+01 -0.27116951197E+02  0.28933493573E+02  0.39830313502E+02  0.51100000000E-03 0. -1.
        -11    1    3    3    0    0  0.56196383732E+01 -0.34949511017E+01  0.69508641318E+00  0.66541839493E+01  0.51100000000E-03 0.  1.
         12    1    3    3    0    0 -0.73187658294E+01  0.16276829796E+02 -0.18876169398E+02  0.25977091689E+02  0.00000000000E+00 0. -1.
</event>
<event>
 7    1  0.2797450E-013  0.7246156E+02  0.7816164E-02  0.1226708E+00
        -11   -1    0    0    0    0  0.00000000000E+00  0.00000000000E+00  0.45593999997E+02  0.45594000000E+02  0.51100000000E-03 0. -1.
         11   -1    0    0    0    0 -0.00000000000E+00 -0.00000000000E+00 -0.45593999997E+02  0.45594000000E+02  0.51100000000E-03 0.  1.
    9900012    2    1    2    0    0 -0.22248692681E+01 -0.12877450186E+01 -0.18549152815E+02  0.72461564123E+02  0.69999991961E+02 0.  0.
         12    1    1    2    0    0  0.22248692681E+01  0.12877450186E+01  0.18549152815E+02  0.18726435877E+02  0.00000000000E+00 0. -1.
         11    1    3    3    0    0 -0.10540667924E+02  0.11588348161E+02  0.93684140399E+01  0.18252744322E+02  0.51100000000E-03 0. -1.
        -11    1    3    3    0    0 -0.99745800859E+00  0.16047171377E+02 -0.93495321279E+01  0.18598934995E+02  0.51100000000E-03 0.  1.
        -12    1    3    3    0    0  0.93132566645E+01 -0.28923264556E+02 -0.18568034727E+02  0.35609884806E+02  0.00000000000E+00 0.  1.
</event>
<event>
 7    1  0.2797450E-013  0.7246159E+02  0.7816164E-02  0.1226708E+00
        -11   -1    0    0    0    0  0.00000000000E+00  0.00000000000E+00  0.45593999997E+02  0.45594000000E+02  0.51100000000E-03 0.  1.
         11   -1    0    0    0    0 -0.00000000000E+00 -0.00000000000E+00 -0.45593999997E+02  0.45594000000E+02  0.51100000000E-03 0. -1.
    9900012    2    1    2    0    0  0.18833032836E+01  0.18551068514E+02  0.17290437285E+01  0.72461586395E+02  0.70000020974E+02 0.  0.
         12    1    1    2    0    0 -0.18833032836E+01 -0.18551068514E+02 -0.17290437285E+01  0.18726413605E+02  0.00000000000E+00 0. -1.
         11    1    3    3    0    0 -0.20472784266E+02 -0.42538673054E+01 -0.77521234291E+01  0.22300800447E+02  0.51100000000E-03 0. -1.
        -11    1    3    3    0    0 -0.10043267483E+02  0.79003496617E+01 -0.14492383208E+01  0.12860133688E+02  0.51100000000E-03 0.  1.
        -12    1    3    3    0    0  0.32399355033E+02  0.14904586158E+02  0.10930405478E+02  0.37300652260E+02  0.00000000000E+00 0.  1.
</event>
<event>
 7    1  0.2797450E-013  0.7246156E+02  0.7816164E-02  0.1226708E+00
        -11   -1    0    0    0    0  0.00000000000E+00  0.00000000000E+00  0.45593999997E+02  0.45594000000E+02  0.51100000000E-03 0. -1.
         11   -1    0    0    0    0 -0.00000000000E+00 -0.00000000000E+00 -0.45593999997E+02  0.45594000000E+02  0.51100000000E-03 0.  1.
    9900012    2    1    2    0    0 -0.10842233277E+02 -0.42973080930E+01 -0.14651240209E+02  0.72461555625E+02  0.69999980890E+02 0.  0.
         12    1    1    2    0    0  0.10842233277E+02  0.42973080930E+01  0.14651240209E+02  0.18726444375E+02  0.00000000000E+00 0. -1.
         11    1    3    3    0    0  0.98913776623E+01  0.16549037016E+02 -0.29487637888E+02  0.35231105102E+02  0.51100000000E-03 0. -1.
        -11    1    3    3    0    0 -0.48584591573E+01  0.27666495572E+01  0.35354207448E+01  0.66149962403E+01  0.51100000000E-03 0.  1.
        -12    1    3    3    0    0 -0.15875151782E+02 -0.23612994666E+02  0.11300976935E+02  0.30615454282E+02  0.00000000000E+00 0.  1.
</event>
<event>
 7    1  0.2797450E-013  0.7246158E+02  0.7816164E-02  0.1226708E+00
        -11   -1    0    0    0    0  0.00000000000E+00  0.00000000000E+00  0.45593999997E+02  0.45594000000E+02  0.51100000000E-03 0.  1.
         11   -1    0    0    0    0 -0.00000000000E+00 -0.00000000000E+00 -0.45593999997E+02  0.45594000000E+02  0.51100000000E-03 0. -1.
    9900012    2    1    2    0    0  0.73886377231E+01 -0.59692072025E+01  0.16138635836E+02  0.72461575657E+02  0.70000006985E+02 0.  0.
         12    1    1    2    0    0 -0.73886377231E+01  0.59692072025E+01 -0.16138635836E+02  0.18726424343E+02  0.00000000000E+00 0. -1.
         11    1    3    3    0    0 -0.16238597307E+02 -0.12904567764E+02 -0.61303935871E+01  0.21628722512E+02  0.51100000000E-03 0. -1.
        -11    1    3    3    0    0  0.43250761089E+01 -0.13520242444E+02 -0.11397029744E+01  0.14240862412E+02  0.51100000000E-03 0.  1.
        -12    1    3    3    0    0  0.19302158921E+02  0.20455603006E+02  0.23408732398E+02  0.36591990734E+02  0.00000000000E+00 0.  1.
</event>
<event>
 7    1  0.2797450E-013  0.7246144E+02  0.7816164E-02  0.1226708E+00
        -11   -1    0    0    0    0  0.00000000000E+00  0.00000000000E+00  0.45593999997E+02  0.45594000000E+02  0.51100000000E-03 0.  1.
         11   -1    0    0    0    0 -0.00000000000E+00 -0.00000000000E+00 -0.45593999997E+02  0.45594000000E+02  0.51100000000E-03 0. -1.
    9900012    2    1    2    0    0  0.11703658135E+02 -0.10480532498E+02  0.10191503247E+02  0.72461443626E+02  0.69999834991E+02 0.  0.
         12    1    1    2    0    0 -0.11703658135E+02  0.10480532498E+02 -0.10191503247E+02  0.18726556374E+02  0.00000000000E+00 0. -1.
         11    1    3    3    0    0 -0.19908362457E+00  0.51051393996E+01 -0.13988261637E+00  0.51109343555E+01  0.51100000000E-03 0. -1.
        -11    1    3    3    0    0 -0.74213653234E+01  0.24965125074E+01  0.32126054856E+02  0.33066488154E+02  0.51100000000E-03 0.  1.
         12    1    3    3    0    0  0.19324107083E+02 -0.18082184405E+02 -0.21794668992E+02  0.34284021116E+02  0.00000000000E+00 0. -1.
</event>
<event>
 7    1  0.2797450E-013  0.7246156E+02  0.7816164E-02  0.1226708E+00
        -11   -1    0    0    0    0  0.00000000000E+00  0.00000000000E+00  0.45593999997E+02  0.45594000000E+02  0.51100000000E-03 0. -1.
         11   -1    0    0    0    0 -0.00000000000E+00 -0.00000000000E+00 -0.45593999997E+02  0.45594000000E+02  0.51100000000E-03 0.  1.
    9900012    2    1    2    0    0  0.15747756644E+02 -0.81015190649E+01 -0.60871235218E+01  0.72461560850E+02  0.69999987697E+02 0.  0.
         12    1    1    2    0    0 -0.15747756644E+02  0.81015190649E+01  0.60871235218E+01  0.18726439150E+02  0.00000000000E+00 0. -1.
         11    1    3    3    0    0 -0.14091921597E+02  0.16349154935E+02 -0.85688550933E+01  0.23222885248E+02  0.51100000000E-03 0.  1.
        -11    1    3    3    0    0  0.28832206673E+02 -0.45156553182E+01  0.23450393603E+01  0.29277747428E+02  0.51100000000E-03 0. -1.
        -12    1    3    3    0    0  0.10074715677E+01 -0.19935018682E+02  0.13669221117E+00  0.19960928174E+02  0.00000000000E+00 0.  1.
</event>
<event>
 7    1  0.2797450E-013  0.7246156E+02  0.7816164E-02  0.1226708E+00
        -11   -1    0    0    0    0  0.00000000000E+00  0.00000000000E+00  0.45593999997E+02  0.45594000000E+02  0.51100000000E-03 0.  1.
         11   -1    0    0    0    0 -0.00000000000E+00 -0.00000000000E+00 -0.45593999997E+02  0.45594000000E+02  0.51100000000E-03 0. -1.
    9900012    2    1    2    0    0 -0.33367473565E+01  0.61915296101E+01  0.17355416820E+02  0.72461563744E+02  0.69999991467E+02 0.  0.
         12    1    1    2    0    0  0.33367473565E+01 -0.61915296101E+01 -0.17355416820E+02  0.18726436256E+02  0.00000000000E+00 0. -1.
         11    1    3    3    0    0  0.89178566346E+01 -0.22517364666E+02  0.19784116342E+02  0.31272530089E+02  0.51100000000E-03 0. -1.
        -11    1    3    3    0    0  0.53489752773E+01 -0.19626322511E+01  0.40107764447E+00  0.57117707769E+01  0.51100000000E-03 0.  1.
        -12    1    3    3    0    0 -0.17603579268E+02  0.30671526527E+02 -0.28297771661E+01  0.35477262879E+02  0.00000000000E+00 0.  1.
</event>
<event>
 7    1  0.2797450E-013  0.7246164E+02  0.7816164E-02  0.1226708E+00
        -11   -1    0    0    0    0  0.00000000000E+00  0.00000000000E+00  0.45593999997E+02  0.45594000000E+02  0.51100000000E-03 0.  1.
         11   -1    0    0    0    0 -0.00000000000E+00 -0.00000000000E+00 -0.45593999997E+02  0.45594000000E+02  0.51100000000E-03 0. -1.
    9900012    2    1    2    0    0  0.15522658453E+02  0.92746267780E+01 -0.48687852965E+01  0.72461636296E+02  0.70000085979E+02 0.  0.
         12    1    1    2    0    0 -0.15522658453E+02 -0.92746267780E+01  0.48687852965E+01  0.18726363704E+02  0.00000000000E+00 0. -1.
         11    1    3    3    0    0  0.83660966679E+01 -0.10289229693E+02  0.17331061326E+02  0.21822591690E+02  0.51100000000E-03 0. -1.
        -11    1    3    3    0    0  0.98370230493E+01 -0.10508516845E+02 -0.12095393372E+02  0.18801449142E+02  0.51100000000E-03 0.  1.
         12    1    3    3    0    0 -0.26804612646E+01  0.30072373316E+02 -0.10104453250E+02  0.31837595464E+02  0.00000000000E+00 0. -1.
</event>
<event>
 7    1  0.2797450E-013  0.7246176E+02  0.7816164E-02  0.1226708E+00
        -11   -1    0    0    0    0  0.00000000000E+00  0.00000000000E+00  0.45593999997E+02  0.45594000000E+02  0.51100000000E-03 0.  1.
         11   -1    0    0    0    0 -0.00000000000E+00 -0.00000000000E+00 -0.45593999997E+02  0.45594000000E+02  0.51100000000E-03 0. -1.
    9900012    2    1    2    0    0 -0.12727569476E+01 -0.18433804884E+02 -0.30408864019E+01  0.72461760045E+02  0.70000247185E+02 0.  0.
         12    1    1    2    0    0  0.12727569476E+01  0.18433804884E+02  0.30408864019E+01  0.18726239955E+02  0.00000000000E+00 0. -1.
         11    1    3    3    0    0 -0.33525045575E+01 -0.62117487706E+01  0.94980976424E+01  0.11833806179E+02  0.51100000000E-03 0. -1.
        -11    1    3    3    0    0 -0.22131118055E+02 -0.78996892606E+01  0.11566137051E+02  0.26190971791E+02  0.51100000000E-03 0.  1.
         12    1    3    3    0    0  0.24210865665E+02 -0.43223668523E+01 -0.24105121095E+02  0.34436982076E+02  0.00000000000E+00 0. -1.
</event>
<event>
 7    1  0.2797450E-013  0.7246158E+02  0.7816164E-02  0.1226708E+00
        -11   -1    0    0    0    0  0.00000000000E+00  0.00000000000E+00  0.45593999997E+02  0.45594000000E+02  0.51100000000E-03 0. -1.
         11   -1    0    0    0    0 -0.00000000000E+00 -0.00000000000E+00 -0.45593999997E+02  0.45594000000E+02  0.51100000000E-03 0.  1.
    9900012    2    1    2    0    0 -0.60950997341E+00  0.13843288368E+02 -0.12596448331E+02  0.72461584278E+02  0.70000018216E+02 0.  0.
         12    1    1    2    0    0  0.60950997341E+00 -0.13843288368E+02  0.12596448331E+02  0.18726415722E+02  0.00000000000E+00 0. -1.
         11    1    3    3    0    0 -0.67022229975E+01  0.59034157903E+01 -0.10828009323E+01  0.89968088354E+01  0.51100000000E-03 0. -1.
        -11    1    3    3    0    0 -0.23101179599E+02 -0.68976922893E+01 -0.17991487143E+02  0.30082158627E+02  0.51100000000E-03 0.  1.
         12    1    3    3    0    0  0.29193892623E+02  0.14837564867E+02  0.64778397440E+01  0.33382616815E+02  0.00000000000E+00 0. -1.
</event>
<event>
 7    1  0.2797450E-013  0.7246152E+02  0.7816164E-02  0.1226708E+00
        -11   -1    0    0    0    0  0.00000000000E+00  0.00000000000E+00  0.45593999997E+02  0.45594000000E+02  0.51100000000E-03 0.  1.
         11   -1    0    0    0    0 -0.00000000000E+00 -0.00000000000E+00 -0.45593999997E+02  0.45594000000E+02  0.51100000000E-03 0. -1.
    9900012    2    1    2    0    0 -0.17809936169E+02 -0.56461151221E+01 -0.12682660905E+01  0.72461522990E+02  0.69999938378E+02 0.  0.
         12    1    1    2    0    0  0.17809936169E+02  0.56461151221E+01  0.12682660905E+01  0.18726477010E+02  0.00000000000E+00 0. -1.
         11    1    3    3    0    0  0.75719845245E+01  0.26460595970E+02  0.80022389297E+01  0.28662412963E+02  0.51100000000E-03 0. -1.
        -11    1    3    3    0    0 -0.20165829412E+00 -0.76561887350E+01 -0.85637807021E+00  0.77065735365E+01  0.51100000000E-03 0.  1.
        -12    1    3    3    0    0 -0.25180262399E+02 -0.24450522357E+02 -0.84141269500E+01  0.36092536491E+02  0.00000000000E+00 0.  1.
</event>
<event>
 7    1  0.2797450E-013  0.7246174E+02  0.7816164E-02  0.1226708E+00
        -11   -1    0    0    0    0  0.00000000000E+00  0.00000000000E+00  0.45593999997E+02  0.45594000000E+02  0.51100000000E-03 0.  1.
         11   -1    0    0    0    0 -0.00000000000E+00 -0.00000000000E+00 -0.45593999997E+02  0.45594000000E+02  0.51100000000E-03 0. -1.
    9900012    2    1    2    0    0  0.34366455168E+01  0.18395595783E+02 -0.68133354952E+00  0.72461743246E+02  0.70000225301E+02 0.  0.
         12    1    1    2    0    0 -0.34366455168E+01 -0.18395595783E+02  0.68133354952E+00  0.18726256754E+02  0.00000000000E+00 0. -1.
         11    1    3    3    0    0  0.15464552471E+02  0.15516990757E+02  0.31881023385E+01  0.22138052806E+02  0.51100000000E-03 0. -1.
        -11    1    3    3    0    0  0.15179298077E+02 -0.26554192130E+01  0.10900231902E+02  0.18875311841E+02  0.51100000000E-03 0.  1.
        -12    1    3    3    0    0 -0.27207205031E+02  0.55340242388E+01 -0.14769667790E+02  0.31448378599E+02  0.00000000000E+00 0.  1.
</event>
<event>
 7    1  0.2797450E-013  0.7246160E+02  0.7816164E-02  0.1226708E+00
        -11   -1    0    0    0    0  0.00000000000E+00  0.00000000000E+00  0.45593999997E+02  0.45594000000E+02  0.51100000000E-03 0.  1.
         11   -1    0    0    0    0 -0.00000000000E+00 -0.00000000000E+00 -0.45593999997E+02  0.45594000000E+02  0.51100000000E-03 0. -1.
    9900012    2    1    2    0    0  0.41025955590E+00 -0.81683083097E+01  0.16846023178E+02  0.72461599639E+02  0.70000038227E+02 0.  0.
         12    1    1    2    0    0 -0.41025955590E+00  0.81683083097E+01 -0.16846023178E+02  0.18726400361E+02  0.00000000000E+00 0. -1.
         11    1    3    3    0    0 -0.65263715838E+01  0.12358684296E+02  0.69931032590E+01  0.15627990819E+02  0.51100000000E-03 0. -1.
        -11    1    3    3    0    0  0.22781361459E+02  0.68590016441E+01  0.81490180812E+01  0.25148416042E+02  0.51100000000E-03 0.  1.
        -12    1    3    3    0    0 -0.15844730319E+02 -0.27385994250E+02  0.17039018382E+01  0.31685192779E+02  0.00000000000E+00 0.  1.
</event>
<event>
 7    1  0.2797450E-013  0.7246157E+02  0.7816164E-02  0.1226708E+00
        -11   -1    0    0    0    0  0.00000000000E+00  0.00000000000E+00  0.45593999997E+02  0.45594000000E+02  0.51100000000E-03 0.  1.
         11   -1    0    0    0    0 -0.00000000000E+00 -0.00000000000E+00 -0.45593999997E+02  0.45594000000E+02  0.51100000000E-03 0. -1.
    9900012    2    1    2    0    0  0.11086859077E+02 -0.13286007939E+02 -0.71583911076E+01  0.72461574436E+02  0.70000005396E+02 0.  0.
         12    1    1    2    0    0 -0.11086859077E+02  0.13286007939E+02  0.71583911076E+01  0.18726425564E+02  0.00000000000E+00 0. -1.
         11    1    3    3    0    0 -0.55184406063E+01  0.10059974393E+02 -0.10075598492E+01  0.11518309278E+02  0.51100000000E-03 0. -1.
        -11    1    3    3    0    0  0.33187877556E+02 -0.10303857789E+02  0.78461904266E+01  0.35625375879E+02  0.51100000000E-03 0.  1.
         12    1    3    3    0    0 -0.16582577873E+02 -0.13042124543E+02 -0.13997021685E+02  0.25317889280E+02  0.00000000000E+00 0. -1.
</event>
<event>
 7    1  0.2797450E-013  0.7246157E+02  0.7816164E-02  0.1226708E+00
        -11   -1    0    0    0    0  0.00000000000E+00  0.00000000000E+00  0.45593999997E+02  0.45594000000E+02  0.51100000000E-03 0.  1.
         11   -1    0    0    0    0 -0.00000000000E+00 -0.00000000000E+00 -0.45593999997E+02  0.45594000000E+02  0.51100000000E-03 0. -1.
    9900012    2    1    2    0    0  0.56702839034E+01 -0.46728035928E+01  0.17224752276E+02  0.72461566705E+02  0.69999995325E+02 0.  0.
         12    1    1    2    0    0 -0.56702839034E+01  0.46728035928E+01 -0.17224752276E+02  0.18726433295E+02  0.00000000000E+00 0. -1.
         11    1    3    3    0    0  0.20371608294E+02 -0.10779423964E+02 -0.13683954347E+02  0.26803899199E+02  0.51100000000E-03 0. -1.
        -11    1    3    3    0    0 -0.80359662948E+01 -0.11742737905E+02  0.10135706381E+02  0.17470008354E+02  0.51100000000E-03 0.  1.
        -12    1    3    3    0    0 -0.66653580956E+01  0.17849358276E+02  0.20773000242E+02  0.28187659152E+02  0.00000000000E+00 0.  1.
</event>
<event>
 7    1  0.2797450E-013  0.7246152E+02  0.7816164E-02  0.1226708E+00
        -11   -1    0    0    0    0  0.00000000000E+00  0.00000000000E+00  0.45593999997E+02  0.45594000000E+02  0.51100000000E-03 0.  1.
         11   -1    0    0    0    0 -0.00000000000E+00 -0.00000000000E+00 -0.45593999997E+02  0.45594000000E+02  0.51100000000E-03 0. -1.
    9900012    2    1    2    0    0 -0.11497419793E+02  0.97731361810E+01  0.11089469661E+02  0.72461516345E+02  0.69999929721E+02 0.  0.
         12    1    1    2    0    0  0.11497419793E+02 -0.97731361810E+01 -0.11089469661E+02  0.18726483655E+02  0.00000000000E+00 0. -1.
         11    1    3    3    0    0 -0.37158897321E+02  0.70367184880E+01 -0.20226132265E+01  0.37873341835E+02  0.51100000000E-03 0. -1.
        -11    1    3    3    0    0  0.86968607836E+00  0.30308948927E+01  0.88965445993E+01  0.94388126263E+01  0.51100000000E-03 0.  1.
        -12    1    3    3    0    0  0.24791791450E+02 -0.29447719979E+00  0.42155382887E+01  0.25149361884E+02  0.00000000000E+00 0.  1.
</event>
<event>
 7    1  0.2797450E-013  0.7246157E+02  0.7816164E-02  0.1226708E+00
        -11   -1    0    0    0    0  0.00000000000E+00  0.00000000000E+00  0.45593999997E+02  0.45594000000E+02  0.51100000000E-03 0.  1.
         11   -1    0    0    0    0 -0.00000000000E+00 -0.00000000000E+00 -0.45593999997E+02  0.45594000000E+02  0.51100000000E-03 0. -1.
    9900012    2    1    2    0    0 -0.15005229761E+02  0.31136666034E+01  0.10762314351E+02  0.72461568143E+02  0.69999997197E+02 0.  0.
         12    1    1    2    0    0  0.15005229761E+02 -0.31136666034E+01 -0.10762314351E+02  0.18726431857E+02  0.00000000000E+00 0. -1.
         11    1    3    3    0    0 -0.45410005276E-01 -0.12411531420E+02  0.17598080585E+02  0.21534637559E+02  0.51100000000E-03 0. -1.
        -11    1    3    3    0    0  0.25718322897E+01  0.17667423022E+02  0.14663225241E+02  0.23103297000E+02  0.51100000000E-03 0.  1.
         12    1    3    3    0    0 -0.17531652046E+02 -0.21422249988E+01 -0.21498991474E+02  0.27823633584E+02  0.00000000000E+00 0. -1.
</event>
<event>
 7    1  0.2797450E-013  0.7246159E+02  0.7816164E-02  0.1226708E+00
        -11   -1    0    0    0    0  0.00000000000E+00  0.00000000000E+00  0.45593999997E+02  0.45594000000E+02  0.51100000000E-03 0.  1.
         11   -1    0    0    0    0 -0.00000000000E+00 -0.00000000000E+00 -0.45593999997E+02  0.45594000000E+02  0.51100000000E-03 0. -1.
    9900012    2    1    2    0    0 -0.76261532067E+01  0.23945949972E+01  0.16934759232E+02  0.72461591690E+02  0.70000027872E+02 0.  0.
         12    1    1    2    0    0  0.76261532067E+01 -0.23945949972E+01 -0.16934759232E+02  0.18726408310E+02  0.00000000000E+00 0. -1.
         11    1    3    3    0    0 -0.13922377138E+02 -0.12402527891E+02 -0.24182015140E+01  0.18801674980E+02  0.51100000000E-03 0. -1.
        -11    1    3    3    0    0  0.86238646937E+01  0.30488875762E+01  0.33729823460E+02  0.34948072173E+02  0.51100000000E-03 0.  1.
         12    1    3    3    0    0 -0.23276407629E+01  0.11748235312E+02 -0.14376862714E+02  0.18711844537E+02  0.00000000000E+00 0. -1.
</event>
<event>
 7    1  0.2797450E-013  0.7246159E+02  0.7816164E-02  0.1226708E+00
        -11   -1    0    0    0    0  0.00000000000E+00  0.00000000000E+00  0.45593999997E+02  0.45594000000E+02  0.51100000000E-03 0. -1.
         11   -1    0    0    0    0 -0.00000000000E+00 -0.00000000000E+00 -0.45593999997E+02  0.45594000000E+02  0.51100000000E-03 0.  1.
    9900012    2    1    2    0    0  0.12705537843E+02 -0.24175284824E+01 -0.13542653622E+02  0.72461585422E+02  0.70000019706E+02 0.  0.
         12    1    1    2    0    0 -0.12705537843E+02  0.24175284824E+01  0.13542653622E+02  0.18726414578E+02  0.00000000000E+00 0. -1.
         11    1    3    3    0    0 -0.88998141201E+00 -0.22745478973E+01 -0.13417617298E+01  0.27867471812E+01  0.51100000000E-03 0. -1.
        -11    1    3    3    0    0  0.75625183473E+00 -0.28891131124E+02 -0.22414911598E+02  0.36574549029E+02  0.51100000000E-03 0.  1.
         12    1    3    3    0    0  0.12839267421E+02  0.28748150539E+02  0.10214019706E+02  0.33100289211E+02  0.00000000000E+00 0. -1.
</event>
<event>
 7    1  0.2797450E-013  0.7246156E+02  0.7816164E-02  0.1226708E+00
        -11   -1    0    0    0    0  0.00000000000E+00  0.00000000000E+00  0.45593999997E+02  0.45594000000E+02  0.51100000000E-03 0. -1.
         11   -1    0    0    0    0 -0.00000000000E+00 -0.00000000000E+00 -0.45593999997E+02  0.45594000000E+02  0.51100000000E-03 0.  1.
    9900012    2    1    2    0    0 -0.10246590233E+02 -0.15527979519E+02 -0.21375034840E+01  0.72461556651E+02  0.69999982228E+02 0.  0.
         12    1    1    2    0    0  0.10246590233E+02  0.15527979519E+02  0.21375034840E+01  0.18726443349E+02  0.00000000000E+00 0. -1.
         11    1    3    3    0    0  0.74953714366E+01  0.12786897495E+02  0.51313912158E+01  0.15684913662E+02  0.51100000000E-03 0. -1.
        -11    1    3    3    0    0  0.15384979985E+01  0.61199186131E+01 -0.15257681584E+02  0.16511124356E+02  0.51100000000E-03 0.  1.
        -12    1    3    3    0    0 -0.19280459668E+02 -0.34434795627E+02  0.79887868846E+01  0.40265518633E+02  0.00000000000E+00 0.  1.
</event>
<event>
 7    1  0.2797450E-013  0.7246160E+02  0.7816164E-02  0.1226708E+00
        -11   -1    0    0    0    0  0.00000000000E+00  0.00000000000E+00  0.45593999997E+02  0.45594000000E+02  0.51100000000E-03 0.  1.
         11   -1    0    0    0    0 -0.00000000000E+00 -0.00000000000E+00 -0.45593999997E+02  0.45594000000E+02  0.51100000000E-03 0. -1.
    9900012    2    1    2    0    0  0.32710604360E+01  0.98172172070E+01  0.15607700493E+02  0.72461604064E+02  0.70000043991E+02 0.  0.
         12    1    1    2    0    0 -0.32710604360E+01 -0.98172172070E+01 -0.15607700493E+02  0.18726395936E+02  0.00000000000E+00 0. -1.
         11    1    3    3    0    0  0.39601011712E+01  0.60407298876E+01  0.13538945975E+00  0.72243442213E+01  0.51100000000E-03 0. -1.
        -11    1    3    3    0    0 -0.28986131217E+00  0.25379626785E+02  0.29927388099E+02  0.39241024885E+02  0.51100000000E-03 0.  1.
         12    1    3    3    0    0 -0.39917942304E+00 -0.21603139466E+02 -0.14455077066E+02  0.25996234957E+02  0.00000000000E+00 0. -1.
</event>
<event>
 7    1  0.2797450E-013  0.7246156E+02  0.7816164E-02  0.1226708E+00
        -11   -1    0    0    0    0  0.00000000000E+00  0.00000000000E+00  0.45593999997E+02  0.45594000000E+02  0.51100000000E-03 0.  1.
         11   -1    0    0    0    0 -0.00000000000E+00 -0.00000000000E+00 -0.45593999997E+02  0.45594000000E+02  0.51100000000E-03 0. -1.
    9900012    2    1    2    0    0  0.42574859037E+01  0.51892288414E+01  0.17482146386E+02  0.72461555478E+02  0.69999980699E+02 0.  0.
         12    1    1    2    0    0 -0.42574859037E+01 -0.51892288414E+01 -0.17482146386E+02  0.18726444522E+02  0.00000000000E+00 0. -1.
         11    1    3    3    0    0 -0.10071677747E+02 -0.15302772513E+02 -0.12377630108E+02  0.22109257486E+02  0.51100000000E-03 0. -1.
        -11    1    3    3    0    0 -0.35030879881E+01 -0.63872383984E+01  0.10343251138E+02  0.12651137663E+02  0.51100000000E-03 0.  1.
        -12    1    3    3    0    0  0.17832251639E+02  0.26879239753E+02  0.19516525356E+02  0.37701160329E+02  0.00000000000E+00 0.  1.
</event>
<event>
 7    1  0.2797450E-013  0.7246082E+02  0.7816164E-02  0.1226710E+00
        -11   -1    0    0    0    0  0.00000000000E+00  0.00000000000E+00  0.45593999997E+02  0.45594000000E+02  0.51100000000E-03 0.  1.
         11   -1    0    0    0    0 -0.00000000000E+00 -0.00000000000E+00 -0.45593999997E+02  0.45594000000E+02  0.51100000000E-03 0. -1.
    9900012    2    1    2    0    0  0.11861233054E+02  0.14486284587E+02 -0.40747913951E+00  0.72460818419E+02  0.69999020536E+02 0.  0.
         12    1    1    2    0    0 -0.11861233054E+02 -0.14486284587E+02  0.40747913951E+00  0.18727181581E+02  0.00000000000E+00 0. -1.
         11    1    3    3    0    0 -0.76019381910E+01 -0.10521178259E+02  0.97723621497E+01  0.16247575772E+02  0.51100000000E-03 0. -1.
        -11    1    3    3    0    0 -0.97067070918E+01  0.78691250665E+01 -0.17592515827E+02  0.21578691000E+02  0.51100000000E-03 0.  1.
        -12    1    3    3    0    0  0.29169878337E+02  0.17138337780E+02  0.74126745377E+01  0.34634551648E+02  0.00000000000E+00 0.  1.
</event>
<event>
 7    1  0.2797450E-013  0.7246154E+02  0.7816164E-02  0.1226708E+00
        -11   -1    0    0    0    0  0.00000000000E+00  0.00000000000E+00  0.45593999997E+02  0.45594000000E+02  0.51100000000E-03 0.  1.
         11   -1    0    0    0    0 -0.00000000000E+00 -0.00000000000E+00 -0.45593999997E+02  0.45594000000E+02  0.51100000000E-03 0. -1.
    9900012    2    1    2    0    0 -0.62785680168E+01 -0.89383728718E+01  0.15210695751E+02  0.72461543016E+02  0.69999964465E+02 0.  0.
         12    1    1    2    0    0  0.62785680168E+01  0.89383728718E+01 -0.15210695751E+02  0.18726456984E+02  0.00000000000E+00 0. -1.
         11    1    3    3    0    0  0.56408376481E+01  0.23247506847E+01 -0.51592216016E+01  0.79900615087E+01  0.51100000000E-03 0. -1.
        -11    1    3    3    0    0 -0.24820352883E+02  0.81480184421E+01 -0.84041488954E+01  0.27442118007E+02  0.51100000000E-03 0.  1.
        -12    1    3    3    0    0  0.12900947218E+02 -0.19411141999E+02  0.28774066248E+02  0.37029363501E+02  0.00000000000E+00 0.  1.
</event>
<event>
 7    1  0.2797450E-013  0.7246156E+02  0.7816164E-02  0.1226708E+00
        -11   -1    0    0    0    0  0.00000000000E+00  0.00000000000E+00  0.45593999997E+02  0.45594000000E+02  0.51100000000E-03 0.  1.
         11   -1    0    0    0    0 -0.00000000000E+00 -0.00000000000E+00 -0.45593999997E+02  0.45594000000E+02  0.51100000000E-03 0. -1.
    9900012    2    1    2    0    0 -0.98026299277E+01  0.90503710927E+01 -0.13140723888E+02  0.72461564282E+02  0.69999992168E+02 0.  0.
         12    1    1    2    0    0  0.98026299277E+01 -0.90503710927E+01  0.13140723888E+02  0.18726435718E+02  0.00000000000E+00 0. -1.
         11    1    3    3    0    0 -0.22624212646E+01 -0.41455520237E+01 -0.33590492037E+02  0.33920868313E+02  0.51100000000E-03 0. -1.
        -11    1    3    3    0    0  0.45737615284E-04 -0.53650462217E+01 -0.41732695739E+01  0.67970508429E+01  0.51100000000E-03 0.  1.
        -12    1    3    3    0    0 -0.75402544007E+01  0.18560969338E+02  0.24623037723E+02  0.31743645126E+02  0.00000000000E+00 0.  1.
</event>
<event>
 7    1  0.2797450E-013  0.7246146E+02  0.7816164E-02  0.1226708E+00
        -11   -1    0    0    0    0  0.00000000000E+00  0.00000000000E+00  0.45593999997E+02  0.45594000000E+02  0.51100000000E-03 0.  1.
         11   -1    0    0    0    0 -0.00000000000E+00 -0.00000000000E+00 -0.45593999997E+02  0.45594000000E+02  0.51100000000E-03 0. -1.
    9900012    2    1    2    0    0 -0.56391681782E+01  0.59384014198E+01  0.16840978947E+02  0.72461457312E+02  0.69999852819E+02 0.  0.
         12    1    1    2    0    0  0.56391681782E+01 -0.59384014198E+01 -0.16840978947E+02  0.18726542688E+02  0.00000000000E+00 0. -1.
         11    1    3    3    0    0 -0.21795537774E+02 -0.74928103371E+01  0.33165178856E+01  0.23284908519E+02  0.51100000000E-03 0. -1.
        -11    1    3    3    0    0 -0.71925726883E+01 -0.69940609476E+01 -0.67726456989E+01  0.12104491746E+02  0.51100000000E-03 0.  1.
        -12    1    3    3    0    0  0.23348942284E+02  0.20425272705E+02  0.20297106760E+02  0.37072057046E+02  0.00000000000E+00 0.  1.
</event>
<event>
 7    1  0.2797450E-013  0.7246157E+02  0.7816164E-02  0.1226708E+00
        -11   -1    0    0    0    0  0.00000000000E+00  0.00000000000E+00  0.45593999997E+02  0.45594000000E+02  0.51100000000E-03 0.  1.
         11   -1    0    0    0    0 -0.00000000000E+00 -0.00000000000E+00 -0.45593999997E+02  0.45594000000E+02  0.51100000000E-03 0. -1.
    9900012    2    1    2    0    0  0.12563040255E+01  0.14940938947E+02  0.11219144351E+02  0.72461570645E+02  0.70000000456E+02 0.  0.
         12    1    1    2    0    0 -0.12563040255E+01 -0.14940938947E+02 -0.11219144351E+02  0.18726429355E+02  0.00000000000E+00 0. -1.
         11    1    3    3    0    0  0.29168496691E+01 -0.13274132557E+01 -0.17392997455E+02  0.17685768252E+02  0.51100000000E-03 0. -1.
        -11    1    3    3    0    0  0.79664297326E+00 -0.12605044178E+02  0.21504273316E+02  0.24939036667E+02  0.51100000000E-03 0.  1.
         12    1    3    3    0    0 -0.24571886168E+01  0.28873396381E+02  0.71078684898E+01  0.29836765726E+02  0.00000000000E+00 0. -1.
</event>
<event>
 7    1  0.2797450E-013  0.7246181E+02  0.7816164E-02  0.1226707E+00
        -11   -1    0    0    0    0  0.00000000000E+00  0.00000000000E+00  0.45593999997E+02  0.45594000000E+02  0.51100000000E-03 0.  1.
         11   -1    0    0    0    0 -0.00000000000E+00 -0.00000000000E+00 -0.45593999997E+02  0.45594000000E+02  0.51100000000E-03 0. -1.
    9900012    2    1    2    0    0  0.53981583028E+00  0.15797400079E+02  0.10040965624E+02  0.72461808688E+02  0.70000310552E+02 0.  0.
         12    1    1    2    0    0 -0.53981583028E+00 -0.15797400079E+02 -0.10040965624E+02  0.18726191312E+02  0.00000000000E+00 0. -1.
         11    1    3    3    0    0 -0.86101800082E+01  0.20272226252E+02 -0.63788638837E+01  0.22930073303E+02  0.51100000000E-03 0. -1.
        -11    1    3    3    0    0  0.42117802508E+01 -0.26393684352E+01 -0.15965177451E+02  0.16721012228E+02  0.51100000000E-03 0.  1.
        -12    1    3    3    0    0  0.49382155877E+01 -0.18354577383E+01  0.32385006959E+02  0.32810723157E+02  0.00000000000E+00 0.  1.
</event>
<event>
 7    1  0.2797450E-013  0.7246176E+02  0.7816164E-02  0.1226708E+00
        -11   -1    0    0    0    0  0.00000000000E+00  0.00000000000E+00  0.45593999997E+02  0.45594000000E+02  0.51100000000E-03 0.  1.
         11   -1    0    0    0    0 -0.00000000000E+00 -0.00000000000E+00 -0.45593999997E+02  0.45594000000E+02  0.51100000000E-03 0. -1.
    9900012    2    1    2    0    0 -0.13744733854E+02  0.83908610017E+01 -0.95575993720E+01  0.72461762716E+02  0.70000250665E+02 0.  0.
         12    1    1    2    0    0  0.13744733854E+02 -0.83908610017E+01  0.95575993720E+01  0.18726237284E+02  0.00000000000E+00 0. -1.
         11    1    3    3    0    0 -0.11333141597E+02  0.23516256011E+02 -0.19438580029E+02  0.32547085722E+02  0.51100000000E-03 0. -1.
        -11    1    3    3    0    0 -0.97633648467E+01  0.45755663441E+01 -0.70798864063E+01  0.12898988033E+02  0.51100000000E-03 0.  1.
        -12    1    3    3    0    0  0.73517725902E+01 -0.19700961353E+02  0.16960867063E+02  0.27015688960E+02  0.00000000000E+00 0.  1.
</event>
<event>
 7    1  0.2797450E-013  0.7246159E+02  0.7816164E-02  0.1226708E+00
        -11   -1    0    0    0    0  0.00000000000E+00  0.00000000000E+00  0.45593999997E+02  0.45594000000E+02  0.51100000000E-03 0. -1.
         11   -1    0    0    0    0 -0.00000000000E+00 -0.00000000000E+00 -0.45593999997E+02  0.45594000000E+02  0.51100000000E-03 0.  1.
    9900012    2    1    2    0    0 -0.33813542000E+01  0.13788362451E+02 -0.12211712870E+02  0.72461590133E+02  0.70000025843E+02 0.  0.
         12    1    1    2    0    0  0.33813542000E+01 -0.13788362451E+02  0.12211712870E+02  0.18726409867E+02  0.00000000000E+00 0. -1.
         11    1    3    3    0    0 -0.19480405708E+01 -0.15238901930E+02 -0.36945183391E+01  0.15800900611E+02  0.51100000000E-03 0. -1.
        -11    1    3    3    0    0  0.19046956328E+02  0.88099451694E+01 -0.16612947619E+02  0.26765494729E+02  0.51100000000E-03 0.  1.
        -12    1    3    3    0    0 -0.20480269957E+02  0.20217319212E+02  0.80957530880E+01  0.29895194793E+02  0.00000000000E+00 0.  1.
</event>
<event>
 7    1  0.2797450E-013  0.7246155E+02  0.7816164E-02  0.1226708E+00
        -11   -1    0    0    0    0  0.00000000000E+00  0.00000000000E+00  0.45593999997E+02  0.45594000000E+02  0.51100000000E-03 0.  1.
         11   -1    0    0    0    0 -0.00000000000E+00 -0.00000000000E+00 -0.45593999997E+02  0.45594000000E+02  0.51100000000E-03 0. -1.
    9900012    2    1    2    0    0  0.57780879171E-01  0.12659158225E+01  0.18683526793E+02  0.72461546654E+02  0.69999969204E+02 0.  0.
         12    1    1    2    0    0 -0.57780879171E-01 -0.12659158225E+01 -0.18683526793E+02  0.18726453346E+02  0.00000000000E+00 0. -1.
         11    1    3    3    0    0  0.26656307001E+01  0.69154265444E+01 -0.73897850301E+01  0.10466022854E+02  0.51100000000E-03 0. -1.
        -11    1    3    3    0    0 -0.18382423109E+02  0.16200459943E+02  0.65763577209E-02  0.24502416723E+02  0.51100000000E-03 0.  1.
        -12    1    3    3    0    0  0.15774573288E+02 -0.21849970665E+02  0.26066735465E+02  0.37493107078E+02  0.00000000000E+00 0.  1.
</event>
<event>
 7    1  0.2797450E-013  0.7246150E+02  0.7816164E-02  0.1226708E+00
        -11   -1    0    0    0    0  0.00000000000E+00  0.00000000000E+00  0.45593999997E+02  0.45594000000E+02  0.51100000000E-03 0.  1.
         11   -1    0    0    0    0 -0.00000000000E+00 -0.00000000000E+00 -0.45593999997E+02  0.45594000000E+02  0.51100000000E-03 0. -1.
    9900012    2    1    2    0    0  0.16602032503E+02  0.66648310926E+01  0.55348347280E+01  0.72461498667E+02  0.69999906692E+02 0.  0.
         12    1    1    2    0    0 -0.16602032503E+02 -0.66648310926E+01 -0.55348347280E+01  0.18726501333E+02  0.00000000000E+00 0. -1.
         11    1    3    3    0    0  0.15242908600E+02 -0.28749884716E+02 -0.42858160386E+01  0.32821796921E+02  0.51100000000E-03 0. -1.
        -11    1    3    3    0    0 -0.10855410083E+01  0.93323007198E+01 -0.37748347980E+01  0.10125196987E+02  0.51100000000E-03 0.  1.
        -12    1    3    3    0    0  0.24446649115E+01  0.26082415089E+02  0.13595485565E+02  0.29514504759E+02  0.00000000000E+00 0.  1.
</event>
<event>
 7    1  0.2797450E-013  0.7246163E+02  0.7816164E-02  0.1226708E+00
        -11   -1    0    0    0    0  0.00000000000E+00  0.00000000000E+00  0.45593999997E+02  0.45594000000E+02  0.51100000000E-03 0. -1.
         11   -1    0    0    0    0 -0.00000000000E+00 -0.00000000000E+00 -0.45593999997E+02  0.45594000000E+02  0.51100000000E-03 0.  1.
    9900012    2    1    2    0    0  0.52777974897E+01 -0.13745331200E+02 -0.11570983711E+02  0.72461629819E+02  0.70000077541E+02 0.  0.
         12    1    1    2    0    0 -0.52777974897E+01  0.13745331200E+02  0.11570983711E+02  0.18726370181E+02  0.00000000000E+00 0. -1.
         11    1    3    3    0    0  0.28590957420E+02 -0.12426889354E+01  0.24535349028E+01  0.28722934316E+02  0.51100000000E-03 0. -1.
        -11    1    3    3    0    0 -0.25383768958E+01 -0.16923657357E+02 -0.14594334637E+02  0.22491067991E+02  0.51100000000E-03 0.  1.
         12    1    3    3    0    0 -0.20774783034E+02  0.44210150929E+01  0.56981602316E+00  0.21247627511E+02  0.00000000000E+00 0. -1.
</event>
<event>
 7    1  0.2797450E-013  0.7246160E+02  0.7816164E-02  0.1226708E+00
        -11   -1    0    0    0    0  0.00000000000E+00  0.00000000000E+00  0.45593999997E+02  0.45594000000E+02  0.51100000000E-03 0.  1.
         11   -1    0    0    0    0 -0.00000000000E+00 -0.00000000000E+00 -0.45593999997E+02  0.45594000000E+02  0.51100000000E-03 0. -1.
    9900012    2    1    2    0    0 -0.49941688637E+01  0.33476825586E+01  0.17734973388E+02  0.72461601995E+02  0.70000041296E+02 0.  0.
         12    1    1    2    0    0  0.49941688637E+01 -0.33476825586E+01 -0.17734973388E+02  0.18726398005E+02  0.00000000000E+00 0. -1.
         11    1    3    3    0    0  0.22428240792E+00 -0.27168566191E+01  0.71020557395E+00  0.28170915331E+01  0.51100000000E-03 0. -1.
        -11    1    3    3    0    0  0.24741305758E+02 -0.66092248018E+01 -0.98611354453E+01  0.27441866839E+02  0.51100000000E-03 0.  1.
         12    1    3    3    0    0 -0.29959757029E+02  0.12673763980E+02  0.26885903260E+02  0.42202643623E+02  0.00000000000E+00 0. -1.
</event>
<event>
 7    1  0.2797450E-013  0.7246163E+02  0.7816164E-02  0.1226708E+00
        -11   -1    0    0    0    0  0.00000000000E+00  0.00000000000E+00  0.45593999997E+02  0.45594000000E+02  0.51100000000E-03 0.  1.
         11   -1    0    0    0    0 -0.00000000000E+00 -0.00000000000E+00 -0.45593999997E+02  0.45594000000E+02  0.51100000000E-03 0. -1.
    9900012    2    1    2    0    0  0.14193972524E+02 -0.65160405704E+01  0.10331958531E+02  0.72461628012E+02  0.70000075188E+02 0.  0.
         12    1    1    2    0    0 -0.14193972524E+02  0.65160405704E+01 -0.10331958531E+02  0.18726371988E+02  0.00000000000E+00 0. -1.
         11    1    3    3    0    0  0.14573420596E+02  0.19579921424E+02 -0.16123967795E+02  0.29253038279E+02  0.51100000000E-03 0. -1.
        -11    1    3    3    0    0  0.85777205243E+01 -0.25377424567E+01  0.74696327499E+01  0.11653876602E+02  0.51100000000E-03 0.  1.
        -12    1    3    3    0    0 -0.89571685963E+01 -0.23558219538E+02  0.18986293576E+02  0.31554713132E+02  0.00000000000E+00 0.  1.
</event>
<event>
 7    1  0.2797450E-013  0.7246157E+02  0.7816164E-02  0.1226708E+00
        -11   -1    0    0    0    0  0.00000000000E+00  0.00000000000E+00  0.45593999997E+02  0.45594000000E+02  0.51100000000E-03 0.  1.
         11   -1    0    0    0    0 -0.00000000000E+00 -0.00000000000E+00 -0.45593999997E+02  0.45594000000E+02  0.51100000000E-03 0. -1.
    9900012    2    1    2    0    0 -0.14723051872E+01  0.45880792190E+01  0.18095882140E+02  0.72461572046E+02  0.70000002282E+02 0.  0.
         12    1    1    2    0    0  0.14723051872E+01 -0.45880792190E+01 -0.18095882140E+02  0.18726427954E+02  0.00000000000E+00 0. -1.
         11    1    3    3    0    0  0.39048175308E+01 -0.18880720907E+02 -0.47617376435E+01  0.19859591324E+02  0.51100000000E-03 0. -1.
        -11    1    3    3    0    0  0.39820076854E+01 -0.91868649414E+01  0.14495667953E+02  0.17617583896E+02  0.51100000000E-03 0.  1.
        -12    1    3    3    0    0 -0.93591304034E+01  0.32655665067E+02  0.83619518308E+01  0.34984396827E+02  0.00000000000E+00 0.  1.
</event>
<event>
 7    1  0.2797450E-013  0.7246157E+02  0.7816164E-02  0.1226708E+00
        -11   -1    0    0    0    0  0.00000000000E+00  0.00000000000E+00  0.45593999997E+02  0.45594000000E+02  0.51100000000E-03 0.  1.
         11   -1    0    0    0    0 -0.00000000000E+00 -0.00000000000E+00 -0.45593999997E+02  0.45594000000E+02  0.51100000000E-03 0. -1.
    9900012    2    1    2    0    0  0.27096884770E+01 -0.72831802237E+01  0.17037958994E+02  0.72461570215E+02  0.69999999897E+02 0.  0.
         12    1    1    2    0    0 -0.27096884770E+01  0.72831802237E+01 -0.17037958994E+02  0.18726429785E+02  0.00000000000E+00 0. -1.
         11    1    3    3    0    0  0.44050072510E+01 -0.22272127242E+01  0.21176969216E+02  0.21744622113E+02  0.51100000000E-03 0. -1.
        -11    1    3    3    0    0 -0.16835930706E+02  0.12111742927E+02  0.10799655654E+02  0.23383229930E+02  0.51100000000E-03 0.  1.
         12    1    3    3    0    0  0.15140611932E+02 -0.17167710426E+02 -0.14938665876E+02  0.27333718172E+02  0.00000000000E+00 0. -1.
</event>
<event>
 7    1  0.2797450E-013  0.7246172E+02  0.7816164E-02  0.1226708E+00
        -11   -1    0    0    0    0  0.00000000000E+00  0.00000000000E+00  0.45593999997E+02  0.45594000000E+02  0.51100000000E-03 0.  1.
         11   -1    0    0    0    0 -0.00000000000E+00 -0.00000000000E+00 -0.45593999997E+02  0.45594000000E+02  0.51100000000E-03 0. -1.
    9900012    2    1    2    0    0 -0.51208985430E+01 -0.15697518625E+02 -0.88339031556E+01  0.72461720662E+02  0.70000195882E+02 0.  0.
         12    1    1    2    0    0  0.51208985430E+01  0.15697518625E+02  0.88339031556E+01  0.18726279338E+02  0.00000000000E+00 0. -1.
         11    1    3    3    0    0  0.11699913696E+02 -0.10480970572E+01 -0.89678776900E+01  0.14778677832E+02  0.51100000000E-03 0. -1.
        -11    1    3    3    0    0  0.16512288401E+02 -0.13814748671E+02 -0.86500637501E+01  0.23201865274E+02  0.51100000000E-03 0.  1.
         12    1    3    3    0    0 -0.33333100639E+02 -0.83467289692E+00  0.87840382846E+01  0.34481177556E+02  0.00000000000E+00 0. -1.
</event>
<event>
 7    1  0.2797450E-013  0.7246145E+02  0.7816164E-02  0.1226708E+00
        -11   -1    0    0    0    0  0.00000000000E+00  0.00000000000E+00  0.45593999997E+02  0.45594000000E+02  0.51100000000E-03 0. -1.
         11   -1    0    0    0    0 -0.00000000000E+00 -0.00000000000E+00 -0.45593999997E+02  0.45594000000E+02  0.51100000000E-03 0.  1.
    9900012    2    1    2    0    0 -0.57315603033E+00 -0.13203407660E+02 -0.13267450947E+02  0.72461448360E+02  0.69999841158E+02 0.  0.
         12    1    1    2    0    0  0.57315603033E+00  0.13203407660E+02  0.13267450947E+02  0.18726551640E+02  0.00000000000E+00 0. -1.
         11    1    3    3    0    0  0.11721472698E+02 -0.93257206729E+01 -0.92117840170E+01  0.17584622638E+02  0.51100000000E-03 0. -1.
        -11    1    3    3    0    0 -0.10354308711E+02 -0.28321524522E+02 -0.34153983909E+01  0.30347741374E+02  0.51100000000E-03 0.  1.
         12    1    3    3    0    0 -0.19403200172E+01  0.24443837534E+02 -0.64026853921E+00  0.24529084348E+02  0.00000000000E+00 0. -1.
</event>
<event>
 7    1  0.2797450E-013  0.7246157E+02  0.7816164E-02  0.1226708E+00
        -11   -1    0    0    0    0  0.00000000000E+00  0.00000000000E+00  0.45593999997E+02  0.45594000000E+02  0.51100000000E-03 0. -1.
         11   -1    0    0    0    0 -0.00000000000E+00 -0.00000000000E+00 -0.45593999997E+02  0.45594000000E+02  0.51100000000E-03 0.  1.
    9900012    2    1    2    0    0  0.10976131527E+02 -0.12849441590E+02 -0.80681869908E+01  0.72461568044E+02  0.69999997069E+02 0.  0.
         12    1    1    2    0    0 -0.10976131527E+02  0.12849441590E+02  0.80681869908E+01  0.18726431956E+02  0.00000000000E+00 0. -1.
         11    1    3    3    0    0  0.19310331258E+02  0.17578385188E+02 -0.16116497027E+01  0.26162682090E+02  0.51100000000E-03 0. -1.
        -11    1    3    3    0    0 -0.38347295190E+01 -0.50548081825E+01 -0.17235655197E+02  0.18366383601E+02  0.51100000000E-03 0.  1.
        -12    1    3    3    0    0 -0.44994702111E+01 -0.25373018595E+02  0.10779117909E+02  0.27932502353E+02  0.00000000000E+00 0.  1.
</event>
<event>
 7    1  0.2797450E-013  0.7246155E+02  0.7816164E-02  0.1226708E+00
        -11   -1    0    0    0    0  0.00000000000E+00  0.00000000000E+00  0.45593999997E+02  0.45594000000E+02  0.51100000000E-03 0.  1.
         11   -1    0    0    0    0 -0.00000000000E+00 -0.00000000000E+00 -0.45593999997E+02  0.45594000000E+02  0.51100000000E-03 0. -1.
    9900012    2    1    2    0    0  0.28208012711E+01  0.13947060568E+02  0.12173843462E+02  0.72461551246E+02  0.69999975186E+02 0.  0.
         12    1    1    2    0    0 -0.28208012711E+01 -0.13947060568E+02 -0.12173843462E+02  0.18726448754E+02  0.00000000000E+00 0. -1.
         11    1    3    3    0    0 -0.74526380634E+01  0.19262638602E+01  0.15953568568E+01  0.78611367069E+01  0.51100000000E-03 0. -1.
        -11    1    3    3    0    0 -0.17431494586E+02  0.21334622509E+02  0.19827480764E+02  0.33943366286E+02  0.51100000000E-03 0.  1.
        -12    1    3    3    0    0  0.27704933921E+02 -0.93138258015E+01 -0.92489941594E+01  0.30657048253E+02  0.00000000000E+00 0.  1.
</event>
<event>
 7    1  0.2797450E-013  0.7246155E+02  0.7816164E-02  0.1226708E+00
        -11   -1    0    0    0    0  0.00000000000E+00  0.00000000000E+00  0.45593999997E+02  0.45594000000E+02  0.51100000000E-03 0.  1.
         11   -1    0    0    0    0 -0.00000000000E+00 -0.00000000000E+00 -0.45593999997E+02  0.45594000000E+02  0.51100000000E-03 0. -1.
    9900012    2    1    2    0    0  0.15408360932E+02  0.10018731539E+02  0.35899206871E+01  0.72461545483E+02  0.69999967678E+02 0.  0.
         12    1    1    2    0    0 -0.15408360932E+02 -0.10018731539E+02 -0.35899206871E+01  0.18726454517E+02  0.00000000000E+00 0. -1.
         11    1    3    3    0    0  0.60957912345E+01  0.26551464300E+02 -0.24627224656E+02  0.36723822265E+02  0.51100000000E-03 0. -1.
        -11    1    3    3    0    0 -0.13405020695E+01  0.79148339146E+00  0.25821502045E+01  0.30151105613E+01  0.51100000000E-03 0.  1.
        -12    1    3    3    0    0  0.10653071767E+02 -0.17324216152E+02  0.25634995138E+02  0.32722612657E+02  0.00000000000E+00 0.  1.
</event>
<event>
 7    1  0.2797450E-013  0.7246157E+02  0.7816164E-02  0.1226708E+00
        -11   -1    0    0    0    0  0.00000000000E+00  0.00000000000E+00  0.45593999997E+02  0.45594000000E+02  0.51100000000E-03 0.  1.
         11   -1    0    0    0    0 -0.00000000000E+00 -0.00000000000E+00 -0.45593999997E+02  0.45594000000E+02  0.51100000000E-03 0. -1.
    9900012    2    1    2    0    0 -0.41896043676E+01  0.50071175645E+01  0.17551500916E+02  0.72461569602E+02  0.69999999098E+02 0.  0.
         12    1    1    2    0    0  0.41896043676E+01 -0.50071175645E+01 -0.17551500916E+02  0.18726430398E+02  0.00000000000E+00 0. -1.
         11    1    3    3    0    0  0.12527909027E+01  0.11741397407E+02  0.56212881292E+00  0.11821416463E+02  0.51100000000E-03 0. -1.
        -11    1    3    3    0    0  0.19514188358E+02  0.88867332813E+01  0.22060539531E+02  0.30764345928E+02  0.51100000000E-03 0.  1.
         12    1    3    3    0    0 -0.24956583629E+02 -0.15621013124E+02 -0.50711674282E+01  0.29875807211E+02  0.00000000000E+00 0. -1.
</event>
<event>
 7    1  0.2797450E-013  0.7246157E+02  0.7816164E-02  0.1226708E+00
        -11   -1    0    0    0    0  0.00000000000E+00  0.00000000000E+00  0.45593999997E+02  0.45594000000E+02  0.51100000000E-03 0. -1.
         11   -1    0    0    0    0 -0.00000000000E+00 -0.00000000000E+00 -0.45593999997E+02  0.45594000000E+02  0.51100000000E-03 0.  1.
    9900012    2    1    2    0    0  0.17350908753E+02 -0.18226489629E+01 -0.68046280236E+01  0.72461573583E+02  0.70000004284E+02 0.  0.
         12    1    1    2    0    0 -0.17350908753E+02  0.18226489629E+01  0.68046280236E+01  0.18726426417E+02  0.00000000000E+00 0. -1.
         11    1    3    3    0    0 -0.88125218577E+01  0.87379029751E+01  0.15996960090E+02  0.20246338491E+02  0.51100000000E-03 0.  1.
        -11    1    3    3    0    0 -0.40457758368E+01  0.83623605726E+01 -0.11576874234E+02  0.14843227202E+02  0.51100000000E-03 0. -1.
        -12    1    3    3    0    0  0.30209206448E+02 -0.18922912511E+02 -0.11224713880E+02  0.37372007890E+02  0.00000000000E+00 0.  1.
</event>
<event>
 7    1  0.2797450E-013  0.7246153E+02  0.7816164E-02  0.1226708E+00
        -11   -1    0    0    0    0  0.00000000000E+00  0.00000000000E+00  0.45593999997E+02  0.45594000000E+02  0.51100000000E-03 0.  1.
         11   -1    0    0    0    0 -0.00000000000E+00 -0.00000000000E+00 -0.45593999997E+02  0.45594000000E+02  0.51100000000E-03 0. -1.
    9900012    2    1    2    0    0  0.15210916290E+02  0.10636261722E+02  0.24856818053E+01  0.72461530716E+02  0.69999948442E+02 0.  0.
         12    1    1    2    0    0 -0.15210916290E+02 -0.10636261722E+02 -0.24856818053E+01  0.18726469284E+02  0.00000000000E+00 0. -1.
         11    1    3    3    0    0  0.95785855190E+01 -0.14805654596E+02 -0.10306376607E+02  0.20424938374E+02  0.51100000000E-03 0. -1.
        -11    1    3    3    0    0  0.23401258184E+02  0.18776516431E+02  0.16915097107E+01  0.30050585007E+02  0.51100000000E-03 0.  1.
         12    1    3    3    0    0 -0.17768927413E+02  0.66653998867E+01  0.11100548701E+02  0.21986007335E+02  0.00000000000E+00 0. -1.
</event>
<event>
 7    1  0.2797450E-013  0.7246157E+02  0.7816164E-02  0.1226708E+00
        -11   -1    0    0    0    0  0.00000000000E+00  0.00000000000E+00  0.45593999997E+02  0.45594000000E+02  0.51100000000E-03 0. -1.
         11   -1    0    0    0    0 -0.00000000000E+00 -0.00000000000E+00 -0.45593999997E+02  0.45594000000E+02  0.51100000000E-03 0.  1.
    9900012    2    1    2    0    0  0.10063538357E+02 -0.15270630683E+02 -0.40264401292E+01  0.72461569859E+02  0.69999999433E+02 0.  0.
         12    1    1    2    0    0 -0.10063538357E+02  0.15270630683E+02  0.40264401292E+01  0.18726430141E+02  0.00000000000E+00 0. -1.
         11    1    3    3    0    0 -0.19684505298E+01  0.14177317161E+01  0.21528770485E+01  0.32433995366E+01  0.51100000000E-03 0. -1.
        -11    1    3    3    0    0 -0.11654678813E+02  0.91064425889E+01 -0.25308779794E+02  0.29313702765E+02  0.51100000000E-03 0.  1.
         12    1    3    3    0    0  0.23686667699E+02 -0.25794804988E+02  0.19129462616E+02  0.39904467558E+02  0.00000000000E+00 0. -1.
</event>
<event>
 7    1  0.2797450E-013  0.7246167E+02  0.7816164E-02  0.1226708E+00
        -11   -1    0    0    0    0  0.00000000000E+00  0.00000000000E+00  0.45593999997E+02  0.45594000000E+02  0.51100000000E-03 0.  1.
         11   -1    0    0    0    0 -0.00000000000E+00 -0.00000000000E+00 -0.45593999997E+02  0.45594000000E+02  0.51100000000E-03 0. -1.
    9900012    2    1    2    0    0  0.70383511328E+01  0.15384666837E+02  0.80280256062E+01  0.72461666790E+02  0.70000125704E+02 0.  0.
         12    1    1    2    0    0 -0.70383511328E+01 -0.15384666837E+02 -0.80280256062E+01  0.18726333210E+02  0.00000000000E+00 0. -1.
         11    1    3    3    0    0 -0.14978522622E+01 -0.55373119460E+01 -0.24300981505E+02  0.24968842331E+02  0.51100000000E-03 0. -1.
        -11    1    3    3    0    0  0.64086856595E+01  0.15252717641E+01 -0.29179655695E+01  0.72050141681E+01  0.51100000000E-03 0.  1.
         12    1    3    3    0    0  0.21275177355E+01  0.19396707019E+02  0.35246972681E+02  0.40287810291E+02  0.00000000000E+00 0. -1.
</event>
<event>
 7    1  0.2797450E-013  0.7246158E+02  0.7816164E-02  0.1226708E+00
        -11   -1    0    0    0    0  0.00000000000E+00  0.00000000000E+00  0.45593999997E+02  0.45594000000E+02  0.51100000000E-03 0.  1.
         11   -1    0    0    0    0 -0.00000000000E+00 -0.00000000000E+00 -0.45593999997E+02  0.45594000000E+02  0.51100000000E-03 0. -1.
    9900012    2    1    2    0    0 -0.72385792449E+00  0.18579705289E+02  0.22247611851E+01  0.72461575321E+02  0.70000006548E+02 0.  0.
         12    1    1    2    0    0  0.72385792449E+00 -0.18579705289E+02 -0.22247611851E+01  0.18726424679E+02  0.00000000000E+00 0. -1.
         11    1    3    3    0    0 -0.14384353773E+02  0.99283761454E+00 -0.47269433068E+01  0.15173640080E+02  0.51100000000E-03 0. -1.
        -11    1    3    3    0    0 -0.20128595331E+02  0.66778499517E+01  0.58701864387E+00  0.21215527831E+02  0.51100000000E-03 0.  1.
         12    1    3    3    0    0  0.33789091180E+02  0.10909017723E+02  0.63646858481E+01  0.36072407410E+02  0.00000000000E+00 0. -1.
</event>
<event>
 7    1  0.2797450E-013  0.7246156E+02  0.7816164E-02  0.1226708E+00
        -11   -1    0    0    0    0  0.00000000000E+00  0.00000000000E+00  0.45593999997E+02  0.45594000000E+02  0.51100000000E-03 0.  1.
         11   -1    0    0    0    0 -0.00000000000E+00 -0.00000000000E+00 -0.45593999997E+02  0.45594000000E+02  0.51100000000E-03 0. -1.
    9900012    2    1    2    0    0 -0.48721283860E+01 -0.25952894036E+01  0.17894307639E+02  0.72461563928E+02  0.69999991706E+02 0.  0.
         12    1    1    2    0    0  0.48721283860E+01  0.25952894036E+01 -0.17894307639E+02  0.18726436072E+02  0.00000000000E+00 0. -1.
         11    1    3    3    0    0 -0.82206136507E+01 -0.14380522000E+02 -0.37343279558E+01  0.16980079721E+02  0.51100000000E-03 0. -1.
        -11    1    3    3    0    0 -0.12788675744E+02  0.24544395930E+02  0.31970544557E+01  0.27860343794E+02  0.51100000000E-03 0.  1.
         12    1    3    3    0    0  0.16137161009E+02 -0.12759163334E+02  0.18431581139E+02  0.27621140413E+02  0.00000000000E+00 0. -1.
</event>
<event>
 7    1  0.2797450E-013  0.7246155E+02  0.7816164E-02  0.1226708E+00
        -11   -1    0    0    0    0  0.00000000000E+00  0.00000000000E+00  0.45593999997E+02  0.45594000000E+02  0.51100000000E-03 0.  1.
         11   -1    0    0    0    0 -0.00000000000E+00 -0.00000000000E+00 -0.45593999997E+02  0.45594000000E+02  0.51100000000E-03 0. -1.
    9900012    2    1    2    0    0  0.72531523658E+01  0.79058953349E+01  0.15348237670E+02  0.72461553464E+02  0.69999978076E+02 0.  0.
         12    1    1    2    0    0 -0.72531523658E+01 -0.79058953349E+01 -0.15348237670E+02  0.18726446536E+02  0.00000000000E+00 0. -1.
         11    1    3    3    0    0  0.12549043033E+02  0.80254458319E+01 -0.70492853199E+01  0.16479644584E+02  0.51100000000E-03 0. -1.
        -11    1    3    3    0    0  0.18747526068E+02 -0.13954477196E+02  0.78156622612E+01  0.24643087151E+02  0.51100000000E-03 0.  1.
         12    1    3    3    0    0 -0.24043416735E+02  0.13834926699E+02  0.14581860729E+02  0.31338821729E+02  0.00000000000E+00 0. -1.
</event>
<event>
 7    1  0.2797450E-013  0.7246158E+02  0.7816164E-02  0.1226708E+00
        -11   -1    0    0    0    0  0.00000000000E+00  0.00000000000E+00  0.45593999997E+02  0.45594000000E+02  0.51100000000E-03 0. -1.
         11   -1    0    0    0    0 -0.00000000000E+00 -0.00000000000E+00 -0.45593999997E+02  0.45594000000E+02  0.51100000000E-03 0.  1.
    9900012    2    1    2    0    0  0.59126811760E+01 -0.42220941526E+01 -0.17259570196E+02  0.72461584404E+02  0.70000018381E+02 0.  0.
         12    1    1    2    0    0 -0.59126811760E+01  0.42220941526E+01  0.17259570196E+02  0.18726415596E+02  0.00000000000E+00 0. -1.
         11    1    3    3    0    0 -0.41180438641E+01  0.46721061091E+01  0.15463535206E+02  0.16670566340E+02  0.51100000000E-03 0. -1.
        -11    1    3    3    0    0 -0.72646950302E+01 -0.15393276935E+02  0.13040450978E+01  0.17071300553E+02  0.51100000000E-03 0.  1.
        -12    1    3    3    0    0  0.17295420070E+02  0.64990766732E+01 -0.34027150500E+02  0.38719717511E+02  0.00000000000E+00 0.  1.
</event>
<event>
 7    1  0.2797450E-013  0.7246170E+02  0.7816164E-02  0.1226708E+00
        -11   -1    0    0    0    0  0.00000000000E+00  0.00000000000E+00  0.45593999997E+02  0.45594000000E+02  0.51100000000E-03 0. -1.
         11   -1    0    0    0    0 -0.00000000000E+00 -0.00000000000E+00 -0.45593999997E+02  0.45594000000E+02  0.51100000000E-03 0.  1.
    9900012    2    1    2    0    0  0.12824226770E+02 -0.12330143607E+01 -0.13590189089E+02  0.72461698813E+02  0.70000167420E+02 0.  0.
         12    1    1    2    0    0 -0.12824226770E+02  0.12330143607E+01  0.13590189089E+02  0.18726301187E+02  0.00000000000E+00 0. -1.
         11    1    3    3    0    0 -0.20386178853E+01  0.18989048284E+02  0.97074718352E+00  0.19122820607E+02  0.51100000000E-03 0. -1.
        -11    1    3    3    0    0  0.11280321841E+02  0.10038262253E+02  0.63514322217E+01  0.16381485324E+02  0.51100000000E-03 0.  1.
         12    1    3    3    0    0  0.35825228142E+01 -0.30260324898E+02 -0.20912368494E+02  0.36957392882E+02  0.00000000000E+00 0. -1.
</event>
<event>
 7    1  0.2797450E-013  0.7246157E+02  0.7816164E-02  0.1226708E+00
        -11   -1    0    0    0    0  0.00000000000E+00  0.00000000000E+00  0.45593999997E+02  0.45594000000E+02  0.51100000000E-03 0. -1.
         11   -1    0    0    0    0 -0.00000000000E+00 -0.00000000000E+00 -0.45593999997E+02  0.45594000000E+02  0.51100000000E-03 0.  1.
    9900012    2    1    2    0    0 -0.11778368135E+02 -0.10009652860E+02 -0.10571468683E+02  0.72461573314E+02  0.70000003933E+02 0.  0.
         12    1    1    2    0    0  0.11778368135E+02  0.10009652860E+02  0.10571468683E+02  0.18726426686E+02  0.00000000000E+00 0. -1.
         11    1    3    3    0    0 -0.94795293713E+01  0.18924438503E+02  0.68936710914E+01  0.22260245981E+02  0.51100000000E-03 0. -1.
        -11    1    3    3    0    0  0.18686894479E+01 -0.17137870443E+02 -0.28638812872E+02  0.33427237495E+02  0.51100000000E-03 0.  1.
         12    1    3    3    0    0 -0.41675282120E+01 -0.11796220920E+02  0.11173673098E+02  0.16774089838E+02  0.00000000000E+00 0. -1.
</event>
<event>
 7    1  0.2797450E-013  0.7246143E+02  0.7816164E-02  0.1226708E+00
        -11   -1    0    0    0    0  0.00000000000E+00  0.00000000000E+00  0.45593999997E+02  0.45594000000E+02  0.51100000000E-03 0.  1.
         11   -1    0    0    0    0 -0.00000000000E+00 -0.00000000000E+00 -0.45593999997E+02  0.45594000000E+02  0.51100000000E-03 0. -1.
    9900012    2    1    2    0    0  0.10329637628E+02  0.12173642269E+02  0.97870109945E+01  0.72461426266E+02  0.69999812375E+02 0.  0.
         12    1    1    2    0    0 -0.10329637628E+02 -0.12173642269E+02 -0.97870109945E+01  0.18726573734E+02  0.00000000000E+00 0. -1.
         11    1    3    3    0    0  0.61336197139E+01 -0.55809444530E+01  0.19065216400E+02  0.20790639923E+02  0.51100000000E-03 0.  1.
        -11    1    3    3    0    0  0.19602994396E+02  0.24455131987E+02  0.20474028046E+01  0.31408959364E+02  0.51100000000E-03 0. -1.
         12    1    3    3    0    0 -0.15406976482E+02 -0.67005452652E+01 -0.11325608210E+02  0.20261826978E+02  0.00000000000E+00 0. -1.
</event>
<event>
 7    1  0.2797450E-013  0.7246176E+02  0.7816164E-02  0.1226708E+00
        -11   -1    0    0    0    0  0.00000000000E+00  0.00000000000E+00  0.45593999997E+02  0.45594000000E+02  0.51100000000E-03 0.  1.
         11   -1    0    0    0    0 -0.00000000000E+00 -0.00000000000E+00 -0.45593999997E+02  0.45594000000E+02  0.51100000000E-03 0. -1.
    9900012    2    1    2    0    0  0.71029666421E+01 -0.32407823677E+01  0.17021083046E+02  0.72461759760E+02  0.70000246814E+02 0.  0.
         12    1    1    2    0    0 -0.71029666421E+01  0.32407823677E+01 -0.17021083046E+02  0.18726240240E+02  0.00000000000E+00 0. -1.
         11    1    3    3    0    0 -0.15064912360E+01  0.20770063219E+02  0.15382651493E+02  0.25889978933E+02  0.51100000000E-03 0. -1.
        -11    1    3    3    0    0  0.11610748253E+02 -0.30830184150E+01 -0.15320333706E+02  0.19468618407E+02  0.51100000000E-03 0.  1.
        -12    1    3    3    0    0 -0.30012903750E+01 -0.20927827171E+02  0.16958765259E+02  0.27103162419E+02  0.00000000000E+00 0.  1.
</event>
<event>
 7    1  0.2797450E-013  0.7246159E+02  0.7816164E-02  0.1226708E+00
        -11   -1    0    0    0    0  0.00000000000E+00  0.00000000000E+00  0.45593999997E+02  0.45594000000E+02  0.51100000000E-03 0.  1.
         11   -1    0    0    0    0 -0.00000000000E+00 -0.00000000000E+00 -0.45593999997E+02  0.45594000000E+02  0.51100000000E-03 0. -1.
    9900012    2    1    2    0    0 -0.56531030715E+01  0.32977894673E+01  0.17545529765E+02  0.72461585382E+02  0.70000019654E+02 0.  0.
         12    1    1    2    0    0  0.56531030715E+01 -0.32977894673E+01 -0.17545529765E+02  0.18726414618E+02  0.00000000000E+00 0. -1.
         11    1    3    3    0    0 -0.19428200859E+01 -0.89669514691E+01  0.90086821860E+01  0.12858348398E+02  0.51100000000E-03 0. -1.
        -11    1    3    3    0    0  0.13674238104E+02  0.42762401885E+01  0.28533332881E+02  0.31928390242E+02  0.51100000000E-03 0.  1.
         12    1    3    3    0    0 -0.17384521090E+02  0.79885007479E+01 -0.19996485302E+02  0.27674846742E+02  0.00000000000E+00 0. -1.
</event>
<event>
 7    1  0.2797450E-013  0.7246158E+02  0.7816164E-02  0.1226708E+00
        -11   -1    0    0    0    0  0.00000000000E+00  0.00000000000E+00  0.45593999997E+02  0.45594000000E+02  0.51100000000E-03 0. -1.
         11   -1    0    0    0    0 -0.00000000000E+00 -0.00000000000E+00 -0.45593999997E+02  0.45594000000E+02  0.51100000000E-03 0.  1.
    9900012    2    1    2    0    0 -0.66061802807E+01 -0.15745841012E+02 -0.76880312437E+01  0.72461576116E+02  0.70000007584E+02 0.  0.
         12    1    1    2    0    0  0.66061802807E+01  0.15745841012E+02  0.76880312437E+01  0.18726423884E+02  0.00000000000E+00 0. -1.
         11    1    3    3    0    0  0.99440364578E+01  0.16173039413E+02  0.45992595034E+01  0.19534693577E+02  0.51100000000E-03 0. -1.
        -11    1    3    3    0    0 -0.12390052356E+02 -0.13656400218E+02 -0.24427867896E+02  0.30606067936E+02  0.51100000000E-03 0.  1.
         12    1    3    3    0    0 -0.41601643821E+01 -0.18262480207E+02  0.12140577149E+02  0.22320814602E+02  0.00000000000E+00 0. -1.
</event>
<event>
 7    1  0.2797450E-013  0.7246160E+02  0.7816164E-02  0.1226708E+00
        -11   -1    0    0    0    0  0.00000000000E+00  0.00000000000E+00  0.45593999997E+02  0.45594000000E+02  0.51100000000E-03 0. -1.
         11   -1    0    0    0    0 -0.00000000000E+00 -0.00000000000E+00 -0.45593999997E+02  0.45594000000E+02  0.51100000000E-03 0.  1.
    9900012    2    1    2    0    0 -0.11527897003E+02 -0.93208618525E+01 -0.11441467873E+02  0.72461599863E+02  0.70000038519E+02 0.  0.
         12    1    1    2    0    0  0.11527897003E+02  0.93208618525E+01  0.11441467873E+02  0.18726400137E+02  0.00000000000E+00 0. -1.
         11    1    3    3    0    0  0.45343643287E+01 -0.11151286914E+01 -0.24926495584E+01  0.52931346050E+01  0.51100000000E-03 0. -1.
        -11    1    3    3    0    0  0.69463681891E+01 -0.32356001824E+02 -0.64747260333E+01  0.33720690422E+02  0.51100000000E-03 0.  1.
         12    1    3    3    0    0 -0.23008629521E+02  0.24150268663E+02 -0.24740922816E+01  0.33447774837E+02  0.00000000000E+00 0. -1.
</event>
<event>
 7    1  0.2797450E-013  0.7246161E+02  0.7816164E-02  0.1226708E+00
        -11   -1    0    0    0    0  0.00000000000E+00  0.00000000000E+00  0.45593999997E+02  0.45594000000E+02  0.51100000000E-03 0. -1.
         11   -1    0    0    0    0 -0.00000000000E+00 -0.00000000000E+00 -0.45593999997E+02  0.45594000000E+02  0.51100000000E-03 0.  1.
    9900012    2    1    2    0    0  0.76238513296E+01  0.17098174193E+02 -0.45507790795E+00  0.72461607776E+02  0.70000048827E+02 0.  0.
         12    1    1    2    0    0 -0.76238513296E+01 -0.17098174193E+02  0.45507790795E+00  0.18726392224E+02  0.00000000000E+00 0. -1.
         11    1    3    3    0    0 -0.19912156785E+02 -0.38492209058E+01  0.46280624908E+01  0.20802150180E+02  0.51100000000E-03 0. -1.
        -11    1    3    3    0    0 -0.86534067307E+01  0.97687660031E+01  0.17639305573E+01  0.13168966874E+02  0.51100000000E-03 0.  1.
        -12    1    3    3    0    0  0.36189414846E+02  0.11178629095E+02 -0.68470709561E+01  0.38490490722E+02  0.00000000000E+00 0.  1.
</event>
<event>
 7    1  0.2797450E-013  0.7246142E+02  0.7816164E-02  0.1226708E+00
        -11   -1    0    0    0    0  0.00000000000E+00  0.00000000000E+00  0.45593999997E+02  0.45594000000E+02  0.51100000000E-03 0.  1.
         11   -1    0    0    0    0 -0.00000000000E+00 -0.00000000000E+00 -0.45593999997E+02  0.45594000000E+02  0.51100000000E-03 0. -1.
    9900012    2    1    2    0    0 -0.38666781692E+00  0.17323208875E+02  0.71022438990E+01  0.72461416058E+02  0.69999799078E+02 0.  0.
         12    1    1    2    0    0  0.38666781692E+00 -0.17323208875E+02 -0.71022438990E+01  0.18726583942E+02  0.00000000000E+00 0. -1.
         11    1    3    3    0    0 -0.17720065849E+02  0.22851690224E+02 -0.98607070911E+01  0.30552152533E+02  0.51100000000E-03 0. -1.
        -11    1    3    3    0    0  0.11565591382E+02  0.11612996365E+02  0.17285642999E+02  0.23820538254E+02  0.51100000000E-03 0.  1.
         12    1    3    3    0    0  0.57678066502E+01 -0.17141477714E+02 -0.32269200861E+00  0.18088725271E+02  0.00000000000E+00 0. -1.
</event>
<event>
 7    1  0.2797450E-013  0.7246158E+02  0.7816164E-02  0.1226708E+00
        -11   -1    0    0    0    0  0.00000000000E+00  0.00000000000E+00  0.45593999997E+02  0.45594000000E+02  0.51100000000E-03 0.  1.
         11   -1    0    0    0    0 -0.00000000000E+00 -0.00000000000E+00 -0.45593999997E+02  0.45594000000E+02  0.51100000000E-03 0. -1.
    9900012    2    1    2    0    0 -0.17458561208E+02 -0.63514280770E+01  0.23530629784E+01  0.72461577398E+02  0.70000009254E+02 0.  0.
         12    1    1    2    0    0  0.17458561208E+02  0.63514280770E+01 -0.23530629784E+01  0.18726422602E+02  0.00000000000E+00 0. -1.
         11    1    3    3    0    0  0.68000352385E+00 -0.10440280902E+02 -0.16095007827E+02  0.19196644167E+02  0.51100000000E-03 0. -1.
        -11    1    3    3    0    0 -0.27964850053E+02 -0.67980054697E+01 -0.11320048290E+01  0.28801513017E+02  0.51100000000E-03 0.  1.
         12    1    3    3    0    0  0.98262853215E+01  0.10886858294E+02  0.19580075634E+02  0.24463420214E+02  0.00000000000E+00 0. -1.
</event>
<event>
 7    1  0.2797450E-013  0.7246156E+02  0.7816164E-02  0.1226708E+00
        -11   -1    0    0    0    0  0.00000000000E+00  0.00000000000E+00  0.45593999997E+02  0.45594000000E+02  0.51100000000E-03 0. -1.
         11   -1    0    0    0    0 -0.00000000000E+00 -0.00000000000E+00 -0.45593999997E+02  0.45594000000E+02  0.51100000000E-03 0.  1.
    9900012    2    1    2    0    0 -0.10233602218E+02  0.14127548149E+02  0.68092094518E+01  0.72461559750E+02  0.69999986265E+02 0.  0.
         12    1    1    2    0    0  0.10233602218E+02 -0.14127548149E+02 -0.68092094518E+01  0.18726440250E+02  0.00000000000E+00 0. -1.
         11    1    3    3    0    0  0.27763619576E+01 -0.97280284032E+01 -0.11230651096E+02  0.15115232272E+02  0.51100000000E-03 0. -1.
        -11    1    3    3    0    0  0.13440634027E+02 -0.49334682676E+01  0.99157010060E+01  0.17415822659E+02  0.51100000000E-03 0.  1.
         12    1    3    3    0    0 -0.26450598203E+02  0.28789044820E+02  0.81241595418E+01  0.39930504820E+02  0.00000000000E+00 0. -1.
</event>
<event>
 7    1  0.2797450E-013  0.7246153E+02  0.7816164E-02  0.1226708E+00
        -11   -1    0    0    0    0  0.00000000000E+00  0.00000000000E+00  0.45593999997E+02  0.45594000000E+02  0.51100000000E-03 0.  1.
         11   -1    0    0    0    0 -0.00000000000E+00 -0.00000000000E+00 -0.45593999997E+02  0.45594000000E+02  0.51100000000E-03 0. -1.
    9900012    2    1    2    0    0  0.15127511349E+02 -0.24759025911E+01  0.10756819175E+02  0.72461525371E+02  0.69999941479E+02 0.  0.
         12    1    1    2    0    0 -0.15127511349E+02  0.24759025911E+01 -0.10756819175E+02  0.18726474629E+02  0.00000000000E+00 0. -1.
         11    1    3    3    0    0 -0.12287945938E+02  0.16545641034E+00  0.99465045350E+00  0.12329246570E+02  0.51100000000E-03 0. -1.
        -11    1    3    3    0    0  0.20219172726E+02 -0.11775212449E+02  0.29238910598E+02  0.37448424094E+02  0.51100000000E-03 0.  1.
        -12    1    3    3    0    0  0.71962845606E+01  0.91338534472E+01 -0.19476741876E+02  0.22683854707E+02  0.00000000000E+00 0.  1.
</event>
<event>
 7    1  0.2797450E-013  0.7246154E+02  0.7816164E-02  0.1226708E+00
        -11   -1    0    0    0    0  0.00000000000E+00  0.00000000000E+00  0.45593999997E+02  0.45594000000E+02  0.51100000000E-03 0. -1.
         11   -1    0    0    0    0 -0.00000000000E+00 -0.00000000000E+00 -0.45593999997E+02  0.45594000000E+02  0.51100000000E-03 0.  1.
    9900012    2    1    2    0    0 -0.16939450755E+02 -0.16286804329E+01 -0.78155326204E+01  0.72461544330E+02  0.69999966176E+02 0.  0.
         12    1    1    2    0    0  0.16939450755E+02  0.16286804329E+01  0.78155326204E+01  0.18726455670E+02  0.00000000000E+00 0. -1.
         11    1    3    3    0    0  0.61694337640E-01  0.12972993706E+02  0.13468220492E+02  0.18700142657E+02  0.51100000000E-03 0.  1.
        -11    1    3    3    0    0  0.13578226030E+02 -0.17737116106E-01  0.31716970030E+00  0.13581941452E+02  0.51100000000E-03 0. -1.
        -12    1    3    3    0    0 -0.30579371122E+02 -0.14583937023E+02 -0.21600922813E+02  0.40179460221E+02  0.00000000000E+00 0.  1.
</event>
<event>
 7    1  0.2797450E-013  0.7246154E+02  0.7816164E-02  0.1226708E+00
        -11   -1    0    0    0    0  0.00000000000E+00  0.00000000000E+00  0.45593999997E+02  0.45594000000E+02  0.51100000000E-03 0.  1.
         11   -1    0    0    0    0 -0.00000000000E+00 -0.00000000000E+00 -0.45593999997E+02  0.45594000000E+02  0.51100000000E-03 0. -1.
    9900012    2    1    2    0    0  0.17224828816E+02  0.45715728325E+01 -0.57520556691E+01  0.72461544107E+02  0.69999965886E+02 0.  0.
         12    1    1    2    0    0 -0.17224828816E+02 -0.45715728325E+01  0.57520556691E+01  0.18726455893E+02  0.00000000000E+00 0. -1.
         11    1    3    3    0    0  0.57123975775E+01 -0.99503156668E+01  0.77273243712E+01  0.13832997150E+02  0.51100000000E-03 0. -1.
        -11    1    3    3    0    0  0.21904823328E+02  0.26349694313E+02  0.46915374226E+01  0.34585230939E+02  0.51100000000E-03 0.  1.
         12    1    3    3    0    0 -0.10392392089E+02 -0.11827805814E+02 -0.18170917463E+02  0.24043316018E+02  0.00000000000E+00 0. -1.
</event>
<event>
 7    1  0.2797450E-013  0.7246157E+02  0.7816164E-02  0.1226708E+00
        -11   -1    0    0    0    0  0.00000000000E+00  0.00000000000E+00  0.45593999997E+02  0.45594000000E+02  0.51100000000E-03 0.  1.
         11   -1    0    0    0    0 -0.00000000000E+00 -0.00000000000E+00 -0.45593999997E+02  0.45594000000E+02  0.51100000000E-03 0. -1.
    9900012    2    1    2    0    0 -0.12000945994E+02 -0.11983160104E+02 -0.79410553378E+01  0.72461569729E+02  0.69999999263E+02 0.  0.
         12    1    1    2    0    0  0.12000945994E+02  0.11983160104E+02  0.79410553378E+01  0.18726430271E+02  0.00000000000E+00 0. -1.
         11    1    3    3    0    0  0.20023826987E+01 -0.40141804181E+01  0.61374331581E+01  0.76020567567E+01  0.51100000000E-03 0. -1.
        -11    1    3    3    0    0 -0.35841946749E+01 -0.33466315281E+02  0.57004440513E+00  0.33662526062E+02  0.51100000000E-03 0.  1.
         12    1    3    3    0    0 -0.10419134018E+02  0.25497335595E+02 -0.14648532901E+02  0.31196986910E+02  0.00000000000E+00 0. -1.
</event>
<event>
 7    1  0.2797450E-013  0.7246160E+02  0.7816164E-02  0.1226708E+00
        -11   -1    0    0    0    0  0.00000000000E+00  0.00000000000E+00  0.45593999997E+02  0.45594000000E+02  0.51100000000E-03 0.  1.
         11   -1    0    0    0    0 -0.00000000000E+00 -0.00000000000E+00 -0.45593999997E+02  0.45594000000E+02  0.51100000000E-03 0. -1.
    9900012    2    1    2    0    0 -0.40610688194E+01  0.41539587789E+01  0.17802537647E+02  0.72461601517E+02  0.70000040673E+02 0.  0.
         12    1    1    2    0    0  0.40610688194E+01 -0.41539587789E+01 -0.17802537647E+02  0.18726398483E+02  0.00000000000E+00 0. -1.
         11    1    3    3    0    0 -0.63958839490E+01 -0.17262886150E+02 -0.88733147703E+01  0.20436493950E+02  0.51100000000E-03 0. -1.
        -11    1    3    3    0    0  0.18147209582E+02  0.27492083446E+01  0.42558056858E+01  0.18841211331E+02  0.51100000000E-03 0.  1.
        -12    1    3    3    0    0 -0.15812394452E+02  0.18667636584E+02  0.22420046731E+02  0.33183896235E+02  0.00000000000E+00 0.  1.
</event>
<event>
 7    1  0.2797450E-013  0.7246157E+02  0.7816164E-02  0.1226708E+00
        -11   -1    0    0    0    0  0.00000000000E+00  0.00000000000E+00  0.45593999997E+02  0.45594000000E+02  0.51100000000E-03 0. -1.
         11   -1    0    0    0    0 -0.00000000000E+00 -0.00000000000E+00 -0.45593999997E+02  0.45594000000E+02  0.51100000000E-03 0.  1.
    9900012    2    1    2    0    0  0.44500959216E+01 -0.74850105198E+01 -0.16578614018E+02  0.72461570043E+02  0.69999999673E+02 0.  0.
         12    1    1    2    0    0 -0.44500959216E+01  0.74850105198E+01  0.16578614018E+02  0.18726429957E+02  0.00000000000E+00 0. -1.
         11    1    3    3    0    0  0.15302634043E+02  0.28654102335E+01 -0.11440076765E+02  0.19319848372E+02  0.51100000000E-03 0. -1.
        -11    1    3    3    0    0  0.16455992757E+02 -0.17645932991E+02 -0.59969011847E+01  0.24862451062E+02  0.51100000000E-03 0.  1.
        -12    1    3    3    0    0 -0.27308530878E+02  0.72955122375E+01  0.85836393186E+00  0.28279270609E+02  0.00000000000E+00 0.  1.
</event>
<event>
 7    1  0.2797450E-013  0.7246142E+02  0.7816164E-02  0.1226708E+00
        -11   -1    0    0    0    0  0.00000000000E+00  0.00000000000E+00  0.45593999997E+02  0.45594000000E+02  0.51100000000E-03 0. -1.
         11   -1    0    0    0    0 -0.00000000000E+00 -0.00000000000E+00 -0.45593999997E+02  0.45594000000E+02  0.51100000000E-03 0.  1.
    9900012    2    1    2    0    0  0.47978497043E+00 -0.15216285238E+02 -0.10905012605E+02  0.72461419159E+02  0.69999803118E+02 0.  0.
         12    1    1    2    0    0 -0.47978497043E+00  0.15216285238E+02  0.10905012605E+02  0.18726580841E+02  0.00000000000E+00 0. -1.
         11    1    3    3    0    0  0.13523598902E+02 -0.16457842657E+02 -0.11079240942E+02  0.24010370516E+02  0.51100000000E-03 0.  1.
        -11    1    3    3    0    0 -0.85173243805E+01 -0.19853941938E+02  0.11075955597E+02  0.24277574379E+02  0.51100000000E-03 0. -1.
        -12    1    3    3    0    0 -0.45264895512E+01  0.21095499357E+02 -0.10901727260E+02  0.24173474265E+02  0.00000000000E+00 0.  1.
</event>
<event>
 7    1  0.2797450E-013  0.7246155E+02  0.7816164E-02  0.1226708E+00
        -11   -1    0    0    0    0  0.00000000000E+00  0.00000000000E+00  0.45593999997E+02  0.45594000000E+02  0.51100000000E-03 0. -1.
         11   -1    0    0    0    0 -0.00000000000E+00 -0.00000000000E+00 -0.45593999997E+02  0.45594000000E+02  0.51100000000E-03 0.  1.
    9900012    2    1    2    0    0 -0.59633667396E+01  0.16430251494E+02 -0.67204929482E+01  0.72461549923E+02  0.69999973463E+02 0.  0.
         12    1    1    2    0    0  0.59633667396E+01 -0.16430251494E+02  0.67204929482E+01  0.18726450077E+02  0.00000000000E+00 0. -1.
         11    1    3    3    0    0 -0.32057516462E+01  0.29952836436E+02  0.82088997144E+01  0.31222352393E+02  0.51100000000E-03 0. -1.
        -11    1    3    3    0    0 -0.12921739054E+02 -0.84692500960E+01  0.66782671634E+01  0.16831482108E+02  0.51100000000E-03 0.  1.
        -12    1    3    3    0    0  0.10164123961E+02 -0.50533348465E+01 -0.21607659826E+02  0.24407715422E+02  0.00000000000E+00 0.  1.
</event>
<event>
 7    1  0.2797450E-013  0.7246161E+02  0.7816164E-02  0.1226708E+00
        -11   -1    0    0    0    0  0.00000000000E+00  0.00000000000E+00  0.45593999997E+02  0.45594000000E+02  0.51100000000E-03 0.  1.
         11   -1    0    0    0    0 -0.00000000000E+00 -0.00000000000E+00 -0.45593999997E+02  0.45594000000E+02  0.51100000000E-03 0. -1.
    9900012    2    1    2    0    0  0.60405327217E+01 -0.88499360659E+00  0.17703287241E+02  0.72461611444E+02  0.70000053605E+02 0.  0.
         12    1    1    2    0    0 -0.60405327217E+01  0.88499360659E+00 -0.17703287241E+02  0.18726388556E+02  0.00000000000E+00 0. -1.
         11    1    3    3    0    0 -0.53709204651E+01 -0.25122931218E+02 -0.48046347926E+00  0.25695122203E+02  0.51100000000E-03 0. -1.
        -11    1    3    3    0    0  0.53283471832E+01  0.31582865149E+00  0.21234645185E+02  0.21895232080E+02  0.51100000000E-03 0.  1.
        -12    1    3    3    0    0  0.60831060037E+01  0.23922108960E+02 -0.30508944649E+01  0.24871257161E+02  0.00000000000E+00 0.  1.
</event>
<event>
 7    1  0.2797450E-013  0.7246158E+02  0.7816164E-02  0.1226708E+00
        -11   -1    0    0    0    0  0.00000000000E+00  0.00000000000E+00  0.45593999997E+02  0.45594000000E+02  0.51100000000E-03 0.  1.
         11   -1    0    0    0    0 -0.00000000000E+00 -0.00000000000E+00 -0.45593999997E+02  0.45594000000E+02  0.51100000000E-03 0. -1.
    9900012    2    1    2    0    0 -0.93669026083E+01  0.16108716992E+02  0.18571821942E+01  0.72461581407E+02  0.70000014476E+02 0.  0.
         12    1    1    2    0    0  0.93669026083E+01 -0.16108716992E+02 -0.18571821942E+01  0.18726418593E+02  0.00000000000E+00 0. -1.
         11    1    3    3    0    0  0.84805746667E+01  0.83647301268E+01 -0.19545074555E+02  0.22888835627E+02  0.51100000000E-03 0. -1.
        -11    1    3    3    0    0  0.12346325230E+02  0.71758291214E+01  0.92845489441E+01  0.17033118318E+02  0.51100000000E-03 0.  1.
        -12    1    3    3    0    0 -0.30193802505E+02  0.56815774418E+00  0.12117707805E+02  0.32539627462E+02  0.00000000000E+00 0.  1.
</event>
<event>
 7    1  0.2797450E-013  0.7246147E+02  0.7816164E-02  0.1226708E+00
        -11   -1    0    0    0    0  0.00000000000E+00  0.00000000000E+00  0.45593999997E+02  0.45594000000E+02  0.51100000000E-03 0. -1.
         11   -1    0    0    0    0 -0.00000000000E+00 -0.00000000000E+00 -0.45593999997E+02  0.45594000000E+02  0.51100000000E-03 0.  1.
    9900012    2    1    2    0    0 -0.17243528391E+01 -0.17393857504E+02 -0.67203569113E+01  0.72461471528E+02  0.69999871339E+02 0.  0.
         12    1    1    2    0    0  0.17243528391E+01  0.17393857504E+02  0.67203569113E+01  0.18726528472E+02  0.00000000000E+00 0. -1.
         11    1    3    3    0    0 -0.17577514370E+02  0.92140345785E+01  0.17814043538E+02  0.26668475623E+02  0.51100000000E-03 0. -1.
        -11    1    3    3    0    0  0.19691682752E+01 -0.83583208768E+00 -0.14783953767E+02  0.14937922487E+02  0.51100000000E-03 0.  1.
        -12    1    3    3    0    0  0.13883993256E+02 -0.25772059995E+02 -0.97504466824E+01  0.30855073418E+02  0.00000000000E+00 0.  1.
</event>
<event>
 7    1  0.2797450E-013  0.7246150E+02  0.7816164E-02  0.1226708E+00
        -11   -1    0    0    0    0  0.00000000000E+00  0.00000000000E+00  0.45593999997E+02  0.45594000000E+02  0.51100000000E-03 0. -1.
         11   -1    0    0    0    0 -0.00000000000E+00 -0.00000000000E+00 -0.45593999997E+02  0.45594000000E+02  0.51100000000E-03 0.  1.
    9900012    2    1    2    0    0  0.17820000142E+02  0.31353104102E+01 -0.48269287776E+01  0.72461499584E+02  0.69999907886E+02 0.  0.
         12    1    1    2    0    0 -0.17820000142E+02 -0.31353104102E+01  0.48269287776E+01  0.18726500416E+02  0.00000000000E+00 0. -1.
         11    1    3    3    0    0  0.15816790691E+02 -0.51680200693E+01 -0.39028574887E+01  0.17091272511E+02  0.51100000000E-03 0. -1.
        -11    1    3    3    0    0  0.16940683678E+02 -0.28785522393E+01 -0.21546392629E+02  0.27559387911E+02  0.51100000000E-03 0.  1.
        -12    1    3    3    0    0 -0.14937474227E+02  0.11181882719E+02  0.20622321340E+02  0.27810839161E+02  0.00000000000E+00 0.  1.
</event>
<event>
 7    1  0.2797450E-013  0.7246153E+02  0.7816164E-02  0.1226708E+00
        -11   -1    0    0    0    0  0.00000000000E+00  0.00000000000E+00  0.45593999997E+02  0.45594000000E+02  0.51100000000E-03 0.  1.
         11   -1    0    0    0    0 -0.00000000000E+00 -0.00000000000E+00 -0.45593999997E+02  0.45594000000E+02  0.51100000000E-03 0. -1.
    9900012    2    1    2    0    0 -0.15427507215E+02  0.33380842120E+01  0.10076210385E+02  0.72461526739E+02  0.69999943261E+02 0.  0.
         12    1    1    2    0    0  0.15427507215E+02 -0.33380842120E+01 -0.10076210385E+02  0.18726473261E+02  0.00000000000E+00 0. -1.
         11    1    3    3    0    0 -0.24060413196E+02 -0.89408652009E+01 -0.80430262142E+01  0.26898565476E+02  0.51100000000E-03 0. -1.
        -11    1    3    3    0    0  0.84386537400E+00 -0.14189090719E+02  0.60332394961E+01  0.15441579688E+02  0.51100000000E-03 0.  1.
        -12    1    3    3    0    0  0.77890406069E+01  0.26468040132E+02  0.12085997103E+02  0.30121381575E+02  0.00000000000E+00 0.  1.
</event>
<event>
 7    1  0.2927037E-013  0.7246157E+02  0.7816164E-02  0.1226708E+00
        -11   -1    0    0    0    0  0.00000000000E+00  0.00000000000E+00  0.45593999997E+02  0.45594000000E+02  0.51100000000E-03 0.  1.
         11   -1    0    0    0    0 -0.00000000000E+00 -0.00000000000E+00 -0.45593999997E+02  0.45594000000E+02  0.51100000000E-03 0. -1.
    9900012    2    1    2    0    0  0.10099157490E+02 -0.96542383897E+01  0.12469230057E+02  0.72461574844E+02  0.70000005927E+02 0.  0.
         12    1    1    2    0    0 -0.10099157490E+02  0.96542383897E+01 -0.12469230057E+02  0.18726425156E+02  0.00000000000E+00 0. -1.
         11    1    3    3    0    0  0.98114702215E+01 -0.51210397522E+01 -0.20045401829E+02  0.22897775673E+02  0.51100000000E-03 0. -1.
        -11    1    3    3    0    0 -0.33765916029E+01 -0.68999373098E+01 -0.66479514290E+01  0.10159023782E+02  0.51100000000E-03 0.  1.
        -12    1    3    3    0    0  0.36642788718E+01  0.23667386724E+01  0.39162583315E+02  0.39404775389E+02  0.00000000000E+00 0.  1.
</event>
<event>
 7    1  0.2797450E-013  0.7246157E+02  0.7816164E-02  0.1226708E+00
        -11   -1    0    0    0    0  0.00000000000E+00  0.00000000000E+00  0.45593999997E+02  0.45594000000E+02  0.51100000000E-03 0. -1.
         11   -1    0    0    0    0 -0.00000000000E+00 -0.00000000000E+00 -0.45593999997E+02  0.45594000000E+02  0.51100000000E-03 0.  1.
    9900012    2    1    2    0    0 -0.94070201823E+01  0.15216276760E+02 -0.55364478324E+01  0.72461565162E+02  0.69999993314E+02 0.  0.
         12    1    1    2    0    0  0.94070201823E+01 -0.15216276760E+02  0.55364478324E+01  0.18726434838E+02  0.00000000000E+00 0. -1.
         11    1    3    3    0    0  0.15825553917E+02 -0.51240389463E+01  0.15949774121E+02  0.23045590179E+02  0.51100000000E-03 0. -1.
        -11    1    3    3    0    0 -0.11179604537E+01 -0.46921218466E+01 -0.12669923039E+02  0.13557020066E+02  0.51100000000E-03 0.  1.
        -12    1    3    3    0    0 -0.24114613646E+02  0.25032437553E+02 -0.88162989141E+01  0.35858954916E+02  0.00000000000E+00 0.  1.
</event>
<event>
 7    1  0.2797450E-013  0.7246152E+02  0.7816164E-02  0.1226708E+00
        -11   -1    0    0    0    0  0.00000000000E+00  0.00000000000E+00  0.45593999997E+02  0.45594000000E+02  0.51100000000E-03 0.  1.
         11   -1    0    0    0    0 -0.00000000000E+00 -0.00000000000E+00 -0.45593999997E+02  0.45594000000E+02  0.51100000000E-03 0. -1.
    9900012    2    1    2    0    0 -0.67366221442E+01 -0.14867582880E+02  0.91789875340E+01  0.72461523803E+02  0.69999939437E+02 0.  0.
         12    1    1    2    0    0  0.67366221442E+01  0.14867582880E+02 -0.91789875340E+01  0.18726476197E+02  0.00000000000E+00 0. -1.
         11    1    3    3    0    0 -0.13927313016E+02  0.28650361822E+01 -0.10808451123E+02  0.17860601784E+02  0.51100000000E-03 0. -1.
        -11    1    3    3    0    0  0.18026216111E+02  0.20226345998E+01 -0.70008759091E+01  0.19443450871E+02  0.51100000000E-03 0.  1.
        -12    1    3    3    0    0 -0.10835525240E+02 -0.19755253662E+02  0.26988314566E+02  0.35157471149E+02  0.00000000000E+00 0.  1.
</event>
<event>
 7    1  0.2797450E-013  0.7246116E+02  0.7816164E-02  0.1226709E+00
        -11   -1    0    0    0    0  0.00000000000E+00  0.00000000000E+00  0.45593999997E+02  0.45594000000E+02  0.51100000000E-03 0.  1.
         11   -1    0    0    0    0 -0.00000000000E+00 -0.00000000000E+00 -0.45593999997E+02  0.45594000000E+02  0.51100000000E-03 0. -1.
    9900012    2    1    2    0    0 -0.75837139002E+01 -0.10916220206E+02  0.13191592222E+02  0.72461156020E+02  0.69999460329E+02 0.  0.
         12    1    1    2    0    0  0.75837139002E+01  0.10916220206E+02 -0.13191592222E+02  0.18726843980E+02  0.00000000000E+00 0. -1.
         11    1    3    3    0    0  0.45601509732E+01  0.27042542316E+00  0.15828929068E+01  0.48346310121E+01  0.51100000000E-03 0. -1.
        -11    1    3    3    0    0 -0.23501384650E+01 -0.15956135722E+00  0.37636767976E+02  0.37710408571E+02  0.51100000000E-03 0.  1.
         12    1    3    3    0    0 -0.97937264084E+01 -0.11027084271E+02 -0.26028068661E+02  0.29916116438E+02  0.00000000000E+00 0. -1.
</event>
<event>
 7    1  0.2797450E-013  0.7246157E+02  0.7816164E-02  0.1226708E+00
        -11   -1    0    0    0    0  0.00000000000E+00  0.00000000000E+00  0.45593999997E+02  0.45594000000E+02  0.51100000000E-03 0.  1.
         11   -1    0    0    0    0 -0.00000000000E+00 -0.00000000000E+00 -0.45593999997E+02  0.45594000000E+02  0.51100000000E-03 0. -1.
    9900012    2    1    2    0    0 -0.13147679259E+02  0.64492920072E+00  0.13319229804E+02  0.72461567180E+02  0.69999995943E+02 0.  0.
         12    1    1    2    0    0  0.13147679259E+02 -0.64492920072E+00 -0.13319229804E+02  0.18726432820E+02  0.00000000000E+00 0. -1.
         11    1    3    3    0    0  0.58411818343E+01  0.16789094095E+02 -0.24758780330E+01  0.17947786996E+02  0.51100000000E-03 0. -1.
        -11    1    3    3    0    0 -0.11312094628E+02  0.11623141386E+02  0.19615647371E+02  0.25452593632E+02  0.51100000000E-03 0.  1.
        -12    1    3    3    0    0 -0.76767664654E+01 -0.27767306281E+02 -0.38205395332E+01  0.29061186552E+02  0.00000000000E+00 0.  1.
</event>
<event>
 7    1  0.2797450E-013  0.7246158E+02  0.7816164E-02  0.1226708E+00
        -11   -1    0    0    0    0  0.00000000000E+00  0.00000000000E+00  0.45593999997E+02  0.45594000000E+02  0.51100000000E-03 0.  1.
         11   -1    0    0    0    0 -0.00000000000E+00 -0.00000000000E+00 -0.45593999997E+02  0.45594000000E+02  0.51100000000E-03 0. -1.
    9900012    2    1    2    0    0 -0.70189771788E+01 -0.60129522415E+01  0.16286719313E+02  0.72461578525E+02  0.70000010721E+02 0.  0.
         12    1    1    2    0    0  0.70189771788E+01  0.60129522415E+01 -0.16286719313E+02  0.18726421475E+02  0.00000000000E+00 0. -1.
         11    1    3    3    0    0 -0.19332709424E+02 -0.16289295620E+02 -0.60038059989E+00  0.25287452671E+02  0.51100000000E-03 0. -1.
        -11    1    3    3    0    0 -0.13906551497E+02 -0.15967049174E+00 -0.69427861442E+00  0.13924786974E+02  0.51100000000E-03 0.  1.
        -12    1    3    3    0    0  0.26220283742E+02  0.10436013870E+02  0.17581378527E+02  0.33249338880E+02  0.00000000000E+00 0.  1.
</event>
<event>
 7    1  0.2797450E-013  0.7246162E+02  0.7816164E-02  0.1226708E+00
        -11   -1    0    0    0    0  0.00000000000E+00  0.00000000000E+00  0.45593999997E+02  0.45594000000E+02  0.51100000000E-03 0. -1.
         11   -1    0    0    0    0 -0.00000000000E+00 -0.00000000000E+00 -0.45593999997E+02  0.45594000000E+02  0.51100000000E-03 0.  1.
    9900012    2    1    2    0    0  0.13128162204E+02  0.81665496032E+01 -0.10565804668E+02  0.72461617446E+02  0.70000061424E+02 0.  0.
         12    1    1    2    0    0 -0.13128162204E+02 -0.81665496032E+01  0.10565804668E+02  0.18726382554E+02  0.00000000000E+00 0. -1.
         11    1    3    3    0    0 -0.18235778388E+02  0.20787470784E+02 -0.23245562394E+02  0.36125042925E+02  0.51100000000E-03 0. -1.
        -11    1    3    3    0    0  0.14973781171E+02 -0.50822034269E+01  0.78843198838E+01  0.17669335430E+02  0.51100000000E-03 0.  1.
        -12    1    3    3    0    0  0.16390159421E+02 -0.75387177538E+01  0.47954378427E+01  0.18667239092E+02  0.00000000000E+00 0.  1.
</event>
<event>
 7    1  0.2797450E-013  0.7246157E+02  0.7816164E-02  0.1226708E+00
        -11   -1    0    0    0    0  0.00000000000E+00  0.00000000000E+00  0.45593999997E+02  0.45594000000E+02  0.51100000000E-03 0. -1.
         11   -1    0    0    0    0 -0.00000000000E+00 -0.00000000000E+00 -0.45593999997E+02  0.45594000000E+02  0.51100000000E-03 0.  1.
    9900012    2    1    2    0    0  0.13879031596E+01 -0.60839685196E+01 -0.17656110621E+02  0.72461569738E+02  0.69999999275E+02 0.  0.
         12    1    1    2    0    0 -0.13879031596E+01  0.60839685196E+01  0.17656110621E+02  0.18726430262E+02  0.00000000000E+00 0. -1.
         11    1    3    3    0    0 -0.11810594404E+02 -0.33897266824E+01  0.13644062097E+02  0.18361394771E+02  0.51100000000E-03 0. -1.
        -11    1    3    3    0    0  0.12938311449E+02  0.17337369675E+02 -0.72859875765E+01  0.22826955680E+02  0.51100000000E-03 0.  1.
         12    1    3    3    0    0  0.26018611488E+00 -0.20031611512E+02 -0.24014185141E+02  0.31273219287E+02  0.00000000000E+00 0. -1.
</event>
<event>
 7    1  0.2797450E-013  0.7246158E+02  0.7816164E-02  0.1226708E+00
        -11   -1    0    0    0    0  0.00000000000E+00  0.00000000000E+00  0.45593999997E+02  0.45594000000E+02  0.51100000000E-03 0. -1.
         11   -1    0    0    0    0 -0.00000000000E+00 -0.00000000000E+00 -0.45593999997E+02  0.45594000000E+02  0.51100000000E-03 0.  1.
    9900012    2    1    2    0    0  0.86427603582E+01 -0.10619276804E+02 -0.12775470085E+02  0.72461575292E+02  0.70000006511E+02 0.  0.
         12    1    1    2    0    0 -0.86427603582E+01  0.10619276804E+02  0.12775470085E+02  0.18726424708E+02  0.00000000000E+00 0. -1.
         11    1    3    3    0    0  0.93129255413E+01 -0.74513026158E+01 -0.11724705695E+02  0.16724868212E+02  0.51100000000E-03 0. -1.
        -11    1    3    3    0    0 -0.67115260969E+01 -0.40975076375E+01 -0.27493899070E+02  0.28596304617E+02  0.51100000000E-03 0.  1.
         12    1    3    3    0    0  0.60413609138E+01  0.92953344943E+00  0.26443134681E+02  0.27140402464E+02  0.00000000000E+00 0. -1.
</event>
<event>
 7    1  0.2797450E-013  0.7246160E+02  0.7816164E-02  0.1226708E+00
        -11   -1    0    0    0    0  0.00000000000E+00  0.00000000000E+00  0.45593999997E+02  0.45594000000E+02  0.51100000000E-03 0.  1.
         11   -1    0    0    0    0 -0.00000000000E+00 -0.00000000000E+00 -0.45593999997E+02  0.45594000000E+02  0.51100000000E-03 0. -1.
    9900012    2    1    2    0    0  0.44589527050E+00  0.60168772923E+01  0.17727839430E+02  0.72461603502E+02  0.70000043259E+02 0.  0.
         12    1    1    2    0    0 -0.44589527050E+00 -0.60168772923E+01 -0.17727839430E+02  0.18726396498E+02  0.00000000000E+00 0. -1.
         11    1    3    3    0    0 -0.27124069688E+02 -0.52178037746E+01  0.18486263023E+01  0.27683172726E+02  0.51100000000E-03 0. -1.
        -11    1    3    3    0    0 -0.39409667080E+01 -0.49037205308E+01  0.39076868524E+01  0.74059240096E+01  0.51100000000E-03 0.  1.
        -12    1    3    3    0    0  0.31510931667E+02  0.16138401598E+02  0.11971526275E+02  0.37372506767E+02  0.00000000000E+00 0.  1.
</event>
<event>
 7    1  0.2797450E-013  0.7246156E+02  0.7816164E-02  0.1226708E+00
        -11   -1    0    0    0    0  0.00000000000E+00  0.00000000000E+00  0.45593999997E+02  0.45594000000E+02  0.51100000000E-03 0.  1.
         11   -1    0    0    0    0 -0.00000000000E+00 -0.00000000000E+00 -0.45593999997E+02  0.45594000000E+02  0.51100000000E-03 0. -1.
    9900012    2    1    2    0    0  0.81020394431E+01 -0.16726706642E+02  0.22921057841E+01  0.72461561280E+02  0.69999988257E+02 0.  0.
         12    1    1    2    0    0 -0.81020394431E+01  0.16726706642E+02 -0.22921057841E+01  0.18726438720E+02  0.00000000000E+00 0. -1.
         11    1    3    3    0    0  0.20603443429E+02  0.92882574765E+01 -0.92451476210E+01  0.24418156419E+02  0.51100000000E-03 0. -1.
        -11    1    3    3    0    0  0.93885394364E+01  0.33786965273E+01  0.28875375077E+01  0.10387402760E+02  0.51100000000E-03 0.  1.
        -12    1    3    3    0    0 -0.21889943423E+02 -0.29393660645E+02  0.86497158975E+01  0.37656002102E+02  0.00000000000E+00 0.  1.
</event>
<event>
 7    1  0.2797450E-013  0.7246157E+02  0.7816164E-02  0.1226708E+00
        -11   -1    0    0    0    0  0.00000000000E+00  0.00000000000E+00  0.45593999997E+02  0.45594000000E+02  0.51100000000E-03 0. -1.
         11   -1    0    0    0    0 -0.00000000000E+00 -0.00000000000E+00 -0.45593999997E+02  0.45594000000E+02  0.51100000000E-03 0.  1.
    9900012    2    1    2    0    0  0.43557205365E+01  0.14274403304E+02 -0.11311425412E+02  0.72461568521E+02  0.69999997690E+02 0.  0.
         12    1    1    2    0    0 -0.43557205365E+01 -0.14274403304E+02  0.11311425412E+02  0.18726431479E+02  0.00000000000E+00 0. -1.
         11    1    3    3    0    0  0.15246898555E+02 -0.22944056181E+02 -0.70325193117E+01  0.28431566220E+02  0.51100000000E-03 0. -1.
        -11    1    3    3    0    0 -0.11753217246E+01 -0.12869536759E+01  0.31771949146E+01  0.36238375663E+01  0.51100000000E-03 0.  1.
        -12    1    3    3    0    0 -0.97158562941E+01  0.38505413161E+02 -0.74561010149E+01  0.40406164735E+02  0.00000000000E+00 0.  1.
</event>
<event>
 7    1  0.2797450E-013  0.7246208E+02  0.7816164E-02  0.1226707E+00
        -11   -1    0    0    0    0  0.00000000000E+00  0.00000000000E+00  0.45593999997E+02  0.45594000000E+02  0.51100000000E-03 0. -1.
         11   -1    0    0    0    0 -0.00000000000E+00 -0.00000000000E+00 -0.45593999997E+02  0.45594000000E+02  0.51100000000E-03 0.  1.
    9900012    2    1    2    0    0  0.83435328050E+01 -0.96614237458E+01  0.13700451952E+02  0.72462081274E+02  0.70000665642E+02 0.  0.
         12    1    1    2    0    0 -0.83435328050E+01  0.96614237458E+01 -0.13700451952E+02  0.18725918726E+02  0.00000000000E+00 0. -1.
         11    1    3    3    0    0  0.10866436305E+02 -0.13206318999E+02  0.29325306226E+02  0.33947899567E+02  0.51100000000E-03 0. -1.
        -11    1    3    3    0    0 -0.51714793051E+01 -0.14409381578E+02 -0.13180969704E+02  0.20201792946E+02  0.51100000000E-03 0.  1.
        -12    1    3    3    0    0  0.26485758054E+01  0.17954276831E+02 -0.24438845706E+01  0.18312388761E+02  0.00000000000E+00 0.  1.
</event>
<event>
 7    1  0.2797450E-013  0.7246148E+02  0.7816164E-02  0.1226708E+00
        -11   -1    0    0    0    0  0.00000000000E+00  0.00000000000E+00  0.45593999997E+02  0.45594000000E+02  0.51100000000E-03 0.  1.
         11   -1    0    0    0    0 -0.00000000000E+00 -0.00000000000E+00 -0.45593999997E+02  0.45594000000E+02  0.51100000000E-03 0. -1.
    9900012    2    1    2    0    0  0.32048045003E+01  0.72066034117E+01  0.16984595176E+02  0.72461484629E+02  0.69999888405E+02 0.  0.
         12    1    1    2    0    0 -0.32048045003E+01 -0.72066034117E+01 -0.16984595176E+02  0.18726515371E+02  0.00000000000E+00 0. -1.
         11    1    3    3    0    0 -0.79374680446E+01  0.31298578607E+02  0.14660307465E+02  0.35461655870E+02  0.51100000000E-03 0. -1.
        -11    1    3    3    0    0  0.17751149686E+00  0.92647165580E+00 -0.78085030203E+01  0.78652768380E+01  0.51100000000E-03 0.  1.
        -12    1    3    3    0    0  0.10964761048E+02 -0.25018446851E+02  0.10132790731E+02  0.29134551922E+02  0.00000000000E+00 0.  1.
</event>
<event>
 7    1  0.2797450E-013  0.7246157E+02  0.7816164E-02  0.1226708E+00
        -11   -1    0    0    0    0  0.00000000000E+00  0.00000000000E+00  0.45593999997E+02  0.45594000000E+02  0.51100000000E-03 0.  1.
         11   -1    0    0    0    0 -0.00000000000E+00 -0.00000000000E+00 -0.45593999997E+02  0.45594000000E+02  0.51100000000E-03 0. -1.
    9900012    2    1    2    0    0 -0.80211030030E+01  0.29992632714E+01  0.16653692856E+02  0.72461570567E+02  0.70000000356E+02 0.  0.
         12    1    1    2    0    0  0.80211030030E+01 -0.29992632714E+01 -0.16653692856E+02  0.18726429433E+02  0.00000000000E+00 0. -1.
         11    1    3    3    0    0  0.20609917740E+02  0.16210451642E+02  0.14028302133E+02  0.29737866647E+02  0.51100000000E-03 0. -1.
        -11    1    3    3    0    0 -0.11924510772E+02  0.77323384184E+01  0.65469870492E+01  0.15647557453E+02  0.51100000000E-03 0.  1.
        -12    1    3    3    0    0 -0.16706509971E+02 -0.20943526789E+02 -0.39215963264E+01  0.27076146467E+02  0.00000000000E+00 0.  1.
</event>
<event>
 7    1  0.2797450E-013  0.7246155E+02  0.7816164E-02  0.1226708E+00
        -11   -1    0    0    0    0  0.00000000000E+00  0.00000000000E+00  0.45593999997E+02  0.45594000000E+02  0.51100000000E-03 0.  1.
         11   -1    0    0    0    0 -0.00000000000E+00 -0.00000000000E+00 -0.45593999997E+02  0.45594000000E+02  0.51100000000E-03 0. -1.
    9900012    2    1    2    0    0 -0.87230774440E+01 -0.16382750913E+02 -0.24886079120E+01  0.72461554077E+02  0.69999978874E+02 0.  0.
         12    1    1    2    0    0  0.87230774440E+01  0.16382750913E+02  0.24886079120E+01  0.18726445923E+02  0.00000000000E+00 0. -1.
         11    1    3    3    0    0 -0.66848887252E+01 -0.52031080274E+01  0.28979778144E+01  0.89531193495E+01  0.51100000000E-03 0. -1.
        -11    1    3    3    0    0 -0.22461753817E+02 -0.25818936168E+02 -0.13957143992E+02  0.36958756987E+02  0.51100000000E-03 0.  1.
         12    1    3    3    0    0  0.20423565098E+02  0.14639293283E+02  0.85705582656E+01  0.26549677740E+02  0.00000000000E+00 0. -1.
</event>
<event>
 7    1  0.2797450E-013  0.7246161E+02  0.7816164E-02  0.1226708E+00
        -11   -1    0    0    0    0  0.00000000000E+00  0.00000000000E+00  0.45593999997E+02  0.45594000000E+02  0.51100000000E-03 0.  1.
         11   -1    0    0    0    0 -0.00000000000E+00 -0.00000000000E+00 -0.45593999997E+02  0.45594000000E+02  0.51100000000E-03 0. -1.
    9900012    2    1    2    0    0 -0.19751677704E+01  0.86583673767E+01  0.16486636781E+02  0.72461606708E+02  0.70000047436E+02 0.  0.
         12    1    1    2    0    0  0.19751677704E+01 -0.86583673767E+01 -0.16486636781E+02  0.18726393292E+02  0.00000000000E+00 0. -1.
         11    1    3    3    0    0 -0.26696408218E+02  0.17711379464E+02  0.11565540571E+02  0.34061017355E+02  0.51100000000E-03 0. -1.
        -11    1    3    3    0    0 -0.37796074719E+00 -0.11329467429E+02  0.66443397463E+01  0.13139518160E+02  0.51100000000E-03 0.  1.
        -12    1    3    3    0    0  0.25099201195E+02  0.22764553417E+01 -0.17232435355E+01  0.25261071193E+02  0.00000000000E+00 0.  1.
</event>
<event>
 7    1  0.2797450E-013  0.7246161E+02  0.7816164E-02  0.1226708E+00
        -11   -1    0    0    0    0  0.00000000000E+00  0.00000000000E+00  0.45593999997E+02  0.45594000000E+02  0.51100000000E-03 0.  1.
         11   -1    0    0    0    0 -0.00000000000E+00 -0.00000000000E+00 -0.45593999997E+02  0.45594000000E+02  0.51100000000E-03 0. -1.
    9900012    2    1    2    0    0  0.21998152445E+00  0.16794334607E+02 -0.82812866452E+01  0.72461607521E+02  0.70000048495E+02 0.  0.
         12    1    1    2    0    0 -0.21998152445E+00 -0.16794334607E+02  0.82812866452E+01  0.18726392479E+02  0.00000000000E+00 0. -1.
         11    1    3    3    0    0  0.70608858887E+01  0.15454102225E+01  0.13227950935E+02  0.15073920807E+02  0.51100000000E-03 0. -1.
        -11    1    3    3    0    0  0.13884167442E+01  0.32462752740E+02 -0.65578411095E+01  0.33147598658E+02  0.51100000000E-03 0.  1.
         12    1    3    3    0    0 -0.82293211084E+01 -0.17213828355E+02 -0.14951396471E+02  0.24240088056E+02  0.00000000000E+00 0. -1.
</event>
<event>
 7    1  0.2797450E-013  0.7246158E+02  0.7816164E-02  0.1226708E+00
        -11   -1    0    0    0    0  0.00000000000E+00  0.00000000000E+00  0.45593999997E+02  0.45594000000E+02  0.51100000000E-03 0. -1.
         11   -1    0    0    0    0 -0.00000000000E+00 -0.00000000000E+00 -0.45593999997E+02  0.45594000000E+02  0.51100000000E-03 0.  1.
    9900012    2    1    2    0    0  0.17482430559E+02 -0.65118601573E+01  0.16245475650E+01  0.72461578672E+02  0.70000010914E+02 0.  0.
         12    1    1    2    0    0 -0.17482430559E+02  0.65118601573E+01 -0.16245475650E+01  0.18726421328E+02  0.00000000000E+00 0. -1.
         11    1    3    3    0    0  0.37607541954E+01 -0.27151544296E+01 -0.10475906666E+01  0.47552899135E+01  0.51100000000E-03 0. -1.
        -11    1    3    3    0    0  0.74947902881E+01 -0.11426231440E+02 -0.30329963876E+02  0.33266159312E+02  0.51100000000E-03 0.  1.
         12    1    3    3    0    0  0.62268860751E+01  0.76295257128E+01  0.33002102108E+02  0.34440129447E+02  0.00000000000E+00 0. -1.
</event>
<event>
 7    1  0.2797450E-013  0.7246158E+02  0.7816164E-02  0.1226708E+00
        -11   -1    0    0    0    0  0.00000000000E+00  0.00000000000E+00  0.45593999997E+02  0.45594000000E+02  0.51100000000E-03 0. -1.
         11   -1    0    0    0    0 -0.00000000000E+00 -0.00000000000E+00 -0.45593999997E+02  0.45594000000E+02  0.51100000000E-03 0.  1.
    9900012    2    1    2    0    0 -0.39811920386E+01 -0.15221681801E+02 -0.10155259617E+02  0.72461580567E+02  0.70000013381E+02 0.  0.
         12    1    1    2    0    0  0.39811920386E+01  0.15221681801E+02  0.10155259617E+02  0.18726419433E+02  0.00000000000E+00 0. -1.
         11    1    3    3    0    0 -0.81663926613E+01 -0.92408228612E+00 -0.52386024473E+00  0.82351883395E+01  0.51100000000E-03 0. -1.
        -11    1    3    3    0    0 -0.26908490688E+01  0.24165942567E+02 -0.55486808880E+01  0.24940355024E+02  0.51100000000E-03 0.  1.
         12    1    3    3    0    0  0.68760496914E+01 -0.38463542082E+02 -0.40827184844E+01  0.39286037203E+02  0.00000000000E+00 0. -1.
</event>
<event>
 7    1  0.2797450E-013  0.7246158E+02  0.7816164E-02  0.1226708E+00
        -11   -1    0    0    0    0  0.00000000000E+00  0.00000000000E+00  0.45593999997E+02  0.45594000000E+02  0.51100000000E-03 0. -1.
         11   -1    0    0    0    0 -0.00000000000E+00 -0.00000000000E+00 -0.45593999997E+02  0.45594000000E+02  0.51100000000E-03 0.  1.
    9900012    2    1    2    0    0  0.99756650344E+01 -0.80137644220E+01 -0.13672764941E+02  0.72461579781E+02  0.70000012358E+02 0.  0.
         12    1    1    2    0    0 -0.99756650344E+01  0.80137644220E+01  0.13672764941E+02  0.18726420219E+02  0.00000000000E+00 0. -1.
         11    1    3    3    0    0  0.10171073708E+02  0.46660890096E+01 -0.11190996291E+02  0.15825976282E+02  0.51100000000E-03 0. -1.
        -11    1    3    3    0    0  0.26103214432E+02 -0.97573399006E+01 -0.91802012131E+01  0.29340408658E+02  0.51100000000E-03 0.  1.
        -12    1    3    3    0    0 -0.26298623106E+02 -0.29225135310E+01  0.66984325635E+01  0.27295194842E+02  0.00000000000E+00 0.  1.
</event>
<event>
 7    1  0.2797450E-013  0.7246153E+02  0.7816164E-02  0.1226708E+00
        -11   -1    0    0    0    0  0.00000000000E+00  0.00000000000E+00  0.45593999997E+02  0.45594000000E+02  0.51100000000E-03 0.  1.
         11   -1    0    0    0    0 -0.00000000000E+00 -0.00000000000E+00 -0.45593999997E+02  0.45594000000E+02  0.51100000000E-03 0. -1.
    9900012    2    1    2    0    0  0.70347304938E+01 -0.15449932225E+02  0.79052297718E+01  0.72461534860E+02  0.69999953841E+02 0.  0.
         12    1    1    2    0    0 -0.70347304938E+01  0.15449932225E+02 -0.79052297718E+01  0.18726465140E+02  0.00000000000E+00 0. -1.
         11    1    3    3    0    0  0.36166061457E+01  0.87514650802E+00  0.24268465730E+02  0.24552070189E+02  0.51100000000E-03 0. -1.
        -11    1    3    3    0    0 -0.26518246566E+01 -0.27016652218E+02  0.36533860106E+00  0.27148943693E+02  0.51100000000E-03 0.  1.
         12    1    3    3    0    0  0.60699490047E+01  0.10691573485E+02 -0.16728574559E+02  0.20760520978E+02  0.00000000000E+00 0. -1.
</event>
<event>
 7    1  0.2797450E-013  0.7246153E+02  0.7816164E-02  0.1226708E+00
        -11   -1    0    0    0    0  0.00000000000E+00  0.00000000000E+00  0.45593999997E+02  0.45594000000E+02  0.51100000000E-03 0.  1.
         11   -1    0    0    0    0 -0.00000000000E+00 -0.00000000000E+00 -0.45593999997E+02  0.45594000000E+02  0.51100000000E-03 0. -1.
    9900012    2    1    2    0    0 -0.13996783235E+02  0.63586196229E+01  0.10692923784E+02  0.72461532008E+02  0.69999950124E+02 0.  0.
         12    1    1    2    0    0  0.13996783235E+02 -0.63586196229E+01 -0.10692923784E+02  0.18726467992E+02  0.00000000000E+00 0. -1.
         11    1    3    3    0    0 -0.26768304812E+02  0.25145209934E+02 -0.73818159199E+01  0.37460845314E+02  0.51100000000E-03 0. -1.
        -11    1    3    3    0    0  0.14069359824E+01  0.39061668360E+01  0.61878743549E+00  0.41976786872E+01  0.51100000000E-03 0.  1.
        -12    1    3    3    0    0  0.11364585595E+02 -0.22692757147E+02  0.17455952268E+02  0.30803008006E+02  0.00000000000E+00 0.  1.
</event>
<event>
 7    1  0.2797450E-013  0.7246155E+02  0.7816164E-02  0.1226708E+00
        -11   -1    0    0    0    0  0.00000000000E+00  0.00000000000E+00  0.45593999997E+02  0.45594000000E+02  0.51100000000E-03 0. -1.
         11   -1    0    0    0    0 -0.00000000000E+00 -0.00000000000E+00 -0.45593999997E+02  0.45594000000E+02  0.51100000000E-03 0.  1.
    9900012    2    1    2    0    0 -0.93635431134E+01 -0.14463726776E+02 -0.73351609395E+01  0.72461550312E+02  0.69999973970E+02 0.  0.
         12    1    1    2    0    0  0.93635431134E+01  0.14463726776E+02  0.73351609395E+01  0.18726449688E+02  0.00000000000E+00 0. -1.
         11    1    3    3    0    0  0.71713128856E+01  0.40609794872E+01  0.15605284909E+02  0.17647781738E+02  0.51100000000E-03 0. -1.
        -11    1    3    3    0    0  0.18209474493E+01  0.14928624856E+01  0.11054080377E+02  0.11302087474E+02  0.51100000000E-03 0.  1.
        -12    1    3    3    0    0 -0.18355803448E+02 -0.20017568749E+02 -0.33994526226E+02  0.43511681101E+02  0.00000000000E+00 0.  1.
</event>
<event>
 7    1  0.2797450E-013  0.7246159E+02  0.7816164E-02  0.1226708E+00
        -11   -1    0    0    0    0  0.00000000000E+00  0.00000000000E+00  0.45593999997E+02  0.45594000000E+02  0.51100000000E-03 0.  1.
         11   -1    0    0    0    0 -0.00000000000E+00 -0.00000000000E+00 -0.45593999997E+02  0.45594000000E+02  0.51100000000E-03 0. -1.
    9900012    2    1    2    0    0 -0.13311645043E+02 -0.58122686413E+01  0.11819309522E+02  0.72461589824E+02  0.70000025441E+02 0.  0.
         12    1    1    2    0    0  0.13311645043E+02  0.58122686413E+01 -0.11819309522E+02  0.18726410176E+02  0.00000000000E+00 0. -1.
         11    1    3    3    0    0  0.11003769432E+02 -0.20096174670E+02  0.15176476141E+02  0.27482077913E+02  0.51100000000E-03 0. -1.
        -11    1    3    3    0    0  0.90317403577E+01  0.18088474203E+01  0.63941431847E-01  0.92113164991E+01  0.51100000000E-03 0.  1.
        -12    1    3    3    0    0 -0.33347154833E+02  0.12475058609E+02 -0.34211080514E+01  0.35768195412E+02  0.00000000000E+00 0.  1.
</event>
<event>
 7    1  0.2797450E-013  0.7246162E+02  0.7816164E-02  0.1226708E+00
        -11   -1    0    0    0    0  0.00000000000E+00  0.00000000000E+00  0.45593999997E+02  0.45594000000E+02  0.51100000000E-03 0.  1.
         11   -1    0    0    0    0 -0.00000000000E+00 -0.00000000000E+00 -0.45593999997E+02  0.45594000000E+02  0.51100000000E-03 0. -1.
    9900012    2    1    2    0    0 -0.55260428608E+01  0.10944155844E+02  0.14155057426E+02  0.72461618941E+02  0.70000063371E+02 0.  0.
         12    1    1    2    0    0  0.55260428608E+01 -0.10944155844E+02 -0.14155057426E+02  0.18726381059E+02  0.00000000000E+00 0. -1.
         11    1    3    3    0    0 -0.52437096693E+01 -0.11356335525E+02 -0.10493588232E+02  0.16327223949E+02  0.51100000000E-03 0. -1.
        -11    1    3    3    0    0  0.12419664016E+00 -0.11704540266E+02 -0.32494963350E+01  0.12147876948E+02  0.51100000000E-03 0.  1.
        -12    1    3    3    0    0 -0.40652983171E+00  0.34005031635E+02  0.27898141993E+02  0.43986518044E+02  0.00000000000E+00 0.  1.
</event>
<event>
 7    1  0.2797450E-013  0.7246153E+02  0.7816164E-02  0.1226708E+00
        -11   -1    0    0    0    0  0.00000000000E+00  0.00000000000E+00  0.45593999997E+02  0.45594000000E+02  0.51100000000E-03 0. -1.
         11   -1    0    0    0    0 -0.00000000000E+00 -0.00000000000E+00 -0.45593999997E+02  0.45594000000E+02  0.51100000000E-03 0.  1.
    9900012    2    1    2    0    0 -0.44978515627E+01 -0.15152538070E+02 -0.10042434372E+02  0.72461532987E+02  0.69999951401E+02 0.  0.
         12    1    1    2    0    0  0.44978515627E+01  0.15152538070E+02  0.10042434372E+02  0.18726467013E+02  0.00000000000E+00 0. -1.
         11    1    3    3    0    0  0.88201990106E+01 -0.40432606484E+00  0.28243426210E+01  0.92701834747E+01  0.51100000000E-03 0. -1.
        -11    1    3    3    0    0 -0.88235448042E+01 -0.14007962285E+02  0.22276196866E+02  0.27754403207E+02  0.51100000000E-03 0.  1.
        -12    1    3    3    0    0 -0.44945057691E+01 -0.74024972022E+00 -0.35142973860E+02  0.35436946305E+02  0.00000000000E+00 0.  1.
</event>
<event>
 7    1  0.2797450E-013  0.7246154E+02  0.7816164E-02  0.1226708E+00
        -11   -1    0    0    0    0  0.00000000000E+00  0.00000000000E+00  0.45593999997E+02  0.45594000000E+02  0.51100000000E-03 0. -1.
         11   -1    0    0    0    0 -0.00000000000E+00 -0.00000000000E+00 -0.45593999997E+02  0.45594000000E+02  0.51100000000E-03 0.  1.
    9900012    2    1    2    0    0  0.78144432152E+01 -0.17015146114E+02  0.31571747335E+00  0.72461537505E+02  0.69999957286E+02 0.  0.
         12    1    1    2    0    0 -0.78144432152E+01  0.17015146114E+02 -0.31571747335E+00  0.18726462495E+02  0.00000000000E+00 0. -1.
         11    1    3    3    0    0  0.18868953382E-01 -0.12799349859E+02  0.22849067306E+01  0.13001711882E+02  0.51100000000E-03 0. -1.
        -11    1    3    3    0    0  0.26580223885E+02 -0.19673277122E+02 -0.87476044079E+01  0.34206237993E+02  0.51100000000E-03 0.  1.
         12    1    3    3    0    0 -0.18784649623E+02  0.15457480867E+02  0.67784151507E+01  0.25253587630E+02  0.00000000000E+00 0. -1.
</event>
<event>
 7    1  0.2797450E-013  0.7246157E+02  0.7816164E-02  0.1226708E+00
        -11   -1    0    0    0    0  0.00000000000E+00  0.00000000000E+00  0.45593999997E+02  0.45594000000E+02  0.51100000000E-03 0.  1.
         11   -1    0    0    0    0 -0.00000000000E+00 -0.00000000000E+00 -0.45593999997E+02  0.45594000000E+02  0.51100000000E-03 0. -1.
    9900012    2    1    2    0    0  0.47271574792E-01 -0.54146195434E+01  0.17926485423E+02  0.72461568973E+02  0.69999998279E+02 0.  0.
         12    1    1    2    0    0 -0.47271574792E-01  0.54146195434E+01 -0.17926485423E+02  0.18726431027E+02  0.00000000000E+00 0. -1.
         11    1    3    3    0    0  0.54174310081E+01 -0.99866893274E+01 -0.26902287729E+01  0.11675609344E+02  0.51100000000E-03 0. -1.
        -11    1    3    3    0    0  0.17232314853E+02 -0.14341084712E+02  0.21826835568E+02  0.31289457283E+02  0.51100000000E-03 0.  1.
         12    1    3    3    0    0 -0.22602474287E+02  0.18913154496E+02 -0.12101213725E+01  0.29496502345E+02  0.00000000000E+00 0. -1.
</event>
<event>
 7    1  0.2797450E-013  0.7246160E+02  0.7816164E-02  0.1226708E+00
        -11   -1    0    0    0    0  0.00000000000E+00  0.00000000000E+00  0.45593999997E+02  0.45594000000E+02  0.51100000000E-03 0. -1.
         11   -1    0    0    0    0 -0.00000000000E+00 -0.00000000000E+00 -0.45593999997E+02  0.45594000000E+02  0.51100000000E-03 0.  1.
    9900012    2    1    2    0    0 -0.10793205542E+02  0.12199343959E+02 -0.92390948408E+01  0.72461597452E+02  0.70000035379E+02 0.  0.
         12    1    1    2    0    0  0.10793205542E+02 -0.12199343959E+02  0.92390948408E+01  0.18726402548E+02  0.00000000000E+00 0. -1.
         11    1    3    3    0    0  0.19003520739E+02  0.15129347678E+02 -0.76814849034E+01  0.25476188338E+02  0.51100000000E-03 0. -1.
        -11    1    3    3    0    0 -0.16088625201E+02  0.14275673775E+02 -0.96112420139E+01  0.23558749880E+02  0.51100000000E-03 0.  1.
        -12    1    3    3    0    0 -0.13708101080E+02 -0.17205677495E+02  0.80536320766E+01  0.23426659235E+02  0.00000000000E+00 0.  1.
</event>
<event>
 7    1  0.2797450E-013  0.7246157E+02  0.7816164E-02  0.1226708E+00
        -11   -1    0    0    0    0  0.00000000000E+00  0.00000000000E+00  0.45593999997E+02  0.45594000000E+02  0.51100000000E-03 0. -1.
         11   -1    0    0    0    0 -0.00000000000E+00 -0.00000000000E+00 -0.45593999997E+02  0.45594000000E+02  0.51100000000E-03 0.  1.
    9900012    2    1    2    0    0  0.12944258060E+02  0.12538705945E+02  0.50898066453E+01  0.72461572279E+02  0.70000002585E+02 0.  0.
         12    1    1    2    0    0 -0.12944258060E+02 -0.12538705945E+02 -0.50898066453E+01  0.18726427721E+02  0.00000000000E+00 0. -1.
         11    1    3    3    0    0 -0.69208041748E+01 -0.12784411642E+02 -0.16087388784E+02  0.21682776335E+02  0.51100000000E-03 0. -1.
        -11    1    3    3    0    0  0.38061004175E+01 -0.13179232577E+01 -0.74724557098E+01  0.84888701661E+01  0.51100000000E-03 0.  1.
         12    1    3    3    0    0  0.16058961818E+02  0.26641040844E+02  0.28649651139E+02  0.42289925778E+02  0.00000000000E+00 0. -1.
</event>
<event>
 7    1  0.2797450E-013  0.7246159E+02  0.7816164E-02  0.1226708E+00
        -11   -1    0    0    0    0  0.00000000000E+00  0.00000000000E+00  0.45593999997E+02  0.45594000000E+02  0.51100000000E-03 0.  1.
         11   -1    0    0    0    0 -0.00000000000E+00 -0.00000000000E+00 -0.45593999997E+02  0.45594000000E+02  0.51100000000E-03 0. -1.
    9900012    2    1    2    0    0 -0.13824883626E+02  0.12621923016E+02 -0.48808115841E+00  0.72461586271E+02  0.70000020813E+02 0.  0.
         12    1    1    2    0    0  0.13824883626E+02 -0.12621923016E+02  0.48808115841E+00  0.18726413729E+02  0.00000000000E+00 0. -1.
         11    1    3    3    0    0 -0.26635352163E+02 -0.99155083564E+01 -0.57935012987E+01  0.29005584779E+02  0.51100000000E-03 0. -1.
        -11    1    3    3    0    0 -0.11230640487E+02  0.13220595207E+02  0.20017352300E+01  0.17461911911E+02  0.51100000000E-03 0.  1.
        -12    1    3    3    0    0  0.24041109023E+02  0.93168361655E+01  0.33036849103E+01  0.25994089582E+02  0.00000000000E+00 0.  1.
</event>
<event>
 7    1  0.2797450E-013  0.7246148E+02  0.7816164E-02  0.1226708E+00
        -11   -1    0    0    0    0  0.00000000000E+00  0.00000000000E+00  0.45593999997E+02  0.45594000000E+02  0.51100000000E-03 0.  1.
         11   -1    0    0    0    0 -0.00000000000E+00 -0.00000000000E+00 -0.45593999997E+02  0.45594000000E+02  0.51100000000E-03 0. -1.
    9900012    2    1    2    0    0 -0.10655403529E+02 -0.14553233815E+02  0.50347060909E+01  0.72461481256E+02  0.69999884011E+02 0.  0.
         12    1    1    2    0    0  0.10655403529E+02  0.14553233815E+02 -0.50347060909E+01  0.18726518744E+02  0.00000000000E+00 0. -1.
         11    1    3    3    0    0 -0.15431531359E+02  0.18386648823E+02 -0.10619165802E+02  0.26248194178E+02  0.51100000000E-03 0. -1.
        -11    1    3    3    0    0  0.22130529876E+01 -0.12431310705E+02 -0.78864615398E+01  0.14887288714E+02  0.51100000000E-03 0.  1.
        -12    1    3    3    0    0  0.25630748420E+01 -0.20508571933E+02  0.23540333433E+02  0.31325998364E+02  0.00000000000E+00 0.  1.
</event>
<event>
 7    1  0.2797450E-013  0.7246154E+02  0.7816164E-02  0.1226708E+00
        -11   -1    0    0    0    0  0.00000000000E+00  0.00000000000E+00  0.45593999997E+02  0.45594000000E+02  0.51100000000E-03 0.  1.
         11   -1    0    0    0    0 -0.00000000000E+00 -0.00000000000E+00 -0.45593999997E+02  0.45594000000E+02  0.51100000000E-03 0. -1.
    9900012    2    1    2    0    0  0.77679263326E+00 -0.18706484750E+02 -0.37976550564E+00  0.72461542772E+02  0.69999964146E+02 0.  0.
         12    1    1    2    0    0 -0.77679263326E+00  0.18706484750E+02  0.37976550564E+00  0.18726457228E+02  0.00000000000E+00 0. -1.
         11    1    3    3    0    0 -0.71189105016E+01  0.68408671563E+01  0.18422501368E+02  0.20901313526E+02  0.51100000000E-03 0. -1.
        -11    1    3    3    0    0 -0.11033834749E+02  0.19076651470E+01  0.31537097740E+01  0.11633167290E+02  0.51100000000E-03 0.  1.
        -12    1    3    3    0    0  0.18929537884E+02 -0.27455017053E+02 -0.21955976648E+02  0.39927061956E+02  0.00000000000E+00 0.  1.
</event>
<event>
 7    1  0.2797450E-013  0.7246157E+02  0.7816164E-02  0.1226708E+00
        -11   -1    0    0    0    0  0.00000000000E+00  0.00000000000E+00  0.45593999997E+02  0.45594000000E+02  0.51100000000E-03 0. -1.
         11   -1    0    0    0    0 -0.00000000000E+00 -0.00000000000E+00 -0.45593999997E+02  0.45594000000E+02  0.51100000000E-03 0.  1.
    9900012    2    1    2    0    0 -0.16408577492E+02 -0.51492272746E+01  0.74110225482E+01  0.72461569159E+02  0.69999998521E+02 0.  0.
         12    1    1    2    0    0  0.16408577492E+02  0.51492272746E+01 -0.74110225482E+01  0.18726430841E+02  0.00000000000E+00 0. -1.
         11    1    3    3    0    0 -0.58485620286E+01  0.10319607011E+02  0.72143841793E+01  0.13883346355E+02  0.51100000000E-03 0. -1.
        -11    1    3    3    0    0 -0.84323027104E+01  0.20610289004E+02 -0.20755891046E+01  0.22365057841E+02  0.51100000000E-03 0.  1.
         12    1    3    3    0    0 -0.21277127531E+01 -0.36079123290E+02  0.22722274735E+01  0.36213164963E+02  0.00000000000E+00 0. -1.
</event>
<event>
 7    1  0.2797450E-013  0.7246155E+02  0.7816164E-02  0.1226708E+00
        -11   -1    0    0    0    0  0.00000000000E+00  0.00000000000E+00  0.45593999997E+02  0.45594000000E+02  0.51100000000E-03 0.  1.
         11   -1    0    0    0    0 -0.00000000000E+00 -0.00000000000E+00 -0.45593999997E+02  0.45594000000E+02  0.51100000000E-03 0. -1.
    9900012    2    1    2    0    0  0.35926869800E+01 -0.11069935992E+02  0.14670691666E+02  0.72461546076E+02  0.69999968451E+02 0.  0.
         12    1    1    2    0    0 -0.35926869800E+01  0.11069935992E+02 -0.14670691666E+02  0.18726453924E+02  0.00000000000E+00 0. -1.
         11    1    3    3    0    0  0.32345718430E+01 -0.21280432690E+02 -0.13541135040E+02  0.25429935291E+02  0.51100000000E-03 0. -1.
        -11    1    3    3    0    0 -0.18825961966E+01 -0.13361052222E+02  0.13862864784E+02  0.19345307059E+02  0.51100000000E-03 0.  1.
         12    1    3    3    0    0  0.22407113336E+01  0.23571548920E+02  0.14348961922E+02  0.27686303726E+02  0.00000000000E+00 0. -1.
</event>
<event>
 7    1  0.2797450E-013  0.7246155E+02  0.7816164E-02  0.1226708E+00
        -11   -1    0    0    0    0  0.00000000000E+00  0.00000000000E+00  0.45593999997E+02  0.45594000000E+02  0.51100000000E-03 0.  1.
         11   -1    0    0    0    0 -0.00000000000E+00 -0.00000000000E+00 -0.45593999997E+02  0.45594000000E+02  0.51100000000E-03 0. -1.
    9900012    2    1    2    0    0  0.16725948133E+02 -0.74781391615E+01  0.38730103186E+01  0.72461545045E+02  0.69999967107E+02 0.  0.
         12    1    1    2    0    0 -0.16725948133E+02  0.74781391615E+01 -0.38730103186E+01  0.18726454955E+02  0.00000000000E+00 0. -1.
         11    1    3    3    0    0  0.15594211698E+01  0.48275769477E+01 -0.99120212549E+01  0.11134875805E+02  0.51100000000E-03 0. -1.
        -11    1    3    3    0    0  0.11532649861E+02 -0.28106538739E+02 -0.10485222770E+02  0.32139063917E+02  0.51100000000E-03 0.  1.
         12    1    3    3    0    0  0.36338771025E+01  0.15800822630E+02  0.24270254343E+02  0.29187605322E+02  0.00000000000E+00 0. -1.
</event>
<event>
 7    1  0.2797450E-013  0.7246159E+02  0.7816164E-02  0.1226708E+00
        -11   -1    0    0    0    0  0.00000000000E+00  0.00000000000E+00  0.45593999997E+02  0.45594000000E+02  0.51100000000E-03 0. -1.
         11   -1    0    0    0    0 -0.00000000000E+00 -0.00000000000E+00 -0.45593999997E+02  0.45594000000E+02  0.51100000000E-03 0.  1.
    9900012    2    1    2    0    0  0.11558706387E+02 -0.11836087353E+02 -0.87739243671E+01  0.72461590681E+02  0.70000026558E+02 0.  0.
         12    1    1    2    0    0 -0.11558706387E+02  0.11836087353E+02  0.87739243671E+01  0.18726409319E+02  0.00000000000E+00 0. -1.
         11    1    3    3    0    0  0.12060556560E+02  0.12243183578E+02 -0.37109964264E+01  0.17581924337E+02  0.51100000000E-03 0. -1.
        -11    1    3    3    0    0  0.10433646746E+02 -0.58297474753E+01 -0.23734013727E+02  0.26573489569E+02  0.51100000000E-03 0.  1.
         12    1    3    3    0    0 -0.10935496919E+02 -0.18249523455E+02  0.18671085786E+02  0.28306176775E+02  0.00000000000E+00 0. -1.
</event>
<event>
 7    1  0.2797450E-013  0.7246155E+02  0.7816164E-02  0.1226708E+00
        -11   -1    0    0    0    0  0.00000000000E+00  0.00000000000E+00  0.45593999997E+02  0.45594000000E+02  0.51100000000E-03 0.  1.
         11   -1    0    0    0    0 -0.00000000000E+00 -0.00000000000E+00 -0.45593999997E+02  0.45594000000E+02  0.51100000000E-03 0. -1.
    9900012    2    1    2    0    0  0.88865206541E+01 -0.16278913022E+02  0.25897507652E+01  0.72461546317E+02  0.69999968765E+02 0.  0.
         12    1    1    2    0    0 -0.88865206541E+01  0.16278913022E+02 -0.25897507652E+01  0.18726453683E+02  0.00000000000E+00 0. -1.
         11    1    3    3    0    0  0.37634628465E+01 -0.25360429985E+01 -0.11933188358E+02  0.12766994608E+02  0.51100000000E-03 0. -1.
        -11    1    3    3    0    0  0.36271206775E+01 -0.33933288519E+02  0.18857300961E+02  0.38990022748E+02  0.51100000000E-03 0.  1.
         12    1    3    3    0    0  0.14959371301E+01  0.20190418495E+02 -0.43343618376E+01  0.20704528960E+02  0.00000000000E+00 0. -1.
</event>
<event>
 7    1  0.2797450E-013  0.7246124E+02  0.7816164E-02  0.1226709E+00
        -11   -1    0    0    0    0  0.00000000000E+00  0.00000000000E+00  0.45593999997E+02  0.45594000000E+02  0.51100000000E-03 0. -1.
         11   -1    0    0    0    0 -0.00000000000E+00 -0.00000000000E+00 -0.45593999997E+02  0.45594000000E+02  0.51100000000E-03 0.  1.
    9900012    2    1    2    0    0  0.90373298978E+01  0.10818968778E+02 -0.12327535169E+02  0.72461239991E+02  0.69999569718E+02 0.  0.
         12    1    1    2    0    0 -0.90373298978E+01 -0.10818968778E+02  0.12327535169E+02  0.18726760009E+02  0.00000000000E+00 0. -1.
         11    1    3    3    0    0  0.15342067797E+02 -0.53723618463E+01  0.18032820121E+02  0.24278054244E+02  0.51100000000E-03 0. -1.
        -11    1    3    3    0    0 -0.35386037852E+01 -0.42874243628E+01  0.48363819495E+01  0.73684676180E+01  0.51100000000E-03 0.  1.
        -12    1    3    3    0    0 -0.27661341140E+01  0.20478754987E+02 -0.35196737239E+02  0.40814718130E+02  0.00000000000E+00 0.  1.
</event>
<event>
 7    1  0.2797450E-013  0.7246158E+02  0.7816164E-02  0.1226708E+00
        -11   -1    0    0    0    0  0.00000000000E+00  0.00000000000E+00  0.45593999997E+02  0.45594000000E+02  0.51100000000E-03 0.  1.
         11   -1    0    0    0    0 -0.00000000000E+00 -0.00000000000E+00 -0.45593999997E+02  0.45594000000E+02  0.51100000000E-03 0. -1.
    9900012    2    1    2    0    0  0.15271082797E+02  0.76237071462E+01  0.77040179047E+01  0.72461580900E+02  0.70000013815E+02 0.  0.
         12    1    1    2    0    0 -0.15271082797E+02 -0.76237071462E+01 -0.77040179047E+01  0.18726419100E+02  0.00000000000E+00 0. -1.
         11    1    3    3    0    0 -0.60324621627E+01 -0.10880334033E+02  0.87757880260E+00  0.12471664413E+02  0.51100000000E-03 0. -1.
        -11    1    3    3    0    0 -0.16060011390E+02  0.34439942407E+01  0.10569331897E+02  0.19531918472E+02  0.51100000000E-03 0.  1.
        -12    1    3    3    0    0  0.37363556350E+02  0.15060046938E+02 -0.37428927951E+01  0.40457998015E+02  0.00000000000E+00 0.  1.
</event>
<event>
 7    1  0.2797450E-013  0.7246158E+02  0.7816164E-02  0.1226708E+00
        -11   -1    0    0    0    0  0.00000000000E+00  0.00000000000E+00  0.45593999997E+02  0.45594000000E+02  0.51100000000E-03 0.  1.
         11   -1    0    0    0    0 -0.00000000000E+00 -0.00000000000E+00 -0.45593999997E+02  0.45594000000E+02  0.51100000000E-03 0. -1.
    9900012    2    1    2    0    0 -0.16088668597E+02  0.95450945661E+01  0.85124172883E+00  0.72461582831E+02  0.70000016332E+02 0.  0.
         12    1    1    2    0    0  0.16088668597E+02 -0.95450945661E+01 -0.85124172883E+00  0.18726417169E+02  0.00000000000E+00 0. -1.
         11    1    3    3    0    0  0.10765515592E+02  0.71512743517E+01 -0.45970740619E+01  0.13717512202E+02  0.51100000000E-03 0. -1.
        -11    1    3    3    0    0 -0.66793493001E+01  0.40235314889E-01 -0.22908967255E+02  0.23862860409E+02  0.51100000000E-03 0.  1.
        -12    1    3    3    0    0 -0.20174834889E+02  0.23535848995E+01  0.28357283046E+02  0.34881210220E+02  0.00000000000E+00 0.  1.
</event>
<event>
 7    1  0.2797450E-013  0.7246160E+02  0.7816164E-02  0.1226708E+00
        -11   -1    0    0    0    0  0.00000000000E+00  0.00000000000E+00  0.45593999997E+02  0.45594000000E+02  0.51100000000E-03 0.  1.
         11   -1    0    0    0    0 -0.00000000000E+00 -0.00000000000E+00 -0.45593999997E+02  0.45594000000E+02  0.51100000000E-03 0. -1.
    9900012    2    1    2    0    0  0.16580853741E+02  0.85955921305E+01  0.13672149791E+01  0.72461596404E+02  0.70000034012E+02 0.  0.
         12    1    1    2    0    0 -0.16580853741E+02 -0.85955921305E+01 -0.13672149791E+01  0.18726403596E+02  0.00000000000E+00 0. -1.
         11    1    3    3    0    0  0.34530060152E+02  0.11996099351E+02 -0.21083597466E+02  0.42198928139E+02  0.51100000000E-03 0. -1.
        -11    1    3    3    0    0 -0.65405619261E+01 -0.24719377091E+01  0.28217567450E+01  0.75400091336E+01  0.51100000000E-03 0.  1.
        -12    1    3    3    0    0 -0.11408644485E+02 -0.92856951107E+00  0.19629055700E+02  0.22722659131E+02  0.00000000000E+00 0.  1.
</event>
<event>
 7    1  0.2797450E-013  0.7246156E+02  0.7816164E-02  0.1226708E+00
        -11   -1    0    0    0    0  0.00000000000E+00  0.00000000000E+00  0.45593999997E+02  0.45594000000E+02  0.51100000000E-03 0.  1.
         11   -1    0    0    0    0 -0.00000000000E+00 -0.00000000000E+00 -0.45593999997E+02  0.45594000000E+02  0.51100000000E-03 0. -1.
    9900012    2    1    2    0    0  0.60806557519E+01  0.11917809379E+02 -0.13102332297E+02  0.72461557028E+02  0.69999982718E+02 0.  0.
         12    1    1    2    0    0 -0.60806557519E+01 -0.11917809379E+02  0.13102332297E+02  0.18726442972E+02  0.00000000000E+00 0. -1.
         11    1    3    3    0    0 -0.20708016034E+02 -0.10233903464E+02 -0.29086298784E+01  0.23281212086E+02  0.51100000000E-03 0. -1.
        -11    1    3    3    0    0 -0.69882005783E+01  0.45743288079E+01  0.30118006373E+01  0.88786471214E+01  0.51100000000E-03 0.  1.
        -12    1    3    3    0    0  0.33776872364E+02  0.17577384035E+02 -0.13205503056E+02  0.40301697820E+02  0.00000000000E+00 0.  1.
</event>
<event>
 7    1  0.2797450E-013  0.7246159E+02  0.7816164E-02  0.1226708E+00
        -11   -1    0    0    0    0  0.00000000000E+00  0.00000000000E+00  0.45593999997E+02  0.45594000000E+02  0.51100000000E-03 0.  1.
         11   -1    0    0    0    0 -0.00000000000E+00 -0.00000000000E+00 -0.45593999997E+02  0.45594000000E+02  0.51100000000E-03 0. -1.
    9900012    2    1    2    0    0 -0.18498315504E+02 -0.21481323183E+01 -0.19688498580E+01  0.72461587671E+02  0.70000022636E+02 0.  0.
         12    1    1    2    0    0  0.18498315504E+02  0.21481323183E+01  0.19688498580E+01  0.18726412329E+02  0.00000000000E+00 0. -1.
         11    1    3    3    0    0 -0.92184532685E+01 -0.28285333636E+02 -0.99498024675E+01  0.31369388724E+02  0.51100000000E-03 0. -1.
        -11    1    3    3    0    0 -0.18132327543E+02  0.74085943872E+01  0.42582539626E+01  0.20044981915E+02  0.51100000000E-03 0.  1.
        -12    1    3    3    0    0  0.88524653068E+01  0.18728606930E+02  0.37226986470E+01  0.21047217031E+02  0.00000000000E+00 0.  1.
</event>
<event>
 7    1  0.2797450E-013  0.7246164E+02  0.7816164E-02  0.1226708E+00
        -11   -1    0    0    0    0  0.00000000000E+00  0.00000000000E+00  0.45593999997E+02  0.45594000000E+02  0.51100000000E-03 0.  1.
         11   -1    0    0    0    0 -0.00000000000E+00 -0.00000000000E+00 -0.45593999997E+02  0.45594000000E+02  0.51100000000E-03 0. -1.
    9900012    2    1    2    0    0  0.13656121519E+02  0.47835382600E+01  0.11887166472E+02  0.72461638369E+02  0.70000088679E+02 0.  0.
         12    1    1    2    0    0 -0.13656121519E+02 -0.47835382600E+01 -0.11887166472E+02  0.18726361631E+02  0.00000000000E+00 0. -1.
         11    1    3    3    0    0 -0.65467316852E+01  0.10992945296E+01 -0.20475723860E+02  0.21524948596E+02  0.51100000000E-03 0. -1.
        -11    1    3    3    0    0 -0.48211706786E+01  0.78173319658E+01  0.21434619880E+02  0.23319461731E+02  0.51100000000E-03 0.  1.
        -12    1    3    3    0    0  0.25024023882E+02 -0.41330882354E+01  0.10928270451E+02  0.27617228041E+02  0.00000000000E+00 0.  1.
</event>
<event>
 7    1  0.2797450E-013  0.7246155E+02  0.7816164E-02  0.1226708E+00
        -11   -1    0    0    0    0  0.00000000000E+00  0.00000000000E+00  0.45593999997E+02  0.45594000000E+02  0.51100000000E-03 0. -1.
         11   -1    0    0    0    0 -0.00000000000E+00 -0.00000000000E+00 -0.45593999997E+02  0.45594000000E+02  0.51100000000E-03 0.  1.
    9900012    2    1    2    0    0  0.20824206286E+01 -0.12675361771E+02 -0.13626393609E+02  0.72461551472E+02  0.69999975480E+02 0.  0.
         12    1    1    2    0    0 -0.20824206286E+01  0.12675361771E+02  0.13626393609E+02  0.18726448528E+02  0.00000000000E+00 0. -1.
         11    1    3    3    0    0  0.18648689019E+01  0.24372378083E+01 -0.53939319266E+01  0.62058332273E+01  0.51100000000E-03 0. -1.
        -11    1    3    3    0    0 -0.16173596309E+02  0.36155159759E+01 -0.29290703556E+02  0.33654160046E+02  0.51100000000E-03 0.  1.
         12    1    3    3    0    0  0.16391148036E+02 -0.18728115555E+02  0.21058241873E+02  0.32601558198E+02  0.00000000000E+00 0. -1.
</event>
<event>
 7    1  0.2797450E-013  0.7246154E+02  0.7816164E-02  0.1226708E+00
        -11   -1    0    0    0    0  0.00000000000E+00  0.00000000000E+00  0.45593999997E+02  0.45594000000E+02  0.51100000000E-03 0.  1.
         11   -1    0    0    0    0 -0.00000000000E+00 -0.00000000000E+00 -0.45593999997E+02  0.45594000000E+02  0.51100000000E-03 0. -1.
    9900012    2    1    2    0    0  0.17684252262E+02 -0.58947447036E+01  0.17886654952E+01  0.72461544985E+02  0.69999967029E+02 0.  0.
         12    1    1    2    0    0 -0.17684252262E+02  0.58947447036E+01 -0.17886654952E+01  0.18726455015E+02  0.00000000000E+00 0. -1.
         11    1    3    3    0    0 -0.53853644222E+01  0.11797453744E+02 -0.10865359877E+02  0.16918572940E+02  0.51100000000E-03 0. -1.
        -11    1    3    3    0    0 -0.69248955106E+01 -0.33479494906E+01 -0.11929004848E+02  0.14193805006E+02  0.51100000000E-03 0.  1.
        -12    1    3    3    0    0  0.29994512195E+02 -0.14344248957E+02  0.24583030221E+02  0.41349167039E+02  0.00000000000E+00 0.  1.
</event>
<event>
 7    1  0.2797450E-013  0.7246155E+02  0.7816164E-02  0.1226708E+00
        -11   -1    0    0    0    0  0.00000000000E+00  0.00000000000E+00  0.45593999997E+02  0.45594000000E+02  0.51100000000E-03 0.  1.
         11   -1    0    0    0    0 -0.00000000000E+00 -0.00000000000E+00 -0.45593999997E+02  0.45594000000E+02  0.51100000000E-03 0. -1.
    9900012    2    1    2    0    0  0.72388414911E+01  0.40293404884E+01  0.16794147437E+02  0.72461553486E+02  0.69999978104E+02 0.  0.
         12    1    1    2    0    0 -0.72388414911E+01 -0.40293404884E+01 -0.16794147437E+02  0.18726446514E+02  0.00000000000E+00 0. -1.
         11    1    3    3    0    0  0.82349783191E+01 -0.23067791831E+02  0.19471055183E+02  0.31289932536E+02  0.51100000000E-03 0. -1.
        -11    1    3    3    0    0  0.11398716665E+02  0.13634918317E+01  0.33925132403E+01  0.11970755946E+02  0.51100000000E-03 0.  1.
         12    1    3    3    0    0 -0.12394853493E+02  0.25733640488E+02 -0.60694209861E+01  0.29200865004E+02  0.00000000000E+00 0. -1.
</event>
<event>
 7    1  0.2797450E-013  0.7246156E+02  0.7816164E-02  0.1226708E+00
        -11   -1    0    0    0    0  0.00000000000E+00  0.00000000000E+00  0.45593999997E+02  0.45594000000E+02  0.51100000000E-03 0.  1.
         11   -1    0    0    0    0 -0.00000000000E+00 -0.00000000000E+00 -0.45593999997E+02  0.45594000000E+02  0.51100000000E-03 0. -1.
    9900012    2    1    2    0    0  0.75060537077E+01 -0.95513054197E+01  0.14251713912E+02  0.72461558082E+02  0.69999984091E+02 0.  0.
         12    1    1    2    0    0 -0.75060537077E+01  0.95513054197E+01 -0.14251713912E+02  0.18726441918E+02  0.00000000000E+00 0. -1.
         11    1    3    3    0    0  0.17047278785E+02  0.23190202204E+01  0.11018359535E+02  0.20430169256E+02  0.51100000000E-03 0. -1.
        -11    1    3    3    0    0  0.15041049499E+02  0.10779300206E+02  0.11000292236E+01  0.18537436379E+02  0.51100000000E-03 0.  1.
         12    1    3    3    0    0 -0.24582274576E+02 -0.22649625846E+02  0.21333251537E+01  0.33493952447E+02  0.00000000000E+00 0. -1.
</event>
<event>
 7    1  0.2797450E-013  0.7246171E+02  0.7816164E-02  0.1226708E+00
        -11   -1    0    0    0    0  0.00000000000E+00  0.00000000000E+00  0.45593999997E+02  0.45594000000E+02  0.51100000000E-03 0. -1.
         11   -1    0    0    0    0 -0.00000000000E+00 -0.00000000000E+00 -0.45593999997E+02  0.45594000000E+02  0.51100000000E-03 0.  1.
    9900012    2    1    2    0    0  0.95750464462E+01 -0.11238867652E+02  0.11518698897E+02  0.72461706057E+02  0.70000176856E+02 0.  0.
         12    1    1    2    0    0 -0.95750464462E+01  0.11238867652E+02 -0.11518698897E+02  0.18726293943E+02  0.00000000000E+00 0. -1.
         11    1    3    3    0    0  0.77515873756E+01 -0.63457094209E+01  0.17813059602E+01  0.10174880151E+02  0.51100000000E-03 0. -1.
        -11    1    3    3    0    0  0.14164808651E+02 -0.39491403650E+01  0.32893208971E+02  0.36030552458E+02  0.51100000000E-03 0.  1.
         12    1    3    3    0    0 -0.12341349581E+02 -0.94401786655E+00 -0.23155816034E+02  0.26256273449E+02  0.00000000000E+00 0. -1.
</event>
<event>
 7    1  0.2797450E-013  0.7246157E+02  0.7816164E-02  0.1226708E+00
        -11   -1    0    0    0    0  0.00000000000E+00  0.00000000000E+00  0.45593999997E+02  0.45594000000E+02  0.51100000000E-03 0. -1.
         11   -1    0    0    0    0 -0.00000000000E+00 -0.00000000000E+00 -0.45593999997E+02  0.45594000000E+02  0.51100000000E-03 0.  1.
    9900012    2    1    2    0    0 -0.75978139824E+01  0.10094361039E+02 -0.13822312170E+02  0.72461569058E+02  0.69999998390E+02 0.  0.
         12    1    1    2    0    0  0.75978139824E+01 -0.10094361039E+02  0.13822312170E+02  0.18726430942E+02  0.00000000000E+00 0. -1.
         11    1    3    3    0    0  0.38177377033E+01 -0.23951245914E+01  0.10194251418E+02  0.11146053347E+02  0.51100000000E-03 0. -1.
        -11    1    3    3    0    0  0.20802383966E+02 -0.20158315119E+01 -0.65560821151E+01  0.21903994346E+02  0.51100000000E-03 0.  1.
        -12    1    3    3    0    0 -0.32217935652E+02  0.14505317143E+02 -0.17460481472E+02  0.39411521365E+02  0.00000000000E+00 0.  1.
</event>
<event>
 7    1  0.2797450E-013  0.7246153E+02  0.7816164E-02  0.1226708E+00
        -11   -1    0    0    0    0  0.00000000000E+00  0.00000000000E+00  0.45593999997E+02  0.45594000000E+02  0.51100000000E-03 0.  1.
         11   -1    0    0    0    0 -0.00000000000E+00 -0.00000000000E+00 -0.45593999997E+02  0.45594000000E+02  0.51100000000E-03 0. -1.
    9900012    2    1    2    0    0  0.11326992701E+02  0.78652838568E+01  0.12669532596E+02  0.72461534503E+02  0.69999953376E+02 0.  0.
         12    1    1    2    0    0 -0.11326992701E+02 -0.78652838568E+01 -0.12669532596E+02  0.18726465497E+02  0.00000000000E+00 0. -1.
         11    1    3    3    0    0  0.83236194405E+00 -0.16466337277E+01 -0.98552256841E+01  0.10026450149E+02  0.51100000000E-03 0. -1.
        -11    1    3    3    0    0 -0.20952998417E+02 -0.12392798492E+01 -0.20674367886E+01  0.21091188974E+02  0.51100000000E-03 0.  1.
        -12    1    3    3    0    0  0.31447629174E+02  0.10751197434E+02  0.24592195069E+02  0.41343895380E+02  0.00000000000E+00 0.  1.
</event>
<event>
 7    1  0.2797450E-013  0.7246151E+02  0.7816164E-02  0.1226708E+00
        -11   -1    0    0    0    0  0.00000000000E+00  0.00000000000E+00  0.45593999997E+02  0.45594000000E+02  0.51100000000E-03 0.  1.
         11   -1    0    0    0    0 -0.00000000000E+00 -0.00000000000E+00 -0.45593999997E+02  0.45594000000E+02  0.51100000000E-03 0. -1.
    9900012    2    1    2    0    0 -0.16692747686E+02  0.84199720191E+01 -0.10665550859E+01  0.72461513574E+02  0.69999926111E+02 0.  0.
         12    1    1    2    0    0  0.16692747686E+02 -0.84199720191E+01  0.10665550859E+01  0.18726486426E+02  0.00000000000E+00 0. -1.
         11    1    3    3    0    0  0.83354492388E+01 -0.71359219950E+01  0.13059902878E+02  0.17057612968E+02  0.51100000000E-03 0. -1.
        -11    1    3    3    0    0  0.39645023344E+01  0.27422213108E+00  0.12538472297E+02  0.13153165563E+02  0.51100000000E-03 0.  1.
        -12    1    3    3    0    0 -0.28992699259E+02  0.15281671883E+02 -0.26664930260E+02  0.42250735043E+02  0.00000000000E+00 0.  1.
</event>
<event>
 7    1  0.2797450E-013  0.7246172E+02  0.7816164E-02  0.1226708E+00
        -11   -1    0    0    0    0  0.00000000000E+00  0.00000000000E+00  0.45593999997E+02  0.45594000000E+02  0.51100000000E-03 0. -1.
         11   -1    0    0    0    0 -0.00000000000E+00 -0.00000000000E+00 -0.45593999997E+02  0.45594000000E+02  0.51100000000E-03 0.  1.
    9900012    2    1    2    0    0  0.69803703998E+01  0.15910505301E+02 -0.69859713815E+01  0.72461720444E+02  0.70000195598E+02 0.  0.
         12    1    1    2    0    0 -0.69803703998E+01 -0.15910505301E+02  0.69859713815E+01  0.18726279556E+02  0.00000000000E+00 0. -1.
         11    1    3    3    0    0 -0.39001383973E+01 -0.10592806541E+02  0.21233548328E+01  0.11485959513E+02  0.51100000000E-03 0. -1.
        -11    1    3    3    0    0 -0.12028340799E+02  0.60865797507E+01 -0.23492670244E+02  0.27085660245E+02  0.51100000000E-03 0.  1.
         12    1    3    3    0    0  0.22908849596E+02  0.20416732091E+02  0.14383344030E+02  0.33890100687E+02  0.00000000000E+00 0. -1.
</event>
<event>
 7    1  0.2797450E-013  0.7246162E+02  0.7816164E-02  0.1226708E+00
        -11   -1    0    0    0    0  0.00000000000E+00  0.00000000000E+00  0.45593999997E+02  0.45594000000E+02  0.51100000000E-03 0.  1.
         11   -1    0    0    0    0 -0.00000000000E+00 -0.00000000000E+00 -0.45593999997E+02  0.45594000000E+02  0.51100000000E-03 0. -1.
    9900012    2    1    2    0    0  0.11087434878E+02 -0.56189650175E+01  0.14006188914E+02  0.72461619999E+02  0.70000064749E+02 0.  0.
         12    1    1    2    0    0 -0.11087434878E+02  0.56189650175E+01 -0.14006188914E+02  0.18726380001E+02  0.00000000000E+00 0. -1.
         11    1    3    3    0    0 -0.22224187325E+02  0.39294112213E+00  0.15602064133E+02  0.27156828063E+02  0.51100000000E-03 0. -1.
        -11    1    3    3    0    0 -0.13809778708E+01 -0.76425451212E+01  0.59256469705E+01  0.97687710634E+01  0.51100000000E-03 0.  1.
        -12    1    3    3    0    0  0.34692600074E+02  0.16306389816E+01 -0.75215221897E+01  0.35536020872E+02  0.00000000000E+00 0.  1.
</event>
<event>
 7    1  0.2797450E-013  0.7246161E+02  0.7816164E-02  0.1226708E+00
        -11   -1    0    0    0    0  0.00000000000E+00  0.00000000000E+00  0.45593999997E+02  0.45594000000E+02  0.51100000000E-03 0.  1.
         11   -1    0    0    0    0 -0.00000000000E+00 -0.00000000000E+00 -0.45593999997E+02  0.45594000000E+02  0.51100000000E-03 0. -1.
    9900012    2    1    2    0    0 -0.33364596989E+01 -0.18377909572E+01  0.18334891004E+02  0.72461610411E+02  0.70000052259E+02 0.  0.
         12    1    1    2    0    0  0.33364596989E+01  0.18377909572E+01 -0.18334891004E+02  0.18726389589E+02  0.00000000000E+00 0. -1.
         11    1    3    3    0    0 -0.24769799125E+02 -0.52602664540E+01  0.19575522011E+02  0.32006474565E+02  0.51100000000E-03 0. -1.
        -11    1    3    3    0    0 -0.70747359496E+01  0.10162724083E+01  0.76760199487E+01  0.10488373605E+02  0.51100000000E-03 0.  1.
         12    1    3    3    0    0  0.28508075375E+02  0.24062030885E+01 -0.89166509553E+01  0.29966762240E+02  0.00000000000E+00 0. -1.
</event>
<event>
 7    1  0.2797450E-013  0.7246165E+02  0.7816164E-02  0.1226708E+00
        -11   -1    0    0    0    0  0.00000000000E+00  0.00000000000E+00  0.45593999997E+02  0.45594000000E+02  0.51100000000E-03 0. -1.
         11   -1    0    0    0    0 -0.00000000000E+00 -0.00000000000E+00 -0.45593999997E+02  0.45594000000E+02  0.51100000000E-03 0.  1.
    9900012    2    1    2    0    0 -0.12529515390E+01 -0.18624309912E+02  0.14970693838E+01  0.72461654281E+02  0.70000109408E+02 0.  0.
         12    1    1    2    0    0  0.12529515390E+01  0.18624309912E+02 -0.14970693838E+01  0.18726345719E+02  0.00000000000E+00 0. -1.
         11    1    3    3    0    0  0.13662526103E+02 -0.19694667267E+01 -0.19495068574E+02  0.23887258479E+02  0.51100000000E-03 0. -1.
        -11    1    3    3    0    0 -0.84830818689E+00 -0.14091106932E+02 -0.80158469251E+01  0.16233691001E+02  0.51100000000E-03 0.  1.
        -12    1    3    3    0    0 -0.14067169455E+02 -0.25637362535E+01  0.29007984883E+02  0.32340704801E+02  0.00000000000E+00 0.  1.
</event>
<event>
 7    1  0.2797450E-013  0.7246151E+02  0.7816164E-02  0.1226708E+00
        -11   -1    0    0    0    0  0.00000000000E+00  0.00000000000E+00  0.45593999997E+02  0.45594000000E+02  0.51100000000E-03 0. -1.
         11   -1    0    0    0    0 -0.00000000000E+00 -0.00000000000E+00 -0.45593999997E+02  0.45594000000E+02  0.51100000000E-03 0.  1.
    9900012    2    1    2    0    0  0.11011877829E+02  0.11808221715E+02 -0.94860808642E+01  0.72461513850E+02  0.69999926471E+02 0.  0.
         12    1    1    2    0    0 -0.11011877829E+02 -0.11808221715E+02  0.94860808642E+01  0.18726486150E+02  0.00000000000E+00 0. -1.
         11    1    3    3    0    0 -0.70805074149E+01  0.10723387730E+02  0.54576141512E+01  0.13961023678E+02  0.51100000000E-03 0. -1.
        -11    1    3    3    0    0 -0.10541866588E+02 -0.13749600070E+02 -0.19326088831E+02  0.25955349410E+02  0.51100000000E-03 0.  1.
         12    1    3    3    0    0  0.28634251832E+02  0.14834434054E+02  0.43823938151E+01  0.32545140762E+02  0.00000000000E+00 0. -1.
</event>
<event>
 7    1  0.2797450E-013  0.7246161E+02  0.7816164E-02  0.1226708E+00
        -11   -1    0    0    0    0  0.00000000000E+00  0.00000000000E+00  0.45593999997E+02  0.45594000000E+02  0.51100000000E-03 0. -1.
         11   -1    0    0    0    0 -0.00000000000E+00 -0.00000000000E+00 -0.45593999997E+02  0.45594000000E+02  0.51100000000E-03 0.  1.
    9900012    2    1    2    0    0 -0.63173068336E+01 -0.15577710467E+02 -0.82525316388E+01  0.72461609332E+02  0.70000050853E+02 0.  0.
         12    1    1    2    0    0  0.63173068336E+01  0.15577710467E+02  0.82525316388E+01  0.18726390668E+02  0.00000000000E+00 0. -1.
         11    1    3    3    0    0 -0.47155706919E+01 -0.84560892684E+01  0.92538058223E+01  0.13393094307E+02  0.51100000000E-03 0. -1.
        -11    1    3    3    0    0 -0.26208585836E+02  0.46405695389E+00  0.26803535367E+01  0.26349376002E+02  0.51100000000E-03 0.  1.
        -12    1    3    3    0    0  0.24606849694E+02 -0.75856781523E+01 -0.20186690998E+02  0.32719139022E+02  0.00000000000E+00 0.  1.
</event>
<event>
 7    1  0.2797450E-013  0.7246153E+02  0.7816164E-02  0.1226708E+00
        -11   -1    0    0    0    0  0.00000000000E+00  0.00000000000E+00  0.45593999997E+02  0.45594000000E+02  0.51100000000E-03 0.  1.
         11   -1    0    0    0    0 -0.00000000000E+00 -0.00000000000E+00 -0.45593999997E+02  0.45594000000E+02  0.51100000000E-03 0. -1.
    9900012    2    1    2    0    0  0.39005831404E+01  0.48353066810E+01  0.17665950634E+02  0.72461533400E+02  0.69999951938E+02 0.  0.
         12    1    1    2    0    0 -0.39005831404E+01 -0.48353066810E+01 -0.17665950634E+02  0.18726466600E+02  0.00000000000E+00 0. -1.
         11    1    3    3    0    0  0.12105751250E+02 -0.27051213886E+00  0.19183083365E+01  0.12259783737E+02  0.51100000000E-03 0. -1.
        -11    1    3    3    0    0  0.79423083049E+01  0.25250369821E+02  0.21081278253E+02  0.33839056286E+02  0.51100000000E-03 0.  1.
         12    1    3    3    0    0 -0.16147476414E+02 -0.20144551001E+02 -0.53336359557E+01  0.26362693377E+02  0.00000000000E+00 0. -1.
</event>
<event>
 7    1  0.2797450E-013  0.7246160E+02  0.7816164E-02  0.1226708E+00
        -11   -1    0    0    0    0  0.00000000000E+00  0.00000000000E+00  0.45593999997E+02  0.45594000000E+02  0.51100000000E-03 0.  1.
         11   -1    0    0    0    0 -0.00000000000E+00 -0.00000000000E+00 -0.45593999997E+02  0.45594000000E+02  0.51100000000E-03 0. -1.
    9900012    2    1    2    0    0 -0.14492297606E+02 -0.70130100105E+01  0.95639375177E+01  0.72461604187E+02  0.70000044152E+02 0.  0.
         12    1    1    2    0    0  0.14492297606E+02  0.70130100105E+01 -0.95639375177E+01  0.18726395813E+02  0.00000000000E+00 0. -1.
         11    1    3    3    0    0 -0.30779025619E+02 -0.21839743613E+01  0.55000058270E+01  0.31342753970E+02  0.51100000000E-03 0. -1.
        -11    1    3    3    0    0  0.71908229763E+01  0.11030271700E+02  0.14885663111E+02  0.19873545113E+02  0.51100000000E-03 0.  1.
         12    1    3    3    0    0  0.90959050367E+01 -0.15859307349E+02 -0.10821731421E+02  0.21245305104E+02  0.00000000000E+00 0. -1.
</event>
<event>
 7    1  0.2797450E-013  0.7246157E+02  0.7816164E-02  0.1226708E+00
        -11   -1    0    0    0    0  0.00000000000E+00  0.00000000000E+00  0.45593999997E+02  0.45594000000E+02  0.51100000000E-03 0. -1.
         11   -1    0    0    0    0 -0.00000000000E+00 -0.00000000000E+00 -0.45593999997E+02  0.45594000000E+02  0.51100000000E-03 0.  1.
    9900012    2    1    2    0    0  0.15291248076E+02 -0.10500643068E+02  0.25677783057E+01  0.72461567933E+02  0.69999996924E+02 0.  0.
         12    1    1    2    0    0 -0.15291248076E+02  0.10500643068E+02 -0.25677783057E+01  0.18726432067E+02  0.00000000000E+00 0. -1.
         11    1    3    3    0    0  0.95710107754E+01  0.96847168156E+01  0.35831561945E+01  0.14079666034E+02  0.51100000000E-03 0. -1.
        -11    1    3    3    0    0  0.10165102498E+02  0.94664276039E+01 -0.18911082378E+02  0.23464262131E+02  0.51100000000E-03 0.  1.
        -12    1    3    3    0    0 -0.44448651975E+01 -0.29651787487E+02  0.17895704489E+02  0.34917639768E+02  0.00000000000E+00 0.  1.
</event>
<event>
 7    1  0.2797450E-013  0.7246156E+02  0.7816164E-02  0.1226708E+00
        -11   -1    0    0    0    0  0.00000000000E+00  0.00000000000E+00  0.45593999997E+02  0.45594000000E+02  0.51100000000E-03 0. -1.
         11   -1    0    0    0    0 -0.00000000000E+00 -0.00000000000E+00 -0.45593999997E+02  0.45594000000E+02  0.51100000000E-03 0.  1.
    9900012    2    1    2    0    0  0.17816092888E+02  0.21177425154E+01 -0.53648418637E+01  0.72461560739E+02  0.69999987552E+02 0.  0.
         12    1    1    2    0    0 -0.17816092888E+02 -0.21177425154E+01  0.53648418637E+01  0.18726439261E+02  0.00000000000E+00 0. -1.
         11    1    3    3    0    0 -0.30769528039E+01 -0.28829906693E+01  0.84447874109E+01  0.94389463624E+01  0.51100000000E-03 0. -1.
        -11    1    3    3    0    0 -0.13979411388E+02 -0.15194696367E+02 -0.86869841251E+01  0.22400143613E+02  0.51100000000E-03 0.  1.
        -12    1    3    3    0    0  0.34872457080E+02  0.20195429552E+02 -0.51226451495E+01  0.40622470763E+02  0.00000000000E+00 0.  1.
</event>
<event>
 7    1  0.2797450E-013  0.7246159E+02  0.7816164E-02  0.1226708E+00
        -11   -1    0    0    0    0  0.00000000000E+00  0.00000000000E+00  0.45593999997E+02  0.45594000000E+02  0.51100000000E-03 0.  1.
         11   -1    0    0    0    0 -0.00000000000E+00 -0.00000000000E+00 -0.45593999997E+02  0.45594000000E+02  0.51100000000E-03 0. -1.
    9900012    2    1    2    0    0 -0.37188265596E+01 -0.37469849722E+01  0.17966885804E+02  0.72461586759E+02  0.70000021449E+02 0.  0.
         12    1    1    2    0    0  0.37188265596E+01  0.37469849722E+01 -0.17966885804E+02  0.18726413241E+02  0.00000000000E+00 0. -1.
         11    1    3    3    0    0 -0.16167107148E+02  0.34208782880E+01  0.40447698380E+01  0.17012875274E+02  0.51100000000E-03 0. -1.
        -11    1    3    3    0    0 -0.15815166013E+02  0.25725071933E+00  0.20103090713E+02  0.25579677684E+02  0.51100000000E-03 0.  1.
         12    1    3    3    0    0  0.28263446601E+02 -0.74251139795E+01 -0.61809747471E+01  0.29869033801E+02  0.00000000000E+00 0. -1.
</event>
<event>
 7    1  0.2797450E-013  0.7246158E+02  0.7816164E-02  0.1226708E+00
        -11   -1    0    0    0    0  0.00000000000E+00  0.00000000000E+00  0.45593999997E+02  0.45594000000E+02  0.51100000000E-03 0.  1.
         11   -1    0    0    0    0 -0.00000000000E+00 -0.00000000000E+00 -0.45593999997E+02  0.45594000000E+02  0.51100000000E-03 0. -1.
    9900012    2    1    2    0    0  0.15123221159E+02 -0.11035179040E+02  0.43786903074E+00  0.72461582191E+02  0.70000015498E+02 0.  0.
         12    1    1    2    0    0 -0.15123221159E+02  0.11035179040E+02 -0.43786903074E+00  0.18726417809E+02  0.00000000000E+00 0. -1.
         11    1    3    3    0    0 -0.77093650954E+01 -0.23326397960E+02 -0.53619623697E+01  0.25145691334E+02  0.51100000000E-03 0. -1.
        -11    1    3    3    0    0  0.52067830627E+01 -0.25926181387E+01  0.19592544971E+02  0.20437712136E+02  0.51100000000E-03 0.  1.
        -12    1    3    3    0    0  0.17625803191E+02  0.14883837058E+02 -0.13792713570E+02  0.26878178721E+02  0.00000000000E+00 0.  1.
</event>
<event>
 7    1  0.2797450E-013  0.7246159E+02  0.7816164E-02  0.1226708E+00
        -11   -1    0    0    0    0  0.00000000000E+00  0.00000000000E+00  0.45593999997E+02  0.45594000000E+02  0.51100000000E-03 0. -1.
         11   -1    0    0    0    0 -0.00000000000E+00 -0.00000000000E+00 -0.45593999997E+02  0.45594000000E+02  0.51100000000E-03 0.  1.
    9900012    2    1    2    0    0 -0.16923158769E+02  0.77126147996E+01 -0.21910656372E+01  0.72461588214E+02  0.70000023344E+02 0.  0.
         12    1    1    2    0    0  0.16923158769E+02 -0.77126147996E+01  0.21910656372E+01  0.18726411786E+02  0.00000000000E+00 0. -1.
         11    1    3    3    0    0 -0.10918563278E+02  0.12726399533E+02  0.23521476571E+01  0.16932479676E+02  0.51100000000E-03 0. -1.
        -11    1    3    3    0    0  0.71362511551E+00  0.88934330033E+01 -0.26908533622E+02  0.28349102161E+02  0.51100000000E-03 0.  1.
        -12    1    3    3    0    0 -0.67182206064E+01 -0.13907217736E+02  0.22365320328E+02  0.27180006377E+02  0.00000000000E+00 0.  1.
</event>
<event>
 7    1  0.2797450E-013  0.7246187E+02  0.7816164E-02  0.1226707E+00
        -11   -1    0    0    0    0  0.00000000000E+00  0.00000000000E+00  0.45593999997E+02  0.45594000000E+02  0.51100000000E-03 0.  1.
         11   -1    0    0    0    0 -0.00000000000E+00 -0.00000000000E+00 -0.45593999997E+02  0.45594000000E+02  0.51100000000E-03 0. -1.
    9900012    2    1    2    0    0 -0.11861567581E+02  0.75318392758E+01  0.12379110481E+02  0.72461874810E+02  0.70000396687E+02 0.  0.
         12    1    1    2    0    0  0.11861567581E+02 -0.75318392758E+01 -0.12379110481E+02  0.18726125190E+02  0.00000000000E+00 0. -1.
         11    1    3    3    0    0  0.87053811554E+01 -0.24916746711E+01  0.39525759672E+00  0.90635717328E+01  0.51100000000E-03 0. -1.
        -11    1    3    3    0    0 -0.31225207134E+01 -0.73874012003E+01  0.31156805937E+02  0.32172509827E+02  0.51100000000E-03 0.  1.
        -12    1    3    3    0    0 -0.17444428023E+02  0.17410915147E+02 -0.19172953053E+02  0.31225793250E+02  0.00000000000E+00 0.  1.
</event>
<event>
 7    1  0.2797450E-013  0.7246199E+02  0.7816164E-02  0.1226707E+00
        -11   -1    0    0    0    0  0.00000000000E+00  0.00000000000E+00  0.45593999997E+02  0.45594000000E+02  0.51100000000E-03 0.  1.
         11   -1    0    0    0    0 -0.00000000000E+00 -0.00000000000E+00 -0.45593999997E+02  0.45594000000E+02  0.51100000000E-03 0. -1.
    9900012    2    1    2    0    0  0.49637411174E+01  0.52158413305E+01  0.17286406097E+02  0.72461987012E+02  0.70000542850E+02 0.  0.
         12    1    1    2    0    0 -0.49637411174E+01 -0.52158413305E+01 -0.17286406097E+02  0.18726012988E+02  0.00000000000E+00 0. -1.
         11    1    3    3    0    0  0.34910437997E+01 -0.13902566897E+02 -0.41595997915E+01  0.14925515865E+02  0.51100000000E-03 0.  1.
        -11    1    3    3    0    0 -0.24077151311E+02  0.70736670581E+01  0.11318961326E+02  0.27529345554E+02  0.51100000000E-03 0. -1.
         12    1    3    3    0    0  0.25549848628E+02  0.12044741170E+02  0.10127044563E+02  0.30007125593E+02  0.00000000000E+00 0. -1.
</event>
<event>
 7    1  0.2797450E-013  0.7246163E+02  0.7816164E-02  0.1226708E+00
        -11   -1    0    0    0    0  0.00000000000E+00  0.00000000000E+00  0.45593999997E+02  0.45594000000E+02  0.51100000000E-03 0. -1.
         11   -1    0    0    0    0 -0.00000000000E+00 -0.00000000000E+00 -0.45593999997E+02  0.45594000000E+02  0.51100000000E-03 0.  1.
    9900012    2    1    2    0    0  0.22981965451E+01 -0.29204918213E+01 -0.18353904745E+02  0.72461633582E+02  0.70000082444E+02 0.  0.
         12    1    1    2    0    0 -0.22981965451E+01  0.29204918213E+01  0.18353904745E+02  0.18726366418E+02  0.00000000000E+00 0. -1.
         11    1    3    3    0    0 -0.30127402883E+01 -0.15421913523E+02 -0.36278530576E+00  0.15717621773E+02  0.51100000000E-03 0. -1.
        -11    1    3    3    0    0 -0.16611189526E+02  0.87526055741E+01  0.97755847998E+01  0.21168414684E+02  0.51100000000E-03 0.  1.
        -12    1    3    3    0    0  0.21922126360E+02  0.37488161274E+01 -0.27766704239E+02  0.35575597125E+02  0.00000000000E+00 0.  1.
</event>
<event>
 7    1  0.2797450E-013  0.7246137E+02  0.7816164E-02  0.1226709E+00
        -11   -1    0    0    0    0  0.00000000000E+00  0.00000000000E+00  0.45593999997E+02  0.45594000000E+02  0.51100000000E-03 0. -1.
         11   -1    0    0    0    0 -0.00000000000E+00 -0.00000000000E+00 -0.45593999997E+02  0.45594000000E+02  0.51100000000E-03 0.  1.
    9900012    2    1    2    0    0 -0.24333028240E+01 -0.12680630767E+02 -0.13563459332E+02  0.72461366871E+02  0.69999735003E+02 0.  0.
         12    1    1    2    0    0  0.24333028240E+01  0.12680630767E+02  0.13563459332E+02  0.18726633129E+02  0.00000000000E+00 0. -1.
         11    1    3    3    0    0 -0.68484108883E+01  0.59061405539E+01 -0.16333713474E+02  0.18670121158E+02  0.51100000000E-03 0. -1.
        -11    1    3    3    0    0  0.36588507931E+00 -0.85963080814E+00 -0.22576931503E+02  0.22596253525E+02  0.51100000000E-03 0.  1.
         12    1    3    3    0    0  0.40492229850E+01 -0.17727140513E+02  0.25347185644E+02  0.31194992188E+02  0.00000000000E+00 0. -1.
</event>
<event>
 7    1  0.2797450E-013  0.7246151E+02  0.7816164E-02  0.1226708E+00
        -11   -1    0    0    0    0  0.00000000000E+00  0.00000000000E+00  0.45593999997E+02  0.45594000000E+02  0.51100000000E-03 0.  1.
         11   -1    0    0    0    0 -0.00000000000E+00 -0.00000000000E+00 -0.45593999997E+02  0.45594000000E+02  0.51100000000E-03 0. -1.
    9900012    2    1    2    0    0  0.73966694367E+01  0.36477209317E+01  0.16812641066E+02  0.72461508434E+02  0.69999919416E+02 0.  0.
         12    1    1    2    0    0 -0.73966694367E+01 -0.36477209317E+01 -0.16812641066E+02  0.18726491566E+02  0.00000000000E+00 0. -1.
         11    1    3    3    0    0  0.80728897976E+01  0.38330990704E+01 -0.10097660242E+02  0.13484322037E+02  0.51100000000E-03 0. -1.
        -11    1    3    3    0    0  0.95524947472E+01  0.55636059364E+01 -0.13181653184E+02  0.17203483596E+02  0.51100000000E-03 0.  1.
        -12    1    3    3    0    0 -0.10228715108E+02 -0.57489840752E+01  0.40091954493E+02  0.41773702801E+02  0.00000000000E+00 0.  1.
</event>
<event>
 7    1  0.2797450E-013  0.7246173E+02  0.7816164E-02  0.1226708E+00
        -11   -1    0    0    0    0  0.00000000000E+00  0.00000000000E+00  0.45593999997E+02  0.45594000000E+02  0.51100000000E-03 0.  1.
         11   -1    0    0    0    0 -0.00000000000E+00 -0.00000000000E+00 -0.45593999997E+02  0.45594000000E+02  0.51100000000E-03 0. -1.
    9900012    2    1    2    0    0 -0.17959190827E+01  0.10294400028E+02  0.15539409263E+02  0.72461728681E+02  0.70000206327E+02 0.  0.
         12    1    1    2    0    0  0.17959190827E+01 -0.10294400028E+02 -0.15539409263E+02  0.18726271319E+02  0.00000000000E+00 0. -1.
         11    1    3    3    0    0  0.25670142608E+00  0.16790879933E+02  0.15489838217E+02  0.22845888750E+02  0.51100000000E-03 0. -1.
        -11    1    3    3    0    0 -0.44480644766E-01 -0.23153493161E+02  0.14629669997E+02  0.27388199440E+02  0.51100000000E-03 0.  1.
         12    1    3    3    0    0 -0.20081398640E+01  0.16657013256E+02 -0.14580098951E+02  0.22227640490E+02  0.00000000000E+00 0. -1.
</event>
<event>
 7    1  0.2797450E-013  0.7246153E+02  0.7816164E-02  0.1226708E+00
        -11   -1    0    0    0    0  0.00000000000E+00  0.00000000000E+00  0.45593999997E+02  0.45594000000E+02  0.51100000000E-03 0.  1.
         11   -1    0    0    0    0 -0.00000000000E+00 -0.00000000000E+00 -0.45593999997E+02  0.45594000000E+02  0.51100000000E-03 0. -1.
    9900012    2    1    2    0    0 -0.11408817268E+02  0.13382024018E+02  0.64374684526E+01  0.72461530008E+02  0.69999947520E+02 0.  0.
         12    1    1    2    0    0  0.11408817268E+02 -0.13382024018E+02 -0.64374684526E+01  0.18726469992E+02  0.00000000000E+00 0. -1.
         11    1    3    3    0    0  0.24935557667E+02  0.11840916196E+02  0.45400073042E+01  0.27975006686E+02  0.51100000000E-03 0. -1.
        -11    1    3    3    0    0 -0.43937545463E+01 -0.31823141227E+01 -0.89072065385E+01  0.10429311136E+02  0.51100000000E-03 0.  1.
        -12    1    3    3    0    0 -0.31950620388E+02  0.47234219448E+01  0.10804667687E+02  0.34057212186E+02  0.00000000000E+00 0.  1.
</event>
<event>
 7    1  0.2797450E-013  0.7246156E+02  0.7816164E-02  0.1226708E+00
        -11   -1    0    0    0    0  0.00000000000E+00  0.00000000000E+00  0.45593999997E+02  0.45594000000E+02  0.51100000000E-03 0. -1.
         11   -1    0    0    0    0 -0.00000000000E+00 -0.00000000000E+00 -0.45593999997E+02  0.45594000000E+02  0.51100000000E-03 0.  1.
    9900012    2    1    2    0    0 -0.99522652080E+01  0.52604477850E-01 -0.15862821321E+02  0.72461562798E+02  0.69999990235E+02 0.  0.
         12    1    1    2    0    0  0.99522652080E+01 -0.52604477850E-01  0.15862821321E+02  0.18726437202E+02  0.00000000000E+00 0. -1.
         11    1    3    3    0    0  0.15742546680E+02  0.24595316207E+01 -0.28148657058E+02  0.32345385547E+02  0.51100000000E-03 0. -1.
        -11    1    3    3    0    0 -0.80935835778E+01  0.52003234306E+00 -0.91493141013E+01  0.12226466274E+02  0.51100000000E-03 0.  1.
         12    1    3    3    0    0 -0.17601228310E+02 -0.29269594859E+01  0.21435149838E+02  0.27889710978E+02  0.00000000000E+00 0. -1.
</event>
<event>
 7    1  0.2797450E-013  0.7246158E+02  0.7816164E-02  0.1226708E+00
        -11   -1    0    0    0    0  0.00000000000E+00  0.00000000000E+00  0.45593999997E+02  0.45594000000E+02  0.51100000000E-03 0. -1.
         11   -1    0    0    0    0 -0.00000000000E+00 -0.00000000000E+00 -0.45593999997E+02  0.45594000000E+02  0.51100000000E-03 0.  1.
    9900012    2    1    2    0    0 -0.15369015276E+01 -0.12893547499E+02 -0.13493449128E+02  0.72461580087E+02  0.70000012756E+02 0.  0.
         12    1    1    2    0    0  0.15369015276E+01  0.12893547499E+02  0.13493449128E+02  0.18726419913E+02  0.00000000000E+00 0. -1.
         11    1    3    3    0    0 -0.23537639302E+01 -0.16621750908E+02  0.10430727729E+02  0.19764181974E+02  0.51100000000E-03 0. -1.
        -11    1    3    3    0    0 -0.19646011250E+02 -0.83339067891E+01 -0.40393164951E+01  0.21719480620E+02  0.51100000000E-03 0.  1.
         12    1    3    3    0    0  0.20462873653E+02  0.12062110199E+02 -0.19884860361E+02  0.30977917492E+02  0.00000000000E+00 0. -1.
</event>
<event>
 7    1  0.2797450E-013  0.7246152E+02  0.7816164E-02  0.1226708E+00
        -11   -1    0    0    0    0  0.00000000000E+00  0.00000000000E+00  0.45593999997E+02  0.45594000000E+02  0.51100000000E-03 0. -1.
         11   -1    0    0    0    0 -0.00000000000E+00 -0.00000000000E+00 -0.45593999997E+02  0.45594000000E+02  0.51100000000E-03 0.  1.
    9900012    2    1    2    0    0 -0.16500133182E+02  0.12574321237E+01 -0.87661648647E+01  0.72461516694E+02  0.69999930176E+02 0.  0.
         12    1    1    2    0    0  0.16500133182E+02 -0.12574321237E+01  0.87661648647E+01  0.18726483306E+02  0.00000000000E+00 0. -1.
         11    1    3    3    0    0 -0.12648865831E+02  0.13130548608E+02  0.48953131047E+01  0.18877743621E+02  0.51100000000E-03 0. -1.
        -11    1    3    3    0    0 -0.24696101509E+02 -0.47037955603E+00 -0.16426004989E+02  0.29663653295E+02  0.51100000000E-03 0.  1.
        -12    1    3    3    0    0  0.20844834158E+02 -0.11402736929E+02  0.27645270196E+01  0.23920119778E+02  0.00000000000E+00 0.  1.
</event>
<event>
 7    1  0.2797450E-013  0.7246153E+02  0.7816164E-02  0.1226708E+00
        -11   -1    0    0    0    0  0.00000000000E+00  0.00000000000E+00  0.45593999997E+02  0.45594000000E+02  0.51100000000E-03 0. -1.
         11   -1    0    0    0    0 -0.00000000000E+00 -0.00000000000E+00 -0.45593999997E+02  0.45594000000E+02  0.51100000000E-03 0.  1.
    9900012    2    1    2    0    0 -0.14846944874E+02 -0.93803370856E+01  0.65006364266E+01  0.72461527565E+02  0.69999944337E+02 0.  0.
         12    1    1    2    0    0  0.14846944874E+02  0.93803370856E+01 -0.65006364266E+01  0.18726472435E+02  0.00000000000E+00 0. -1.
         11    1    3    3    0    0  0.46837279749E+01  0.45768253091E-01  0.11043950369E+02  0.11996176161E+02  0.51100000000E-03 0. -1.
        -11    1    3    3    0    0  0.12565531495E+02 -0.21546384682E+02 -0.74566614783E+01  0.26033460685E+02  0.51100000000E-03 0.  1.
        -12    1    3    3    0    0 -0.32096204343E+02  0.12120279343E+02  0.29133475364E+01  0.34431890719E+02  0.00000000000E+00 0.  1.
</event>
<event>
 7    1  0.2797450E-013  0.7246160E+02  0.7816164E-02  0.1226708E+00
        -11   -1    0    0    0    0  0.00000000000E+00  0.00000000000E+00  0.45593999997E+02  0.45594000000E+02  0.51100000000E-03 0.  1.
         11   -1    0    0    0    0 -0.00000000000E+00 -0.00000000000E+00 -0.45593999997E+02  0.45594000000E+02  0.51100000000E-03 0. -1.
    9900012    2    1    2    0    0  0.50059620621E+01  0.82356047317E+01  0.16055945235E+02  0.72461595677E+02  0.70000033066E+02 0.  0.
         12    1    1    2    0    0 -0.50059620621E+01 -0.82356047317E+01 -0.16055945235E+02  0.18726404323E+02  0.00000000000E+00 0. -1.
         11    1    3    3    0    0  0.11054014026E+02  0.90517902522E+01 -0.17513937776E+02  0.22602304076E+02  0.51100000000E-03 0. -1.
        -11    1    3    3    0    0 -0.11213746746E+02 -0.10481307057E+02  0.87248141306E+00  0.15374236169E+02  0.51100000000E-03 0.  1.
        -12    1    3    3    0    0  0.51656947824E+01  0.96651215365E+01  0.32697401598E+02  0.34485055432E+02  0.00000000000E+00 0.  1.
</event>
<event>
 7    1  0.2797450E-013  0.7246158E+02  0.7816164E-02  0.1226708E+00
        -11   -1    0    0    0    0  0.00000000000E+00  0.00000000000E+00  0.45593999997E+02  0.45594000000E+02  0.51100000000E-03 0. -1.
         11   -1    0    0    0    0 -0.00000000000E+00 -0.00000000000E+00 -0.45593999997E+02  0.45594000000E+02  0.51100000000E-03 0.  1.
    9900012    2    1    2    0    0 -0.85147615989E+01 -0.68167833087E+00 -0.16664719890E+02  0.72461581778E+02  0.70000014959E+02 0.  0.
         12    1    1    2    0    0  0.85147615989E+01  0.68167833087E+00  0.16664719890E+02  0.18726418222E+02  0.00000000000E+00 0. -1.
         11    1    3    3    0    0 -0.14440938489E+02  0.95435998940E+01 -0.16257786285E+02  0.23747349716E+02  0.51100000000E-03 0. -1.
        -11    1    3    3    0    0 -0.18712561177E+02 -0.27519694443E+01 -0.98064853804E+01  0.21304939272E+02  0.51100000000E-03 0.  1.
         12    1    3    3    0    0  0.24638738067E+02 -0.74733087806E+01  0.93995517753E+01  0.27409292790E+02  0.00000000000E+00 0. -1.
</event>
<event>
 7    1  0.2797450E-013  0.7246164E+02  0.7816164E-02  0.1226708E+00
        -11   -1    0    0    0    0  0.00000000000E+00  0.00000000000E+00  0.45593999997E+02  0.45594000000E+02  0.51100000000E-03 0. -1.
         11   -1    0    0    0    0 -0.00000000000E+00 -0.00000000000E+00 -0.45593999997E+02  0.45594000000E+02  0.51100000000E-03 0.  1.
    9900012    2    1    2    0    0 -0.42479874360E+01  0.96029496460E+01 -0.15505304906E+02  0.72461641053E+02  0.70000092177E+02 0.  0.
         12    1    1    2    0    0  0.42479874360E+01 -0.96029496460E+01  0.15505304906E+02  0.18726358947E+02  0.00000000000E+00 0. -1.
         11    1    3    3    0    0 -0.53638729577E+01  0.50347888871E+01 -0.13630514780E+02  0.15489066004E+02  0.51100000000E-03 0. -1.
        -11    1    3    3    0    0  0.85506460248E+01 -0.11094927823E+02 -0.24648128131E+02  0.28350329653E+02  0.51100000000E-03 0.  1.
         12    1    3    3    0    0 -0.74347605031E+01  0.15663088582E+02  0.22773338005E+02  0.28622245396E+02  0.00000000000E+00 0. -1.
</event>
<event>
 7    1  0.2797450E-013  0.7246158E+02  0.7816164E-02  0.1226708E+00
        -11   -1    0    0    0    0  0.00000000000E+00  0.00000000000E+00  0.45593999997E+02  0.45594000000E+02  0.51100000000E-03 0. -1.
         11   -1    0    0    0    0 -0.00000000000E+00 -0.00000000000E+00 -0.45593999997E+02  0.45594000000E+02  0.51100000000E-03 0.  1.
    9900012    2    1    2    0    0  0.15022984050E+02  0.11178680475E+02 -0.16068022687E+00  0.72461581094E+02  0.70000014068E+02 0.  0.
         12    1    1    2    0    0 -0.15022984050E+02 -0.11178680475E+02  0.16068022687E+00  0.18726418906E+02  0.00000000000E+00 0. -1.
         11    1    3    3    0    0  0.55078305623E+01 -0.14933424145E+01  0.35551875273E+01  0.67235130464E+01  0.51100000000E-03 0. -1.
        -11    1    3    3    0    0  0.32611966749E+01 -0.21461451257E+02  0.14927888512E+02  0.26345230109E+02  0.51100000000E-03 0.  1.
         12    1    3    3    0    0  0.62539568125E+01  0.34133474146E+02 -0.18643756266E+02  0.39392837938E+02  0.00000000000E+00 0. -1.
</event>
<event>
 7    1  0.2797450E-013  0.7246160E+02  0.7816164E-02  0.1226708E+00
        -11   -1    0    0    0    0  0.00000000000E+00  0.00000000000E+00  0.45593999997E+02  0.45594000000E+02  0.51100000000E-03 0. -1.
         11   -1    0    0    0    0 -0.00000000000E+00 -0.00000000000E+00 -0.45593999997E+02  0.45594000000E+02  0.51100000000E-03 0.  1.
    9900012    2    1    2    0    0 -0.13004441241E+02 -0.12818370405E+02 -0.41535531593E+01  0.72461598432E+02  0.70000036654E+02 0.  0.
         12    1    1    2    0    0  0.13004441241E+02  0.12818370405E+02  0.41535531593E+01  0.18726401568E+02  0.00000000000E+00 0. -1.
         11    1    3    3    0    0 -0.28969338572E+01 -0.78152023320E+01  0.11138690832E+01  0.84089427313E+01  0.51100000000E-03 0. -1.
        -11    1    3    3    0    0  0.25655052094E+02  0.35189874604E+01  0.38373907248E+01  0.26178054521E+02  0.51100000000E-03 0.  1.
         12    1    3    3    0    0 -0.35762559478E+02 -0.85221555337E+01 -0.91048129673E+01  0.37874601179E+02  0.00000000000E+00 0. -1.
</event>
<event>
 7    1  0.2797450E-013  0.7246178E+02  0.7816164E-02  0.1226707E+00
        -11   -1    0    0    0    0  0.00000000000E+00  0.00000000000E+00  0.45593999997E+02  0.45594000000E+02  0.51100000000E-03 0.  1.
         11   -1    0    0    0    0 -0.00000000000E+00 -0.00000000000E+00 -0.45593999997E+02  0.45594000000E+02  0.51100000000E-03 0. -1.
    9900012    2    1    2    0    0  0.30523100312E+01 -0.33243155045E+00  0.18472799487E+02  0.72461776992E+02  0.70000269262E+02 0.  0.
         12    1    1    2    0    0 -0.30523100312E+01  0.33243155045E+00 -0.18472799487E+02  0.18726223008E+02  0.00000000000E+00 0. -1.
         11    1    3    3    0    0  0.10201149648E-01  0.29053567535E+02 -0.66249676477E+01  0.29799330314E+02  0.51100000000E-03 0. -1.
        -11    1    3    3    0    0 -0.51637004438E+01 -0.36870979508E+01  0.97274110162E+01  0.11613828779E+02  0.51100000000E-03 0.  1.
        -12    1    3    3    0    0  0.82058093254E+01 -0.25698901135E+02  0.15370356118E+02  0.31048617899E+02  0.00000000000E+00 0.  1.
</event>
<event>
 7    1  0.2797450E-013  0.7246159E+02  0.7816164E-02  0.1226708E+00
        -11   -1    0    0    0    0  0.00000000000E+00  0.00000000000E+00  0.45593999997E+02  0.45594000000E+02  0.51100000000E-03 0.  1.
         11   -1    0    0    0    0 -0.00000000000E+00 -0.00000000000E+00 -0.45593999997E+02  0.45594000000E+02  0.51100000000E-03 0. -1.
    9900012    2    1    2    0    0  0.16284274944E+01  0.24870661133E+01  0.18488948605E+02  0.72461588319E+02  0.70000023480E+02 0.  0.
         12    1    1    2    0    0 -0.16284274944E+01 -0.24870661133E+01 -0.18488948605E+02  0.18726411681E+02  0.00000000000E+00 0. -1.
         11    1    3    3    0    0  0.68549465346E+01  0.15017394493E+02  0.10033186084E+02  0.19317796267E+02  0.51100000000E-03 0. -1.
        -11    1    3    3    0    0  0.22049697578E+01  0.17357526037E+02 -0.68031629183E+01  0.18773082531E+02  0.51100000000E-03 0.  1.
        -12    1    3    3    0    0 -0.74314887981E+01 -0.29887854417E+02  0.15258925439E+02  0.34370709521E+02  0.00000000000E+00 0.  1.
</event>
<event>
 7    1  0.2797450E-013  0.7246148E+02  0.7816164E-02  0.1226708E+00
        -11   -1    0    0    0    0  0.00000000000E+00  0.00000000000E+00  0.45593999997E+02  0.45594000000E+02  0.51100000000E-03 0.  1.
         11   -1    0    0    0    0 -0.00000000000E+00 -0.00000000000E+00 -0.45593999997E+02  0.45594000000E+02  0.51100000000E-03 0. -1.
    9900012    2    1    2    0    0 -0.81303702066E+01 -0.39486260310E+01  0.16400851001E+02  0.72461481883E+02  0.69999884827E+02 0.  0.
         12    1    1    2    0    0  0.81303702066E+01  0.39486260310E+01 -0.16400851001E+02  0.18726518117E+02  0.00000000000E+00 0. -1.
         11    1    3    3    0    0  0.20969371783E+02  0.75277860292E+01  0.11646280316E+02  0.25139967401E+02  0.51100000000E-03 0. -1.
        -11    1    3    3    0    0 -0.95349780098E+01  0.12295764554E+02  0.55596766547E+01  0.16523063771E+02  0.51100000000E-03 0.  1.
         12    1    3    3    0    0 -0.19564763980E+02 -0.23772176614E+02 -0.80510596964E+00  0.30798450711E+02  0.00000000000E+00 0. -1.
</event>
<event>
 7    1  0.2797450E-013  0.7246157E+02  0.7816164E-02  0.1226708E+00
        -11   -1    0    0    0    0  0.00000000000E+00  0.00000000000E+00  0.45593999997E+02  0.45594000000E+02  0.51100000000E-03 0.  1.
         11   -1    0    0    0    0 -0.00000000000E+00 -0.00000000000E+00 -0.45593999997E+02  0.45594000000E+02  0.51100000000E-03 0. -1.
    9900012    2    1    2    0    0 -0.96395734919E+01 -0.75670954306E+01  0.14159697672E+02  0.72461565515E+02  0.69999993774E+02 0.  0.
         12    1    1    2    0    0  0.96395734919E+01  0.75670954306E+01 -0.14159697672E+02  0.18726434485E+02  0.00000000000E+00 0. -1.
         11    1    3    3    0    0  0.11136834711E+02  0.15623107426E+02  0.20264430737E+02  0.27906230960E+02  0.51100000000E-03 0. -1.
        -11    1    3    3    0    0  0.61927888503E+01  0.26189476011E+01 -0.19200056400E+01  0.69925633497E+01  0.51100000000E-03 0.  1.
         12    1    3    3    0    0 -0.26969197053E+02 -0.25809150458E+02 -0.41847274254E+01  0.37562771206E+02  0.00000000000E+00 0. -1.
</event>
<event>
 7    1  0.2797450E-013  0.7246149E+02  0.7816164E-02  0.1226708E+00
        -11   -1    0    0    0    0  0.00000000000E+00  0.00000000000E+00  0.45593999997E+02  0.45594000000E+02  0.51100000000E-03 0.  1.
         11   -1    0    0    0    0 -0.00000000000E+00 -0.00000000000E+00 -0.45593999997E+02  0.45594000000E+02  0.51100000000E-03 0. -1.
    9900012    2    1    2    0    0 -0.15909116418E+02 -0.10294581001E+01 -0.98245795034E+01  0.72461491206E+02  0.69999896973E+02 0.  0.
         12    1    1    2    0    0  0.15909116418E+02  0.10294581001E+01  0.98245795034E+01  0.18726508794E+02  0.00000000000E+00 0. -1.
         11    1    3    3    0    0  0.11158682474E+02 -0.43076933849E+01 -0.13319728698E+01  0.12035222010E+02  0.51100000000E-03 0. -1.
        -11    1    3    3    0    0  0.72926476082E+01 -0.16205222205E+02 -0.10910146432E+02  0.20852415478E+02  0.51100000000E-03 0.  1.
        -12    1    3    3    0    0 -0.34360446500E+02  0.19483457490E+02  0.24175397980E+01  0.39573853718E+02  0.00000000000E+00 0.  1.
</event>
<event>
 7    1  0.2797450E-013  0.7246162E+02  0.7816164E-02  0.1226708E+00
        -11   -1    0    0    0    0  0.00000000000E+00  0.00000000000E+00  0.45593999997E+02  0.45594000000E+02  0.51100000000E-03 0.  1.
         11   -1    0    0    0    0 -0.00000000000E+00 -0.00000000000E+00 -0.45593999997E+02  0.45594000000E+02  0.51100000000E-03 0. -1.
    9900012    2    1    2    0    0  0.17404486114E+02  0.79017367652E+00  0.68656192855E+01  0.72461621827E+02  0.70000067130E+02 0.  0.
         12    1    1    2    0    0 -0.17404486114E+02 -0.79017367652E+00 -0.68656192855E+01  0.18726378173E+02  0.00000000000E+00 0. -1.
         11    1    3    3    0    0  0.30156871507E+02 -0.16461308316E+02  0.16980490701E+02  0.38324256487E+02  0.51100000000E-03 0. -1.
        -11    1    3    3    0    0 -0.67138018732E+01  0.56739090050E+01  0.79468405418E+01  0.11849922103E+02  0.51100000000E-03 0.  1.
        -12    1    3    3    0    0 -0.60385835198E+01  0.11577572987E+02 -0.18061711958E+02  0.22287443237E+02  0.00000000000E+00 0.  1.
</event>
<event>
 7    1  0.2797450E-013  0.7246151E+02  0.7816164E-02  0.1226708E+00
        -11   -1    0    0    0    0  0.00000000000E+00  0.00000000000E+00  0.45593999997E+02  0.45594000000E+02  0.51100000000E-03 0.  1.
         11   -1    0    0    0    0 -0.00000000000E+00 -0.00000000000E+00 -0.45593999997E+02  0.45594000000E+02  0.51100000000E-03 0. -1.
    9900012    2    1    2    0    0 -0.35761474458E+00 -0.16850324960E+02  0.81621090318E+01  0.72461511717E+02  0.69999923692E+02 0.  0.
         12    1    1    2    0    0  0.35761474458E+00  0.16850324960E+02 -0.81621090318E+01  0.18726488283E+02  0.00000000000E+00 0. -1.
         11    1    3    3    0    0  0.82722992524E+01 -0.76551673034E+01  0.19411166067E+02  0.22446066241E+02  0.51100000000E-03 0. -1.
        -11    1    3    3    0    0 -0.16724857478E+02  0.59005735961E+01  0.11797310084E+02  0.21300566938E+02  0.51100000000E-03 0.  1.
         12    1    3    3    0    0  0.80949434806E+01 -0.15095731253E+02 -0.23046367120E+02  0.28714878537E+02  0.00000000000E+00 0. -1.
</event>
<event>
 7    1  0.2797450E-013  0.7246147E+02  0.7816164E-02  0.1226708E+00
        -11   -1    0    0    0    0  0.00000000000E+00  0.00000000000E+00  0.45593999997E+02  0.45594000000E+02  0.51100000000E-03 0.  1.
         11   -1    0    0    0    0 -0.00000000000E+00 -0.00000000000E+00 -0.45593999997E+02  0.45594000000E+02  0.51100000000E-03 0. -1.
    9900012    2    1    2    0    0  0.12918783939E+02  0.33319652968E+01  0.13141005974E+02  0.72461467774E+02  0.69999866448E+02 0.  0.
         12    1    1    2    0    0 -0.12918783939E+02 -0.33319652968E+01 -0.13141005974E+02  0.18726532226E+02  0.00000000000E+00 0. -1.
         11    1    3    3    0    0  0.27813436474E+02 -0.59874356206E+01  0.14740785372E+01  0.28488761672E+02  0.51100000000E-03 0. -1.
        -11    1    3    3    0    0  0.13153671502E+01  0.21595415763E+02  0.28980661721E+01  0.21828672898E+02  0.51100000000E-03 0.  1.
         12    1    3    3    0    0 -0.16210019685E+02 -0.12276014845E+02  0.87688612643E+01  0.22144033204E+02  0.00000000000E+00 0. -1.
</event>
<event>
 7    1  0.2797450E-013  0.7246160E+02  0.7816164E-02  0.1226708E+00
        -11   -1    0    0    0    0  0.00000000000E+00  0.00000000000E+00  0.45593999997E+02  0.45594000000E+02  0.51100000000E-03 0. -1.
         11   -1    0    0    0    0 -0.00000000000E+00 -0.00000000000E+00 -0.45593999997E+02  0.45594000000E+02  0.51100000000E-03 0.  1.
    9900012    2    1    2    0    0  0.15595791361E+02  0.83007749045E+01  0.62085903659E+01  0.72461597074E+02  0.70000034886E+02 0.  0.
         12    1    1    2    0    0 -0.15595791361E+02 -0.83007749045E+01 -0.62085903659E+01  0.18726402926E+02  0.00000000000E+00 0. -1.
         11    1    3    3    0    0 -0.14542142126E+01  0.74701588184E+01 -0.12973637214E+02  0.15041052974E+02  0.51100000000E-03 0. -1.
        -11    1    3    3    0    0 -0.71965477109E+01 -0.62388167284E+01 -0.13247730242E+02  0.16316111361E+02  0.51100000000E-03 0.  1.
         12    1    3    3    0    0  0.24246553285E+02  0.70694328145E+01  0.32429957822E+02  0.41104432739E+02  0.00000000000E+00 0. -1.
</event>
<event>
 7    1  0.2797450E-013  0.7246161E+02  0.7816164E-02  0.1226708E+00
        -11   -1    0    0    0    0  0.00000000000E+00  0.00000000000E+00  0.45593999997E+02  0.45594000000E+02  0.51100000000E-03 0.  1.
         11   -1    0    0    0    0 -0.00000000000E+00 -0.00000000000E+00 -0.45593999997E+02  0.45594000000E+02  0.51100000000E-03 0. -1.
    9900012    2    1    2    0    0  0.12172623116E+02 -0.93587653055E+01  0.10720000773E+02  0.72461610648E+02  0.70000052569E+02 0.  0.
         12    1    1    2    0    0 -0.12172623116E+02  0.93587653055E+01 -0.10720000773E+02  0.18726389352E+02  0.00000000000E+00 0. -1.
         11    1    3    3    0    0  0.87339171781E+01  0.23574820873E+01 -0.99112723740E+01  0.13419103972E+02  0.51100000000E-03 0. -1.
        -11    1    3    3    0    0  0.21613328166E+02 -0.24392366427E+02  0.80830756992E+01  0.33577665305E+02  0.51100000000E-03 0.  1.
        -12    1    3    3    0    0 -0.18174622228E+02  0.12676119034E+02  0.12548197448E+02  0.25464841372E+02  0.00000000000E+00 0.  1.
</event>
<event>
 7    1  0.2797450E-013  0.7246157E+02  0.7816164E-02  0.1226708E+00
        -11   -1    0    0    0    0  0.00000000000E+00  0.00000000000E+00  0.45593999997E+02  0.45594000000E+02  0.51100000000E-03 0.  1.
         11   -1    0    0    0    0 -0.00000000000E+00 -0.00000000000E+00 -0.45593999997E+02  0.45594000000E+02  0.51100000000E-03 0. -1.
    9900012    2    1    2    0    0 -0.79529207696E+01  0.12667087195E+02  0.11268321776E+02  0.72461571552E+02  0.70000001638E+02 0.  0.
         12    1    1    2    0    0  0.79529207696E+01 -0.12667087195E+02 -0.11268321776E+02  0.18726428448E+02  0.00000000000E+00 0. -1.
         11    1    3    3    0    0 -0.21069848864E+02 -0.15004447304E+01 -0.73303622953E+01  0.22358982025E+02  0.51100000000E-03 0. -1.
        -11    1    3    3    0    0 -0.11212649040E+02  0.81904412869E+01 -0.58771196185E+01  0.15078042388E+02  0.51100000000E-03 0.  1.
        -12    1    3    3    0    0  0.24329577135E+02  0.59770906381E+01  0.24475803690E+02  0.35024547140E+02  0.00000000000E+00 0.  1.
</event>
<event>
 7    1  0.2797450E-013  0.7246154E+02  0.7816164E-02  0.1226708E+00
        -11   -1    0    0    0    0  0.00000000000E+00  0.00000000000E+00  0.45593999997E+02  0.45594000000E+02  0.51100000000E-03 0. -1.
         11   -1    0    0    0    0 -0.00000000000E+00 -0.00000000000E+00 -0.45593999997E+02  0.45594000000E+02  0.51100000000E-03 0.  1.
    9900012    2    1    2    0    0  0.18857004777E+01 -0.13373701313E+02 -0.12971835865E+02  0.72461540676E+02  0.69999961417E+02 0.  0.
         12    1    1    2    0    0 -0.18857004777E+01  0.13373701313E+02  0.12971835865E+02  0.18726459324E+02  0.00000000000E+00 0. -1.
         11    1    3    3    0    0 -0.27151795310E+01 -0.38533103061E+01  0.19580689832E+02  0.20140099671E+02  0.51100000000E-03 0. -1.
        -11    1    3    3    0    0  0.11717550701E+01 -0.25035836363E+02 -0.20444635800E+02  0.32344230484E+02  0.51100000000E-03 0.  1.
         12    1    3    3    0    0  0.34291249386E+01  0.15515445357E+02 -0.12107889897E+02  0.19977210521E+02  0.00000000000E+00 0. -1.
</event>
<event>
 7    1  0.2797450E-013  0.7246156E+02  0.7816164E-02  0.1226708E+00
        -11   -1    0    0    0    0  0.00000000000E+00  0.00000000000E+00  0.45593999997E+02  0.45594000000E+02  0.51100000000E-03 0. -1.
         11   -1    0    0    0    0 -0.00000000000E+00 -0.00000000000E+00 -0.45593999997E+02  0.45594000000E+02  0.51100000000E-03 0.  1.
    9900012    2    1    2    0    0  0.16512101661E+02  0.16857578791E+01  0.86711101342E+01  0.72461563290E+02  0.69999990876E+02 0.  0.
         12    1    1    2    0    0 -0.16512101661E+02 -0.16857578791E+01 -0.86711101342E+01  0.18726436710E+02  0.00000000000E+00 0. -1.
         11    1    3    3    0    0  0.10854400746E+02 -0.12029054624E+02  0.15789247779E+02  0.22623362181E+02  0.51100000000E-03 0. -1.
        -11    1    3    3    0    0  0.24345526545E+02 -0.13879409169E+01  0.11917258764E+01  0.24414160923E+02  0.51100000000E-03 0.  1.
        -12    1    3    3    0    0 -0.18687825630E+02  0.15102753420E+02 -0.83098635209E+01  0.25424040186E+02  0.00000000000E+00 0.  1.
</event>
<event>
 7    1  0.2797450E-013  0.7246166E+02  0.7816164E-02  0.1226708E+00
        -11   -1    0    0    0    0  0.00000000000E+00  0.00000000000E+00  0.45593999997E+02  0.45594000000E+02  0.51100000000E-03 0. -1.
         11   -1    0    0    0    0 -0.00000000000E+00 -0.00000000000E+00 -0.45593999997E+02  0.45594000000E+02  0.51100000000E-03 0.  1.
    9900012    2    1    2    0    0 -0.65632670890E+01 -0.11750335561E+02 -0.13020327512E+02  0.72461660550E+02  0.70000117575E+02 0.  0.
         12    1    1    2    0    0  0.65632670890E+01  0.11750335561E+02  0.13020327512E+02  0.18726339450E+02  0.00000000000E+00 0. -1.
         11    1    3    3    0    0  0.20717221654E+02 -0.20839053506E+02 -0.20408486564E+02  0.35776748709E+02  0.51100000000E-03 0. -1.
        -11    1    3    3    0    0 -0.26038035620E+00  0.77582316903E+01 -0.20572041382E+01  0.80305694703E+01  0.51100000000E-03 0.  1.
        -12    1    3    3    0    0 -0.27020108387E+02  0.13304862552E+01  0.94453631906E+01  0.28654342371E+02  0.00000000000E+00 0.  1.
</event>
<event>
 7    1  0.2797450E-013  0.7246160E+02  0.7816164E-02  0.1226708E+00
        -11   -1    0    0    0    0  0.00000000000E+00  0.00000000000E+00  0.45593999997E+02  0.45594000000E+02  0.51100000000E-03 0.  1.
         11   -1    0    0    0    0 -0.00000000000E+00 -0.00000000000E+00 -0.45593999997E+02  0.45594000000E+02  0.51100000000E-03 0. -1.
    9900012    2    1    2    0    0 -0.54563566191E+01 -0.10819943297E+02  0.14277086525E+02  0.72461596177E+02  0.70000033716E+02 0.  0.
         12    1    1    2    0    0  0.54563566191E+01  0.10819943297E+02 -0.14277086525E+02  0.18726403823E+02  0.00000000000E+00 0. -1.
         11    1    3    3    0    0  0.24320451704E+02 -0.11953807231E+02 -0.77000640330E+01  0.28172129220E+02  0.51100000000E-03 0. -1.
        -11    1    3    3    0    0  0.34539405403E+01  0.28317146146E+01  0.57172811894E+01  0.72550408252E+01  0.51100000000E-03 0.  1.
        -12    1    3    3    0    0 -0.33230748864E+02 -0.16978506809E+01  0.16259869369E+02  0.37034426131E+02  0.00000000000E+00 0.  1.
</event>
<event>
 7    1  0.2797450E-013  0.7246150E+02  0.7816164E-02  0.1226708E+00
        -11   -1    0    0    0    0  0.00000000000E+00  0.00000000000E+00  0.45593999997E+02  0.45594000000E+02  0.51100000000E-03 0.  1.
         11   -1    0    0    0    0 -0.00000000000E+00 -0.00000000000E+00 -0.45593999997E+02  0.45594000000E+02  0.51100000000E-03 0. -1.
    9900012    2    1    2    0    0 -0.46215979820E+01 -0.59754228272E+01  0.17135250595E+02  0.72461503829E+02  0.69999913417E+02 0.  0.
         12    1    1    2    0    0  0.46215979820E+01  0.59754228272E+01 -0.17135250595E+02  0.18726496171E+02  0.00000000000E+00 0. -1.
         11    1    3    3    0    0  0.20200094721E+02  0.62779069620E+01  0.13335330428E+02  0.25005738950E+02  0.51100000000E-03 0. -1.
        -11    1    3    3    0    0 -0.75188436154E+01 -0.25269922261E+01  0.20204025517E+02  0.21705329907E+02  0.51100000000E-03 0.  1.
        -12    1    3    3    0    0 -0.17302849087E+02 -0.97263375631E+01 -0.16404105350E+02  0.25750434972E+02  0.00000000000E+00 0.  1.
</event>
<event>
 7    1  0.2797450E-013  0.7246150E+02  0.7816164E-02  0.1226708E+00
        -11   -1    0    0    0    0  0.00000000000E+00  0.00000000000E+00  0.45593999997E+02  0.45594000000E+02  0.51100000000E-03 0.  1.
         11   -1    0    0    0    0 -0.00000000000E+00 -0.00000000000E+00 -0.45593999997E+02  0.45594000000E+02  0.51100000000E-03 0. -1.
    9900012    2    1    2    0    0 -0.32387669470E+01 -0.18194926580E+02  0.30227481924E+01  0.72461495488E+02  0.69999902551E+02 0.  0.
         12    1    1    2    0    0  0.32387669470E+01  0.18194926580E+02 -0.30227481924E+01  0.18726504512E+02  0.00000000000E+00 0. -1.
         11    1    3    3    0    0 -0.40508201352E+01  0.41886541187E+01  0.38251105021E+01  0.69703255095E+01  0.51100000000E-03 0. -1.
        -11    1    3    3    0    0  0.55008139134E+01 -0.21263320245E+02 -0.29283576740E+02  0.36604857718E+02  0.51100000000E-03 0.  1.
         12    1    3    3    0    0 -0.46887607251E+01 -0.11202604536E+01  0.28481214431E+02  0.28886312261E+02  0.00000000000E+00 0. -1.
</event>
<event>
 7    1  0.2797450E-013  0.7246161E+02  0.7816164E-02  0.1226708E+00
        -11   -1    0    0    0    0  0.00000000000E+00  0.00000000000E+00  0.45593999997E+02  0.45594000000E+02  0.51100000000E-03 0.  1.
         11   -1    0    0    0    0 -0.00000000000E+00 -0.00000000000E+00 -0.45593999997E+02  0.45594000000E+02  0.51100000000E-03 0. -1.
    9900012    2    1    2    0    0 -0.95603094578E+01  0.15916599213E+02 -0.24372050958E+01  0.72461611771E+02  0.70000054031E+02 0.  0.
         12    1    1    2    0    0  0.95603094578E+01 -0.15916599213E+02  0.24372050958E+01  0.18726388229E+02  0.00000000000E+00 0. -1.
         11    1    3    3    0    0 -0.43989428420E+01 -0.15695995377E+02 -0.41914994875E+01  0.16831031972E+02  0.51100000000E-03 0. -1.
        -11    1    3    3    0    0 -0.14113541066E+02  0.10046572739E+02 -0.18045836150E+02  0.25015552519E+02  0.51100000000E-03 0.  1.
        -12    1    3    3    0    0  0.89521744506E+01  0.21566021851E+02  0.19800130542E+02  0.30615027280E+02  0.00000000000E+00 0.  1.
</event>
<event>
 7    1  0.2797450E-013  0.7246157E+02  0.7816164E-02  0.1226708E+00
        -11   -1    0    0    0    0  0.00000000000E+00  0.00000000000E+00  0.45593999997E+02  0.45594000000E+02  0.51100000000E-03 0. -1.
         11   -1    0    0    0    0 -0.00000000000E+00 -0.00000000000E+00 -0.45593999997E+02  0.45594000000E+02  0.51100000000E-03 0.  1.
    9900012    2    1    2    0    0  0.12495702201E+01  0.99807003881E+01 -0.15795676059E+02  0.72461569797E+02  0.69999999352E+02 0.  0.
         12    1    1    2    0    0 -0.12495702201E+01 -0.99807003881E+01  0.15795676059E+02  0.18726430203E+02  0.00000000000E+00 0. -1.
         11    1    3    3    0    0  0.16718610592E+02  0.22393068363E+02 -0.12724057885E+02  0.30706075949E+02  0.51100000000E-03 0.  1.
        -11    1    3    3    0    0 -0.17346723477E+01 -0.10489868651E+02 -0.18296309342E+02  0.21161317734E+02  0.51100000000E-03 0. -1.
        -12    1    3    3    0    0 -0.13734368025E+02 -0.19224993241E+01  0.15224691167E+02  0.20594176114E+02  0.00000000000E+00 0.  1.
</event>
<event>
 7    1  0.2797450E-013  0.7246153E+02  0.7816164E-02  0.1226708E+00
        -11   -1    0    0    0    0  0.00000000000E+00  0.00000000000E+00  0.45593999997E+02  0.45594000000E+02  0.51100000000E-03 0.  1.
         11   -1    0    0    0    0 -0.00000000000E+00 -0.00000000000E+00 -0.45593999997E+02  0.45594000000E+02  0.51100000000E-03 0. -1.
    9900012    2    1    2    0    0  0.32064458264E+01  0.13156977128E+02  0.12934187501E+02  0.72461533481E+02  0.69999952043E+02 0.  0.
         12    1    1    2    0    0 -0.32064458264E+01 -0.13156977128E+02 -0.12934187501E+02  0.18726466519E+02  0.00000000000E+00 0. -1.
         11    1    3    3    0    0  0.23376867926E+01 -0.23466491012E+02  0.13406853881E+02  0.27127195048E+02  0.51100000000E-03 0. -1.
        -11    1    3    3    0    0  0.52191207074E+01 -0.13336856723E+01  0.42181107083E+01  0.68418123797E+01  0.51100000000E-03 0.  1.
         12    1    3    3    0    0 -0.43503616736E+01  0.37957153812E+02 -0.46907770875E+01  0.38492526053E+02  0.00000000000E+00 0. -1.
</event>
<event>
 7    1  0.2797450E-013  0.7246149E+02  0.7816164E-02  0.1226708E+00
        -11   -1    0    0    0    0  0.00000000000E+00  0.00000000000E+00  0.45593999997E+02  0.45594000000E+02  0.51100000000E-03 0.  1.
         11   -1    0    0    0    0 -0.00000000000E+00 -0.00000000000E+00 -0.45593999997E+02  0.45594000000E+02  0.51100000000E-03 0. -1.
    9900012    2    1    2    0    0 -0.79188434358E+01  0.16746442977E+02  0.27442036435E+01  0.72461492387E+02  0.69999898512E+02 0.  0.
         12    1    1    2    0    0  0.79188434358E+01 -0.16746442977E+02 -0.27442036435E+01  0.18726507613E+02  0.00000000000E+00 0. -1.
         11    1    3    3    0    0 -0.11149065758E+01 -0.15246270355E+02  0.68738448936E+01  0.16761310220E+02  0.51100000000E-03 0.  1.
        -11    1    3    3    0    0 -0.25468835778E+02  0.19329132689E+02  0.28232779873E+01  0.32097474437E+02  0.51100000000E-03 0. -1.
         12    1    3    3    0    0  0.18664898918E+02  0.12663580642E+02 -0.69529192374E+01  0.23602707730E+02  0.00000000000E+00 0. -1.
</event>
<event>
 7    1  0.2797450E-013  0.7246156E+02  0.7816164E-02  0.1226708E+00
        -11   -1    0    0    0    0  0.00000000000E+00  0.00000000000E+00  0.45593999997E+02  0.45594000000E+02  0.51100000000E-03 0.  1.
         11   -1    0    0    0    0 -0.00000000000E+00 -0.00000000000E+00 -0.45593999997E+02  0.45594000000E+02  0.51100000000E-03 0. -1.
    9900012    2    1    2    0    0  0.75346718745E+01  0.10363713013E+02 -0.13656564856E+02  0.72461559032E+02  0.69999985328E+02 0.  0.
         12    1    1    2    0    0 -0.75346718745E+01 -0.10363713013E+02  0.13656564856E+02  0.18726440968E+02  0.00000000000E+00 0. -1.
         11    1    3    3    0    0 -0.13937502029E+02  0.47632419965E+01 -0.24904967211E+02  0.28934405630E+02  0.51100000000E-03 0. -1.
        -11    1    3    3    0    0 -0.70759767925E+01 -0.77812464206E+01  0.30118188028E+01  0.10940214632E+02  0.51100000000E-03 0.  1.
        -12    1    3    3    0    0  0.28548150696E+02  0.13381717438E+02  0.82365835521E+01  0.32586938770E+02  0.00000000000E+00 0.  1.
</event>
<event>
 7    1  0.2797450E-013  0.7246153E+02  0.7816164E-02  0.1226708E+00
        -11   -1    0    0    0    0  0.00000000000E+00  0.00000000000E+00  0.45593999997E+02  0.45594000000E+02  0.51100000000E-03 0.  1.
         11   -1    0    0    0    0 -0.00000000000E+00 -0.00000000000E+00 -0.45593999997E+02  0.45594000000E+02  0.51100000000E-03 0. -1.
    9900012    2    1    2    0    0 -0.62834804884E+01 -0.29145375996E+01  0.17398387975E+02  0.72461533153E+02  0.69999951616E+02 0.  0.
         12    1    1    2    0    0  0.62834804884E+01  0.29145375996E+01 -0.17398387975E+02  0.18726466847E+02  0.00000000000E+00 0. -1.
         11    1    3    3    0    0  0.68595018540E+01  0.18492453764E+02  0.38239152228E+00  0.19727387953E+02  0.51100000000E-03 0. -1.
        -11    1    3    3    0    0 -0.10590829367E+02  0.26222144209E+00  0.26802954576E+02  0.28820700911E+02  0.51100000000E-03 0.  1.
         12    1    3    3    0    0 -0.25521529749E+01 -0.21669212806E+02 -0.97869581231E+01  0.23913444288E+02  0.00000000000E+00 0. -1.
</event>
<event>
 7    1  0.2797450E-013  0.7246157E+02  0.7816164E-02  0.1226708E+00
        -11   -1    0    0    0    0  0.00000000000E+00  0.00000000000E+00  0.45593999997E+02  0.45594000000E+02  0.51100000000E-03 0. -1.
         11   -1    0    0    0    0 -0.00000000000E+00 -0.00000000000E+00 -0.45593999997E+02  0.45594000000E+02  0.51100000000E-03 0.  1.
    9900012    2    1    2    0    0  0.59988989349E+01  0.17019763599E+02 -0.50019892641E+01  0.72461573806E+02  0.70000004575E+02 0.  0.
         12    1    1    2    0    0 -0.59988989349E+01 -0.17019763599E+02  0.50019892641E+01  0.18726426194E+02  0.00000000000E+00 0. -1.
         11    1    3    3    0    0  0.11852312616E+02 -0.82054186992E+01  0.22533097957E+02  0.26749704936E+02  0.51100000000E-03 0. -1.
        -11    1    3    3    0    0  0.74333206262E+00  0.43689107810E+01 -0.22934367180E+02  0.23358619869E+02  0.51100000000E-03 0.  1.
        -12    1    3    3    0    0 -0.65967457437E+01  0.20856271517E+02 -0.46007200415E+01  0.22353249001E+02  0.00000000000E+00 0.  1.
</event>
<event>
 7    1  0.2797450E-013  0.7246165E+02  0.7816164E-02  0.1226708E+00
        -11   -1    0    0    0    0  0.00000000000E+00  0.00000000000E+00  0.45593999997E+02  0.45594000000E+02  0.51100000000E-03 0. -1.
         11   -1    0    0    0    0 -0.00000000000E+00 -0.00000000000E+00 -0.45593999997E+02  0.45594000000E+02  0.51100000000E-03 0.  1.
    9900012    2    1    2    0    0  0.58661646449E+01 -0.17695614463E+02 -0.17690651014E+01  0.72461648241E+02  0.70000101540E+02 0.  0.
         12    1    1    2    0    0 -0.58661646449E+01  0.17695614463E+02  0.17690651014E+01  0.18726351759E+02  0.00000000000E+00 0. -1.
         11    1    3    3    0    0  0.14072951960E+01  0.58773474341E+01  0.14102401030E+02  0.15342796606E+02  0.51100000000E-03 0. -1.
        -11    1    3    3    0    0 -0.59987787935E+01  0.13674390344E+02 -0.10041189220E+02  0.17994437460E+02  0.51100000000E-03 0.  1.
        -12    1    3    3    0    0  0.10457648242E+02 -0.37247352241E+02 -0.58302769108E+01  0.39124414175E+02  0.00000000000E+00 0.  1.
</event>
<event>
 7    1  0.2797450E-013  0.7246142E+02  0.7816164E-02  0.1226708E+00
        -11   -1    0    0    0    0  0.00000000000E+00  0.00000000000E+00  0.45593999997E+02  0.45594000000E+02  0.51100000000E-03 0. -1.
         11   -1    0    0    0    0 -0.00000000000E+00 -0.00000000000E+00 -0.45593999997E+02  0.45594000000E+02  0.51100000000E-03 0.  1.
    9900012    2    1    2    0    0  0.11413430733E+02  0.14827456812E+02  0.75163139699E+00  0.72461419256E+02  0.69999803245E+02 0.  0.
         12    1    1    2    0    0 -0.11413430733E+02 -0.14827456812E+02 -0.75163139699E+00  0.18726580744E+02  0.00000000000E+00 0. -1.
         11    1    3    3    0    0 -0.55803198663E+01  0.24870167890E+02  0.48031817930E+01  0.25937150504E+02  0.51100000000E-03 0. -1.
        -11    1    3    3    0    0 -0.47473737523E+01  0.97704516678E+01  0.92255708228E+01  0.14251682027E+02  0.51100000000E-03 0.  1.
        -12    1    3    3    0    0  0.21741124351E+02 -0.19813162746E+02 -0.13277121219E+02  0.32272586725E+02  0.00000000000E+00 0.  1.
</event>
<event>
 7    1  0.2797450E-013  0.7246157E+02  0.7816164E-02  0.1226708E+00
        -11   -1    0    0    0    0  0.00000000000E+00  0.00000000000E+00  0.45593999997E+02  0.45594000000E+02  0.51100000000E-03 0. -1.
         11   -1    0    0    0    0 -0.00000000000E+00 -0.00000000000E+00 -0.45593999997E+02  0.45594000000E+02  0.51100000000E-03 0.  1.
    9900012    2    1    2    0    0 -0.16972018371E+01  0.27329804028E+01 -0.18448022131E+02  0.72461569574E+02  0.69999999062E+02 0.  0.
         12    1    1    2    0    0  0.16972018371E+01 -0.27329804028E+01  0.18448022131E+02  0.18726430426E+02  0.00000000000E+00 0. -1.
         11    1    3    3    0    0 -0.87663764274E+01  0.20396521067E+02  0.64435733128E+01  0.23116813461E+02  0.51100000000E-03 0. -1.
        -11    1    3    3    0    0  0.12670704878E+02  0.88461233968E+01 -0.78084825343E+01  0.17313955672E+02  0.51100000000E-03 0.  1.
        -12    1    3    3    0    0 -0.56015302881E+01 -0.26509664061E+02 -0.17083112909E+02  0.32030800441E+02  0.00000000000E+00 0.  1.
</event>
<event>
 7    1  0.2797450E-013  0.7246152E+02  0.7816164E-02  0.1226708E+00
        -11   -1    0    0    0    0  0.00000000000E+00  0.00000000000E+00  0.45593999997E+02  0.45594000000E+02  0.51100000000E-03 0. -1.
         11   -1    0    0    0    0 -0.00000000000E+00 -0.00000000000E+00 -0.45593999997E+02  0.45594000000E+02  0.51100000000E-03 0.  1.
    9900012    2    1    2    0    0 -0.17943221013E+02  0.42449787553E+01  0.32713701882E+01  0.72461524414E+02  0.69999940233E+02 0.  0.
         12    1    1    2    0    0  0.17943221013E+02 -0.42449787553E+01 -0.32713701882E+01  0.18726475586E+02  0.00000000000E+00 0. -1.
         11    1    3    3    0    0 -0.60285632216E+01  0.19904046919E+02  0.11293248582E+02  0.23665420386E+02  0.51100000000E-03 0. -1.
        -11    1    3    3    0    0  0.14942311522E+01  0.55467016489E+01 -0.20132951778E+02  0.20936436504E+02  0.51100000000E-03 0.  1.
        -12    1    3    3    0    0 -0.13408888944E+02 -0.21205769812E+02  0.12111073385E+02  0.27859667524E+02  0.00000000000E+00 0.  1.
</event>
<event>
 7    1  0.2797450E-013  0.7246157E+02  0.7816164E-02  0.1226708E+00
        -11   -1    0    0    0    0  0.00000000000E+00  0.00000000000E+00  0.45593999997E+02  0.45594000000E+02  0.51100000000E-03 0.  1.
         11   -1    0    0    0    0 -0.00000000000E+00 -0.00000000000E+00 -0.45593999997E+02  0.45594000000E+02  0.51100000000E-03 0. -1.
    9900012    2    1    2    0    0  0.15331530340E+02  0.97349050387E+01 -0.45667184631E+01  0.72461571718E+02  0.70000001855E+02 0.  0.
         12    1    1    2    0    0 -0.15331530340E+02 -0.97349050387E+01  0.45667184631E+01  0.18726428282E+02  0.00000000000E+00 0. -1.
         11    1    3    3    0    0  0.18651461384E+02 -0.52019493609E+01 -0.19253488802E+02  0.27306301841E+02  0.51100000000E-03 0. -1.
        -11    1    3    3    0    0  0.13949975060E+02 -0.37995519976E+01 -0.21452562352E+01  0.14616447042E+02  0.51100000000E-03 0.  1.
        -12    1    3    3    0    0 -0.17269906104E+02  0.18736406397E+02  0.16832026574E+02  0.30538822835E+02  0.00000000000E+00 0.  1.
</event>
<event>
 7    1  0.2797450E-013  0.7246159E+02  0.7816164E-02  0.1226708E+00
        -11   -1    0    0    0    0  0.00000000000E+00  0.00000000000E+00  0.45593999997E+02  0.45594000000E+02  0.51100000000E-03 0.  1.
         11   -1    0    0    0    0 -0.00000000000E+00 -0.00000000000E+00 -0.45593999997E+02  0.45594000000E+02  0.51100000000E-03 0. -1.
    9900012    2    1    2    0    0 -0.10165068541E+02  0.13545804432E+02  0.79913187356E+01  0.72461585199E+02  0.70000019417E+02 0.  0.
         12    1    1    2    0    0  0.10165068541E+02 -0.13545804432E+02 -0.79913187356E+01  0.18726414801E+02  0.00000000000E+00 0. -1.
         11    1    3    3    0    0  0.64095218353E+01 -0.10032875296E+02 -0.71599694842E+01  0.13892649860E+02  0.51100000000E-03 0. -1.
        -11    1    3    3    0    0 -0.11457862811E+02  0.23047203061E+02 -0.13772389875E+02  0.29191349956E+02  0.51100000000E-03 0.  1.
         12    1    3    3    0    0 -0.51167275656E+01  0.53147666617E+00  0.28923678095E+02  0.29377585383E+02  0.00000000000E+00 0. -1.
</event>
<event>
 7    1  0.2797450E-013  0.7246150E+02  0.7816164E-02  0.1226708E+00
        -11   -1    0    0    0    0  0.00000000000E+00  0.00000000000E+00  0.45593999997E+02  0.45594000000E+02  0.51100000000E-03 0.  1.
         11   -1    0    0    0    0 -0.00000000000E+00 -0.00000000000E+00 -0.45593999997E+02  0.45594000000E+02  0.51100000000E-03 0. -1.
    9900012    2    1    2    0    0  0.11779983164E-01 -0.17400669572E+02  0.69208601946E+01  0.72461501497E+02  0.69999910379E+02 0.  0.
         12    1    1    2    0    0 -0.11779983164E-01  0.17400669572E+02 -0.69208601946E+01  0.18726498503E+02  0.00000000000E+00 0. -1.
         11    1    3    3    0    0  0.23130186741E+02 -0.47023850055E+01 -0.95980806381E+01  0.25480210275E+02  0.51100000000E-03 0. -1.
        -11    1    3    3    0    0  0.30184110065E+01  0.13174925956E+01 -0.79034403087E+01  0.85621820068E+01  0.51100000000E-03 0.  1.
        -12    1    3    3    0    0 -0.26136817765E+02 -0.14015777162E+02  0.24422381141E+02  0.38419109216E+02  0.00000000000E+00 0.  1.
</event>
<event>
 7    1  0.2797450E-013  0.7246158E+02  0.7816164E-02  0.1226708E+00
        -11   -1    0    0    0    0  0.00000000000E+00  0.00000000000E+00  0.45593999997E+02  0.45594000000E+02  0.51100000000E-03 0.  1.
         11   -1    0    0    0    0 -0.00000000000E+00 -0.00000000000E+00 -0.45593999997E+02  0.45594000000E+02  0.51100000000E-03 0. -1.
    9900012    2    1    2    0    0  0.18389079192E+02 -0.17171361094E+01  0.30938691545E+01  0.72461579725E+02  0.70000012286E+02 0.  0.
         12    1    1    2    0    0 -0.18389079192E+02  0.17171361094E+01 -0.30938691545E+01  0.18726420275E+02  0.00000000000E+00 0. -1.
         11    1    3    3    0    0  0.12000610729E+01 -0.66837670197E+01  0.89642333892E+01  0.11245904529E+02  0.51100000000E-03 0. -1.
        -11    1    3    3    0    0  0.27630498754E+02  0.29031136540E+01  0.19339582174E+02  0.33851026118E+02  0.51100000000E-03 0.  1.
         12    1    3    3    0    0 -0.10441480635E+02  0.20635172562E+01 -0.25209946408E+02  0.27364649079E+02  0.00000000000E+00 0. -1.
</event>
<event>
 7    1  0.2797450E-013  0.7246159E+02  0.7816164E-02  0.1226708E+00
        -11   -1    0    0    0    0  0.00000000000E+00  0.00000000000E+00  0.45593999997E+02  0.45594000000E+02  0.51100000000E-03 0.  1.
         11   -1    0    0    0    0 -0.00000000000E+00 -0.00000000000E+00 -0.45593999997E+02  0.45594000000E+02  0.51100000000E-03 0. -1.
    9900012    2    1    2    0    0 -0.73809857620E+01  0.17128367507E+02 -0.16788245643E+01  0.72461591477E+02  0.70000027594E+02 0.  0.
         12    1    1    2    0    0  0.73809857620E+01 -0.17128367507E+02  0.16788245643E+01  0.18726408523E+02  0.00000000000E+00 0. -1.
         11    1    3    3    0    0 -0.12898091089E+02 -0.86253437117E+01 -0.70643982312E+01  0.17048842498E+02  0.51100000000E-03 0. -1.
        -11    1    3    3    0    0 -0.20549456612E+02  0.11348329853E+02  0.95457124327E+01  0.25341376908E+02  0.51100000000E-03 0.  1.
        -12    1    3    3    0    0  0.26066561939E+02  0.14405381366E+02 -0.41601387657E+01  0.30071372070E+02  0.00000000000E+00 0.  1.
</event>
<event>
 7    1  0.2797450E-013  0.7246158E+02  0.7816164E-02  0.1226708E+00
        -11   -1    0    0    0    0  0.00000000000E+00  0.00000000000E+00  0.45593999997E+02  0.45594000000E+02  0.51100000000E-03 0.  1.
         11   -1    0    0    0    0 -0.00000000000E+00 -0.00000000000E+00 -0.45593999997E+02  0.45594000000E+02  0.51100000000E-03 0. -1.
    9900012    2    1    2    0    0  0.32229397836E+01 -0.13092034936E+02  0.12995769534E+02  0.72461581618E+02  0.70000014751E+02 0.  0.
         12    1    1    2    0    0 -0.32229397836E+01  0.13092034936E+02 -0.12995769534E+02  0.18726418382E+02  0.00000000000E+00 0. -1.
         11    1    3    3    0    0 -0.85964914808E+00  0.61924525048E+01  0.38539170146E+02  0.39042964801E+02  0.51100000000E-03 0. -1.
        -11    1    3    3    0    0 -0.16019893789E+01 -0.54800517431E+01 -0.11880712913E+02  0.13181376129E+02  0.51100000000E-03 0.  1.
        -12    1    3    3    0    0  0.56845783105E+01 -0.13804435698E+02 -0.13662687698E+02  0.20237240687E+02  0.00000000000E+00 0.  1.
</event>
<event>
 7    1  0.2797450E-013  0.7246151E+02  0.7816164E-02  0.1226708E+00
        -11   -1    0    0    0    0  0.00000000000E+00  0.00000000000E+00  0.45593999997E+02  0.45594000000E+02  0.51100000000E-03 0. -1.
         11   -1    0    0    0    0 -0.00000000000E+00 -0.00000000000E+00 -0.45593999997E+02  0.45594000000E+02  0.51100000000E-03 0.  1.
    9900012    2    1    2    0    0  0.24660193644E+01 -0.16610012764E+02  0.82889975496E+01  0.72461514588E+02  0.69999927432E+02 0.  0.
         12    1    1    2    0    0 -0.24660193644E+01  0.16610012764E+02 -0.82889975496E+01  0.18726485412E+02  0.00000000000E+00 0. -1.
         11    1    3    3    0    0  0.79274602910E+01 -0.87153046499E+01  0.63384954114E+01  0.13378254226E+02  0.51100000000E-03 0. -1.
        -11    1    3    3    0    0  0.11335189504E+02 -0.26636022117E+02 -0.10767774518E+02  0.30885419921E+02  0.51100000000E-03 0.  1.
         12    1    3    3    0    0 -0.16796630431E+02  0.18741314004E+02  0.12718276657E+02  0.28197840441E+02  0.00000000000E+00 0. -1.
</event>
<event>
 7    1  0.2797450E-013  0.7246120E+02  0.7816164E-02  0.1226709E+00
        -11   -1    0    0    0    0  0.00000000000E+00  0.00000000000E+00  0.45593999997E+02  0.45594000000E+02  0.51100000000E-03 0.  1.
         11   -1    0    0    0    0 -0.00000000000E+00 -0.00000000000E+00 -0.45593999997E+02  0.45594000000E+02  0.51100000000E-03 0. -1.
    9900012    2    1    2    0    0  0.91089406685E+01  0.74383919407E+01  0.14573620185E+02  0.72461204223E+02  0.69999523122E+02 0.  0.
         12    1    1    2    0    0 -0.91089406685E+01 -0.74383919407E+01 -0.14573620185E+02  0.18726795777E+02  0.00000000000E+00 0. -1.
         11    1    3    3    0    0 -0.21458973374E+02 -0.25892909377E+01  0.10345512191E+02  0.23962921119E+02  0.51100000000E-03 0. -1.
        -11    1    3    3    0    0  0.48350658509E+01  0.11767069477E+02  0.15753392405E+02  0.20248732266E+02  0.51100000000E-03 0.  1.
         12    1    3    3    0    0  0.25732848191E+02 -0.17393865983E+01 -0.11525284410E+02  0.28249550838E+02  0.00000000000E+00 0. -1.
</event>
<event>
 7    1  0.2797450E-013  0.7246157E+02  0.7816164E-02  0.1226708E+00
        -11   -1    0    0    0    0  0.00000000000E+00  0.00000000000E+00  0.45593999997E+02  0.45594000000E+02  0.51100000000E-03 0.  1.
         11   -1    0    0    0    0 -0.00000000000E+00 -0.00000000000E+00 -0.45593999997E+02  0.45594000000E+02  0.51100000000E-03 0. -1.
    9900012    2    1    2    0    0  0.12889991027E+02 -0.23344671752E+01  0.13381989288E+02  0.72461568333E+02  0.69999997445E+02 0.  0.
         12    1    1    2    0    0 -0.12889991027E+02  0.23344671752E+01 -0.13381989288E+02  0.18726431667E+02  0.00000000000E+00 0. -1.
         11    1    3    3    0    0  0.77872898819E+01  0.13392401507E+02  0.47056411367E+01  0.16190780111E+02  0.51100000000E-03 0. -1.
        -11    1    3    3    0    0 -0.66828361301E+01 -0.57028301481E+01  0.29243066821E+02  0.30534235340E+02  0.51100000000E-03 0.  1.
         12    1    3    3    0    0  0.11785537276E+02 -0.10024038534E+02 -0.20566718670E+02  0.25736552882E+02  0.00000000000E+00 0. -1.
</event>
<event>
 7    1  0.2797450E-013  0.7246157E+02  0.7816164E-02  0.1226708E+00
        -11   -1    0    0    0    0  0.00000000000E+00  0.00000000000E+00  0.45593999997E+02  0.45594000000E+02  0.51100000000E-03 0. -1.
         11   -1    0    0    0    0 -0.00000000000E+00 -0.00000000000E+00 -0.45593999997E+02  0.45594000000E+02  0.51100000000E-03 0.  1.
    9900012    2    1    2    0    0 -0.75748845995E+01  0.17071401166E+02  0.13665729808E+01  0.72461571184E+02  0.70000001160E+02 0.  0.
         12    1    1    2    0    0  0.75748845995E+01 -0.17071401166E+02 -0.13665729808E+01  0.18726428816E+02  0.00000000000E+00 0. -1.
         11    1    3    3    0    0 -0.61402029865E+01  0.10042179583E+02 -0.18871477758E+02  0.22241405903E+02  0.51100000000E-03 0. -1.
        -11    1    3    3    0    0 -0.82207508748E+01  0.24650698871E+02  0.17024732725E+02  0.31065724269E+02  0.51100000000E-03 0.  1.
         12    1    3    3    0    0  0.67860692619E+01 -0.17621477288E+02  0.32133180138E+01  0.19154441012E+02  0.00000000000E+00 0. -1.
</event>
<event>
 7    1  0.2797450E-013  0.7246153E+02  0.7816164E-02  0.1226708E+00
        -11   -1    0    0    0    0  0.00000000000E+00  0.00000000000E+00  0.45593999997E+02  0.45594000000E+02  0.51100000000E-03 0. -1.
         11   -1    0    0    0    0 -0.00000000000E+00 -0.00000000000E+00 -0.45593999997E+02  0.45594000000E+02  0.51100000000E-03 0.  1.
    9900012    2    1    2    0    0 -0.49149991040E+01 -0.93579365579E+01 -0.15458087675E+02  0.72461530301E+02  0.69999947902E+02 0.  0.
         12    1    1    2    0    0  0.49149991040E+01  0.93579365579E+01  0.15458087675E+02  0.18726469699E+02  0.00000000000E+00 0. -1.
         11    1    3    3    0    0  0.53797136835E+01  0.15214472355E+01 -0.59553038680E+01  0.81683392087E+01  0.51100000000E-03 0. -1.
        -11    1    3    3    0    0  0.23449243813E+00 -0.10132260989E+02 -0.35137660622E+02  0.36570109293E+02  0.51100000000E-03 0.  1.
         12    1    3    3    0    0 -0.10529205226E+02 -0.74712280472E+00  0.25634876815E+02  0.27723081800E+02  0.00000000000E+00 0. -1.
</event>
<event>
 7    1  0.2797450E-013  0.7246157E+02  0.7816164E-02  0.1226708E+00
        -11   -1    0    0    0    0  0.00000000000E+00  0.00000000000E+00  0.45593999997E+02  0.45594000000E+02  0.51100000000E-03 0. -1.
         11   -1    0    0    0    0 -0.00000000000E+00 -0.00000000000E+00 -0.45593999997E+02  0.45594000000E+02  0.51100000000E-03 0.  1.
    9900012    2    1    2    0    0  0.14157916329E+02  0.93437635160E+01 -0.79326413489E+01  0.72461566538E+02  0.69999995107E+02 0.  0.
         12    1    1    2    0    0 -0.14157916329E+02 -0.93437635160E+01  0.79326413489E+01  0.18726433462E+02  0.00000000000E+00 0. -1.
         11    1    3    3    0    0 -0.18032312443E+02  0.29447200640E+01 -0.51007265058E+01  0.18969793869E+02  0.51100000000E-03 0. -1.
        -11    1    3    3    0    0 -0.15849515230E+00  0.17464646395E+02  0.54837269573E+01  0.18306016935E+02  0.51100000000E-03 0.  1.
        -12    1    3    3    0    0  0.32348723924E+02 -0.11065602943E+02 -0.83156418004E+01  0.35185755734E+02  0.00000000000E+00 0.  1.
</event>
<event>
 7    1  0.2797450E-013  0.7246155E+02  0.7816164E-02  0.1226708E+00
        -11   -1    0    0    0    0  0.00000000000E+00  0.00000000000E+00  0.45593999997E+02  0.45594000000E+02  0.51100000000E-03 0.  1.
         11   -1    0    0    0    0 -0.00000000000E+00 -0.00000000000E+00 -0.45593999997E+02  0.45594000000E+02  0.51100000000E-03 0. -1.
    9900012    2    1    2    0    0  0.14015023863E+02  0.55972152633E+01  0.11087389732E+02  0.72461550159E+02  0.69999973770E+02 0.  0.
         12    1    1    2    0    0 -0.14015023863E+02 -0.55972152633E+01 -0.11087389732E+02  0.18726449841E+02  0.00000000000E+00 0. -1.
         11    1    3    3    0    0 -0.61015549052E+01  0.24779580194E+02  0.12654721958E+02  0.28485058451E+02  0.51100000000E-03 0. -1.
        -11    1    3    3    0    0  0.27414421406E+02 -0.10955483277E+02  0.66330419691E+01  0.30258393231E+02  0.51100000000E-03 0.  1.
         12    1    3    3    0    0 -0.72978426384E+01 -0.82268816531E+01 -0.82003741952E+01  0.13718098478E+02  0.00000000000E+00 0. -1.
</event>
<event>
 7    1  0.2797450E-013  0.7246164E+02  0.7816164E-02  0.1226708E+00
        -11   -1    0    0    0    0  0.00000000000E+00  0.00000000000E+00  0.45593999997E+02  0.45594000000E+02  0.51100000000E-03 0.  1.
         11   -1    0    0    0    0 -0.00000000000E+00 -0.00000000000E+00 -0.45593999997E+02  0.45594000000E+02  0.51100000000E-03 0. -1.
    9900012    2    1    2    0    0 -0.15568911529E+02  0.15289841428E+01  0.10293085923E+02  0.72461643800E+02  0.70000095754E+02 0.  0.
         12    1    1    2    0    0  0.15568911529E+02 -0.15289841428E+01 -0.10293085923E+02  0.18726356200E+02  0.00000000000E+00 0. -1.
         11    1    3    3    0    0  0.93400115525E+01 -0.24336482474E+01 -0.15421830933E+02  0.18193167101E+02  0.51100000000E-03 0. -1.
        -11    1    3    3    0    0 -0.80495387968E+01 -0.14331836652E+02 -0.25279574557E+01  0.16630910553E+02  0.51100000000E-03 0.  1.
        -12    1    3    3    0    0 -0.16859384285E+02  0.18294469042E+02  0.28242874312E+02  0.37637566146E+02  0.00000000000E+00 0.  1.
</event>
<event>
 7    1  0.2797450E-013  0.7246158E+02  0.7816164E-02  0.1226708E+00
        -11   -1    0    0    0    0  0.00000000000E+00  0.00000000000E+00  0.45593999997E+02  0.45594000000E+02  0.51100000000E-03 0.  1.
         11   -1    0    0    0    0 -0.00000000000E+00 -0.00000000000E+00 -0.45593999997E+02  0.45594000000E+02  0.51100000000E-03 0. -1.
    9900012    2    1    2    0    0 -0.14943822503E+02  0.98794954003E+01 -0.54549471287E+01  0.72461582603E+02  0.70000016034E+02 0.  0.
         12    1    1    2    0    0  0.14943822503E+02 -0.98794954003E+01  0.54549471287E+01  0.18726417397E+02  0.00000000000E+00 0. -1.
         11    1    3    3    0    0  0.24417847572E+02  0.71494231150E+01 -0.15864284545E+01  0.25492396640E+02  0.51100000000E-03 0. -1.
        -11    1    3    3    0    0 -0.67348887768E+01  0.93691001831E+00  0.94844636852E+01  0.11670114776E+02  0.51100000000E-03 0.  1.
        -12    1    3    3    0    0 -0.32626781298E+02  0.17931622670E+01 -0.13352982359E+02  0.35299071187E+02  0.00000000000E+00 0.  1.
</event>
<event>
 7    1  0.2797450E-013  0.7246156E+02  0.7816164E-02  0.1226708E+00
        -11   -1    0    0    0    0  0.00000000000E+00  0.00000000000E+00  0.45593999997E+02  0.45594000000E+02  0.51100000000E-03 0. -1.
         11   -1    0    0    0    0 -0.00000000000E+00 -0.00000000000E+00 -0.45593999997E+02  0.45594000000E+02  0.51100000000E-03 0.  1.
    9900012    2    1    2    0    0  0.66245358278E+01  0.33709141613E+01 -0.17188138643E+02  0.72461557539E+02  0.69999983384E+02 0.  0.
         12    1    1    2    0    0 -0.66245358278E+01 -0.33709141613E+01  0.17188138643E+02  0.18726442461E+02  0.00000000000E+00 0. -1.
         11    1    3    3    0    0 -0.20064288872E+02  0.67822040342E+01 -0.33070670389E+01  0.21436200041E+02  0.51100000000E-03 0. -1.
        -11    1    3    3    0    0 -0.58311430999E+01  0.12523778561E+01 -0.17008784761E+02  0.18024134915E+02  0.51100000000E-03 0.  1.
         12    1    3    3    0    0  0.32519967800E+02 -0.46636677289E+01  0.31277131569E+01  0.33001222583E+02  0.00000000000E+00 0. -1.
</event>
<event>
 7    1  0.2797450E-013  0.7246159E+02  0.7816164E-02  0.1226708E+00
        -11   -1    0    0    0    0  0.00000000000E+00  0.00000000000E+00  0.45593999997E+02  0.45594000000E+02  0.51100000000E-03 0. -1.
         11   -1    0    0    0    0 -0.00000000000E+00 -0.00000000000E+00 -0.45593999997E+02  0.45594000000E+02  0.51100000000E-03 0.  1.
    9900012    2    1    2    0    0 -0.14165813641E+02 -0.66148107260E+01  0.10307886743E+02  0.72461587472E+02  0.70000022378E+02 0.  0.
         12    1    1    2    0    0  0.14165813641E+02  0.66148107260E+01 -0.10307886743E+02  0.18726412528E+02  0.00000000000E+00 0. -1.
         11    1    3    3    0    0 -0.47927693593E+01 -0.29114927582E+01 -0.13404534984E+01  0.57657821720E+01  0.51100000000E-03 0. -1.
        -11    1    3    3    0    0  0.26469741527E+01 -0.33284056171E+02  0.94001012373E+01  0.34687126876E+02  0.51100000000E-03 0.  1.
         12    1    3    3    0    0 -0.12020018434E+02  0.29580738204E+02  0.22482390038E+01  0.32008678424E+02  0.00000000000E+00 0. -1.
</event>
<event>
 7    1  0.2797450E-013  0.7246155E+02  0.7816164E-02  0.1226708E+00
        -11   -1    0    0    0    0  0.00000000000E+00  0.00000000000E+00  0.45593999997E+02  0.45594000000E+02  0.51100000000E-03 0. -1.
         11   -1    0    0    0    0 -0.00000000000E+00 -0.00000000000E+00 -0.45593999997E+02  0.45594000000E+02  0.51100000000E-03 0.  1.
    9900012    2    1    2    0    0 -0.15624302004E+02 -0.31096538715E+01 -0.98433222470E+01  0.72461554711E+02  0.69999979700E+02 0.  0.
         12    1    1    2    0    0  0.15624302004E+02  0.31096538715E+01  0.98433222470E+01  0.18726445289E+02  0.00000000000E+00 0. -1.
         11    1    3    3    0    0 -0.76604927869E+01  0.10120122827E+02 -0.60925766542E+01  0.14079045647E+02  0.51100000000E-03 0. -1.
        -11    1    3    3    0    0 -0.83631239563E+01  0.10491480936E+02 -0.23799671668E+02  0.27321006319E+02  0.51100000000E-03 0.  1.
         12    1    3    3    0    0  0.39931473950E+00 -0.23721257634E+02  0.20048926075E+02  0.31061502745E+02  0.00000000000E+00 0. -1.
</event>
<event>
 7    1  0.2797450E-013  0.7246158E+02  0.7816164E-02  0.1226708E+00
        -11   -1    0    0    0    0  0.00000000000E+00  0.00000000000E+00  0.45593999997E+02  0.45594000000E+02  0.51100000000E-03 0.  1.
         11   -1    0    0    0    0 -0.00000000000E+00 -0.00000000000E+00 -0.45593999997E+02  0.45594000000E+02  0.51100000000E-03 0. -1.
    9900012    2    1    2    0    0 -0.55799647748E+01 -0.75150224203E+00  0.17859960524E+02  0.72461576091E+02  0.70000007551E+02 0.  0.
         12    1    1    2    0    0  0.55799647748E+01  0.75150224203E+00 -0.17859960524E+02  0.18726423909E+02  0.00000000000E+00 0. -1.
         11    1    3    3    0    0  0.14896754751E+02  0.13988283121E+02  0.15109483869E+02  0.25414206064E+02  0.51100000000E-03 0. -1.
        -11    1    3    3    0    0  0.12040253149E+02 -0.44182644182E+01  0.14469780928E+01  0.12906684401E+02  0.51100000000E-03 0.  1.
        -12    1    3    3    0    0 -0.32516972674E+02 -0.10321520945E+02  0.13034985623E+01  0.34140685626E+02  0.00000000000E+00 0.  1.
</event>
<event>
 7    1  0.2797450E-013  0.7246145E+02  0.7816164E-02  0.1226708E+00
        -11   -1    0    0    0    0  0.00000000000E+00  0.00000000000E+00  0.45593999997E+02  0.45594000000E+02  0.51100000000E-03 0.  1.
         11   -1    0    0    0    0 -0.00000000000E+00 -0.00000000000E+00 -0.45593999997E+02  0.45594000000E+02  0.51100000000E-03 0. -1.
    9900012    2    1    2    0    0 -0.15344798732E+02 -0.10731695229E+02 -0.22709213006E+00  0.72461449291E+02  0.69999842370E+02 0.  0.
         12    1    1    2    0    0  0.15344798732E+02  0.10731695229E+02  0.22709213006E+00  0.18726550709E+02  0.00000000000E+00 0. -1.
         11    1    3    3    0    0 -0.29287105895E+02 -0.19358796182E+02  0.15072091857E+02  0.38205569156E+02  0.51100000000E-03 0. -1.
        -11    1    3    3    0    0 -0.10767234331E+01  0.36027170495E+01  0.63814883221E+01  0.74069087315E+01  0.51100000000E-03 0.  1.
         12    1    3    3    0    0  0.15019030596E+02  0.50243839032E+01 -0.21680672309E+02  0.26848971403E+02  0.00000000000E+00 0. -1.
</event>
<event>
 7    1  0.2797450E-013  0.7246152E+02  0.7816164E-02  0.1226708E+00
        -11   -1    0    0    0    0  0.00000000000E+00  0.00000000000E+00  0.45593999997E+02  0.45594000000E+02  0.51100000000E-03 0.  1.
         11   -1    0    0    0    0 -0.00000000000E+00 -0.00000000000E+00 -0.45593999997E+02  0.45594000000E+02  0.51100000000E-03 0. -1.
    9900012    2    1    2    0    0  0.15055959136E+02  0.47575991724E+01 -0.10067981739E+02  0.72461523778E+02  0.69999939404E+02 0.  0.
         12    1    1    2    0    0 -0.15055959136E+02 -0.47575991724E+01  0.10067981739E+02  0.18726476222E+02  0.00000000000E+00 0. -1.
         11    1    3    3    0    0  0.48265353106E+01  0.40667170671E+01 -0.10703245960E+02  0.12425502209E+02  0.51100000000E-03 0. -1.
        -11    1    3    3    0    0  0.14209199000E+02  0.28531115322E+02 -0.69730042188E+00  0.31881218701E+02  0.51100000000E-03 0.  1.
         12    1    3    3    0    0 -0.39797751747E+01 -0.27840233216E+02  0.13325646427E+01  0.28154802868E+02  0.00000000000E+00 0. -1.
</event>
<event>
 7    1  0.2797450E-013  0.7246169E+02  0.7816164E-02  0.1226708E+00
        -11   -1    0    0    0    0  0.00000000000E+00  0.00000000000E+00  0.45593999997E+02  0.45594000000E+02  0.51100000000E-03 0.  1.
         11   -1    0    0    0    0 -0.00000000000E+00 -0.00000000000E+00 -0.45593999997E+02  0.45594000000E+02  0.51100000000E-03 0. -1.
    9900012    2    1    2    0    0 -0.14793279536E+02 -0.47828140026E+01 -0.10438303472E+02  0.72461692073E+02  0.70000158639E+02 0.  0.
         12    1    1    2    0    0  0.14793279536E+02  0.47828140026E+01  0.10438303472E+02  0.18726307927E+02  0.00000000000E+00 0. -1.
         11    1    3    3    0    0 -0.23954236570E+02 -0.19395338560E+01 -0.20578684297E+02  0.31639366126E+02  0.51100000000E-03 0. -1.
        -11    1    3    3    0    0 -0.11615422629E+02  0.83821753836E+01 -0.16656739239E+01  0.14420588646E+02  0.51100000000E-03 0.  1.
        -12    1    3    3    0    0  0.20776379663E+02 -0.11225455530E+02  0.11806054748E+02  0.26401737300E+02  0.00000000000E+00 0.  1.
</event>
<event>
 7    1  0.2797450E-013  0.7246160E+02  0.7816164E-02  0.1226708E+00
        -11   -1    0    0    0    0  0.00000000000E+00  0.00000000000E+00  0.45593999997E+02  0.45594000000E+02  0.51100000000E-03 0.  1.
         11   -1    0    0    0    0 -0.00000000000E+00 -0.00000000000E+00 -0.45593999997E+02  0.45594000000E+02  0.51100000000E-03 0. -1.
    9900012    2    1    2    0    0  0.12023856514E+02  0.22210805024E+01  0.14183504566E+02  0.72461598161E+02  0.70000036301E+02 0.  0.
         12    1    1    2    0    0 -0.12023856514E+02 -0.22210805024E+01 -0.14183504566E+02  0.18726401839E+02  0.00000000000E+00 0. -1.
         11    1    3    3    0    0 -0.57189704671E+01  0.30899298540E+02  0.16743662965E+02  0.35606509563E+02  0.51100000000E-03 0. -1.
        -11    1    3    3    0    0  0.15017028324E+01  0.12814394990E+01 -0.19443467598E+01  0.27708632536E+01  0.51100000000E-03 0.  1.
        -12    1    3    3    0    0  0.16241124149E+02 -0.29959657537E+02 -0.61581163903E+00  0.34084225344E+02  0.00000000000E+00 0.  1.
</event>
<event>
 7    1  0.2797450E-013  0.7246177E+02  0.7816164E-02  0.1226707E+00
        -11   -1    0    0    0    0  0.00000000000E+00  0.00000000000E+00  0.45593999997E+02  0.45594000000E+02  0.51100000000E-03 0. -1.
         11   -1    0    0    0    0 -0.00000000000E+00 -0.00000000000E+00 -0.45593999997E+02  0.45594000000E+02  0.51100000000E-03 0.  1.
    9900012    2    1    2    0    0  0.18632186745E+02 -0.18687362740E+01 -0.14506286702E+00  0.72461772366E+02  0.70000263235E+02 0.  0.
         12    1    1    2    0    0 -0.18632186745E+02  0.18687362740E+01  0.14506286702E+00  0.18726227634E+02  0.00000000000E+00 0. -1.
         11    1    3    3    0    0  0.25809232749E+02 -0.33798665880E+00 -0.89274739502E+01  0.27311728643E+02  0.51100000000E-03 0.  1.
        -11    1    3    3    0    0 -0.14270094201E+02 -0.14802414415E+02 -0.84874948383E+01  0.22243754852E+02  0.51100000000E-03 0. -1.
        -12    1    3    3    0    0  0.70930481982E+01  0.13271664800E+02  0.17269905921E+02  0.22906288871E+02  0.00000000000E+00 0.  1.
</event>
<event>
 7    1  0.2797450E-013  0.7246158E+02  0.7816164E-02  0.1226708E+00
        -11   -1    0    0    0    0  0.00000000000E+00  0.00000000000E+00  0.45593999997E+02  0.45594000000E+02  0.51100000000E-03 0. -1.
         11   -1    0    0    0    0 -0.00000000000E+00 -0.00000000000E+00 -0.45593999997E+02  0.45594000000E+02  0.51100000000E-03 0.  1.
    9900012    2    1    2    0    0 -0.11455287347E+02  0.13356135742E+02 -0.64085031198E+01  0.72461577961E+02  0.70000009987E+02 0.  0.
         12    1    1    2    0    0  0.11455287347E+02 -0.13356135742E+02  0.64085031198E+01  0.18726422039E+02  0.00000000000E+00 0. -1.
         11    1    3    3    0    0  0.39360979574E+01 -0.42879338633E+00  0.89306574614E+01  0.97690006578E+01  0.51100000000E-03 0. -1.
        -11    1    3    3    0    0  0.35481133407E+01  0.17295736248E+02  0.17347755399E+02  0.24752297232E+02  0.51100000000E-03 0.  1.
         12    1    3    3    0    0 -0.18939498645E+02 -0.35108071197E+01 -0.32686915980E+02  0.37940280071E+02  0.00000000000E+00 0. -1.
</event>
<event>
 7    1  0.2797450E-013  0.7246149E+02  0.7816164E-02  0.1226708E+00
        -11   -1    0    0    0    0  0.00000000000E+00  0.00000000000E+00  0.45593999997E+02  0.45594000000E+02  0.51100000000E-03 0.  1.
         11   -1    0    0    0    0 -0.00000000000E+00 -0.00000000000E+00 -0.45593999997E+02  0.45594000000E+02  0.51100000000E-03 0. -1.
    9900012    2    1    2    0    0 -0.13692644362E+02 -0.45158359270E+01  0.11949935323E+02  0.72461488367E+02  0.69999893274E+02 0.  0.
         12    1    1    2    0    0  0.13692644362E+02  0.45158359270E+01 -0.11949935323E+02  0.18726511633E+02  0.00000000000E+00 0. -1.
         11    1    3    3    0    0 -0.24881000361E+01 -0.24894537122E+02  0.28021542538E+02  0.37565083080E+02  0.51100000000E-03 0. -1.
        -11    1    3    3    0    0 -0.30919994507E+01  0.19836903581E+02 -0.42058043010E+01  0.20512240111E+02  0.51100000000E-03 0.  1.
        -12    1    3    3    0    0 -0.81125448749E+01  0.54179761380E+00 -0.11865802914E+02  0.14384165176E+02  0.00000000000E+00 0.  1.
</event>
<event>
 7    1  0.2797450E-013  0.7246161E+02  0.7816164E-02  0.1226708E+00
        -11   -1    0    0    0    0  0.00000000000E+00  0.00000000000E+00  0.45593999997E+02  0.45594000000E+02  0.51100000000E-03 0.  1.
         11   -1    0    0    0    0 -0.00000000000E+00 -0.00000000000E+00 -0.45593999997E+02  0.45594000000E+02  0.51100000000E-03 0. -1.
    9900012    2    1    2    0    0 -0.18441596406E+02  0.16645452527E+01  0.27954540637E+01  0.72461608134E+02  0.70000049293E+02 0.  0.
         12    1    1    2    0    0  0.18441596406E+02 -0.16645452527E+01 -0.27954540637E+01  0.18726391866E+02  0.00000000000E+00 0. -1.
         11    1    3    3    0    0 -0.15282522533E+02 -0.25554327174E+02 -0.73010954404E+01  0.30657546007E+02  0.51100000000E-03 0. -1.
        -11    1    3    3    0    0 -0.78101210311E+01  0.80254893117E+01  0.17446924650E+02  0.20731658139E+02  0.51100000000E-03 0.  1.
        -12    1    3    3    0    0  0.46510471575E+01  0.19193383115E+02 -0.73503751455E+01  0.21072403988E+02  0.00000000000E+00 0.  1.
</event>
<event>
 7    1  0.2797450E-013  0.7246160E+02  0.7816164E-02  0.1226708E+00
        -11   -1    0    0    0    0  0.00000000000E+00  0.00000000000E+00  0.45593999997E+02  0.45594000000E+02  0.51100000000E-03 0.  1.
         11   -1    0    0    0    0 -0.00000000000E+00 -0.00000000000E+00 -0.45593999997E+02  0.45594000000E+02  0.51100000000E-03 0. -1.
    9900012    2    1    2    0    0 -0.72110589648E+01 -0.10985991351E+02  0.13341163479E+02  0.72461600978E+02  0.70000039971E+02 0.  0.
         12    1    1    2    0    0  0.72110589648E+01  0.10985991351E+02 -0.13341163479E+02  0.18726399022E+02  0.00000000000E+00 0. -1.
         11    1    3    3    0    0 -0.40321375773E+00 -0.15478000471E+02  0.11746674423E+02  0.19434902628E+02  0.51100000000E-03 0. -1.
        -11    1    3    3    0    0  0.21503038828E+01 -0.68948389181E+01  0.24711189314E+02  0.25745008993E+02  0.51100000000E-03 0.  1.
         12    1    3    3    0    0 -0.89581490899E+01  0.11386848038E+02 -0.23116700257E+02  0.27281689357E+02  0.00000000000E+00 0. -1.
</event>
<event>
 7    1  0.2797450E-013  0.7246157E+02  0.7816164E-02  0.1226708E+00
        -11   -1    0    0    0    0  0.00000000000E+00  0.00000000000E+00  0.45593999997E+02  0.45594000000E+02  0.51100000000E-03 0.  1.
         11   -1    0    0    0    0 -0.00000000000E+00 -0.00000000000E+00 -0.45593999997E+02  0.45594000000E+02  0.51100000000E-03 0. -1.
    9900012    2    1    2    0    0 -0.59450228486E+01 -0.16628859462E+01  0.17679667107E+02  0.72461571741E+02  0.70000001884E+02 0.  0.
         12    1    1    2    0    0  0.59450228486E+01  0.16628859462E+01 -0.17679667107E+02  0.18726428259E+02  0.00000000000E+00 0. -1.
         11    1    3    3    0    0 -0.11059683236E+02 -0.11890655965E+02  0.51600991787E+00  0.16247170802E+02  0.51100000000E-03 0. -1.
        -11    1    3    3    0    0  0.21485279966E+02 -0.67207062479E+01 -0.58682672028E+01  0.23264172195E+02  0.51100000000E-03 0.  1.
         12    1    3    3    0    0 -0.16370619578E+02  0.16948476267E+02  0.23031924392E+02  0.32950228745E+02  0.00000000000E+00 0. -1.
</event>
<event>
 7    1  0.2797450E-013  0.7246154E+02  0.7816164E-02  0.1226708E+00
        -11   -1    0    0    0    0  0.00000000000E+00  0.00000000000E+00  0.45593999997E+02  0.45594000000E+02  0.51100000000E-03 0.  1.
         11   -1    0    0    0    0 -0.00000000000E+00 -0.00000000000E+00 -0.45593999997E+02  0.45594000000E+02  0.51100000000E-03 0. -1.
    9900012    2    1    2    0    0  0.11863388329E+02 -0.11491563265E+02 -0.88252031295E+01  0.72461542268E+02  0.69999963490E+02 0.  0.
         12    1    1    2    0    0 -0.11863388329E+02  0.11491563265E+02  0.88252031295E+01  0.18726457732E+02  0.00000000000E+00 0. -1.
         11    1    3    3    0    0  0.10594190963E+02 -0.22228910474E+02 -0.29422373190E+01  0.24799558538E+02  0.51100000000E-03 0. -1.
        -11    1    3    3    0    0  0.17353066607E+02  0.90866734868E+01  0.12456225206E+02  0.23213231192E+02  0.51100000000E-03 0.  1.
        -12    1    3    3    0    0 -0.16083869240E+02  0.16506737217E+01 -0.18339191017E+02  0.24448752537E+02  0.00000000000E+00 0.  1.
</event>
<event>
 7    1  0.2797450E-013  0.7246176E+02  0.7816164E-02  0.1226708E+00
        -11   -1    0    0    0    0  0.00000000000E+00  0.00000000000E+00  0.45593999997E+02  0.45594000000E+02  0.51100000000E-03 0. -1.
         11   -1    0    0    0    0 -0.00000000000E+00 -0.00000000000E+00 -0.45593999997E+02  0.45594000000E+02  0.51100000000E-03 0.  1.
    9900012    2    1    2    0    0 -0.15749913360E+02 -0.10044832845E+01 -0.10079853108E+02  0.72461756485E+02  0.70000242547E+02 0.  0.
         12    1    1    2    0    0  0.15749913360E+02  0.10044832845E+01  0.10079853108E+02  0.18726243515E+02  0.00000000000E+00 0. -1.
         11    1    3    3    0    0 -0.10136008101E+02  0.26271724769E+02  0.11065814857E+02  0.30255486135E+02  0.51100000000E-03 0. -1.
        -11    1    3    3    0    0 -0.81173283436E+01 -0.10545120277E+01  0.37158831671E+00  0.81939668777E+01  0.51100000000E-03 0.  1.
        -12    1    3    3    0    0  0.25034230851E+01 -0.26221696026E+02 -0.21517256282E+02  0.34012303472E+02  0.00000000000E+00 0.  1.
</event>
<event>
 7    1  0.3776636E-013  0.7246154E+02  0.7816164E-02  0.1226708E+00
        -11   -1    0    0    0    0  0.00000000000E+00  0.00000000000E+00  0.45593999997E+02  0.45594000000E+02  0.51100000000E-03 0.  1.
         11   -1    0    0    0    0 -0.00000000000E+00 -0.00000000000E+00 -0.45593999997E+02  0.45594000000E+02  0.51100000000E-03 0. -1.
    9900012    2    1    2    0    0 -0.15414562375E+02  0.96656481830E+01  0.44324821344E+01  0.72461537818E+02  0.69999957693E+02 0.  0.
         12    1    1    2    0    0  0.15414562375E+02 -0.96656481830E+01 -0.44324821344E+01  0.18726462182E+02  0.00000000000E+00 0. -1.
         11    1    3    3    0    0 -0.17005822327E+02  0.44147608324E+01 -0.24322085553E+02  0.30004198908E+02  0.51100000000E-03 0. -1.
        -11    1    3    3    0    0  0.18963841149E+01  0.60283616533E+01 -0.53879163582E+01  0.83046408639E+01  0.51100000000E-03 0.  1.
        -12    1    3    3    0    0 -0.30512416296E+00 -0.77747430269E+00  0.34142484045E+02  0.34152698046E+02  0.00000000000E+00 0.  1.
</event>
<event>
 7    1  0.2797450E-013  0.7246153E+02  0.7816164E-02  0.1226708E+00
        -11   -1    0    0    0    0  0.00000000000E+00  0.00000000000E+00  0.45593999997E+02  0.45594000000E+02  0.51100000000E-03 0.  1.
         11   -1    0    0    0    0 -0.00000000000E+00 -0.00000000000E+00 -0.45593999997E+02  0.45594000000E+02  0.51100000000E-03 0. -1.
    9900012    2    1    2    0    0  0.60705023743E+01  0.16253277869E+02  0.70470196315E+01  0.72461534069E+02  0.69999952810E+02 0.  0.
         12    1    1    2    0    0 -0.60705023743E+01 -0.16253277869E+02 -0.70470196315E+01  0.18726465931E+02  0.00000000000E+00 0. -1.
         11    1    3    3    0    0 -0.11303370538E+02 -0.12370854906E+02 -0.11587968512E+02  0.20373641086E+02  0.51100000000E-03 0. -1.
        -11    1    3    3    0    0 -0.37914350129E+01  0.11230186863E+02  0.21491905520E+02  0.24543717721E+02  0.51100000000E-03 0.  1.
         12    1    3    3    0    0  0.21165307925E+02  0.17393945912E+02 -0.28569173767E+01  0.27544175262E+02  0.00000000000E+00 0. -1.
</event>
<event>
 7    1  0.2797450E-013  0.7246156E+02  0.7816164E-02  0.1226708E+00
        -11   -1    0    0    0    0  0.00000000000E+00  0.00000000000E+00  0.45593999997E+02  0.45594000000E+02  0.51100000000E-03 0.  1.
         11   -1    0    0    0    0 -0.00000000000E+00 -0.00000000000E+00 -0.45593999997E+02  0.45594000000E+02  0.51100000000E-03 0. -1.
    9900012    2    1    2    0    0  0.89152758418E+01  0.16009522112E+02  0.38590824431E+01  0.72461562568E+02  0.69999989935E+02 0.  0.
         12    1    1    2    0    0 -0.89152758418E+01 -0.16009522112E+02 -0.38590824431E+01  0.18726437432E+02  0.00000000000E+00 0. -1.
         11    1    3    3    0    0  0.29927967554E+02 -0.18239796057E+01 -0.94696573913E+01  0.31443354701E+02  0.51100000000E-03 0. -1.
        -11    1    3    3    0    0 -0.13237825748E+01 -0.66747303101E+01  0.51514827268E+01  0.85347641774E+01  0.51100000000E-03 0.  1.
         12    1    3    3    0    0 -0.19688909137E+02  0.24508232028E+02  0.81772571076E+01  0.32483443690E+02  0.00000000000E+00 0. -1.
</event>
<event>
 7    1  0.2797450E-013  0.7246154E+02  0.7816164E-02  0.1226708E+00
        -11   -1    0    0    0    0  0.00000000000E+00  0.00000000000E+00  0.45593999997E+02  0.45594000000E+02  0.51100000000E-03 0. -1.
         11   -1    0    0    0    0 -0.00000000000E+00 -0.00000000000E+00 -0.45593999997E+02  0.45594000000E+02  0.51100000000E-03 0.  1.
    9900012    2    1    2    0    0  0.33170482668E+01 -0.16838514875E+02 -0.74927853288E+01  0.72461542129E+02  0.69999963309E+02 0.  0.
         12    1    1    2    0    0 -0.33170482668E+01  0.16838514875E+02  0.74927853288E+01  0.18726457871E+02  0.00000000000E+00 0. -1.
         11    1    3    3    0    0 -0.67610165695E+01  0.44872321229E+00  0.10119823298E+02  0.12178814450E+02  0.51100000000E-03 0. -1.
        -11    1    3    3    0    0  0.12037695454E+02  0.12185033106E+02 -0.24556646842E+02  0.29940107683E+02  0.51100000000E-03 0.  1.
         12    1    3    3    0    0 -0.19596306173E+01 -0.29472271194E+02  0.69440382156E+01  0.30342619996E+02  0.00000000000E+00 0. -1.
</event>
<event>
 7    1  0.2797450E-013  0.7246157E+02  0.7816164E-02  0.1226708E+00
        -11   -1    0    0    0    0  0.00000000000E+00  0.00000000000E+00  0.45593999997E+02  0.45594000000E+02  0.51100000000E-03 0.  1.
         11   -1    0    0    0    0 -0.00000000000E+00 -0.00000000000E+00 -0.45593999997E+02  0.45594000000E+02  0.51100000000E-03 0. -1.
    9900012    2    1    2    0    0  0.62862057123E+01 -0.17018335670E+02  0.46410110014E+01  0.72461571767E+02  0.70000001919E+02 0.  0.
         12    1    1    2    0    0 -0.62862057123E+01  0.17018335670E+02 -0.46410110014E+01  0.18726428233E+02  0.00000000000E+00 0. -1.
         11    1    3    3    0    0  0.29725880793E+01  0.10774140493E+01 -0.41907364628E+01  0.52497022091E+01  0.51100000000E-03 0. -1.
        -11    1    3    3    0    0 -0.19114412188E+02 -0.26690278055E+02 -0.12460935486E+02  0.35114193845E+02  0.51100000000E-03 0.  1.
        -12    1    3    3    0    0  0.22428029821E+02  0.85945283353E+01  0.21292682950E+02  0.32097675713E+02  0.00000000000E+00 0.  1.
</event>
<event>
 7    1  0.2797450E-013  0.7246153E+02  0.7816164E-02  0.1226708E+00
        -11   -1    0    0    0    0  0.00000000000E+00  0.00000000000E+00  0.45593999997E+02  0.45594000000E+02  0.51100000000E-03 0.  1.
         11   -1    0    0    0    0 -0.00000000000E+00 -0.00000000000E+00 -0.45593999997E+02  0.45594000000E+02  0.51100000000E-03 0. -1.
    9900012    2    1    2    0    0 -0.28117444887E+00 -0.10428959318E+02  0.15551159215E+02  0.72461526641E+02  0.69999943133E+02 0.  0.
         12    1    1    2    0    0  0.28117444887E+00  0.10428959318E+02 -0.15551159215E+02  0.18726473359E+02  0.00000000000E+00 0. -1.
         11    1    3    3    0    0 -0.52720399797E+01  0.22718821947E+02 -0.11411320744E+02  0.25964543470E+02  0.51100000000E-03 0. -1.
        -11    1    3    3    0    0  0.18017752757E+01  0.19212241896E+01  0.13968530886E+01  0.29813915113E+01  0.51100000000E-03 0.  1.
        -12    1    3    3    0    0  0.31890902551E+01 -0.35069005455E+02  0.25565626870E+02  0.43515591660E+02  0.00000000000E+00 0.  1.
</event>
<event>
 7    1  0.2797450E-013  0.7246151E+02  0.7816164E-02  0.1226708E+00
        -11   -1    0    0    0    0  0.00000000000E+00  0.00000000000E+00  0.45593999997E+02  0.45594000000E+02  0.51100000000E-03 0.  1.
         11   -1    0    0    0    0 -0.00000000000E+00 -0.00000000000E+00 -0.45593999997E+02  0.45594000000E+02  0.51100000000E-03 0. -1.
    9900012    2    1    2    0    0 -0.76910466764E+01  0.80314192707E+00  0.17055326559E+02  0.72461510741E+02  0.69999922421E+02 0.  0.
         12    1    1    2    0    0  0.76910466764E+01 -0.80314192707E+00 -0.17055326559E+02  0.18726489259E+02  0.00000000000E+00 0. -1.
         11    1    3    3    0    0 -0.42250362356E+01 -0.62708077504E+01  0.37300424956E+01  0.84313212674E+01  0.51100000000E-03 0. -1.
        -11    1    3    3    0    0  0.50185622608E+01 -0.18713477358E+01  0.36974344709E+02  0.37360274041E+02  0.51100000000E-03 0.  1.
         12    1    3    3    0    0 -0.84845727016E+01  0.89452974132E+01 -0.23649060646E+02  0.26669915433E+02  0.00000000000E+00 0. -1.
</event>
<event>
 7    1  0.2797450E-013  0.7246160E+02  0.7816164E-02  0.1226708E+00
        -11   -1    0    0    0    0  0.00000000000E+00  0.00000000000E+00  0.45593999997E+02  0.45594000000E+02  0.51100000000E-03 0.  1.
         11   -1    0    0    0    0 -0.00000000000E+00 -0.00000000000E+00 -0.45593999997E+02  0.45594000000E+02  0.51100000000E-03 0. -1.
    9900012    2    1    2    0    0 -0.73886692056E+01 -0.17204237954E+02 -0.31616716233E+00  0.72461596237E+02  0.70000033795E+02 0.  0.
         12    1    1    2    0    0  0.73886692056E+01  0.17204237954E+02  0.31616716233E+00  0.18726403763E+02  0.00000000000E+00 0. -1.
         11    1    3    3    0    0 -0.95797150981E+01 -0.48647025767E+01  0.10197844053E+02  0.14813247318E+02  0.51100000000E-03 0. -1.
        -11    1    3    3    0    0 -0.14402267874E+02 -0.23563023064E+02  0.96225256348E+01  0.29244390499E+02  0.51100000000E-03 0.  1.
         12    1    3    3    0    0  0.16593313766E+02  0.11223487687E+02 -0.20136536850E+02  0.28403958420E+02  0.00000000000E+00 0. -1.
</event>
<event>
 7    1  0.2797450E-013  0.7246163E+02  0.7816164E-02  0.1226708E+00
        -11   -1    0    0    0    0  0.00000000000E+00  0.00000000000E+00  0.45593999997E+02  0.45594000000E+02  0.51100000000E-03 0. -1.
         11   -1    0    0    0    0 -0.00000000000E+00 -0.00000000000E+00 -0.45593999997E+02  0.45594000000E+02  0.51100000000E-03 0.  1.
    9900012    2    1    2    0    0  0.75816535407E+01  0.75643744932E+01 -0.15361501939E+02  0.72461628924E+02  0.70000076375E+02 0.  0.
         12    1    1    2    0    0 -0.75816535407E+01 -0.75643744932E+01  0.15361501939E+02  0.18726371076E+02  0.00000000000E+00 0. -1.
         11    1    3    3    0    0 -0.52352978416E+01 -0.13706084705E+02  0.20828372223E+02  0.25477169999E+02  0.51100000000E-03 0. -1.
        -11    1    3    3    0    0 -0.17595025108E+01  0.20185698395E+01  0.81380788705E+00  0.27987062763E+01  0.51100000000E-03 0.  1.
        -12    1    3    3    0    0  0.14576453893E+02  0.19251889359E+02 -0.37003682049E+02  0.44185752649E+02  0.00000000000E+00 0.  1.
</event>
<event>
 7    1  0.2797450E-013  0.7246158E+02  0.7816164E-02  0.1226708E+00
        -11   -1    0    0    0    0  0.00000000000E+00  0.00000000000E+00  0.45593999997E+02  0.45594000000E+02  0.51100000000E-03 0.  1.
         11   -1    0    0    0    0 -0.00000000000E+00 -0.00000000000E+00 -0.45593999997E+02  0.45594000000E+02  0.51100000000E-03 0. -1.
    9900012    2    1    2    0    0  0.11921227311E+02 -0.10319133523E+02  0.10103403863E+02  0.72461576239E+02  0.70000007744E+02 0.  0.
         12    1    1    2    0    0 -0.11921227311E+02  0.10319133523E+02 -0.10103403863E+02  0.18726423761E+02  0.00000000000E+00 0. -1.
         11    1    3    3    0    0 -0.34409813348E+01  0.89778859269E+01 -0.62611119611E+00  0.96350819277E+01  0.51100000000E-03 0.  1.
        -11    1    3    3    0    0 -0.35226889834E+01 -0.53362202003E+01 -0.21792597198E+02  0.22711272016E+02  0.51100000000E-03 0. -1.
        -12    1    3    3    0    0  0.18884897629E+02 -0.13960799250E+02  0.32522112256E+02  0.40115222295E+02  0.00000000000E+00 0.  1.
</event>
<event>
 7    1  0.2797450E-013  0.7246157E+02  0.7816164E-02  0.1226708E+00
        -11   -1    0    0    0    0  0.00000000000E+00  0.00000000000E+00  0.45593999997E+02  0.45594000000E+02  0.51100000000E-03 0.  1.
         11   -1    0    0    0    0 -0.00000000000E+00 -0.00000000000E+00 -0.45593999997E+02  0.45594000000E+02  0.51100000000E-03 0. -1.
    9900012    2    1    2    0    0 -0.77876526458E+01 -0.15614389342E+02  0.67987211970E+01  0.72461566859E+02  0.69999995525E+02 0.  0.
         12    1    1    2    0    0  0.77876526458E+01  0.15614389342E+02 -0.67987211970E+01  0.18726433141E+02  0.00000000000E+00 0. -1.
         11    1    3    3    0    0 -0.22122969042E+02 -0.17821784680E+02  0.26696534430E+01  0.28533643619E+02  0.51100000000E-03 0. -1.
        -11    1    3    3    0    0 -0.61896586528E+01 -0.15208830620E+02 -0.12855297264E+01  0.16470367027E+02  0.51100000000E-03 0.  1.
         12    1    3    3    0    0  0.20524975049E+02  0.17416225958E+02  0.54145974804E+01  0.27457556214E+02  0.00000000000E+00 0. -1.
</event>
<event>
 7    1  0.2797450E-013  0.7246153E+02  0.7816164E-02  0.1226708E+00
        -11   -1    0    0    0    0  0.00000000000E+00  0.00000000000E+00  0.45593999997E+02  0.45594000000E+02  0.51100000000E-03 0.  1.
         11   -1    0    0    0    0 -0.00000000000E+00 -0.00000000000E+00 -0.45593999997E+02  0.45594000000E+02  0.51100000000E-03 0. -1.
    9900012    2    1    2    0    0  0.16589063201E+02  0.22877257613E+01  0.83815165386E+01  0.72461534062E+02  0.69999952800E+02 0.  0.
         12    1    1    2    0    0 -0.16589063201E+02 -0.22877257613E+01 -0.83815165386E+01  0.18726465938E+02  0.00000000000E+00 0. -1.
         11    1    3    3    0    0 -0.35196938679E+01  0.11684149290E+02 -0.15092387224E+02  0.19408445119E+02  0.51100000000E-03 0. -1.
        -11    1    3    3    0    0 -0.91952486892E+01  0.78167967745E+01  0.59379746529E+00  0.12083356569E+02  0.51100000000E-03 0.  1.
        -12    1    3    3    0    0  0.29304005758E+02 -0.17213220303E+02  0.22880106297E+02  0.40969732375E+02  0.00000000000E+00 0.  1.
</event>
<event>
 7    1  0.2797450E-013  0.7246156E+02  0.7816164E-02  0.1226708E+00
        -11   -1    0    0    0    0  0.00000000000E+00  0.00000000000E+00  0.45593999997E+02  0.45594000000E+02  0.51100000000E-03 0.  1.
         11   -1    0    0    0    0 -0.00000000000E+00 -0.00000000000E+00 -0.45593999997E+02  0.45594000000E+02  0.51100000000E-03 0. -1.
    9900012    2    1    2    0    0 -0.17319441786E+02  0.37334358044E+01  0.60644963776E+01  0.72461555517E+02  0.69999980749E+02 0.  0.
         12    1    1    2    0    0  0.17319441786E+02 -0.37334358044E+01 -0.60644963776E+01  0.18726444483E+02  0.00000000000E+00 0. -1.
         11    1    3    3    0    0 -0.91315476832E+01 -0.99177574494E+01  0.24553977114E+02  0.28011513138E+02  0.51100000000E-03 0.  1.
        -11    1    3    3    0    0  0.50949586460E+00 -0.59139018481E+01 -0.21970090855E+02  0.22757827522E+02  0.51100000000E-03 0. -1.
        -12    1    3    3    0    0 -0.86973899672E+01  0.19565095102E+02  0.34806101185E+01  0.21692214857E+02  0.00000000000E+00 0.  1.
</event>
<event>
 7    1  0.2797450E-013  0.7246162E+02  0.7816164E-02  0.1226708E+00
        -11   -1    0    0    0    0  0.00000000000E+00  0.00000000000E+00  0.45593999997E+02  0.45594000000E+02  0.51100000000E-03 0.  1.
         11   -1    0    0    0    0 -0.00000000000E+00 -0.00000000000E+00 -0.45593999997E+02  0.45594000000E+02  0.51100000000E-03 0. -1.
    9900012    2    1    2    0    0  0.10812466852E+02 -0.14213378143E+02 -0.56345286961E+01  0.72461615637E+02  0.70000059068E+02 0.  0.
         12    1    1    2    0    0 -0.10812466852E+02  0.14213378143E+02  0.56345286961E+01  0.18726384363E+02  0.00000000000E+00 0. -1.
         11    1    3    3    0    0 -0.20558234013E+02  0.11430296533E+02 -0.71626210021E+01  0.24588529937E+02  0.51100000000E-03 0. -1.
        -11    1    3    3    0    0 -0.15384097785E-01  0.41358931300E+01  0.20241577003E+01  0.46046784155E+01  0.51100000000E-03 0.  1.
        -12    1    3    3    0    0  0.31386084963E+02 -0.29779567807E+02 -0.49606539425E+00  0.43268407285E+02  0.00000000000E+00 0.  1.
</event>
<event>
 7    1  0.2797450E-013  0.7246158E+02  0.7816164E-02  0.1226708E+00
        -11   -1    0    0    0    0  0.00000000000E+00  0.00000000000E+00  0.45593999997E+02  0.45594000000E+02  0.51100000000E-03 0.  1.
         11   -1    0    0    0    0 -0.00000000000E+00 -0.00000000000E+00 -0.45593999997E+02  0.45594000000E+02  0.51100000000E-03 0. -1.
    9900012    2    1    2    0    0 -0.95581648099E+01 -0.12839402332E+02  0.97195721107E+01  0.72461578858E+02  0.70000011156E+02 0.  0.
         12    1    1    2    0    0  0.95581648099E+01  0.12839402332E+02 -0.97195721107E+01  0.18726421142E+02  0.00000000000E+00 0. -1.
         11    1    3    3    0    0  0.11523639767E+01 -0.16391181484E+02  0.27413715352E+02  0.31961078875E+02  0.51100000000E-03 0.  1.
        -11    1    3    3    0    0  0.98600471781E+01 -0.66723709413E+01 -0.11849342254E+02  0.16797260980E+02  0.51100000000E-03 0. -1.
         12    1    3    3    0    0 -0.20570575965E+02  0.10224150093E+02 -0.58448009869E+01  0.23703239003E+02  0.00000000000E+00 0. -1.
</event>
<event>
 7    1  0.2797450E-013  0.7246156E+02  0.7816164E-02  0.1226708E+00
        -11   -1    0    0    0    0  0.00000000000E+00  0.00000000000E+00  0.45593999997E+02  0.45594000000E+02  0.51100000000E-03 0.  1.
         11   -1    0    0    0    0 -0.00000000000E+00 -0.00000000000E+00 -0.45593999997E+02  0.45594000000E+02  0.51100000000E-03 0. -1.
    9900012    2    1    2    0    0 -0.87551112552E+01 -0.15296432843E+02 -0.63282458216E+01  0.72461560777E+02  0.69999987601E+02 0.  0.
         12    1    1    2    0    0  0.87551112552E+01  0.15296432843E+02  0.63282458216E+01  0.18726439223E+02  0.00000000000E+00 0. -1.
         11    1    3    3    0    0 -0.20425089725E+02 -0.30351546401E+02 -0.31032734948E+01  0.36715541204E+02  0.51100000000E-03 0. -1.
        -11    1    3    3    0    0  0.12082879770E+02 -0.23368196422E+01  0.83304738318E+01  0.14861140740E+02  0.51100000000E-03 0.  1.
        -12    1    3    3    0    0 -0.41290129992E+00  0.17391933201E+02 -0.11555446159E+02  0.20884878833E+02  0.00000000000E+00 0.  1.
</event>
<event>
 7    1  0.2797450E-013  0.7246157E+02  0.7816164E-02  0.1226708E+00
        -11   -1    0    0    0    0  0.00000000000E+00  0.00000000000E+00  0.45593999997E+02  0.45594000000E+02  0.51100000000E-03 0.  1.
         11   -1    0    0    0    0 -0.00000000000E+00 -0.00000000000E+00 -0.45593999997E+02  0.45594000000E+02  0.51100000000E-03 0. -1.
    9900012    2    1    2    0    0 -0.70847753889E+01 -0.89865546393E+01  0.14823195989E+02  0.72461565585E+02  0.69999993865E+02 0.  0.
         12    1    1    2    0    0  0.70847753889E+01  0.89865546393E+01 -0.14823195989E+02  0.18726434415E+02  0.00000000000E+00 0. -1.
         11    1    3    3    0    0  0.12658865526E+02  0.20148495521E+00 -0.98550609333E+01  0.16043992609E+02  0.51100000000E-03 0. -1.
        -11    1    3    3    0    0  0.10713019172E+01 -0.22458443959E+02  0.22218518453E+02  0.31609997712E+02  0.51100000000E-03 0.  1.
         12    1    3    3    0    0 -0.20814942832E+02  0.13270404365E+02  0.24597384694E+01  0.24807575263E+02  0.00000000000E+00 0. -1.
</event>
<event>
 7    1  0.2797450E-013  0.7246159E+02  0.7816164E-02  0.1226708E+00
        -11   -1    0    0    0    0  0.00000000000E+00  0.00000000000E+00  0.45593999997E+02  0.45594000000E+02  0.51100000000E-03 0. -1.
         11   -1    0    0    0    0 -0.00000000000E+00 -0.00000000000E+00 -0.45593999997E+02  0.45594000000E+02  0.51100000000E-03 0.  1.
    9900012    2    1    2    0    0  0.16239337844E+02  0.44066648623E+01 -0.82184951306E+01  0.72461589478E+02  0.70000024991E+02 0.  0.
         12    1    1    2    0    0 -0.16239337844E+02 -0.44066648623E+01  0.82184951306E+01  0.18726410522E+02  0.00000000000E+00 0. -1.
         11    1    3    3    0    0 -0.17782175779E+02 -0.47910302381E+01  0.31497666688E+00  0.18418983597E+02  0.51100000000E-03 0. -1.
        -11    1    3    3    0    0  0.11146004846E+02  0.53287024951E+01 -0.23418710106E+02  0.26477622205E+02  0.51100000000E-03 0.  1.
         12    1    3    3    0    0  0.22875508777E+02  0.38689926053E+01  0.14885238309E+02  0.27564983677E+02  0.00000000000E+00 0. -1.
</event>
<event>
 7    1  0.2797450E-013  0.7246156E+02  0.7816164E-02  0.1226708E+00
        -11   -1    0    0    0    0  0.00000000000E+00  0.00000000000E+00  0.45593999997E+02  0.45594000000E+02  0.51100000000E-03 0. -1.
         11   -1    0    0    0    0 -0.00000000000E+00 -0.00000000000E+00 -0.45593999997E+02  0.45594000000E+02  0.51100000000E-03 0.  1.
    9900012    2    1    2    0    0 -0.58600766994E+01  0.16199118966E+02 -0.73435411207E+01  0.72461560125E+02  0.69999986752E+02 0.  0.
         12    1    1    2    0    0  0.58600766994E+01 -0.16199118966E+02  0.73435411207E+01  0.18726439875E+02  0.00000000000E+00 0. -1.
         11    1    3    3    0    0 -0.97636825808E+01  0.26893768213E+01  0.15169041944E+02  0.18239026262E+02  0.51100000000E-03 0. -1.
        -11    1    3    3    0    0 -0.22568108926E+01 -0.16258935535E+02 -0.16421702832E+02  0.23218925563E+02  0.51100000000E-03 0.  1.
         12    1    3    3    0    0  0.61604167741E+01  0.29768677680E+02 -0.60908802322E+01  0.31003608300E+02  0.00000000000E+00 0. -1.
</event>
<event>
 7    1  0.2797450E-013  0.7246169E+02  0.7816164E-02  0.1226708E+00
        -11   -1    0    0    0    0  0.00000000000E+00  0.00000000000E+00  0.45593999997E+02  0.45594000000E+02  0.51100000000E-03 0.  1.
         11   -1    0    0    0    0 -0.00000000000E+00 -0.00000000000E+00 -0.45593999997E+02  0.45594000000E+02  0.51100000000E-03 0. -1.
    9900012    2    1    2    0    0 -0.53518787050E+01 -0.16379155146E+02 -0.73318084975E+01  0.72461688436E+02  0.70000153901E+02 0.  0.
         12    1    1    2    0    0  0.53518787050E+01  0.16379155146E+02  0.73318084975E+01  0.18726311564E+02  0.00000000000E+00 0. -1.
         11    1    3    3    0    0  0.40017879357E+01  0.34709091685E+01 -0.13739256421E+02  0.14725103884E+02  0.51100000000E-03 0. -1.
        -11    1    3    3    0    0 -0.93282901201E+01 -0.61387654986E+01 -0.22846054969E+02  0.25429189258E+02  0.51100000000E-03 0.  1.
         12    1    3    3    0    0 -0.25376520565E-01 -0.13711298815E+02  0.29253502892E+02  0.32307395294E+02  0.00000000000E+00 0. -1.
</event>
<event>
 7    1  0.2797450E-013  0.7246144E+02  0.7816164E-02  0.1226708E+00
        -11   -1    0    0    0    0  0.00000000000E+00  0.00000000000E+00  0.45593999997E+02  0.45594000000E+02  0.51100000000E-03 0. -1.
         11   -1    0    0    0    0 -0.00000000000E+00 -0.00000000000E+00 -0.45593999997E+02  0.45594000000E+02  0.51100000000E-03 0.  1.
    9900012    2    1    2    0    0  0.45942484179E+01 -0.26182670519E+01 -0.17964453490E+02  0.72461440517E+02  0.69999830940E+02 0.  0.
         12    1    1    2    0    0 -0.45942484179E+01  0.26182670519E+01  0.17964453490E+02  0.18726559483E+02  0.00000000000E+00 0. -1.
         11    1    3    3    0    0  0.19182248029E+01 -0.10882514189E+02 -0.10453583663E+00  0.11050775062E+02  0.51100000000E-03 0. -1.
        -11    1    3    3    0    0  0.21181914861E+02 -0.17008360400E+02 -0.53833812359E+01  0.27693656936E+02  0.51100000000E-03 0.  1.
         12    1    3    3    0    0 -0.18505891246E+02  0.25272607537E+02 -0.12476536418E+02  0.33717008520E+02  0.00000000000E+00 0. -1.
</event>
<event>
 7    1  0.2797450E-013  0.7246157E+02  0.7816164E-02  0.1226708E+00
        -11   -1    0    0    0    0  0.00000000000E+00  0.00000000000E+00  0.45593999997E+02  0.45594000000E+02  0.51100000000E-03 0.  1.
         11   -1    0    0    0    0 -0.00000000000E+00 -0.00000000000E+00 -0.45593999997E+02  0.45594000000E+02  0.51100000000E-03 0. -1.
    9900012    2    1    2    0    0  0.40254578583E+01 -0.77582964147E+01  0.16561507652E+02  0.72461574556E+02  0.70000005551E+02 0.  0.
         12    1    1    2    0    0 -0.40254578583E+01  0.77582964147E+01 -0.16561507652E+02  0.18726425444E+02  0.00000000000E+00 0. -1.
         11    1    3    3    0    0  0.10929729520E+02 -0.37659932165E+01 -0.87466549150E+00  0.11593391750E+02  0.51100000000E-03 0. -1.
        -11    1    3    3    0    0 -0.19132849949E+02 -0.70015021103E+01 -0.15504526534E+02  0.25602291348E+02  0.51100000000E-03 0.  1.
         12    1    3    3    0    0  0.12228578287E+02  0.30091989122E+01  0.32940699678E+02  0.35265891457E+02  0.00000000000E+00 0. -1.
</event>
<event>
 7    1  0.2797450E-013  0.7246156E+02  0.7816164E-02  0.1226708E+00
        -11   -1    0    0    0    0  0.00000000000E+00  0.00000000000E+00  0.45593999997E+02  0.45594000000E+02  0.51100000000E-03 0. -1.
         11   -1    0    0    0    0 -0.00000000000E+00 -0.00000000000E+00 -0.45593999997E+02  0.45594000000E+02  0.51100000000E-03 0.  1.
    9900012    2    1    2    0    0 -0.49021314749E+01 -0.17581055778E+02 -0.41899028887E+01  0.72461556091E+02  0.69999981498E+02 0.  0.
         12    1    1    2    0    0  0.49021314749E+01  0.17581055778E+02  0.41899028887E+01  0.18726443909E+02  0.00000000000E+00 0. -1.
         11    1    3    3    0    0  0.21082882969E+01  0.23701896534E+02 -0.96628747564E+01  0.25682599706E+02  0.51100000000E-03 0. -1.
        -11    1    3    3    0    0  0.50919516947E+01 -0.64941151337E+01 -0.33446852663E+01  0.89044047091E+01  0.51100000000E-03 0.  1.
        -12    1    3    3    0    0 -0.12102371467E+02 -0.34788837178E+02  0.88176571340E+01  0.37874551676E+02  0.00000000000E+00 0.  1.
</event>
<event>
 7    1  0.2797450E-013  0.7246170E+02  0.7816164E-02  0.1226708E+00
        -11   -1    0    0    0    0  0.00000000000E+00  0.00000000000E+00  0.45593999997E+02  0.45594000000E+02  0.51100000000E-03 0. -1.
         11   -1    0    0    0    0 -0.00000000000E+00 -0.00000000000E+00 -0.45593999997E+02  0.45594000000E+02  0.51100000000E-03 0.  1.
    9900012    2    1    2    0    0  0.84979902694E+01  0.13592202159E+02 -0.96804158119E+01  0.72461701689E+02  0.70000171165E+02 0.  0.
         12    1    1    2    0    0 -0.84979902694E+01 -0.13592202159E+02  0.96804158119E+01  0.18726298311E+02  0.00000000000E+00 0. -1.
         11    1    3    3    0    0  0.14755363842E+02  0.15929694879E+02  0.12973931105E+02  0.25294244990E+02  0.51100000000E-03 0. -1.
        -11    1    3    3    0    0  0.93875629237E+01 -0.20939272464E+01  0.81566077711E+01  0.12611150604E+02  0.51100000000E-03 0.  1.
        -12    1    3    3    0    0 -0.15644936496E+02 -0.24356547334E+00 -0.30810954688E+02  0.34556306095E+02  0.00000000000E+00 0.  1.
</event>
<event>
 7    1  0.2797450E-013  0.7246166E+02  0.7816164E-02  0.1226708E+00
        -11   -1    0    0    0    0  0.00000000000E+00  0.00000000000E+00  0.45593999997E+02  0.45594000000E+02  0.51100000000E-03 0.  1.
         11   -1    0    0    0    0 -0.00000000000E+00 -0.00000000000E+00 -0.45593999997E+02  0.45594000000E+02  0.51100000000E-03 0. -1.
    9900012    2    1    2    0    0 -0.10074264363E+02 -0.40663673714E+01  0.15252855016E+02  0.72461662072E+02  0.70000119557E+02 0.  0.
         12    1    1    2    0    0  0.10074264363E+02  0.40663673714E+01 -0.15252855016E+02  0.18726337928E+02  0.00000000000E+00 0. -1.
         11    1    3    3    0    0  0.53882190099E+01 -0.19155976718E+02 -0.20186881849E+01  0.20001486204E+02  0.51100000000E-03 0. -1.
        -11    1    3    3    0    0 -0.21658347226E+02 -0.89649560493E+01  0.14263359850E+02  0.27438984602E+02  0.51100000000E-03 0.  1.
         12    1    3    3    0    0  0.61958638531E+01  0.24054565396E+02  0.30081833508E+01  0.25021191266E+02  0.00000000000E+00 0. -1.
</event>
<event>
 7    1  0.2797450E-013  0.7246143E+02  0.7816164E-02  0.1226708E+00
        -11   -1    0    0    0    0  0.00000000000E+00  0.00000000000E+00  0.45593999997E+02  0.45594000000E+02  0.51100000000E-03 0. -1.
         11   -1    0    0    0    0 -0.00000000000E+00 -0.00000000000E+00 -0.45593999997E+02  0.45594000000E+02  0.51100000000E-03 0.  1.
    9900012    2    1    2    0    0 -0.88720812425E+01 -0.12717621440E+02 -0.10499180016E+02  0.72461427925E+02  0.69999814537E+02 0.  0.
         12    1    1    2    0    0  0.88720812425E+01  0.12717621440E+02  0.10499180016E+02  0.18726572075E+02  0.00000000000E+00 0. -1.
         11    1    3    3    0    0 -0.10506004832E+02  0.17827874255E+02 -0.59657230795E+01  0.21535995220E+02  0.51100000000E-03 0. -1.
        -11    1    3    3    0    0  0.13741581066E+02 -0.98848146558E+01 -0.16946402421E+02  0.23952477247E+02  0.51100000000E-03 0.  1.
        -12    1    3    3    0    0 -0.12107657477E+02 -0.20660681039E+02  0.12412945484E+02  0.26972955459E+02  0.00000000000E+00 0.  1.
</event>
<event>
 7    1  0.2797450E-013  0.7246158E+02  0.7816164E-02  0.1226708E+00
        -11   -1    0    0    0    0  0.00000000000E+00  0.00000000000E+00  0.45593999997E+02  0.45594000000E+02  0.51100000000E-03 0.  1.
         11   -1    0    0    0    0 -0.00000000000E+00 -0.00000000000E+00 -0.45593999997E+02  0.45594000000E+02  0.51100000000E-03 0. -1.
    9900012    2    1    2    0    0 -0.67680793643E+01 -0.17347807364E+02  0.19812661010E+01  0.72461581924E+02  0.70000015149E+02 0.  0.
         12    1    1    2    0    0  0.67680793643E+01  0.17347807364E+02 -0.19812661010E+01  0.18726418076E+02  0.00000000000E+00 0. -1.
         11    1    3    3    0    0 -0.14062545719E+02 -0.71529714151E+01  0.26656419398E+01  0.16000807460E+02  0.51100000000E-03 0. -1.
        -11    1    3    3    0    0  0.66716670573E+01  0.54735269875E+01  0.24955814676E+02  0.26405744174E+02  0.51100000000E-03 0.  1.
         12    1    3    3    0    0  0.62279929732E+00 -0.15668362936E+02 -0.25640190515E+02  0.30055030289E+02  0.00000000000E+00 0. -1.
</event>
<event>
 7    1  0.2797450E-013  0.7246162E+02  0.7816164E-02  0.1226708E+00
        -11   -1    0    0    0    0  0.00000000000E+00  0.00000000000E+00  0.45593999997E+02  0.45594000000E+02  0.51100000000E-03 0. -1.
         11   -1    0    0    0    0 -0.00000000000E+00 -0.00000000000E+00 -0.45593999997E+02  0.45594000000E+02  0.51100000000E-03 0.  1.
    9900012    2    1    2    0    0  0.12675969653E+02 -0.63998998103E+01 -0.12208126285E+02  0.72461620969E+02  0.70000066013E+02 0.  0.
         12    1    1    2    0    0 -0.12675969653E+02  0.63998998103E+01  0.12208126285E+02  0.18726379031E+02  0.00000000000E+00 0. -1.
         11    1    3    3    0    0 -0.30425750322E+01 -0.10307220918E+02  0.24296405958E+02  0.26567111409E+02  0.51100000000E-03 0. -1.
        -11    1    3    3    0    0  0.43995309570E+01  0.21692201559E+01  0.23128491642E+01  0.54231596182E+01  0.51100000000E-03 0.  1.
        -12    1    3    3    0    0  0.11319013728E+02  0.17381009516E+01 -0.38817381408E+02  0.40471349941E+02  0.00000000000E+00 0.  1.
</event>
<event>
 7    1  0.2797450E-013  0.7246154E+02  0.7816164E-02  0.1226708E+00
        -11   -1    0    0    0    0  0.00000000000E+00  0.00000000000E+00  0.45593999997E+02  0.45594000000E+02  0.51100000000E-03 0. -1.
         11   -1    0    0    0    0 -0.00000000000E+00 -0.00000000000E+00 -0.45593999997E+02  0.45594000000E+02  0.51100000000E-03 0.  1.
    9900012    2    1    2    0    0  0.16245589830E+02 -0.17350613194E+01  0.91515436561E+01  0.72461538028E+02  0.69999957967E+02 0.  0.
         12    1    1    2    0    0 -0.16245589830E+02  0.17350613194E+01 -0.91515436561E+01  0.18726461972E+02  0.00000000000E+00 0. -1.
         11    1    3    3    0    0 -0.11303509425E+02 -0.15505625754E+02  0.24219777988E+01  0.19340623880E+02  0.51100000000E-03 0. -1.
        -11    1    3    3    0    0 -0.69674210588E+01 -0.27328067326E+01 -0.90429026491E+01  0.11738282559E+02  0.51100000000E-03 0.  1.
        -12    1    3    3    0    0  0.34516520314E+02  0.16503371167E+02  0.15772468506E+02  0.41382631589E+02  0.00000000000E+00 0.  1.
</event>
<event>
 7    1  0.2797450E-013  0.7246166E+02  0.7816164E-02  0.1226708E+00
        -11   -1    0    0    0    0  0.00000000000E+00  0.00000000000E+00  0.45593999997E+02  0.45594000000E+02  0.51100000000E-03 0. -1.
         11   -1    0    0    0    0 -0.00000000000E+00 -0.00000000000E+00 -0.45593999997E+02  0.45594000000E+02  0.51100000000E-03 0.  1.
    9900012    2    1    2    0    0 -0.15330624043E+02  0.10610059567E+02 -0.17533603514E+01  0.72461663730E+02  0.70000121717E+02 0.  0.
         12    1    1    2    0    0  0.15330624043E+02 -0.10610059567E+02  0.17533603514E+01  0.18726336270E+02  0.00000000000E+00 0. -1.
         11    1    3    3    0    0 -0.15509613186E+02 -0.19312384520E+01  0.15545584504E+02  0.22044114430E+02  0.51100000000E-03 0. -1.
        -11    1    3    3    0    0 -0.17092723527E+02 -0.60815234656E+01 -0.17226851466E+02  0.25018204111E+02  0.51100000000E-03 0.  1.
         12    1    3    3    0    0  0.17271712670E+02  0.18622821485E+02 -0.72093389688E-01  0.25399345190E+02  0.00000000000E+00 0. -1.
</event>
<event>
 7    1  0.2797450E-013  0.7246158E+02  0.7816164E-02  0.1226708E+00
        -11   -1    0    0    0    0  0.00000000000E+00  0.00000000000E+00  0.45593999997E+02  0.45594000000E+02  0.51100000000E-03 0.  1.
         11   -1    0    0    0    0 -0.00000000000E+00 -0.00000000000E+00 -0.45593999997E+02  0.45594000000E+02  0.51100000000E-03 0. -1.
    9900012    2    1    2    0    0 -0.16653314411E+02 -0.66623658831E+01  0.53813465271E+01  0.72461577745E+02  0.70000009706E+02 0.  0.
         12    1    1    2    0    0  0.16653314411E+02  0.66623658831E+01 -0.53813465271E+01  0.18726422255E+02  0.00000000000E+00 0. -1.
         11    1    3    3    0    0  0.13344353731E+02  0.77208619803E+00 -0.13167463592E+02  0.18762995264E+02  0.51100000000E-03 0. -1.
        -11    1    3    3    0    0  0.32351310903E+01  0.80912283657E+01 -0.50604029967E+01  0.10076791572E+02  0.51100000000E-03 0.  1.
        -12    1    3    3    0    0 -0.33232799232E+02 -0.15525680447E+02  0.23609213115E+02  0.43621790909E+02  0.00000000000E+00 0.  1.
</event>
<event>
 7    1  0.2797450E-013  0.7246157E+02  0.7816164E-02  0.1226708E+00
        -11   -1    0    0    0    0  0.00000000000E+00  0.00000000000E+00  0.45593999997E+02  0.45594000000E+02  0.51100000000E-03 0. -1.
         11   -1    0    0    0    0 -0.00000000000E+00 -0.00000000000E+00 -0.45593999997E+02  0.45594000000E+02  0.51100000000E-03 0.  1.
    9900012    2    1    2    0    0  0.12914652395E+01  0.18623849311E+02 -0.14708467729E+01  0.72461573864E+02  0.70000004650E+02 0.  0.
         12    1    1    2    0    0 -0.12914652395E+01 -0.18623849311E+02  0.14708467729E+01  0.18726426136E+02  0.00000000000E+00 0. -1.
         11    1    3    3    0    0 -0.80442745972E+01  0.30607164668E+01  0.12813297997E+02  0.15435638791E+02  0.51100000000E-03 0. -1.
        -11    1    3    3    0    0 -0.65077171702E+01 -0.17426100160E+02 -0.43048996873E+01  0.19093232077E+02  0.51100000000E-03 0.  1.
         12    1    3    3    0    0  0.15843457007E+02  0.32989233004E+02 -0.99792450824E+01  0.37932702995E+02  0.00000000000E+00 0. -1.
</event>
<event>
 7    1  0.2797450E-013  0.7246171E+02  0.7816164E-02  0.1226708E+00
        -11   -1    0    0    0    0  0.00000000000E+00  0.00000000000E+00  0.45593999997E+02  0.45594000000E+02  0.51100000000E-03 0.  1.
         11   -1    0    0    0    0 -0.00000000000E+00 -0.00000000000E+00 -0.45593999997E+02  0.45594000000E+02  0.51100000000E-03 0. -1.
    9900012    2    1    2    0    0  0.17734038612E+02  0.43504562345E+01  0.41534736251E+01  0.72461709975E+02  0.70000181960E+02 0.  0.
         12    1    1    2    0    0 -0.17734038612E+02 -0.43504562345E+01 -0.41534736251E+01  0.18726290025E+02  0.00000000000E+00 0. -1.
         11    1    3    3    0    0 -0.14884244067E+02 -0.83594741528E+00 -0.16794092448E+02  0.22456203395E+02  0.51100000000E-03 0. -1.
        -11    1    3    3    0    0  0.21059243264E+02 -0.91053235318E+01  0.11231462851E+01  0.22970853300E+02  0.51100000000E-03 0.  1.
         12    1    3    3    0    0  0.11559039415E+02  0.14291727182E+02  0.19824419788E+02  0.27034653280E+02  0.00000000000E+00 0. -1.
</event>
<event>
 7    1  0.2797450E-013  0.7246155E+02  0.7816164E-02  0.1226708E+00
        -11   -1    0    0    0    0  0.00000000000E+00  0.00000000000E+00  0.45593999997E+02  0.45594000000E+02  0.51100000000E-03 0.  1.
         11   -1    0    0    0    0 -0.00000000000E+00 -0.00000000000E+00 -0.45593999997E+02  0.45594000000E+02  0.51100000000E-03 0. -1.
    9900012    2    1    2    0    0  0.43262488773E+01  0.12038275885E+02  0.13676378899E+02  0.72461551981E+02  0.69999976143E+02 0.  0.
         12    1    1    2    0    0 -0.43262488773E+01 -0.12038275885E+02 -0.13676378899E+02  0.18726448019E+02  0.00000000000E+00 0. -1.
         11    1    3    3    0    0  0.11680725865E+02  0.20635823319E+02 -0.55309577009E+00  0.23718821134E+02  0.51100000000E-03 0. -1.
        -11    1    3    3    0    0  0.13045978475E+02 -0.14956578645E+01 -0.98343103715E+01  0.16405737032E+02  0.51100000000E-03 0.  1.
        -12    1    3    3    0    0 -0.20400455463E+02 -0.71018895690E+01  0.24063785040E+02  0.32336993815E+02  0.00000000000E+00 0.  1.
</event>
<event>
 7    1  0.2797450E-013  0.7246159E+02  0.7816164E-02  0.1226708E+00
        -11   -1    0    0    0    0  0.00000000000E+00  0.00000000000E+00  0.45593999997E+02  0.45594000000E+02  0.51100000000E-03 0.  1.
         11   -1    0    0    0    0 -0.00000000000E+00 -0.00000000000E+00 -0.45593999997E+02  0.45594000000E+02  0.51100000000E-03 0. -1.
    9900012    2    1    2    0    0  0.36120459338E+00  0.10987843102E+02  0.15159657643E+02  0.72461591251E+02  0.70000027300E+02 0.  0.
         12    1    1    2    0    0 -0.36120459338E+00 -0.10987843102E+02 -0.15159657643E+02  0.18726408749E+02  0.00000000000E+00 0. -1.
         11    1    3    3    0    0 -0.16554904467E+02 -0.21542590092E+01  0.12948334371E+02  0.21127353290E+02  0.51100000000E-03 0. -1.
        -11    1    3    3    0    0 -0.12357788209E+02 -0.82854441464E+01 -0.10155227514E+01  0.14912907189E+02  0.51100000000E-03 0.  1.
        -12    1    3    3    0    0  0.29273897269E+02  0.21427546257E+02  0.32268460238E+01  0.36421330772E+02  0.00000000000E+00 0.  1.
</event>
<event>
 7    1  0.2797450E-013  0.7246158E+02  0.7816164E-02  0.1226708E+00
        -11   -1    0    0    0    0  0.00000000000E+00  0.00000000000E+00  0.45593999997E+02  0.45594000000E+02  0.51100000000E-03 0.  1.
         11   -1    0    0    0    0 -0.00000000000E+00 -0.00000000000E+00 -0.45593999997E+02  0.45594000000E+02  0.51100000000E-03 0. -1.
    9900012    2    1    2    0    0 -0.27649717605E+01 -0.13210920421E+02  0.12980959499E+02  0.72461580248E+02  0.70000012967E+02 0.  0.
         12    1    1    2    0    0  0.27649717605E+01  0.13210920421E+02 -0.12980959499E+02  0.18726419752E+02  0.00000000000E+00 0. -1.
         11    1    3    3    0    0  0.59243713693E+00  0.63398225475E+01 -0.13203439984E+02  0.14658620651E+02  0.51100000000E-03 0. -1.
        -11    1    3    3    0    0 -0.77993598823E+01  0.10469852145E+02  0.24069064764E+02  0.27381886301E+02  0.51100000000E-03 0.  1.
        -12    1    3    3    0    0  0.44419509848E+01 -0.30020595114E+02  0.21153347186E+01  0.30421073297E+02  0.00000000000E+00 0.  1.
</event>
<event>
 7    1  0.2797450E-013  0.7246159E+02  0.7816164E-02  0.1226708E+00
        -11   -1    0    0    0    0  0.00000000000E+00  0.00000000000E+00  0.45593999997E+02  0.45594000000E+02  0.51100000000E-03 0.  1.
         11   -1    0    0    0    0 -0.00000000000E+00 -0.00000000000E+00 -0.45593999997E+02  0.45594000000E+02  0.51100000000E-03 0. -1.
    9900012    2    1    2    0    0  0.35698836496E+01  0.16588266516E+02 -0.79223625969E+01  0.72461588587E+02  0.70000023830E+02 0.  0.
         12    1    1    2    0    0 -0.35698836496E+01 -0.16588266516E+02  0.79223625969E+01  0.18726411413E+02  0.00000000000E+00 0. -1.
         11    1    3    3    0    0  0.16423709604E+02 -0.17278932351E+02  0.10241858233E+01  0.23861028838E+02  0.51100000000E-03 0.  1.
        -11    1    3    3    0    0 -0.90732949533E+01 -0.16829995911E+01 -0.89422025652E+01  0.12849908790E+02  0.51100000000E-03 0. -1.
        -12    1    3    3    0    0 -0.37805310008E+01  0.35550198459E+02 -0.43458549963E-02  0.35750650959E+02  0.00000000000E+00 0.  1.
</event>
<event>
 7    1  0.2797450E-013  0.7246155E+02  0.7816164E-02  0.1226708E+00
        -11   -1    0    0    0    0  0.00000000000E+00  0.00000000000E+00  0.45593999997E+02  0.45594000000E+02  0.51100000000E-03 0.  1.
         11   -1    0    0    0    0 -0.00000000000E+00 -0.00000000000E+00 -0.45593999997E+02  0.45594000000E+02  0.51100000000E-03 0. -1.
    9900012    2    1    2    0    0  0.14014552041E+02  0.34300831793E+01  0.11937626665E+02  0.72461546253E+02  0.69999968682E+02 0.  0.
         12    1    1    2    0    0 -0.14014552041E+02 -0.34300831793E+01 -0.11937626665E+02  0.18726453747E+02  0.00000000000E+00 0. -1.
         11    1    3    3    0    0 -0.14156448257E+02  0.88215511823E+01 -0.11274838361E+02  0.20133225594E+02  0.51100000000E-03 0. -1.
        -11    1    3    3    0    0  0.10661307836E+01  0.92615397985E+01  0.19085945245E+02  0.21241140752E+02  0.51100000000E-03 0.  1.
         12    1    3    3    0    0  0.27104869515E+02 -0.14653007802E+02  0.41265197807E+01  0.31087179906E+02  0.00000000000E+00 0. -1.
</event>
<event>
 7    1  0.2797450E-013  0.7246161E+02  0.7816164E-02  0.1226708E+00
        -11   -1    0    0    0    0  0.00000000000E+00  0.00000000000E+00  0.45593999997E+02  0.45594000000E+02  0.51100000000E-03 0.  1.
         11   -1    0    0    0    0 -0.00000000000E+00 -0.00000000000E+00 -0.45593999997E+02  0.45594000000E+02  0.51100000000E-03 0. -1.
    9900012    2    1    2    0    0  0.16667649116E+02  0.84902829516E+01 -0.88455395396E+00  0.72461605062E+02  0.70000045292E+02 0.  0.
         12    1    1    2    0    0 -0.16667649116E+02 -0.84902829516E+01  0.88455395396E+00  0.18726394938E+02  0.00000000000E+00 0. -1.
         11    1    3    3    0    0  0.21767435831E+01 -0.14826662602E+02 -0.18760421009E+01  0.15102571660E+02  0.51100000000E-03 0. -1.
        -11    1    3    3    0    0  0.71680800674E+01 -0.14181280775E+02  0.90862619077E+01  0.18304377946E+02  0.51100000000E-03 0.  1.
        -12    1    3    3    0    0  0.73228254659E+01  0.37498226328E+02 -0.80947737607E+01  0.39054655456E+02  0.00000000000E+00 0.  1.
</event>
<event>
 7    1  0.2797450E-013  0.7246144E+02  0.7816164E-02  0.1226708E+00
        -11   -1    0    0    0    0  0.00000000000E+00  0.00000000000E+00  0.45593999997E+02  0.45594000000E+02  0.51100000000E-03 0. -1.
         11   -1    0    0    0    0 -0.00000000000E+00 -0.00000000000E+00 -0.45593999997E+02  0.45594000000E+02  0.51100000000E-03 0.  1.
    9900012    2    1    2    0    0  0.82393445726E+01  0.33654385175E+01 -0.16476383325E+02  0.72461436437E+02  0.69999825626E+02 0.  0.
         12    1    1    2    0    0 -0.82393445726E+01 -0.33654385175E+01  0.16476383325E+02  0.18726563563E+02  0.00000000000E+00 0. -1.
         11    1    3    3    0    0  0.17238463092E+02  0.86858002796E+01  0.85816455009E+01  0.21124686413E+02  0.51100000000E-03 0. -1.
        -11    1    3    3    0    0  0.12643202143E+02 -0.62843118569E+01 -0.26071746578E+02  0.29649268218E+02  0.51100000000E-03 0.  1.
         12    1    3    3    0    0 -0.21642320662E+02  0.96395009481E+00  0.10137177522E+01  0.21687481806E+02  0.00000000000E+00 0. -1.
</event>
<event>
 7    1  0.2797450E-013  0.7246156E+02  0.7816164E-02  0.1226708E+00
        -11   -1    0    0    0    0  0.00000000000E+00  0.00000000000E+00  0.45593999997E+02  0.45594000000E+02  0.51100000000E-03 0. -1.
         11   -1    0    0    0    0 -0.00000000000E+00 -0.00000000000E+00 -0.45593999997E+02  0.45594000000E+02  0.51100000000E-03 0.  1.
    9900012    2    1    2    0    0  0.89492737115E+01 -0.16415727973E+02  0.10553622209E+01  0.72461563760E+02  0.69999991487E+02 0.  0.
         12    1    1    2    0    0 -0.89492737115E+01  0.16415727973E+02 -0.10553622209E+01  0.18726436240E+02  0.00000000000E+00 0. -1.
         11    1    3    3    0    0  0.95328703273E+00 -0.91448206404E+01 -0.21930890236E+01  0.94523087359E+01  0.51100000000E-03 0. -1.
        -11    1    3    3    0    0 -0.31082696477E+01 -0.58840704134E+01 -0.28541596579E+02  0.29307104264E+02  0.51100000000E-03 0.  1.
        -12    1    3    3    0    0  0.11104256326E+02 -0.13868369191E+01  0.31790047823E+02  0.33702150759E+02  0.00000000000E+00 0.  1.
</event>
<event>
 7    1  0.2797450E-013  0.7246155E+02  0.7816164E-02  0.1226708E+00
        -11   -1    0    0    0    0  0.00000000000E+00  0.00000000000E+00  0.45593999997E+02  0.45594000000E+02  0.51100000000E-03 0.  1.
         11   -1    0    0    0    0 -0.00000000000E+00 -0.00000000000E+00 -0.45593999997E+02  0.45594000000E+02  0.51100000000E-03 0. -1.
    9900012    2    1    2    0    0  0.16724565259E+02 -0.64904847656E+01  0.53705065621E+01  0.72461553024E+02  0.69999977502E+02 0.  0.
         12    1    1    2    0    0 -0.16724565259E+02  0.64904847656E+01 -0.53705065621E+01  0.18726446976E+02  0.00000000000E+00 0. -1.
         11    1    3    3    0    0 -0.12466262928E+02 -0.72508754692E+01  0.44741852703E+01  0.15099709949E+02  0.51100000000E-03 0. -1.
        -11    1    3    3    0    0 -0.64762771241E-01  0.17221726023E+02  0.13105906083E+02  0.21641552993E+02  0.51100000000E-03 0.  1.
         12    1    3    3    0    0  0.29255590958E+02 -0.16461335319E+02 -0.12209584791E+02  0.35720290082E+02  0.00000000000E+00 0. -1.
</event>
<event>
 7    1  0.2797450E-013  0.7246159E+02  0.7816164E-02  0.1226708E+00
        -11   -1    0    0    0    0  0.00000000000E+00  0.00000000000E+00  0.45593999997E+02  0.45594000000E+02  0.51100000000E-03 0. -1.
         11   -1    0    0    0    0 -0.00000000000E+00 -0.00000000000E+00 -0.45593999997E+02  0.45594000000E+02  0.51100000000E-03 0.  1.
    9900012    2    1    2    0    0 -0.78905054178E+01 -0.12334153810E+02 -0.11674206459E+02  0.72461587573E+02  0.70000022508E+02 0.  0.
         12    1    1    2    0    0  0.78905054178E+01  0.12334153810E+02  0.11674206459E+02  0.18726412427E+02  0.00000000000E+00 0. -1.
         11    1    3    3    0    0 -0.46047274563E+01  0.16208906817E+01 -0.27195762686E+01  0.55881031567E+01  0.51100000000E-03 0. -1.
        -11    1    3    3    0    0  0.31006360704E+01  0.21664934863E+02 -0.19359488980E+02  0.29219396991E+02  0.51100000000E-03 0.  1.
         12    1    3    3    0    0 -0.63864140319E+01 -0.35619979354E+02  0.10404858790E+02  0.37654087425E+02  0.00000000000E+00 0. -1.
</event>
<event>
 7    1  0.2797450E-013  0.7246157E+02  0.7816164E-02  0.1226708E+00
        -11   -1    0    0    0    0  0.00000000000E+00  0.00000000000E+00  0.45593999997E+02  0.45594000000E+02  0.51100000000E-03 0.  1.
         11   -1    0    0    0    0 -0.00000000000E+00 -0.00000000000E+00 -0.45593999997E+02  0.45594000000E+02  0.51100000000E-03 0. -1.
    9900012    2    1    2    0    0  0.81294894587E+01 -0.16835657687E+02  0.10730182671E+01  0.72461565827E+02  0.69999994181E+02 0.  0.
         12    1    1    2    0    0 -0.81294894587E+01  0.16835657687E+02 -0.10730182671E+01  0.18726434173E+02  0.00000000000E+00 0. -1.
         11    1    3    3    0    0 -0.16654252372E+01  0.26070754215E+01 -0.72326339612E+01  0.78664781034E+01  0.51100000000E-03 0. -1.
        -11    1    3    3    0    0 -0.84431521939E+01 -0.18211061919E+02 -0.21636645559E+02  0.29513963246E+02  0.51100000000E-03 0.  1.
        -12    1    3    3    0    0  0.18238066890E+02 -0.12316711899E+01  0.29942297788E+02  0.35081124477E+02  0.00000000000E+00 0.  1.
</event>
<event>
 7    1  0.2797450E-013  0.7246147E+02  0.7816164E-02  0.1226708E+00
        -11   -1    0    0    0    0  0.00000000000E+00  0.00000000000E+00  0.45593999997E+02  0.45594000000E+02  0.51100000000E-03 0.  1.
         11   -1    0    0    0    0 -0.00000000000E+00 -0.00000000000E+00 -0.45593999997E+02  0.45594000000E+02  0.51100000000E-03 0. -1.
    9900012    2    1    2    0    0 -0.56320027117E+01  0.12179747279E+02  0.13062052482E+02  0.72461470333E+02  0.69999869781E+02 0.  0.
         12    1    1    2    0    0  0.56320027117E+01 -0.12179747279E+02 -0.13062052482E+02  0.18726529667E+02  0.00000000000E+00 0. -1.
         11    1    3    3    0    0 -0.50156555820E+01  0.56445525037E+01  0.21018485308E+02  0.22333707681E+02  0.51100000000E-03 0. -1.
        -11    1    3    3    0    0 -0.36846443358E+01 -0.18819633997E+02  0.71363330836E+01  0.20461732033E+02  0.51100000000E-03 0.  1.
         12    1    3    3    0    0  0.30682972062E+01  0.25354828773E+02 -0.15092765910E+02  0.29666030618E+02  0.00000000000E+00 0. -1.
</event>
<event>
 7    1  0.2797450E-013  0.7246158E+02  0.7816164E-02  0.1226708E+00
        -11   -1    0    0    0    0  0.00000000000E+00  0.00000000000E+00  0.45593999997E+02  0.45594000000E+02  0.51100000000E-03 0. -1.
         11   -1    0    0    0    0 -0.00000000000E+00 -0.00000000000E+00 -0.45593999997E+02  0.45594000000E+02  0.51100000000E-03 0.  1.
    9900012    2    1    2    0    0 -0.13843764400E+02 -0.10773089706E+02 -0.65551215602E+01  0.72461577671E+02  0.70000009610E+02 0.  0.
         12    1    1    2    0    0  0.13843764400E+02  0.10773089706E+02  0.65551215602E+01  0.18726422329E+02  0.00000000000E+00 0. -1.
         11    1    3    3    0    0 -0.17422585675E+01 -0.11096353038E+02  0.14546975925E+02  0.18378765586E+02  0.51100000000E-03 0. -1.
        -11    1    3    3    0    0 -0.30660892717E+02  0.38263807160E+01 -0.12562622038E+02  0.33354924738E+02  0.51100000000E-03 0.  1.
         12    1    3    3    0    0  0.18559386884E+02 -0.35031173843E+01 -0.85394754479E+01  0.20727887347E+02  0.00000000000E+00 0. -1.
</event>
<event>
 7    1  0.2797450E-013  0.7246155E+02  0.7816164E-02  0.1226708E+00
        -11   -1    0    0    0    0  0.00000000000E+00  0.00000000000E+00  0.45593999997E+02  0.45594000000E+02  0.51100000000E-03 0. -1.
         11   -1    0    0    0    0 -0.00000000000E+00 -0.00000000000E+00 -0.45593999997E+02  0.45594000000E+02  0.51100000000E-03 0.  1.
    9900012    2    1    2    0    0 -0.53603498034E+01 -0.34407648652E+01 -0.17609871226E+02  0.72461554062E+02  0.69999978854E+02 0.  0.
         12    1    1    2    0    0  0.53603498034E+01  0.34407648652E+01  0.17609871226E+02  0.18726445938E+02  0.00000000000E+00 0. -1.
         11    1    3    3    0    0 -0.21701390421E+02 -0.21849885416E+02  0.92636818831E+01  0.32158725740E+02  0.51100000000E-03 0. -1.
        -11    1    3    3    0    0  0.11721505334E+02  0.39023704365E+01 -0.43118481645E+01  0.13084885066E+02  0.51100000000E-03 0.  1.
        -12    1    3    3    0    0  0.46195352833E+01  0.14506750114E+02 -0.22561704945E+02  0.27217943257E+02  0.00000000000E+00 0.  1.
</event>
<event>
 7    1  0.2797450E-013  0.7246173E+02  0.7816164E-02  0.1226708E+00
        -11   -1    0    0    0    0  0.00000000000E+00  0.00000000000E+00  0.45593999997E+02  0.45594000000E+02  0.51100000000E-03 0. -1.
         11   -1    0    0    0    0 -0.00000000000E+00 -0.00000000000E+00 -0.45593999997E+02  0.45594000000E+02  0.51100000000E-03 0.  1.
    9900012    2    1    2    0    0  0.17090691255E+02 -0.65605476958E+01 -0.39421785845E+01  0.72461727396E+02  0.70000204654E+02 0.  0.
         12    1    1    2    0    0 -0.17090691255E+02  0.65605476958E+01  0.39421785845E+01  0.18726272604E+02  0.00000000000E+00 0. -1.
         11    1    3    3    0    0 -0.46352607035E+01 -0.24916383039E+02  0.76401366927E+01  0.26470426413E+02  0.51100000000E-03 0. -1.
        -11    1    3    3    0    0  0.25043788969E+02  0.33371755090E+01 -0.16102243165E+02  0.29960145886E+02  0.51100000000E-03 0.  1.
        -12    1    3    3    0    0 -0.33178370104E+01  0.15018659834E+02  0.45199278880E+01  0.16031155097E+02  0.00000000000E+00 0.  1.
</event>
<event>
 7    1  0.2797450E-013  0.7246156E+02  0.7816164E-02  0.1226708E+00
        -11   -1    0    0    0    0  0.00000000000E+00  0.00000000000E+00  0.45593999997E+02  0.45594000000E+02  0.51100000000E-03 0. -1.
         11   -1    0    0    0    0 -0.00000000000E+00 -0.00000000000E+00 -0.45593999997E+02  0.45594000000E+02  0.51100000000E-03 0.  1.
    9900012    2    1    2    0    0 -0.43741681549E+01  0.29192086303E+01 -0.17972882744E+02  0.72461557727E+02  0.69999983628E+02 0.  0.
         12    1    1    2    0    0  0.43741681549E+01 -0.29192086303E+01  0.17972882744E+02  0.18726442273E+02  0.00000000000E+00 0. -1.
         11    1    3    3    0    0 -0.16745217589E+02  0.12522450968E+02 -0.18189553373E+02  0.27714146975E+02  0.51100000000E-03 0. -1.
        -11    1    3    3    0    0  0.13447444500E+02  0.11212738889E+02  0.11595116436E+02  0.21000142914E+02  0.51100000000E-03 0.  1.
         12    1    3    3    0    0 -0.10763950653E+01 -0.20815981227E+02 -0.11378445807E+02  0.23747267838E+02  0.00000000000E+00 0. -1.
</event>
<event>
 7    1  0.2797450E-013  0.7246161E+02  0.7816164E-02  0.1226708E+00
        -11   -1    0    0    0    0  0.00000000000E+00  0.00000000000E+00  0.45593999997E+02  0.45594000000E+02  0.51100000000E-03 0.  1.
         11   -1    0    0    0    0 -0.00000000000E+00 -0.00000000000E+00 -0.45593999997E+02  0.45594000000E+02  0.51100000000E-03 0. -1.
    9900012    2    1    2    0    0  0.11130250595E+02 -0.62328625283E+01  0.13709357693E+02  0.72461613751E+02  0.70000056610E+02 0.  0.
         12    1    1    2    0    0 -0.11130250595E+02  0.62328625283E+01 -0.13709357693E+02  0.18726386249E+02  0.00000000000E+00 0. -1.
         11    1    3    3    0    0  0.51412661546E+01 -0.27857009268E+02 -0.13910913813E+00  0.28327812035E+02  0.51100000000E-03 0. -1.
        -11    1    3    3    0    0  0.89956944487E+01 -0.79734219074E+01  0.24053386520E+01  0.12259022384E+02  0.51100000000E-03 0.  1.
         12    1    3    3    0    0 -0.30067100081E+01  0.29597568647E+02  0.11443128179E+02  0.31874779332E+02  0.00000000000E+00 0. -1.
</event>
<event>
 7    1  0.2797450E-013  0.7246156E+02  0.7816164E-02  0.1226708E+00
        -11   -1    0    0    0    0  0.00000000000E+00  0.00000000000E+00  0.45593999997E+02  0.45594000000E+02  0.51100000000E-03 0. -1.
         11   -1    0    0    0    0 -0.00000000000E+00 -0.00000000000E+00 -0.45593999997E+02  0.45594000000E+02  0.51100000000E-03 0.  1.
    9900012    2    1    2    0    0  0.15338337325E+02  0.84276900459E+01 -0.66624970995E+01  0.72461563633E+02  0.69999991322E+02 0.  0.
         12    1    1    2    0    0 -0.15338337325E+02 -0.84276900459E+01  0.66624970995E+01  0.18726436367E+02  0.00000000000E+00 0. -1.
         11    1    3    3    0    0  0.55006439635E+01 -0.92947559544E+01 -0.48316519239E+01  0.11831924308E+02  0.51100000000E-03 0. -1.
        -11    1    3    3    0    0 -0.63793971804E+01 -0.19206434129E+02  0.30253943766E+00  0.20240438501E+02  0.51100000000E-03 0.  1.
         12    1    3    3    0    0  0.16217090542E+02  0.36928880129E+02 -0.21333846133E+01  0.40389200823E+02  0.00000000000E+00 0. -1.
</event>
<event>
 7    1  0.2797450E-013  0.7246158E+02  0.7816164E-02  0.1226708E+00
        -11   -1    0    0    0    0  0.00000000000E+00  0.00000000000E+00  0.45593999997E+02  0.45594000000E+02  0.51100000000E-03 0. -1.
         11   -1    0    0    0    0 -0.00000000000E+00 -0.00000000000E+00 -0.45593999997E+02  0.45594000000E+02  0.51100000000E-03 0.  1.
    9900012    2    1    2    0    0 -0.13895570479E+01 -0.48946299292E+01 -0.18021948341E+02  0.72461577679E+02  0.70000009620E+02 0.  0.
         12    1    1    2    0    0  0.13895570479E+01  0.48946299292E+01  0.18021948341E+02  0.18726422321E+02  0.00000000000E+00 0. -1.
         11    1    3    3    0    0  0.31157773063E+01 -0.54520862259E+01  0.11038677677E+02  0.12699831399E+02  0.51100000000E-03 0. -1.
        -11    1    3    3    0    0 -0.17633642959E+02  0.66558285520E+01  0.76185413282E+01  0.20329475890E+02  0.51100000000E-03 0.  1.
         12    1    3    3    0    0  0.13128308605E+02 -0.60983722553E+01 -0.36679167346E+02  0.39432270391E+02  0.00000000000E+00 0. -1.
</event>
<event>
 7    1  0.2797450E-013  0.7246164E+02  0.7816164E-02  0.1226708E+00
        -11   -1    0    0    0    0  0.00000000000E+00  0.00000000000E+00  0.45593999997E+02  0.45594000000E+02  0.51100000000E-03 0. -1.
         11   -1    0    0    0    0 -0.00000000000E+00 -0.00000000000E+00 -0.45593999997E+02  0.45594000000E+02  0.51100000000E-03 0.  1.
    9900012    2    1    2    0    0 -0.15397293050E+02  0.98261496796E+01 -0.41287837616E+01  0.72461636067E+02  0.70000085681E+02 0.  0.
         12    1    1    2    0    0  0.15397293050E+02 -0.98261496796E+01  0.41287837616E+01  0.18726363933E+02  0.00000000000E+00 0. -1.
         11    1    3    3    0    0  0.22588788210E+02  0.11113367880E+02  0.63138840827E+00  0.25182512782E+02  0.51100000000E-03 0. -1.
        -11    1    3    3    0    0 -0.39170374162E+01  0.28258700022E+01  0.90737577541E+01  0.10279192742E+02  0.51100000000E-03 0.  1.
        -12    1    3    3    0    0 -0.34069043844E+02 -0.41130882023E+01 -0.13833929924E+02  0.36999930543E+02  0.00000000000E+00 0.  1.
</event>
<event>
 7    1  0.2797450E-013  0.7246140E+02  0.7816164E-02  0.1226708E+00
        -11   -1    0    0    0    0  0.00000000000E+00  0.00000000000E+00  0.45593999997E+02  0.45594000000E+02  0.51100000000E-03 0.  1.
         11   -1    0    0    0    0 -0.00000000000E+00 -0.00000000000E+00 -0.45593999997E+02  0.45594000000E+02  0.51100000000E-03 0. -1.
    9900012    2    1    2    0    0 -0.17308047835E+01  0.10351543339E+02  0.15509207152E+02  0.72461397500E+02  0.69999774903E+02 0.  0.
         12    1    1    2    0    0  0.17308047835E+01 -0.10351543339E+02 -0.15509207152E+02  0.18726602500E+02  0.00000000000E+00 0. -1.
         11    1    3    3    0    0  0.57457309516E+01 -0.40962647416E+01 -0.81903594899E+01  0.10810864805E+02  0.51100000000E-03 0. -1.
        -11    1    3    3    0    0  0.21264669069E+02  0.12178464517E+02  0.28044343227E+00  0.24506729635E+02  0.51100000000E-03 0.  1.
        -12    1    3    3    0    0 -0.28741204805E+02  0.22693435630E+01  0.23419123210E+02  0.37143803060E+02  0.00000000000E+00 0.  1.
</event>
<event>
 7    1  0.2797450E-013  0.7246156E+02  0.7816164E-02  0.1226708E+00
        -11   -1    0    0    0    0  0.00000000000E+00  0.00000000000E+00  0.45593999997E+02  0.45594000000E+02  0.51100000000E-03 0. -1.
         11   -1    0    0    0    0 -0.00000000000E+00 -0.00000000000E+00 -0.45593999997E+02  0.45594000000E+02  0.51100000000E-03 0.  1.
    9900012    2    1    2    0    0  0.38620986104E+01 -0.15297679078E+02 -0.10086869909E+02  0.72461555185E+02  0.69999980317E+02 0.  0.
         12    1    1    2    0    0 -0.38620986104E+01  0.15297679078E+02  0.10086869909E+02  0.18726444815E+02  0.00000000000E+00 0. -1.
         11    1    3    3    0    0 -0.29900599163E+01 -0.17003071013E+02  0.11163056355E+02  0.20558665074E+02  0.51100000000E-03 0. -1.
        -11    1    3    3    0    0  0.22774321436E+02 -0.12528856257E+02 -0.11964026784E+02  0.28614330206E+02  0.51100000000E-03 0.  1.
         12    1    3    3    0    0 -0.15922162909E+02  0.14234248192E+02 -0.92858994801E+01  0.23288559905E+02  0.00000000000E+00 0. -1.
</event>
<event>
 7    1  0.2797450E-013  0.7246154E+02  0.7816164E-02  0.1226708E+00
        -11   -1    0    0    0    0  0.00000000000E+00  0.00000000000E+00  0.45593999997E+02  0.45594000000E+02  0.51100000000E-03 0.  1.
         11   -1    0    0    0    0 -0.00000000000E+00 -0.00000000000E+00 -0.45593999997E+02  0.45594000000E+02  0.51100000000E-03 0. -1.
    9900012    2    1    2    0    0 -0.12682624302E+02 -0.23529926223E+01  0.13575527392E+02  0.72461535373E+02  0.69999954508E+02 0.  0.
         12    1    1    2    0    0  0.12682624302E+02  0.23529926223E+01 -0.13575527392E+02  0.18726464627E+02  0.00000000000E+00 0. -1.
         11    1    3    3    0    0 -0.25716628223E+02 -0.36683630790E+01 -0.47446394284E+01  0.26406693439E+02  0.51100000000E-03 0. -1.
        -11    1    3    3    0    0 -0.14427099622E+02 -0.68408019851E+00  0.88443194760E+01  0.16936090354E+02  0.51100000000E-03 0.  1.
        -12    1    3    3    0    0  0.27461103542E+02  0.19994506552E+01  0.94758473440E+01  0.29118751580E+02  0.00000000000E+00 0.  1.
</event>
<event>
 7    1  0.2797450E-013  0.7246153E+02  0.7816164E-02  0.1226708E+00
        -11   -1    0    0    0    0  0.00000000000E+00  0.00000000000E+00  0.45593999997E+02  0.45594000000E+02  0.51100000000E-03 0. -1.
         11   -1    0    0    0    0 -0.00000000000E+00 -0.00000000000E+00 -0.45593999997E+02  0.45594000000E+02  0.51100000000E-03 0.  1.
    9900012    2    1    2    0    0 -0.21441587244E+01  0.10624526793E+02 -0.15270969708E+02  0.72461534716E+02  0.69999953653E+02 0.  0.
         12    1    1    2    0    0  0.21441587244E+01 -0.10624526793E+02  0.15270969708E+02  0.18726465284E+02  0.00000000000E+00 0. -1.
         11    1    3    3    0    0  0.84212311485E+01  0.45943585127E+00  0.26158834982E+02  0.27484775117E+02  0.51100000000E-03 0. -1.
        -11    1    3    3    0    0  0.71810889139E+00 -0.10021051175E+01 -0.11684204512E+01  0.16985587003E+01  0.51100000000E-03 0.  1.
        -12    1    3    3    0    0 -0.11283498764E+02  0.11167196059E+02 -0.40261384239E+02  0.43278200899E+02  0.00000000000E+00 0.  1.
</event>
<event>
 7    1  0.2797450E-013  0.7246169E+02  0.7816164E-02  0.1226708E+00
        -11   -1    0    0    0    0  0.00000000000E+00  0.00000000000E+00  0.45593999997E+02  0.45594000000E+02  0.51100000000E-03 0. -1.
         11   -1    0    0    0    0 -0.00000000000E+00 -0.00000000000E+00 -0.45593999997E+02  0.45594000000E+02  0.51100000000E-03 0.  1.
    9900012    2    1    2    0    0  0.58268563727E+01 -0.76246777870E+01 -0.16080628336E+02  0.72461692990E+02  0.70000159834E+02 0.  0.
         12    1    1    2    0    0 -0.58268563727E+01  0.76246777870E+01  0.16080628336E+02  0.18726307010E+02  0.00000000000E+00 0. -1.
         11    1    3    3    0    0  0.49592693426E+01  0.21937491032E+01 -0.20275901151E+01  0.57894740242E+01  0.51100000000E-03 0. -1.
        -11    1    3    3    0    0  0.13760276075E+02 -0.35201002497E+01 -0.36986429997E+02  0.39619847395E+02  0.51100000000E-03 0.  1.
         12    1    3    3    0    0 -0.12892689044E+02 -0.62983266405E+01  0.22933391776E+02  0.27052371571E+02  0.00000000000E+00 0. -1.
</event>
<event>
 7    1  0.2797450E-013  0.7246158E+02  0.7816164E-02  0.1226708E+00
        -11   -1    0    0    0    0  0.00000000000E+00  0.00000000000E+00  0.45593999997E+02  0.45594000000E+02  0.51100000000E-03 0. -1.
         11   -1    0    0    0    0 -0.00000000000E+00 -0.00000000000E+00 -0.45593999997E+02  0.45594000000E+02  0.51100000000E-03 0.  1.
    9900012    2    1    2    0    0 -0.61155804167E+01 -0.17592344986E+02 -0.19462120541E+01  0.72461583703E+02  0.70000017468E+02 0.  0.
         12    1    1    2    0    0  0.61155804167E+01  0.17592344986E+02  0.19462120541E+01  0.18726416297E+02  0.00000000000E+00 0. -1.
         11    1    3    3    0    0 -0.95650395026E+01 -0.74186255371E+00  0.24359191885E+02  0.26180347023E+02  0.51100000000E-03 0. -1.
        -11    1    3    3    0    0 -0.10875587142E+02  0.32462305292E+01 -0.17811300038E+01  0.11488639287E+02  0.51100000000E-03 0.  1.
         12    1    3    3    0    0  0.14325046227E+02 -0.20096712962E+02 -0.24524273935E+02  0.34792597393E+02  0.00000000000E+00 0. -1.
</event>
<event>
 7    1  0.2797450E-013  0.7246157E+02  0.7816164E-02  0.1226708E+00
        -11   -1    0    0    0    0  0.00000000000E+00  0.00000000000E+00  0.45593999997E+02  0.45594000000E+02  0.51100000000E-03 0.  1.
         11   -1    0    0    0    0 -0.00000000000E+00 -0.00000000000E+00 -0.45593999997E+02  0.45594000000E+02  0.51100000000E-03 0. -1.
    9900012    2    1    2    0    0  0.33669140650E+01 -0.11045756200E+01  0.18388116789E+02  0.72461573841E+02  0.70000004621E+02 0.  0.
         12    1    1    2    0    0 -0.33669140650E+01  0.11045756200E+01 -0.18388116789E+02  0.18726426159E+02  0.00000000000E+00 0. -1.
         11    1    3    3    0    0  0.47440779981E+01  0.24980116168E+01  0.73781273476E+01  0.91204770439E+01  0.51100000000E-03 0. -1.
        -11    1    3    3    0    0  0.69590151484E+01  0.20387248792E+02 -0.15568788212E+02  0.26579220677E+02  0.51100000000E-03 0.  1.
         12    1    3    3    0    0 -0.83361790814E+01 -0.23989836029E+02  0.26578777653E+02  0.36761876121E+02  0.00000000000E+00 0. -1.
</event>
<event>
 7    1  0.2797450E-013  0.7246103E+02  0.7816164E-02  0.1226709E+00
        -11   -1    0    0    0    0  0.00000000000E+00  0.00000000000E+00  0.45593999997E+02  0.45594000000E+02  0.51100000000E-03 0.  1.
         11   -1    0    0    0    0 -0.00000000000E+00 -0.00000000000E+00 -0.45593999997E+02  0.45594000000E+02  0.51100000000E-03 0. -1.
    9900012    2    1    2    0    0  0.10827222103E+02  0.12451278297E+02  0.88564362596E+01  0.72461026595E+02  0.69999291727E+02 0.  0.
         12    1    1    2    0    0 -0.10827222103E+02 -0.12451278297E+02 -0.88564362596E+01  0.18726973405E+02  0.00000000000E+00 0. -1.
         11    1    3    3    0    0  0.32636170729E+02  0.35740871883E+01 -0.10370546281E+01  0.32847666914E+02  0.51100000000E-03 0. -1.
        -11    1    3    3    0    0 -0.12632941001E+02 -0.71224991543E+01  0.14599434677E+02  0.20578257596E+02  0.51100000000E-03 0.  1.
        -12    1    3    3    0    0 -0.91760076249E+01  0.15999690263E+02 -0.47059437896E+01  0.19035102085E+02  0.00000000000E+00 0.  1.
</event>
<event>
 7    1  0.2797450E-013  0.7246137E+02  0.7816164E-02  0.1226709E+00
        -11   -1    0    0    0    0  0.00000000000E+00  0.00000000000E+00  0.45593999997E+02  0.45594000000E+02  0.51100000000E-03 0. -1.
         11   -1    0    0    0    0 -0.00000000000E+00 -0.00000000000E+00 -0.45593999997E+02  0.45594000000E+02  0.51100000000E-03 0.  1.
    9900012    2    1    2    0    0 -0.63506675943E+01 -0.16975801081E+02 -0.47093560669E+01  0.72461365604E+02  0.69999733352E+02 0.  0.
         12    1    1    2    0    0  0.63506675943E+01  0.16975801081E+02  0.47093560669E+01  0.18726634396E+02  0.00000000000E+00 0. -1.
         11    1    3    3    0    0  0.95798653282E+01 -0.80035885269E+01  0.13105839243E+01  0.12551847653E+02  0.51100000000E-03 0. -1.
        -11    1    3    3    0    0  0.80243903719E+01  0.19939007377E+02  0.17632920004E+01  0.21565343841E+02  0.51100000000E-03 0.  1.
         12    1    3    3    0    0 -0.23954923294E+02 -0.28911219932E+02 -0.77832319916E+01  0.38344174110E+02  0.00000000000E+00 0. -1.
</event>
<event>
 7    1  0.2797450E-013  0.7246158E+02  0.7816164E-02  0.1226708E+00
        -11   -1    0    0    0    0  0.00000000000E+00  0.00000000000E+00  0.45593999997E+02  0.45594000000E+02  0.51100000000E-03 0. -1.
         11   -1    0    0    0    0 -0.00000000000E+00 -0.00000000000E+00 -0.45593999997E+02  0.45594000000E+02  0.51100000000E-03 0.  1.
    9900012    2    1    2    0    0 -0.13451333282E+02 -0.47165689445E+01 -0.12144728589E+02  0.72461579568E+02  0.70000012081E+02 0.  0.
         12    1    1    2    0    0  0.13451333282E+02  0.47165689445E+01  0.12144728589E+02  0.18726420432E+02  0.00000000000E+00 0. -1.
         11    1    3    3    0    0 -0.36030011506E+01 -0.12042321948E+02  0.31128241441E+01  0.12949471403E+02  0.51100000000E-03 0. -1.
        -11    1    3    3    0    0  0.19662710342E+02 -0.96912046308E+01  0.61520980101E+00  0.21929890756E+02  0.51100000000E-03 0.  1.
         12    1    3    3    0    0 -0.29511042473E+02  0.17016957635E+02 -0.15872762534E+02  0.37582217410E+02  0.00000000000E+00 0. -1.
</event>
<event>
 7    1  0.2797450E-013  0.7246156E+02  0.7816164E-02  0.1226708E+00
        -11   -1    0    0    0    0  0.00000000000E+00  0.00000000000E+00  0.45593999997E+02  0.45594000000E+02  0.51100000000E-03 0.  1.
         11   -1    0    0    0    0 -0.00000000000E+00 -0.00000000000E+00 -0.45593999997E+02  0.45594000000E+02  0.51100000000E-03 0. -1.
    9900012    2    1    2    0    0 -0.90426932413E+00 -0.11014990662E+02  0.15117265364E+02  0.72461563223E+02  0.69999990788E+02 0.  0.
         12    1    1    2    0    0  0.90426932413E+00  0.11014990662E+02 -0.15117265364E+02  0.18726436777E+02  0.00000000000E+00 0. -1.
         11    1    3    3    0    0 -0.89071174139E+01 -0.97239494954E+01 -0.27630098938E+01  0.13473164378E+02  0.51100000000E-03 0. -1.
        -11    1    3    3    0    0  0.21784689269E+01 -0.27855302013E+02  0.33095203432E+01  0.28135680234E+02  0.51100000000E-03 0.  1.
        -12    1    3    3    0    0  0.58243791629E+01  0.26564260846E+02  0.14570754914E+02  0.30852718611E+02  0.00000000000E+00 0.  1.
</event>
<event>
 7    1  0.2797450E-013  0.7246152E+02  0.7816164E-02  0.1226708E+00
        -11   -1    0    0    0    0  0.00000000000E+00  0.00000000000E+00  0.45593999997E+02  0.45594000000E+02  0.51100000000E-03 0.  1.
         11   -1    0    0    0    0 -0.00000000000E+00 -0.00000000000E+00 -0.45593999997E+02  0.45594000000E+02  0.51100000000E-03 0. -1.
    9900012    2    1    2    0    0  0.13186879784E+02 -0.12987201484E+02 -0.28495144090E+01  0.72461523204E+02  0.69999938656E+02 0.  0.
         12    1    1    2    0    0 -0.13186879784E+02  0.12987201484E+02  0.28495144090E+01  0.18726476796E+02  0.00000000000E+00 0. -1.
         11    1    3    3    0    0  0.36738642300E+01  0.59104363970E+01 -0.14343247090E+02  0.15942373541E+02  0.51100000000E-03 0. -1.
        -11    1    3    3    0    0 -0.12618949966E+02 -0.19748404659E+02  0.21875013028E+02  0.32058596040E+02  0.51100000000E-03 0.  1.
         12    1    3    3    0    0  0.22131965520E+02  0.85076677750E+00 -0.10381280348E+02  0.24460553623E+02  0.00000000000E+00 0. -1.
</event>
<event>
 7    1  0.2797450E-013  0.7246157E+02  0.7816164E-02  0.1226708E+00
        -11   -1    0    0    0    0  0.00000000000E+00  0.00000000000E+00  0.45593999997E+02  0.45594000000E+02  0.51100000000E-03 0.  1.
         11   -1    0    0    0    0 -0.00000000000E+00 -0.00000000000E+00 -0.45593999997E+02  0.45594000000E+02  0.51100000000E-03 0. -1.
    9900012    2    1    2    0    0 -0.81436880239E+01 -0.15640556705E+02 -0.63033729520E+01  0.72461570034E+02  0.69999999661E+02 0.  0.
         12    1    1    2    0    0  0.81436880239E+01  0.15640556705E+02  0.63033729520E+01  0.18726429966E+02  0.00000000000E+00 0. -1.
         11    1    3    3    0    0 -0.88191749905E+01  0.11603533184E+02 -0.74439854558E+01  0.16365596524E+02  0.51100000000E-03 0. -1.
        -11    1    3    3    0    0 -0.86735421785E+01  0.29626420331E+01 -0.17237424735E+02  0.19522714808E+02  0.51100000000E-03 0.  1.
        -12    1    3    3    0    0  0.93490291451E+01 -0.30206731922E+02  0.18378037238E+02  0.36573258702E+02  0.00000000000E+00 0.  1.
</event>
<event>
 7    1  0.2797450E-013  0.7246167E+02  0.7816164E-02  0.1226708E+00
        -11   -1    0    0    0    0  0.00000000000E+00  0.00000000000E+00  0.45593999997E+02  0.45594000000E+02  0.51100000000E-03 0.  1.
         11   -1    0    0    0    0 -0.00000000000E+00 -0.00000000000E+00 -0.45593999997E+02  0.45594000000E+02  0.51100000000E-03 0. -1.
    9900012    2    1    2    0    0  0.95303779219E+01  0.26706904503E+01  0.15896998421E+02  0.72461674957E+02  0.70000136343E+02 0.  0.
         12    1    1    2    0    0 -0.95303779219E+01 -0.26706904503E+01 -0.15896998421E+02  0.18726325043E+02  0.00000000000E+00 0. -1.
         11    1    3    3    0    0 -0.92866711101E+01 -0.21542996865E+02  0.14674687258E+00  0.23459848873E+02  0.51100000000E-03 0. -1.
        -11    1    3    3    0    0  0.59592920608E+01  0.78091410372E+01 -0.11222403994E+02  0.14914362114E+02  0.51100000000E-03 0.  1.
        -12    1    3    3    0    0  0.12857756971E+02  0.16404546278E+02  0.26972655542E+02  0.34087463970E+02  0.00000000000E+00 0.  1.
</event>
<event>
 7    1  0.2797450E-013  0.7246157E+02  0.7816164E-02  0.1226708E+00
        -11   -1    0    0    0    0  0.00000000000E+00  0.00000000000E+00  0.45593999997E+02  0.45594000000E+02  0.51100000000E-03 0. -1.
         11   -1    0    0    0    0 -0.00000000000E+00 -0.00000000000E+00 -0.45593999997E+02  0.45594000000E+02  0.51100000000E-03 0.  1.
    9900012    2    1    2    0    0  0.12468441324E+01  0.18580465211E+02  0.19725312592E+01  0.72461569819E+02  0.69999999381E+02 0.  0.
         12    1    1    2    0    0 -0.12468441324E+01 -0.18580465211E+02 -0.19725312592E+01  0.18726430181E+02  0.00000000000E+00 0. -1.
         11    1    3    3    0    0 -0.10802831444E+02 -0.16901253457E+02 -0.12248947803E+02  0.23502984027E+02  0.51100000000E-03 0. -1.
        -11    1    3    3    0    0  0.17277827143E+02  0.97568143821E+01  0.18194371090E+01  0.19925588807E+02  0.51100000000E-03 0.  1.
        -12    1    3    3    0    0 -0.52281515663E+01  0.25724904286E+02  0.12402041953E+02  0.29032996985E+02  0.00000000000E+00 0.  1.
</event>
<event>
 7    1  0.2797450E-013  0.7246148E+02  0.7816164E-02  0.1226708E+00
        -11   -1    0    0    0    0  0.00000000000E+00  0.00000000000E+00  0.45593999997E+02  0.45594000000E+02  0.51100000000E-03 0.  1.
         11   -1    0    0    0    0 -0.00000000000E+00 -0.00000000000E+00 -0.45593999997E+02  0.45594000000E+02  0.51100000000E-03 0. -1.
    9900012    2    1    2    0    0 -0.70160646129E+01  0.16686207708E+02 -0.47987199135E+01  0.72461483956E+02  0.69999887529E+02 0.  0.
         12    1    1    2    0    0  0.70160646129E+01 -0.16686207708E+02  0.47987199135E+01  0.18726516044E+02  0.00000000000E+00 0. -1.
         11    1    3    3    0    0 -0.35579438699E+01  0.40847206639E+01 -0.47265437091E+00  0.54375830935E+01  0.51100000000E-03 0.  1.
        -11    1    3    3    0    0 -0.29344908991E+02 -0.98769997827E+01  0.53024219682E+01  0.31413285205E+02  0.51100000000E-03 0. -1.
        -12    1    3    3    0    0  0.25886788248E+02  0.22478486827E+02 -0.96284875108E+01  0.35610615658E+02  0.00000000000E+00 0.  1.
</event>
<event>
 7    1  0.2797450E-013  0.7246158E+02  0.7816164E-02  0.1226708E+00
        -11   -1    0    0    0    0  0.00000000000E+00  0.00000000000E+00  0.45593999997E+02  0.45594000000E+02  0.51100000000E-03 0.  1.
         11   -1    0    0    0    0 -0.00000000000E+00 -0.00000000000E+00 -0.45593999997E+02  0.45594000000E+02  0.51100000000E-03 0. -1.
    9900012    2    1    2    0    0  0.17475167620E+02  0.53436375950E+01  0.40918015133E+01  0.72461580542E+02  0.70000013350E+02 0.  0.
         12    1    1    2    0    0 -0.17475167620E+02 -0.53436375950E+01 -0.40918015133E+01  0.18726419458E+02  0.00000000000E+00 0. -1.
         11    1    3    3    0    0  0.18570809767E+02 -0.18753526440E+02 -0.15784331562E+02  0.30752477175E+02  0.51100000000E-03 0. -1.
        -11    1    3    3    0    0  0.72718728585E+01 -0.32672530154E+01  0.32083224826E+01  0.85935097923E+01  0.51100000000E-03 0.  1.
         12    1    3    3    0    0 -0.83675150057E+01  0.27364417050E+02  0.16667810592E+02  0.33115593575E+02  0.00000000000E+00 0. -1.
</event>
<event>
 7    1  0.2797450E-013  0.7246156E+02  0.7816164E-02  0.1226708E+00
        -11   -1    0    0    0    0  0.00000000000E+00  0.00000000000E+00  0.45593999997E+02  0.45594000000E+02  0.51100000000E-03 0.  1.
         11   -1    0    0    0    0 -0.00000000000E+00 -0.00000000000E+00 -0.45593999997E+02  0.45594000000E+02  0.51100000000E-03 0. -1.
    9900012    2    1    2    0    0  0.13801284895E+02  0.12657175332E+02 -0.35263232621E-02  0.72461559746E+02  0.69999986259E+02 0.  0.
         12    1    1    2    0    0 -0.13801284895E+02 -0.12657175332E+02  0.35263232621E-02  0.18726440254E+02  0.00000000000E+00 0. -1.
         11    1    3    3    0    0 -0.10864316171E+02  0.23927364089E+02 -0.16327822650E+02  0.30937839467E+02  0.51100000000E-03 0. -1.
        -11    1    3    3    0    0  0.18789147485E+01 -0.11289545511E+02 -0.27919012423E+01  0.11780444443E+02  0.51100000000E-03 0.  1.
        -12    1    3    3    0    0  0.22786686317E+02  0.19356753140E-01  0.19116197569E+02  0.29743275837E+02  0.00000000000E+00 0.  1.
</event>
<event>
 7    1  0.2797450E-013  0.7246164E+02  0.7816164E-02  0.1226708E+00
        -11   -1    0    0    0    0  0.00000000000E+00  0.00000000000E+00  0.45593999997E+02  0.45594000000E+02  0.51100000000E-03 0. -1.
         11   -1    0    0    0    0 -0.00000000000E+00 -0.00000000000E+00 -0.45593999997E+02  0.45594000000E+02  0.51100000000E-03 0.  1.
    9900012    2    1    2    0    0  0.15252598681E+02  0.10726401019E+02 -0.17260091809E+01  0.72461640155E+02  0.70000091007E+02 0.  0.
         12    1    1    2    0    0 -0.15252598681E+02 -0.10726401019E+02  0.17260091809E+01  0.18726359845E+02  0.00000000000E+00 0. -1.
         11    1    3    3    0    0 -0.17427188033E+02  0.69138440000E+00  0.47709892180E+01  0.18081682264E+02  0.51100000000E-03 0. -1.
        -11    1    3    3    0    0 -0.56157252284E+01 -0.65976017961E+01  0.62987713331E+01  0.10711640391E+02  0.51100000000E-03 0.  1.
        -12    1    3    3    0    0  0.38295511942E+02  0.16632618415E+02 -0.12795769732E+02  0.43668317500E+02  0.00000000000E+00 0.  1.
</event>
<event>
 7    1  0.2797450E-013  0.7246153E+02  0.7816164E-02  0.1226708E+00
        -11   -1    0    0    0    0  0.00000000000E+00  0.00000000000E+00  0.45593999997E+02  0.45594000000E+02  0.51100000000E-03 0.  1.
         11   -1    0    0    0    0 -0.00000000000E+00 -0.00000000000E+00 -0.45593999997E+02  0.45594000000E+02  0.51100000000E-03 0. -1.
    9900012    2    1    2    0    0  0.12417443891E+02  0.47120487047E+01  0.13201673479E+02  0.72461534812E+02  0.69999953778E+02 0.  0.
         12    1    1    2    0    0 -0.12417443891E+02 -0.47120487047E+01 -0.13201673479E+02  0.18726465188E+02  0.00000000000E+00 0. -1.
         11    1    3    3    0    0  0.73151868651E+01  0.63528336451E+01  0.15649839737E+02  0.18406192932E+02  0.51100000000E-03 0. -1.
        -11    1    3    3    0    0  0.25862390215E+02  0.11525286405E+02  0.41138170035E+01  0.28611517698E+02  0.51100000000E-03 0.  1.
         12    1    3    3    0    0 -0.20760133190E+02 -0.13166071346E+02 -0.65619832610E+01  0.25443824183E+02  0.00000000000E+00 0. -1.
</event>
<event>
 7    1  0.2797450E-013  0.7246161E+02  0.7816164E-02  0.1226708E+00
        -11   -1    0    0    0    0  0.00000000000E+00  0.00000000000E+00  0.45593999997E+02  0.45594000000E+02  0.51100000000E-03 0. -1.
         11   -1    0    0    0    0 -0.00000000000E+00 -0.00000000000E+00 -0.45593999997E+02  0.45594000000E+02  0.51100000000E-03 0.  1.
    9900012    2    1    2    0    0 -0.66040433597E+01  0.16577538382E+02  0.56788814099E+01  0.72461605217E+02  0.70000045493E+02 0.  0.
         12    1    1    2    0    0  0.66040433597E+01 -0.16577538382E+02 -0.56788814099E+01  0.18726394783E+02  0.00000000000E+00 0. -1.
         11    1    3    3    0    0 -0.40058076830E+00  0.68509372203E+00  0.19239136484E+02  0.19255497689E+02  0.51100000000E-03 0. -1.
        -11    1    3    3    0    0 -0.11983484808E+00 -0.15244004227E+02  0.54874008250E+01  0.16202024360E+02  0.51100000000E-03 0.  1.
        -12    1    3    3    0    0 -0.60836277433E+01  0.31136448888E+02 -0.19047655899E+02  0.37004083168E+02  0.00000000000E+00 0.  1.
</event>
<event>
 7    1  0.2797450E-013  0.7246160E+02  0.7816164E-02  0.1226708E+00
        -11   -1    0    0    0    0  0.00000000000E+00  0.00000000000E+00  0.45593999997E+02  0.45594000000E+02  0.51100000000E-03 0.  1.
         11   -1    0    0    0    0 -0.00000000000E+00 -0.00000000000E+00 -0.45593999997E+02  0.45594000000E+02  0.51100000000E-03 0. -1.
    9900012    2    1    2    0    0 -0.73093759752E+01 -0.71291163364E+01  0.15697991043E+02  0.72461596190E+02  0.70000033733E+02 0.  0.
         12    1    1    2    0    0  0.73093759752E+01  0.71291163364E+01 -0.15697991043E+02  0.18726403810E+02  0.00000000000E+00 0. -1.
         11    1    3    3    0    0 -0.34698163366E+01  0.22520564561E+02  0.42071603378E+01  0.23171440437E+02  0.51100000000E-03 0. -1.
        -11    1    3    3    0    0 -0.13635867903E+02  0.26898559838E+01  0.11196756929E+01  0.13943668549E+02  0.51100000000E-03 0.  1.
        -12    1    3    3    0    0  0.97963082645E+01 -0.32339536882E+02  0.10371155012E+02  0.35346487203E+02  0.00000000000E+00 0.  1.
</event>
<event>
 7    1  0.2797450E-013  0.7246161E+02  0.7816164E-02  0.1226708E+00
        -11   -1    0    0    0    0  0.00000000000E+00  0.00000000000E+00  0.45593999997E+02  0.45594000000E+02  0.51100000000E-03 0. -1.
         11   -1    0    0    0    0 -0.00000000000E+00 -0.00000000000E+00 -0.45593999997E+02  0.45594000000E+02  0.51100000000E-03 0.  1.
    9900012    2    1    2    0    0 -0.76227055183E-03  0.83672005229E+01 -0.16753135247E+02  0.72461612581E+02  0.70000055086E+02 0.  0.
         12    1    1    2    0    0  0.76227055183E-03 -0.83672005229E+01  0.16753135247E+02  0.18726387419E+02  0.00000000000E+00 0. -1.
         11    1    3    3    0    0 -0.14791647719E+02 -0.18183741035E+02  0.78659193722E+01  0.24724764268E+02  0.51100000000E-03 0. -1.
        -11    1    3    3    0    0 -0.25519910316E+01 -0.41257053803E+01 -0.65035292762E+01  0.81135686610E+01  0.51100000000E-03 0.  1.
        -12    1    3    3    0    0  0.17342876480E+02  0.30676646938E+02 -0.18115525343E+02  0.39623279652E+02  0.00000000000E+00 0.  1.
</event>
<event>
 7    1  0.2797450E-013  0.7246150E+02  0.7816164E-02  0.1226708E+00
        -11   -1    0    0    0    0  0.00000000000E+00  0.00000000000E+00  0.45593999997E+02  0.45594000000E+02  0.51100000000E-03 0.  1.
         11   -1    0    0    0    0 -0.00000000000E+00 -0.00000000000E+00 -0.45593999997E+02  0.45594000000E+02  0.51100000000E-03 0. -1.
    9900012    2    1    2    0    0 -0.57680921788E+01 -0.15764200083E+02  0.83006603727E+01  0.72461498611E+02  0.69999906620E+02 0.  0.
         12    1    1    2    0    0  0.57680921788E+01  0.15764200083E+02 -0.83006603727E+01  0.18726501389E+02  0.00000000000E+00 0. -1.
         11    1    3    3    0    0  0.27998921673E+01  0.77563001677E+01 -0.17739805581E+02  0.19562727079E+02  0.51100000000E-03 0. -1.
        -11    1    3    3    0    0 -0.45629143171E+01 -0.40852288711E+01 -0.10017395093E+02  0.11741272789E+02  0.51100000000E-03 0.  1.
        -12    1    3    3    0    0 -0.40050700290E+01 -0.19435271379E+02  0.36057861047E+02  0.41157498743E+02  0.00000000000E+00 0.  1.
</event>
<event>
 7    1  0.2797450E-013  0.7246171E+02  0.7816164E-02  0.1226708E+00
        -11   -1    0    0    0    0  0.00000000000E+00  0.00000000000E+00  0.45593999997E+02  0.45594000000E+02  0.51100000000E-03 0.  1.
         11   -1    0    0    0    0 -0.00000000000E+00 -0.00000000000E+00 -0.45593999997E+02  0.45594000000E+02  0.51100000000E-03 0. -1.
    9900012    2    1    2    0    0  0.10750289444E+02 -0.41110687965E+01  0.14771744768E+02  0.72461706900E+02  0.70000177954E+02 0.  0.
         12    1    1    2    0    0 -0.10750289444E+02  0.41110687965E+01 -0.14771744768E+02  0.18726293100E+02  0.00000000000E+00 0. -1.
         11    1    3    3    0    0  0.26622245354E+02 -0.55732849716E+01  0.18634225921E+02  0.32970287062E+02  0.51100000000E-03 0. -1.
        -11    1    3    3    0    0  0.26108815613E+01 -0.67681773286E+01  0.11836460036E+02  0.13882604702E+02  0.51100000000E-03 0.  1.
         12    1    3    3    0    0 -0.18482837471E+02  0.82303935036E+01 -0.15698941189E+02  0.25608815136E+02  0.00000000000E+00 0. -1.
</event>
<event>
 7    1  0.2797450E-013  0.7246155E+02  0.7816164E-02  0.1226708E+00
        -11   -1    0    0    0    0  0.00000000000E+00  0.00000000000E+00  0.45593999997E+02  0.45594000000E+02  0.51100000000E-03 0.  1.
         11   -1    0    0    0    0 -0.00000000000E+00 -0.00000000000E+00 -0.45593999997E+02  0.45594000000E+02  0.51100000000E-03 0. -1.
    9900012    2    1    2    0    0 -0.18919126646E+00 -0.10479779549E+02  0.15518319931E+02  0.72461552761E+02  0.69999977159E+02 0.  0.
         12    1    1    2    0    0  0.18919126646E+00  0.10479779549E+02 -0.15518319931E+02  0.18726447239E+02  0.00000000000E+00 0. -1.
         11    1    3    3    0    0 -0.54992860669E+01 -0.28864586625E+02 -0.25785181856E+01  0.29496699215E+02  0.51100000000E-03 0. -1.
        -11    1    3    3    0    0 -0.93906204074E+01  0.10846388365E+02 -0.44428664858E+01  0.15018886612E+02  0.51100000000E-03 0.  1.
        -12    1    3    3    0    0  0.14700715208E+02  0.75384187111E+01  0.22539704602E+02  0.27945966933E+02  0.00000000000E+00 0.  1.
</event>
<event>
 7    1  0.2797450E-013  0.7246156E+02  0.7816164E-02  0.1226708E+00
        -11   -1    0    0    0    0  0.00000000000E+00  0.00000000000E+00  0.45593999997E+02  0.45594000000E+02  0.51100000000E-03 0. -1.
         11   -1    0    0    0    0 -0.00000000000E+00 -0.00000000000E+00 -0.45593999997E+02  0.45594000000E+02  0.51100000000E-03 0.  1.
    9900012    2    1    2    0    0  0.91829893076E+01  0.16163022665E+02 -0.22602964141E+01  0.72461560558E+02  0.69999987317E+02 0.  0.
         12    1    1    2    0    0 -0.91829893076E+01 -0.16163022665E+02  0.22602964141E+01  0.18726439442E+02  0.00000000000E+00 0. -1.
         11    1    3    3    0    0  0.29645795445E+02 -0.68586806272E+01  0.66664397611E+00  0.30436147949E+02  0.51100000000E-03 0. -1.
        -11    1    3    3    0    0  0.59161218578E+01  0.67199938442E+01 -0.61303655187E+01  0.10850815488E+02  0.51100000000E-03 0.  1.
        -12    1    3    3    0    0 -0.26378927996E+02  0.16301709448E+02  0.32034251284E+01  0.31174597121E+02  0.00000000000E+00 0.  1.
</event>
<event>
 7    1  0.2797450E-013  0.7246152E+02  0.7816164E-02  0.1226708E+00
        -11   -1    0    0    0    0  0.00000000000E+00  0.00000000000E+00  0.45593999997E+02  0.45594000000E+02  0.51100000000E-03 0. -1.
         11   -1    0    0    0    0 -0.00000000000E+00 -0.00000000000E+00 -0.45593999997E+02  0.45594000000E+02  0.51100000000E-03 0.  1.
    9900012    2    1    2    0    0 -0.78290512716E+01 -0.16296386791E+02  0.48800402805E+01  0.72461519834E+02  0.69999934267E+02 0.  0.
         12    1    1    2    0    0  0.78290512716E+01  0.16296386791E+02 -0.48800402805E+01  0.18726480166E+02  0.00000000000E+00 0. -1.
         11    1    3    3    0    0 -0.80030857114E+00  0.20343892964E+02 -0.10406777145E+02  0.22865158770E+02  0.51100000000E-03 0. -1.
        -11    1    3    3    0    0 -0.73298615577E+01 -0.34788293916E+01 -0.60864918227E+01  0.10142707102E+02  0.51100000000E-03 0.  1.
         12    1    3    3    0    0  0.30111885732E+00 -0.33161450364E+02  0.21373309248E+02  0.39453653963E+02  0.00000000000E+00 0. -1.
</event>
<event>
 7    1  0.2797450E-013  0.7246157E+02  0.7816164E-02  0.1226708E+00
        -11   -1    0    0    0    0  0.00000000000E+00  0.00000000000E+00  0.45593999997E+02  0.45594000000E+02  0.51100000000E-03 0. -1.
         11   -1    0    0    0    0 -0.00000000000E+00 -0.00000000000E+00 -0.45593999997E+02  0.45594000000E+02  0.51100000000E-03 0.  1.
    9900012    2    1    2    0    0 -0.57630911373E+01 -0.13929147913E+02 -0.11110573694E+02  0.72461568710E+02  0.69999997936E+02 0.  0.
         12    1    1    2    0    0  0.57630911373E+01  0.13929147913E+02  0.11110573694E+02  0.18726431290E+02  0.00000000000E+00 0. -1.
         11    1    3    3    0    0 -0.47596219742E+01  0.73203436011E+01 -0.83567779955E+01  0.12086238890E+02  0.51100000000E-03 0. -1.
        -11    1    3    3    0    0  0.24981646238E+02 -0.20643768952E+02 -0.90182242027E+01  0.33638909217E+02  0.51100000000E-03 0.  1.
         12    1    3    3    0    0 -0.25985115401E+02 -0.60572256252E+00  0.62644285042E+01  0.26736420604E+02  0.00000000000E+00 0. -1.
</event>
<event>
 7    1  0.2797450E-013  0.7246159E+02  0.7816164E-02  0.1226708E+00
        -11   -1    0    0    0    0  0.00000000000E+00  0.00000000000E+00  0.45593999997E+02  0.45594000000E+02  0.51100000000E-03 0.  1.
         11   -1    0    0    0    0 -0.00000000000E+00 -0.00000000000E+00 -0.45593999997E+02  0.45594000000E+02  0.51100000000E-03 0. -1.
    9900012    2    1    2    0    0 -0.70348919976E+01 -0.17354357516E+02  0.12204513289E+00  0.72461592837E+02  0.70000029366E+02 0.  0.
         12    1    1    2    0    0  0.70348919976E+01  0.17354357516E+02 -0.12204513289E+00  0.18726407163E+02  0.00000000000E+00 0. -1.
         11    1    3    3    0    0  0.20836111156E+02 -0.24504031792E+02  0.10295008568E+01  0.32181531574E+02  0.51100000000E-03 0. -1.
        -11    1    3    3    0    0 -0.13153521686E+01 -0.66960614683E+01 -0.69368591093E+01  0.97307453506E+01  0.51100000000E-03 0.  1.
         12    1    3    3    0    0 -0.26555650985E+02  0.13845735744E+02  0.60294033855E+01  0.30549315913E+02  0.00000000000E+00 0. -1.
</event>
<event>
 7    1  0.2797450E-013  0.7246157E+02  0.7816164E-02  0.1226708E+00
        -11   -1    0    0    0    0  0.00000000000E+00  0.00000000000E+00  0.45593999997E+02  0.45594000000E+02  0.51100000000E-03 0.  1.
         11   -1    0    0    0    0 -0.00000000000E+00 -0.00000000000E+00 -0.45593999997E+02  0.45594000000E+02  0.51100000000E-03 0. -1.
    9900012    2    1    2    0    0 -0.17741947428E+02  0.97938105952E+00 -0.59112807200E+01  0.72461571468E+02  0.70000001529E+02 0.  0.
         12    1    1    2    0    0  0.17741947428E+02 -0.97938105952E+00  0.59112807200E+01  0.18726428532E+02  0.00000000000E+00 0. -1.
         11    1    3    3    0    0  0.21469683395E+01 -0.62898039813E+01 -0.10558081389E+02  0.12475744068E+02  0.51100000000E-03 0. -1.
        -11    1    3    3    0    0 -0.16100561263E+02 -0.23643469561E+02  0.91998597037E+00  0.28619715238E+02  0.51100000000E-03 0.  1.
        -12    1    3    3    0    0 -0.37883545045E+01  0.30912654601E+02  0.37268146990E+01  0.31366112162E+02  0.00000000000E+00 0.  1.
</event>
<event>
 7    1  0.2797450E-013  0.7246158E+02  0.7816164E-02  0.1226708E+00
        -11   -1    0    0    0    0  0.00000000000E+00  0.00000000000E+00  0.45593999997E+02  0.45594000000E+02  0.51100000000E-03 0.  1.
         11   -1    0    0    0    0 -0.00000000000E+00 -0.00000000000E+00 -0.45593999997E+02  0.45594000000E+02  0.51100000000E-03 0. -1.
    9900012    2    1    2    0    0 -0.17584609749E+02  0.10692025302E+01  0.63495770081E+01  0.72461579566E+02  0.70000012078E+02 0.  0.
         12    1    1    2    0    0  0.17584609749E+02 -0.10692025302E+01 -0.63495770081E+01  0.18726420434E+02  0.00000000000E+00 0. -1.
         11    1    3    3    0    0 -0.26502985937E+02  0.49014078934E+01 -0.84785311080E+01  0.28254513850E+02  0.51100000000E-03 0. -1.
        -11    1    3    3    0    0  0.37457617457E+01  0.17030740016E+02 -0.10720105463E+01  0.17470719602E+02  0.51100000000E-03 0.  1.
        -12    1    3    3    0    0  0.51726144416E+01 -0.20862945379E+02  0.15900118662E+02  0.26736346114E+02  0.00000000000E+00 0.  1.
</event>
<event>
 7    1  0.2797450E-013  0.7246136E+02  0.7816164E-02  0.1226709E+00
        -11   -1    0    0    0    0  0.00000000000E+00  0.00000000000E+00  0.45593999997E+02  0.45594000000E+02  0.51100000000E-03 0. -1.
         11   -1    0    0    0    0 -0.00000000000E+00 -0.00000000000E+00 -0.45593999997E+02  0.45594000000E+02  0.51100000000E-03 0.  1.
    9900012    2    1    2    0    0 -0.12673189959E+02  0.13460416127E+02 -0.29823381326E+01  0.72461364242E+02  0.69999731578E+02 0.  0.
         12    1    1    2    0    0  0.12673189959E+02 -0.13460416127E+02  0.29823381326E+01  0.18726635758E+02  0.00000000000E+00 0. -1.
         11    1    3    3    0    0  0.63720062131E+01  0.24885547630E+02 -0.44895333023E+01  0.26077746328E+02  0.51100000000E-03 0. -1.
        -11    1    3    3    0    0 -0.23490246960E+02  0.50211611468E+01 -0.97927357560E+01  0.25940343779E+02  0.51100000000E-03 0.  1.
        -12    1    3    3    0    0  0.44450507882E+01 -0.16446292650E+02  0.11299930926E+02  0.20443274135E+02  0.00000000000E+00 0.  1.
</event>
<event>
 7    1  0.2797450E-013  0.7246174E+02  0.7816164E-02  0.1226708E+00
        -11   -1    0    0    0    0  0.00000000000E+00  0.00000000000E+00  0.45593999997E+02  0.45594000000E+02  0.51100000000E-03 0.  1.
         11   -1    0    0    0    0 -0.00000000000E+00 -0.00000000000E+00 -0.45593999997E+02  0.45594000000E+02  0.51100000000E-03 0. -1.
    9900012    2    1    2    0    0  0.60864559798E+01 -0.13551885020E+02  0.11400631159E+02  0.72461737030E+02  0.70000217204E+02 0.  0.
         12    1    1    2    0    0 -0.60864559798E+01  0.13551885020E+02 -0.11400631159E+02  0.18726262970E+02  0.00000000000E+00 0. -1.
         11    1    3    3    0    0  0.20190547959E+01  0.60315973658E+00 -0.23807595818E+02  0.23900669506E+02  0.51100000000E-03 0. -1.
        -11    1    3    3    0    0  0.11211782413E+02  0.50849651914E+00  0.17773771149E+01  0.11363173116E+02  0.51100000000E-03 0.  1.
        -12    1    3    3    0    0 -0.71443812290E+01 -0.14663541276E+02  0.33430849863E+02  0.37197894408E+02  0.00000000000E+00 0.  1.
</event>
<event>
 7    1  0.2797450E-013  0.7246156E+02  0.7816164E-02  0.1226708E+00
        -11   -1    0    0    0    0  0.00000000000E+00  0.00000000000E+00  0.45593999997E+02  0.45594000000E+02  0.51100000000E-03 0.  1.
         11   -1    0    0    0    0 -0.00000000000E+00 -0.00000000000E+00 -0.45593999997E+02  0.45594000000E+02  0.51100000000E-03 0. -1.
    9900012    2    1    2    0    0  0.73028888513E+01 -0.16296701138E+02  0.56360310560E+01  0.72461561481E+02  0.69999988519E+02 0.  0.
         12    1    1    2    0    0 -0.73028888513E+01  0.16296701138E+02 -0.56360310560E+01  0.18726438519E+02  0.00000000000E+00 0. -1.
         11    1    3    3    0    0  0.22077930410E+02 -0.12548558171E+02  0.37972529720E+01  0.25677236101E+02  0.51100000000E-03 0. -1.
        -11    1    3    3    0    0  0.18237816990E+01 -0.17810441243E+01  0.21116157664E+02  0.21269471376E+02  0.51100000000E-03 0.  1.
         12    1    3    3    0    0 -0.16598823258E+02 -0.19670988427E+01 -0.19277379580E+02  0.25514854004E+02  0.00000000000E+00 0. -1.
</event>
<event>
 7    1  0.2797450E-013  0.7246157E+02  0.7816164E-02  0.1226708E+00
        -11   -1    0    0    0    0  0.00000000000E+00  0.00000000000E+00  0.45593999997E+02  0.45594000000E+02  0.51100000000E-03 0.  1.
         11   -1    0    0    0    0 -0.00000000000E+00 -0.00000000000E+00 -0.45593999997E+02  0.45594000000E+02  0.51100000000E-03 0. -1.
    9900012    2    1    2    0    0 -0.13171021956E+02  0.10680892646E+02  0.79449271518E+01  0.72461570695E+02  0.70000000522E+02 0.  0.
         12    1    1    2    0    0  0.13171021956E+02 -0.10680892646E+02 -0.79449271518E+01  0.18726429305E+02  0.00000000000E+00 0. -1.
         11    1    3    3    0    0 -0.49970733586E+01 -0.65067187201E+01  0.28145271666E+02  0.29316624091E+02  0.51100000000E-03 0.  1.
        -11    1    3    3    0    0  0.68584041964E+01 -0.56639169675E+01 -0.11299836125E+02  0.14380680104E+02  0.51100000000E-03 0. -1.
        -12    1    3    3    0    0 -0.15032352794E+02  0.22851528333E+02 -0.89005083892E+01  0.28764266500E+02  0.00000000000E+00 0.  1.
</event>
<event>
 7    1  0.2797450E-013  0.7246156E+02  0.7816164E-02  0.1226708E+00
        -11   -1    0    0    0    0  0.00000000000E+00  0.00000000000E+00  0.45593999997E+02  0.45594000000E+02  0.51100000000E-03 0.  1.
         11   -1    0    0    0    0 -0.00000000000E+00 -0.00000000000E+00 -0.45593999997E+02  0.45594000000E+02  0.51100000000E-03 0. -1.
    9900012    2    1    2    0    0 -0.46745363017E+01  0.18032943416E+02 -0.19082054066E+01  0.72461559181E+02  0.69999985523E+02 0.  0.
         12    1    1    2    0    0  0.46745363017E+01 -0.18032943416E+02  0.19082054066E+01  0.18726440819E+02  0.00000000000E+00 0. -1.
         11    1    3    3    0    0  0.15678401498E+02  0.93248230933E+01  0.20323671640E+02  0.27309636183E+02  0.51100000000E-03 0. -1.
        -11    1    3    3    0    0 -0.12038146121E+02 -0.13203710572E+01  0.63987607795E+01  0.13696878532E+02  0.51100000000E-03 0.  1.
         12    1    3    3    0    0 -0.83147916796E+01  0.10028491379E+02 -0.28630637826E+02  0.31455044466E+02  0.00000000000E+00 0. -1.
</event>
<event>
 7    1  0.2797450E-013  0.7246155E+02  0.7816164E-02  0.1226708E+00
        -11   -1    0    0    0    0  0.00000000000E+00  0.00000000000E+00  0.45593999997E+02  0.45594000000E+02  0.51100000000E-03 0.  1.
         11   -1    0    0    0    0 -0.00000000000E+00 -0.00000000000E+00 -0.45593999997E+02  0.45594000000E+02  0.51100000000E-03 0. -1.
    9900012    2    1    2    0    0 -0.93411542933E+00 -0.39587648643E+01  0.18279373062E+02  0.72461551580E+02  0.69999975621E+02 0.  0.
         12    1    1    2    0    0  0.93411542933E+00  0.39587648643E+01 -0.18279373062E+02  0.18726448420E+02  0.00000000000E+00 0. -1.
         11    1    3    3    0    0  0.11749484413E+02 -0.13225225305E+01 -0.16441316402E+02  0.20251329218E+02  0.51100000000E-03 0. -1.
        -11    1    3    3    0    0 -0.59567436259E+01 -0.19115156737E+02  0.11980319387E+02  0.23332382317E+02  0.51100000000E-03 0.  1.
         12    1    3    3    0    0 -0.67268562162E+01  0.16478914403E+02  0.22740370077E+02  0.28877840046E+02  0.00000000000E+00 0. -1.
</event>
<event>
 7    1  0.2797450E-013  0.7246162E+02  0.7816164E-02  0.1226708E+00
        -11   -1    0    0    0    0  0.00000000000E+00  0.00000000000E+00  0.45593999997E+02  0.45594000000E+02  0.51100000000E-03 0. -1.
         11   -1    0    0    0    0 -0.00000000000E+00 -0.00000000000E+00 -0.45593999997E+02  0.45594000000E+02  0.51100000000E-03 0.  1.
    9900012    2    1    2    0    0 -0.17174399501E+02  0.47902691939E+01  0.57245756737E+01  0.72461616371E+02  0.70000060023E+02 0.  0.
         12    1    1    2    0    0  0.17174399501E+02 -0.47902691939E+01 -0.57245756737E+01  0.18726383629E+02  0.00000000000E+00 0. -1.
         11    1    3    3    0    0 -0.17623697972E+02 -0.17747110950E+02 -0.11604166467E+02  0.27571930598E+02  0.51100000000E-03 0. -1.
        -11    1    3    3    0    0 -0.14539042214E+02  0.24359007187E+00  0.64275744716E+01  0.15898326908E+02  0.51100000000E-03 0.  1.
        -12    1    3    3    0    0  0.14988340685E+02  0.22293790072E+02  0.10901167669E+02  0.28991358864E+02  0.00000000000E+00 0.  1.
</event>
<event>
 7    1  0.2797450E-013  0.7246162E+02  0.7816164E-02  0.1226708E+00
        -11   -1    0    0    0    0  0.00000000000E+00  0.00000000000E+00  0.45593999997E+02  0.45594000000E+02  0.51100000000E-03 0. -1.
         11   -1    0    0    0    0 -0.00000000000E+00 -0.00000000000E+00 -0.45593999997E+02  0.45594000000E+02  0.51100000000E-03 0.  1.
    9900012    2    1    2    0    0 -0.81959997647E+01  0.16027372212E+02 -0.51600571715E+01  0.72461621221E+02  0.70000066342E+02 0.  0.
         12    1    1    2    0    0  0.81959997647E+01 -0.16027372212E+02  0.51600571715E+01  0.18726378779E+02  0.00000000000E+00 0. -1.
         11    1    3    3    0    0 -0.22588292293E+01 -0.49272934113E+01 -0.13523085025E+01  0.55865256103E+01  0.51100000000E-03 0. -1.
        -11    1    3    3    0    0  0.23475433227E+02 -0.60960367464E+01  0.74263556635E+01  0.25365496011E+02  0.51100000000E-03 0.  1.
        -12    1    3    3    0    0 -0.29412603762E+02  0.27050702369E+02 -0.11234104333E+02  0.41509599599E+02  0.00000000000E+00 0.  1.
</event>
<event>
 7    1  0.2797450E-013  0.7246154E+02  0.7816164E-02  0.1226708E+00
        -11   -1    0    0    0    0  0.00000000000E+00  0.00000000000E+00  0.45593999997E+02  0.45594000000E+02  0.51100000000E-03 0.  1.
         11   -1    0    0    0    0 -0.00000000000E+00 -0.00000000000E+00 -0.45593999997E+02  0.45594000000E+02  0.51100000000E-03 0. -1.
    9900012    2    1    2    0    0  0.17609955410E+02  0.54380814875E+01 -0.33161660345E+01  0.72461542327E+02  0.69999963568E+02 0.  0.
         12    1    1    2    0    0 -0.17609955410E+02 -0.54380814875E+01  0.33161660345E+01  0.18726457673E+02  0.00000000000E+00 0. -1.
         11    1    3    3    0    0  0.40149787951E+01  0.48444342528E+01 -0.18473923176E+02  0.19516004604E+02  0.51100000000E-03 0. -1.
        -11    1    3    3    0    0 -0.11648093522E+02  0.98348451648E+01 -0.82208839510E+01  0.17320080696E+02  0.51100000000E-03 0.  1.
         12    1    3    3    0    0  0.25243070137E+02 -0.92411979301E+01  0.23378641092E+02  0.35625457027E+02  0.00000000000E+00 0. -1.
</event>
<event>
 7    1  0.2797450E-013  0.7246163E+02  0.7816164E-02  0.1226708E+00
        -11   -1    0    0    0    0  0.00000000000E+00  0.00000000000E+00  0.45593999997E+02  0.45594000000E+02  0.51100000000E-03 0. -1.
         11   -1    0    0    0    0 -0.00000000000E+00 -0.00000000000E+00 -0.45593999997E+02  0.45594000000E+02  0.51100000000E-03 0.  1.
    9900012    2    1    2    0    0  0.18598248717E+02  0.11430299188E+01  0.18642931991E+01  0.72461629239E+02  0.70000076786E+02 0.  0.
         12    1    1    2    0    0 -0.18598248717E+02 -0.11430299188E+01 -0.18642931991E+01  0.18726370761E+02  0.00000000000E+00 0. -1.
         11    1    3    3    0    0 -0.37446319622E+01  0.34622214174E+01  0.32670225020E+01  0.60566229836E+01  0.51100000000E-03 0. -1.
        -11    1    3    3    0    0  0.36536644126E+02  0.79454265801E+01  0.16933862002E+02  0.41046459653E+02  0.51100000000E-03 0.  1.
         12    1    3    3    0    0 -0.14193763446E+02 -0.10264618079E+02 -0.18336591305E+02  0.25358546602E+02  0.00000000000E+00 0. -1.
</event>
<event>
 7    1  0.2797450E-013  0.7246156E+02  0.7816164E-02  0.1226708E+00
        -11   -1    0    0    0    0  0.00000000000E+00  0.00000000000E+00  0.45593999997E+02  0.45594000000E+02  0.51100000000E-03 0. -1.
         11   -1    0    0    0    0 -0.00000000000E+00 -0.00000000000E+00 -0.45593999997E+02  0.45594000000E+02  0.51100000000E-03 0.  1.
    9900012    2    1    2    0    0 -0.16398196612E+02  0.39023201712E+01  0.81578559015E+01  0.72461559661E+02  0.69999986149E+02 0.  0.
         12    1    1    2    0    0  0.16398196612E+02 -0.39023201712E+01 -0.81578559015E+01  0.18726440339E+02  0.00000000000E+00 0. -1.
         11    1    3    3    0    0 -0.17796926926E+02  0.80434897274E+01 -0.80870109067E+01  0.21138308368E+02  0.51100000000E-03 0.  1.
        -11    1    3    3    0    0  0.43754197618E+01 -0.88180568274E+01  0.32600137417E+02  0.34053948143E+02  0.51100000000E-03 0. -1.
         12    1    3    3    0    0 -0.29766894481E+01  0.46768872711E+01 -0.16355270608E+02  0.17269303150E+02  0.00000000000E+00 0. -1.
</event>
<event>
 7    1  0.2797450E-013  0.7246155E+02  0.7816164E-02  0.1226708E+00
        -11   -1    0    0    0    0  0.00000000000E+00  0.00000000000E+00  0.45593999997E+02  0.45594000000E+02  0.51100000000E-03 0. -1.
         11   -1    0    0    0    0 -0.00000000000E+00 -0.00000000000E+00 -0.45593999997E+02  0.45594000000E+02  0.51100000000E-03 0.  1.
    9900012    2    1    2    0    0 -0.33276022148E+01 -0.17782864737E+02  0.48349555706E+01  0.72461547850E+02  0.69999970762E+02 0.  0.
         12    1    1    2    0    0  0.33276022148E+01  0.17782864737E+02 -0.48349555706E+01  0.18726452150E+02  0.00000000000E+00 0. -1.
         11    1    3    3    0    0 -0.10045749931E+02 -0.95751965714E+01  0.99175509133E+01  0.17057529054E+02  0.51100000000E-03 0. -1.
        -11    1    3    3    0    0 -0.22922344324E+02 -0.90135776137E+01  0.26162199547E+01  0.24769397607E+02  0.51100000000E-03 0.  1.
        -12    1    3    3    0    0  0.29640492040E+02  0.80590944826E+00 -0.76988152975E+01  0.30634621189E+02  0.00000000000E+00 0.  1.
</event>
<event>
 7    1  0.2797450E-013  0.7246159E+02  0.7816164E-02  0.1226708E+00
        -11   -1    0    0    0    0  0.00000000000E+00  0.00000000000E+00  0.45593999997E+02  0.45594000000E+02  0.51100000000E-03 0.  1.
         11   -1    0    0    0    0 -0.00000000000E+00 -0.00000000000E+00 -0.45593999997E+02  0.45594000000E+02  0.51100000000E-03 0. -1.
    9900012    2    1    2    0    0 -0.59779429119E+00 -0.16690171729E+02  0.84710856588E+01  0.72461588635E+02  0.70000023892E+02 0.  0.
         12    1    1    2    0    0  0.59779429119E+00  0.16690171729E+02 -0.84710856588E+01  0.18726411365E+02  0.00000000000E+00 0. -1.
         11    1    3    3    0    0  0.18440436604E+02  0.14058077090E+02 -0.12065987834E+02  0.26139382094E+02  0.51100000000E-03 0. -1.
        -11    1    3    3    0    0  0.41837580508E+01 -0.23064409640E+01  0.18547902962E+01  0.51248169384E+01  0.51100000000E-03 0.  1.
        -12    1    3    3    0    0 -0.23221988946E+02 -0.28441807855E+02  0.18682283196E+02  0.41197389603E+02  0.00000000000E+00 0.  1.
</event>
<event>
 7    1  0.2797450E-013  0.7246154E+02  0.7816164E-02  0.1226708E+00
        -11   -1    0    0    0    0  0.00000000000E+00  0.00000000000E+00  0.45593999997E+02  0.45594000000E+02  0.51100000000E-03 0.  1.
         11   -1    0    0    0    0 -0.00000000000E+00 -0.00000000000E+00 -0.45593999997E+02  0.45594000000E+02  0.51100000000E-03 0. -1.
    9900012    2    1    2    0    0  0.26504289294E+00  0.77250362824E+01  0.17056783350E+02  0.72461540336E+02  0.69999960974E+02 0.  0.
         12    1    1    2    0    0 -0.26504289294E+00 -0.77250362824E+01 -0.17056783350E+02  0.18726459664E+02  0.00000000000E+00 0. -1.
         11    1    3    3    0    0  0.16068383943E+01 -0.89717621730E+01 -0.11388223981E+02  0.14586503756E+02  0.51100000000E-03 0. -1.
        -11    1    3    3    0    0 -0.15503400754E+02 -0.10134126916E+02  0.17894391476E+02  0.25753935813E+02  0.51100000000E-03 0.  1.
        -12    1    3    3    0    0  0.14161605252E+02  0.26830925371E+02  0.10550615855E+02  0.32121100768E+02  0.00000000000E+00 0.  1.
</event>
<event>
 7    1  0.2797450E-013  0.7246155E+02  0.7816164E-02  0.1226708E+00
        -11   -1    0    0    0    0  0.00000000000E+00  0.00000000000E+00  0.45593999997E+02  0.45594000000E+02  0.51100000000E-03 0.  1.
         11   -1    0    0    0    0 -0.00000000000E+00 -0.00000000000E+00 -0.45593999997E+02  0.45594000000E+02  0.51100000000E-03 0. -1.
    9900012    2    1    2    0    0  0.23284587778E+01 -0.10510216415E+02  0.15322978796E+02  0.72461546824E+02  0.69999969425E+02 0.  0.
         12    1    1    2    0    0 -0.23284587778E+01  0.10510216415E+02 -0.15322978796E+02  0.18726453176E+02  0.00000000000E+00 0. -1.
         11    1    3    3    0    0  0.15406766424E+02  0.36555316353E+01  0.33794763579E+02  0.37320469032E+02  0.51100000000E-03 0.  1.
        -11    1    3    3    0    0 -0.36210243444E+01 -0.16158183937E+02 -0.28958777053E+01  0.16810259766E+02  0.51100000000E-03 0. -1.
        -12    1    3    3    0    0 -0.94572833018E+01  0.19924358866E+01 -0.15575907077E+02  0.18330818026E+02  0.00000000000E+00 0.  1.
</event>
<event>
 7    1  0.2797450E-013  0.7246226E+02  0.7816164E-02  0.1226706E+00
        -11   -1    0    0    0    0  0.00000000000E+00  0.00000000000E+00  0.45593999997E+02  0.45594000000E+02  0.51100000000E-03 0.  1.
         11   -1    0    0    0    0 -0.00000000000E+00 -0.00000000000E+00 -0.45593999997E+02  0.45594000000E+02  0.51100000000E-03 0. -1.
    9900012    2    1    2    0    0 -0.11132910902E+02 -0.15006671537E+02  0.12294508090E+01  0.72462257156E+02  0.70000894759E+02 0.  0.
         12    1    1    2    0    0  0.11132910902E+02  0.15006671537E+02 -0.12294508090E+01  0.18725742844E+02  0.00000000000E+00 0. -1.
         11    1    3    3    0    0 -0.13944485552E+02 -0.24413480607E+02 -0.61432081846E+00  0.28121950555E+02  0.51100000000E-03 0. -1.
        -11    1    3    3    0    0  0.17881899438E+02 -0.91581993539E+01  0.34068284595E+01  0.20377473429E+02  0.51100000000E-03 0.  1.
         12    1    3    3    0    0 -0.15070324788E+02  0.18565008424E+02 -0.15630568320E+01  0.23962833172E+02  0.00000000000E+00 0. -1.
</event>
<event>
 7    1  0.2797450E-013  0.7246158E+02  0.7816164E-02  0.1226708E+00
        -11   -1    0    0    0    0  0.00000000000E+00  0.00000000000E+00  0.45593999997E+02  0.45594000000E+02  0.51100000000E-03 0.  1.
         11   -1    0    0    0    0 -0.00000000000E+00 -0.00000000000E+00 -0.45593999997E+02  0.45594000000E+02  0.51100000000E-03 0. -1.
    9900012    2    1    2    0    0  0.29888956177E+01 -0.48227788664E+01 -0.17846183891E+02  0.72461575556E+02  0.70000006854E+02 0.  0.
         12    1    1    2    0    0 -0.29888956177E+01  0.48227788664E+01  0.17846183891E+02  0.18726424444E+02  0.00000000000E+00 0. -1.
         11    1    3    3    0    0  0.19500658689E+02 -0.49540774822E+01 -0.18902411016E+02  0.27606515816E+02  0.51100000000E-03 0. -1.
        -11    1    3    3    0    0  0.13372865685E+02  0.81089592759E+00  0.57812508558E+01  0.14591571216E+02  0.51100000000E-03 0.  1.
        -12    1    3    3    0    0 -0.29884628756E+02 -0.67959731178E+00 -0.47250237303E+01  0.30263488524E+02  0.00000000000E+00 0.  1.
</event>
<event>
 7    1  0.2797450E-013  0.7246155E+02  0.7816164E-02  0.1226708E+00
        -11   -1    0    0    0    0  0.00000000000E+00  0.00000000000E+00  0.45593999997E+02  0.45594000000E+02  0.51100000000E-03 0.  1.
         11   -1    0    0    0    0 -0.00000000000E+00 -0.00000000000E+00 -0.45593999997E+02  0.45594000000E+02  0.51100000000E-03 0. -1.
    9900012    2    1    2    0    0 -0.57373066859E+01  0.17162297803E+02 -0.48185936169E+01  0.72461548165E+02  0.69999971172E+02 0.  0.
         12    1    1    2    0    0  0.57373066859E+01 -0.17162297803E+02  0.48185936169E+01  0.18726451835E+02  0.00000000000E+00 0. -1.
         11    1    3    3    0    0 -0.90467077065E+01 -0.27604251592E+01  0.22898357654E+02  0.24774939978E+02  0.51100000000E-03 0. -1.
        -11    1    3    3    0    0  0.11230260299E+02  0.12168227619E+01  0.22162782596E+01  0.11511354986E+02  0.51100000000E-03 0.  1.
         12    1    3    3    0    0 -0.79208592787E+01  0.18705900201E+02 -0.29933229531E+02  0.36175253201E+02  0.00000000000E+00 0. -1.
</event>
<event>
 7    1  0.2797450E-013  0.7246151E+02  0.7816164E-02  0.1226708E+00
        -11   -1    0    0    0    0  0.00000000000E+00  0.00000000000E+00  0.45593999997E+02  0.45594000000E+02  0.51100000000E-03 0.  1.
         11   -1    0    0    0    0 -0.00000000000E+00 -0.00000000000E+00 -0.45593999997E+02  0.45594000000E+02  0.51100000000E-03 0. -1.
    9900012    2    1    2    0    0 -0.13850140749E+01 -0.17947148114E+02  0.51636284098E+01  0.72461509465E+02  0.69999920758E+02 0.  0.
         12    1    1    2    0    0  0.13850140749E+01  0.17947148114E+02 -0.51636284098E+01  0.18726490535E+02  0.00000000000E+00 0. -1.
         11    1    3    3    0    0 -0.12899031528E+01 -0.43663473332E+00 -0.63973019173E+01  0.65406400387E+01  0.51100000000E-03 0. -1.
        -11    1    3    3    0    0 -0.50339636664E+01  0.20902208829E+02 -0.74806103853E+01  0.22764065018E+02  0.51100000000E-03 0.  1.
        -12    1    3    3    0    0  0.49388527444E+01 -0.38412722210E+02  0.19041540712E+02  0.43156804408E+02  0.00000000000E+00 0.  1.
</event>
<event>
 7    1  0.3168194E-013  0.7246157E+02  0.7816164E-02  0.1226708E+00
        -11   -1    0    0    0    0  0.00000000000E+00  0.00000000000E+00  0.45593999997E+02  0.45594000000E+02  0.51100000000E-03 0.  1.
         11   -1    0    0    0    0 -0.00000000000E+00 -0.00000000000E+00 -0.45593999997E+02  0.45594000000E+02  0.51100000000E-03 0. -1.
    9900012    2    1    2    0    0 -0.18383627774E+02  0.35624768220E+01  0.17351672203E+00  0.72461571635E+02  0.70000001746E+02 0.  0.
         12    1    1    2    0    0  0.18383627774E+02 -0.35624768220E+01 -0.17351672203E+00  0.18726428365E+02  0.00000000000E+00 0. -1.
         11    1    3    3    0    0  0.17976533935E+02 -0.10857462073E+02 -0.14066644400E+02  0.25276683721E+02  0.51100000000E-03 0. -1.
        -11    1    3    3    0    0 -0.53899778135E+01  0.16311044031E+01 -0.58473262654E+01  0.81181024334E+01  0.51100000000E-03 0.  1.
        -12    1    3    3    0    0 -0.30970183896E+02  0.12788834492E+02  0.20087487388E+02  0.39066785480E+02  0.00000000000E+00 0.  1.
</event>
<event>
 7    1  0.2797450E-013  0.7246159E+02  0.7816164E-02  0.1226708E+00
        -11   -1    0    0    0    0  0.00000000000E+00  0.00000000000E+00  0.45593999997E+02  0.45594000000E+02  0.51100000000E-03 0. -1.
         11   -1    0    0    0    0 -0.00000000000E+00 -0.00000000000E+00 -0.45593999997E+02  0.45594000000E+02  0.51100000000E-03 0.  1.
    9900012    2    1    2    0    0  0.64409988445E+01 -0.17116295194E+02 -0.40279718201E+01  0.72461585920E+02  0.70000020356E+02 0.  0.
         12    1    1    2    0    0 -0.64409988445E+01  0.17116295194E+02  0.40279718201E+01  0.18726414080E+02  0.00000000000E+00 0. -1.
         11    1    3    3    0    0 -0.71302807575E+01 -0.84816109051E+00 -0.46963598307E+01  0.85799811677E+01  0.51100000000E-03 0. -1.
        -11    1    3    3    0    0 -0.21579708021E+02 -0.40381797909E+01 -0.11423903319E+02  0.24748661815E+02  0.51100000000E-03 0.  1.
         12    1    3    3    0    0  0.35150987623E+02 -0.12229954313E+02  0.12092291330E+02  0.39132942938E+02  0.00000000000E+00 0. -1.
</event>
<event>
 7    1  0.2797450E-013  0.7246091E+02  0.7816164E-02  0.1226710E+00
        -11   -1    0    0    0    0  0.00000000000E+00  0.00000000000E+00  0.45593999997E+02  0.45594000000E+02  0.51100000000E-03 0.  1.
         11   -1    0    0    0    0 -0.00000000000E+00 -0.00000000000E+00 -0.45593999997E+02  0.45594000000E+02  0.51100000000E-03 0. -1.
    9900012    2    1    2    0    0 -0.18263098147E+02 -0.35687926757E+01 -0.21039839114E+01  0.72460913110E+02  0.69999143890E+02 0.  0.
         12    1    1    2    0    0  0.18263098147E+02  0.35687926757E+01  0.21039839114E+01  0.18727086890E+02  0.00000000000E+00 0. -1.
         11    1    3    3    0    0 -0.52167725071E+01 -0.42607077714E+01 -0.10656790025E+02  0.12606963155E+02  0.51100000000E-03 0. -1.
        -11    1    3    3    0    0  0.76072950412E+00 -0.26881433137E+02 -0.27011238666E+01  0.27027508714E+02  0.51100000000E-03 0.  1.
         12    1    3    3    0    0 -0.13807055144E+02  0.27573348233E+02  0.11253929980E+02  0.32826441240E+02  0.00000000000E+00 0. -1.
</event>
<event>
 7    1  0.2797450E-013  0.7246156E+02  0.7816164E-02  0.1226708E+00
        -11   -1    0    0    0    0  0.00000000000E+00  0.00000000000E+00  0.45593999997E+02  0.45594000000E+02  0.51100000000E-03 0.  1.
         11   -1    0    0    0    0 -0.00000000000E+00 -0.00000000000E+00 -0.45593999997E+02  0.45594000000E+02  0.51100000000E-03 0. -1.
    9900012    2    1    2    0    0 -0.17421419134E+02  0.66356443154E+01 -0.17725034630E+01  0.72461564444E+02  0.69999992379E+02 0.  0.
         12    1    1    2    0    0  0.17421419134E+02 -0.66356443154E+01  0.17725034630E+01  0.18726435556E+02  0.00000000000E+00 0. -1.
         11    1    3    3    0    0 -0.34396743977E+02  0.61866216957E+01 -0.63713019066E+01  0.35524692434E+02  0.51100000000E-03 0. -1.
        -11    1    3    3    0    0 -0.61176527318E+01 -0.75924219459E+01  0.75152451859E+01  0.12310542491E+02  0.51100000000E-03 0.  1.
         12    1    3    3    0    0  0.23092977576E+02  0.80414445655E+01 -0.29164467424E+01  0.24626329520E+02  0.00000000000E+00 0. -1.
</event>
<event>
 7    1  0.2797450E-013  0.7246154E+02  0.7816164E-02  0.1226708E+00
        -11   -1    0    0    0    0  0.00000000000E+00  0.00000000000E+00  0.45593999997E+02  0.45594000000E+02  0.51100000000E-03 0.  1.
         11   -1    0    0    0    0 -0.00000000000E+00 -0.00000000000E+00 -0.45593999997E+02  0.45594000000E+02  0.51100000000E-03 0. -1.
    9900012    2    1    2    0    0  0.76741629546E+01 -0.13609051430E+02  0.10323828024E+02  0.72461535225E+02  0.69999954316E+02 0.  0.
         12    1    1    2    0    0 -0.76741629546E+01  0.13609051430E+02 -0.10323828024E+02  0.18726464775E+02  0.00000000000E+00 0. -1.
         11    1    3    3    0    0 -0.11177441767E+02 -0.21995755321E+02  0.22709012210E+02  0.33532785336E+02  0.51100000000E-03 0.  1.
        -11    1    3    3    0    0  0.21944336328E+02  0.15008607322E+02 -0.25961802807E+01  0.26712400546E+02  0.51100000000E-03 0. -1.
        -12    1    3    3    0    0 -0.30927316066E+01 -0.66219034310E+01 -0.97890039046E+01  0.12216349344E+02  0.00000000000E+00 0.  1.
</event>
<event>
 7    1  0.2797450E-013  0.7246154E+02  0.7816164E-02  0.1226708E+00
        -11   -1    0    0    0    0  0.00000000000E+00  0.00000000000E+00  0.45593999997E+02  0.45594000000E+02  0.51100000000E-03 0. -1.
         11   -1    0    0    0    0 -0.00000000000E+00 -0.00000000000E+00 -0.45593999997E+02  0.45594000000E+02  0.51100000000E-03 0.  1.
    9900012    2    1    2    0    0 -0.17979625692E+02  0.52351727539E+01  0.80502277854E-01  0.72461535988E+02  0.69999955310E+02 0.  0.
         12    1    1    2    0    0  0.17979625692E+02 -0.52351727539E+01 -0.80502277854E-01  0.18726464012E+02  0.00000000000E+00 0. -1.
         11    1    3    3    0    0 -0.15764438877E+02  0.43319022320E+01  0.75515734762E+01  0.18008586071E+02  0.51100000000E-03 0. -1.
        -11    1    3    3    0    0  0.80572041772E-01  0.25066079430E+02 -0.14786946902E+02  0.29102725453E+02  0.51100000000E-03 0.  1.
        -12    1    3    3    0    0 -0.22957588564E+01 -0.24162808908E+02  0.73158757041E+01  0.25350224464E+02  0.00000000000E+00 0.  1.
</event>
<event>
 7    1  0.2797450E-013  0.7246158E+02  0.7816164E-02  0.1226708E+00
        -11   -1    0    0    0    0  0.00000000000E+00  0.00000000000E+00  0.45593999997E+02  0.45594000000E+02  0.51100000000E-03 0. -1.
         11   -1    0    0    0    0 -0.00000000000E+00 -0.00000000000E+00 -0.45593999997E+02  0.45594000000E+02  0.51100000000E-03 0.  1.
    9900012    2    1    2    0    0 -0.10758284735E+01  0.79071847099E+01 -0.16941007389E+02  0.72461582609E+02  0.70000016042E+02 0.  0.
         12    1    1    2    0    0  0.10758284735E+01 -0.79071847099E+01  0.16941007389E+02  0.18726417391E+02  0.00000000000E+00 0. -1.
         11    1    3    3    0    0  0.21273768335E+01 -0.61827749900E+01 -0.30053321797E+00  0.65454380484E+01  0.51100000000E-03 0. -1.
        -11    1    3    3    0    0  0.25603188549E+02 -0.48422856484E+01 -0.17579332389E+02  0.31432529674E+02  0.51100000000E-03 0.  1.
         12    1    3    3    0    0 -0.28806393856E+02  0.18932245348E+02  0.93885821796E+00  0.34483614887E+02  0.00000000000E+00 0. -1.
</event>
<event>
 7    1  0.2797450E-013  0.7246156E+02  0.7816164E-02  0.1226708E+00
        -11   -1    0    0    0    0  0.00000000000E+00  0.00000000000E+00  0.45593999997E+02  0.45594000000E+02  0.51100000000E-03 0. -1.
         11   -1    0    0    0    0 -0.00000000000E+00 -0.00000000000E+00 -0.45593999997E+02  0.45594000000E+02  0.51100000000E-03 0.  1.
    9900012    2    1    2    0    0 -0.12527840949E+02 -0.65496751089E+01 -0.12281477628E+02  0.72461555180E+02  0.69999980311E+02 0.  0.
         12    1    1    2    0    0  0.12527840949E+02  0.65496751089E+01  0.12281477628E+02  0.18726444820E+02  0.00000000000E+00 0. -1.
         11    1    3    3    0    0  0.87790330027E+00  0.17542180497E+02 -0.52071056267E+01  0.18319736899E+02  0.51100000000E-03 0. -1.
        -11    1    3    3    0    0  0.17208119165E+02 -0.10561744207E+02 -0.20152414680E+01  0.20291155815E+02  0.51100000000E-03 0.  1.
         12    1    3    3    0    0 -0.30613863414E+02 -0.13530111399E+02 -0.50591305329E+01  0.33850662465E+02  0.00000000000E+00 0. -1.
</event>
<event>
 7    1  0.2797450E-013  0.7246134E+02  0.7816164E-02  0.1226709E+00
        -11   -1    0    0    0    0  0.00000000000E+00  0.00000000000E+00  0.45593999997E+02  0.45594000000E+02  0.51100000000E-03 0. -1.
         11   -1    0    0    0    0 -0.00000000000E+00 -0.00000000000E+00 -0.45593999997E+02  0.45594000000E+02  0.51100000000E-03 0.  1.
    9900012    2    1    2    0    0  0.89792199524E+00 -0.17281875330E+02 -0.71567002853E+01  0.72461338851E+02  0.69999698501E+02 0.  0.
         12    1    1    2    0    0 -0.89792199524E+00  0.17281875330E+02  0.71567002853E+01  0.18726661149E+02  0.00000000000E+00 0. -1.
         11    1    3    3    0    0 -0.37247084914E+01  0.10904249817E+02  0.35397007922E+01  0.12054277223E+02  0.51100000000E-03 0. -1.
        -11    1    3    3    0    0  0.89614189642E+01 -0.15379958900E+02 -0.31156490347E+02  0.35882823977E+02  0.51100000000E-03 0.  1.
         12    1    3    3    0    0 -0.43387884776E+01 -0.12806166247E+02  0.20460089269E+02  0.24524237650E+02  0.00000000000E+00 0. -1.
</event>
<event>
 7    1  0.2797450E-013  0.7246150E+02  0.7816164E-02  0.1226708E+00
        -11   -1    0    0    0    0  0.00000000000E+00  0.00000000000E+00  0.45593999997E+02  0.45594000000E+02  0.51100000000E-03 0.  1.
         11   -1    0    0    0    0 -0.00000000000E+00 -0.00000000000E+00 -0.45593999997E+02  0.45594000000E+02  0.51100000000E-03 0. -1.
    9900012    2    1    2    0    0 -0.51861918778E+01 -0.47295837486E+01  0.17361348091E+02  0.72461495891E+02  0.69999903075E+02 0.  0.
         12    1    1    2    0    0  0.51861918778E+01  0.47295837486E+01 -0.17361348091E+02  0.18726504109E+02  0.00000000000E+00 0. -1.
         11    1    3    3    0    0 -0.17370660295E+02 -0.45849838845E+01  0.59529502138E+01  0.18926160013E+02  0.51100000000E-03 0. -1.
        -11    1    3    3    0    0 -0.15039483400E+02  0.11908843989E+02  0.13852580900E+02  0.23662219336E+02  0.51100000000E-03 0.  1.
         12    1    3    3    0    0  0.27223951817E+02 -0.12053443853E+02 -0.24441830226E+01  0.29873116542E+02  0.00000000000E+00 0. -1.
</event>
<event>
 7    1  0.2797450E-013  0.7246084E+02  0.7816164E-02  0.1226710E+00
        -11   -1    0    0    0    0  0.00000000000E+00  0.00000000000E+00  0.45593999997E+02  0.45594000000E+02  0.51100000000E-03 0.  1.
         11   -1    0    0    0    0 -0.00000000000E+00 -0.00000000000E+00 -0.45593999997E+02  0.45594000000E+02  0.51100000000E-03 0. -1.
    9900012    2    1    2    0    0 -0.34443240549E+01  0.10516605828E+02  0.15107753502E+02  0.72460838384E+02  0.69999046544E+02 0.  0.
         12    1    1    2    0    0  0.34443240549E+01 -0.10516605828E+02 -0.15107753502E+02  0.18727161616E+02  0.00000000000E+00 0. -1.
         11    1    3    3    0    0 -0.10115821254E+02 -0.69794015881E+00  0.10757412793E+02  0.14783060927E+02  0.51100000000E-03 0. -1.
        -11    1    3    3    0    0  0.98045197457E+01  0.12430392423E+02  0.28871554098E+02  0.32927342734E+02  0.51100000000E-03 0.  1.
         12    1    3    3    0    0 -0.31330225467E+01 -0.12158464368E+01 -0.24521213390E+02  0.24750434722E+02  0.00000000000E+00 0. -1.
</event>
<event>
 7    1  0.2797450E-013  0.7246157E+02  0.7816164E-02  0.1226708E+00
        -11   -1    0    0    0    0  0.00000000000E+00  0.00000000000E+00  0.45593999997E+02  0.45594000000E+02  0.51100000000E-03 0. -1.
         11   -1    0    0    0    0 -0.00000000000E+00 -0.00000000000E+00 -0.45593999997E+02  0.45594000000E+02  0.51100000000E-03 0.  1.
    9900012    2    1    2    0    0  0.16782254489E+02 -0.73348065917E+01 -0.39033038164E+01  0.72461568568E+02  0.69999997751E+02 0.  0.
         12    1    1    2    0    0 -0.16782254489E+02  0.73348065917E+01  0.39033038164E+01  0.18726431432E+02  0.00000000000E+00 0. -1.
         11    1    3    3    0    0  0.15806437720E+02 -0.25059067589E+02  0.36400411627E+01  0.29850464682E+02  0.51100000000E-03 0. -1.
        -11    1    3    3    0    0  0.90409059966E+01 -0.81164293071E+01 -0.95689007994E+01  0.15465389381E+02  0.51100000000E-03 0.  1.
         12    1    3    3    0    0 -0.80650892268E+01  0.25840690304E+02  0.20255558204E+01  0.27145714505E+02  0.00000000000E+00 0. -1.
</event>
<event>
 7    1  0.2797450E-013  0.7246162E+02  0.7816164E-02  0.1226708E+00
        -11   -1    0    0    0    0  0.00000000000E+00  0.00000000000E+00  0.45593999997E+02  0.45594000000E+02  0.51100000000E-03 0. -1.
         11   -1    0    0    0    0 -0.00000000000E+00 -0.00000000000E+00 -0.45593999997E+02  0.45594000000E+02  0.51100000000E-03 0.  1.
    9900012    2    1    2    0    0 -0.88615015512E+01 -0.12574854237E+02 -0.10678210879E+02  0.72461618705E+02  0.70000063064E+02 0.  0.
         12    1    1    2    0    0  0.88615015512E+01  0.12574854237E+02  0.10678210879E+02  0.18726381295E+02  0.00000000000E+00 0. -1.
         11    1    3    3    0    0  0.89051394608E+01  0.11796671386E+02 -0.22937821854E+02  0.27287481311E+02  0.51100000000E-03 0. -1.
        -11    1    3    3    0    0 -0.10602294362E+02  0.18429160488E+01 -0.61074735994E+01  0.12373609794E+02  0.51100000000E-03 0.  1.
        -12    1    3    3    0    0 -0.71643466499E+01 -0.26214441672E+02  0.18367084575E+02  0.32800527601E+02  0.00000000000E+00 0.  1.
</event>
<event>
 7    1  0.2797450E-013  0.7246159E+02  0.7816164E-02  0.1226708E+00
        -11   -1    0    0    0    0  0.00000000000E+00  0.00000000000E+00  0.45593999997E+02  0.45594000000E+02  0.51100000000E-03 0. -1.
         11   -1    0    0    0    0 -0.00000000000E+00 -0.00000000000E+00 -0.45593999997E+02  0.45594000000E+02  0.51100000000E-03 0.  1.
    9900012    2    1    2    0    0  0.15052301424E+01 -0.18628507138E+02  0.11795434460E+01  0.72461593011E+02  0.70000029593E+02 0.  0.
         12    1    1    2    0    0 -0.15052301424E+01  0.18628507138E+02 -0.11795434460E+01  0.18726406989E+02  0.00000000000E+00 0. -1.
         11    1    3    3    0    0 -0.79504164710E+01 -0.50891549558E+00  0.10557199503E+02  0.13225829980E+02  0.51100000000E-03 0. -1.
        -11    1    3    3    0    0  0.83141088304E+01  0.14070046366E+02  0.12262202475E+02  0.20431647516E+02  0.51100000000E-03 0.  1.
         12    1    3    3    0    0  0.11415377830E+01 -0.32189638009E+02 -0.21639858532E+02  0.38804115516E+02  0.00000000000E+00 0. -1.
</event>
<event>
 7    1  0.2797450E-013  0.7246159E+02  0.7816164E-02  0.1226708E+00
        -11   -1    0    0    0    0  0.00000000000E+00  0.00000000000E+00  0.45593999997E+02  0.45594000000E+02  0.51100000000E-03 0. -1.
         11   -1    0    0    0    0 -0.00000000000E+00 -0.00000000000E+00 -0.45593999997E+02  0.45594000000E+02  0.51100000000E-03 0.  1.
    9900012    2    1    2    0    0 -0.27423839073E+01 -0.12054588695E+02 -0.14065732708E+02  0.72461585107E+02  0.70000019297E+02 0.  0.
         12    1    1    2    0    0  0.27423839073E+01  0.12054588695E+02  0.14065732708E+02  0.18726414893E+02  0.00000000000E+00 0. -1.
         11    1    3    3    0    0  0.13730519398E+02  0.52563859957E+01  0.53451523476E+01  0.15643765869E+02  0.51100000000E-03 0. -1.
        -11    1    3    3    0    0  0.11162482215E+02 -0.14214814606E+02  0.61050825935E+01  0.19077054207E+02  0.51100000000E-03 0.  1.
        -12    1    3    3    0    0 -0.27635385520E+02 -0.30961600851E+01 -0.25515967649E+02  0.37740765032E+02  0.00000000000E+00 0.  1.
</event>
<event>
 7    1  0.2797450E-013  0.7246156E+02  0.7816164E-02  0.1226708E+00
        -11   -1    0    0    0    0  0.00000000000E+00  0.00000000000E+00  0.45593999997E+02  0.45594000000E+02  0.51100000000E-03 0.  1.
         11   -1    0    0    0    0 -0.00000000000E+00 -0.00000000000E+00 -0.45593999997E+02  0.45594000000E+02  0.51100000000E-03 0. -1.
    9900012    2    1    2    0    0 -0.88518261852E+01 -0.14816556428E+02  0.72659687117E+01  0.72461562204E+02  0.69999989461E+02 0.  0.
         12    1    1    2    0    0  0.88518261852E+01  0.14816556428E+02 -0.72659687117E+01  0.18726437796E+02  0.00000000000E+00 0. -1.
         11    1    3    3    0    0  0.17105350466E+02 -0.16058363628E+01  0.40844288729E+01  0.17659396492E+02  0.51100000000E-03 0. -1.
        -11    1    3    3    0    0  0.68614907730E+01 -0.19974284709E+02  0.26866506150E+01  0.21290143190E+02  0.51100000000E-03 0.  1.
        -12    1    3    3    0    0 -0.32818667424E+02  0.67635646435E+01  0.49488922382E+00  0.33512022522E+02  0.00000000000E+00 0.  1.
</event>
<event>
 7    1  0.2797450E-013  0.7246159E+02  0.7816164E-02  0.1226708E+00
        -11   -1    0    0    0    0  0.00000000000E+00  0.00000000000E+00  0.45593999997E+02  0.45594000000E+02  0.51100000000E-03 0.  1.
         11   -1    0    0    0    0 -0.00000000000E+00 -0.00000000000E+00 -0.45593999997E+02  0.45594000000E+02  0.51100000000E-03 0. -1.
    9900012    2    1    2    0    0  0.15335317263E+02  0.67900187265E+00  0.10725923002E+02  0.72461590217E+02  0.70000025953E+02 0.  0.
         12    1    1    2    0    0 -0.15335317263E+02 -0.67900187265E+00 -0.10725923002E+02  0.18726409783E+02  0.00000000000E+00 0. -1.
         11    1    3    3    0    0  0.24199587494E+02 -0.70539868016E+01  0.72137850047E+01  0.26218647163E+02  0.51100000000E-03 0. -1.
        -11    1    3    3    0    0  0.17316759583E+02  0.21791420620E+01  0.78370533056E+01  0.19132125532E+02  0.51100000000E-03 0.  1.
         12    1    3    3    0    0 -0.26181029814E+02  0.55538466122E+01 -0.43249153085E+01  0.27110817523E+02  0.00000000000E+00 0. -1.
</event>
<event>
 7    1  0.2797450E-013  0.7246159E+02  0.7816164E-02  0.1226708E+00
        -11   -1    0    0    0    0  0.00000000000E+00  0.00000000000E+00  0.45593999997E+02  0.45594000000E+02  0.51100000000E-03 0. -1.
         11   -1    0    0    0    0 -0.00000000000E+00 -0.00000000000E+00 -0.45593999997E+02  0.45594000000E+02  0.51100000000E-03 0.  1.
    9900012    2    1    2    0    0  0.86503790371E+01 -0.10575998324E+02 -0.12806160457E+02  0.72461587004E+02  0.70000021768E+02 0.  0.
         12    1    1    2    0    0 -0.86503790371E+01  0.10575998324E+02  0.12806160457E+02  0.18726412996E+02  0.00000000000E+00 0. -1.
         11    1    3    3    0    0 -0.75201530481E+00  0.82374978949E+01  0.64555354492E+01  0.10492656326E+02  0.51100000000E-03 0. -1.
        -11    1    3    3    0    0  0.25252497263E+02  0.59380866370E+01  0.14990661572E+01  0.25984547149E+02  0.51100000000E-03 0.  1.
         12    1    3    3    0    0 -0.15850102921E+02 -0.24751582856E+02 -0.20760762063E+02  0.35984383529E+02  0.00000000000E+00 0. -1.
</event>
<event>
 7    1  0.2797450E-013  0.7246157E+02  0.7816164E-02  0.1226708E+00
        -11   -1    0    0    0    0  0.00000000000E+00  0.00000000000E+00  0.45593999997E+02  0.45594000000E+02  0.51100000000E-03 0. -1.
         11   -1    0    0    0    0 -0.00000000000E+00 -0.00000000000E+00 -0.45593999997E+02  0.45594000000E+02  0.51100000000E-03 0.  1.
    9900012    2    1    2    0    0 -0.43622679455E+01  0.13199735019E+02  0.12546586451E+02  0.72461569006E+02  0.69999998322E+02 0.  0.
         12    1    1    2    0    0  0.43622679455E+01 -0.13199735019E+02 -0.12546586451E+02  0.18726430994E+02  0.00000000000E+00 0. -1.
         11    1    3    3    0    0  0.13069393892E+02  0.11991433904E+02 -0.13594381367E+02  0.22347499833E+02  0.51100000000E-03 0.  1.
        -11    1    3    3    0    0 -0.11177831165E+02 -0.10574477119E+02 -0.50465011682E+01  0.16193537297E+02  0.51100000000E-03 0. -1.
         12    1    3    3    0    0 -0.62538306725E+01  0.11782778234E+02  0.31187468986E+02  0.33920531876E+02  0.00000000000E+00 0. -1.
</event>
<event>
 7    1  0.2797450E-013  0.7246155E+02  0.7816164E-02  0.1226708E+00
        -11   -1    0    0    0    0  0.00000000000E+00  0.00000000000E+00  0.45593999997E+02  0.45594000000E+02  0.51100000000E-03 0. -1.
         11   -1    0    0    0    0 -0.00000000000E+00 -0.00000000000E+00 -0.45593999997E+02  0.45594000000E+02  0.51100000000E-03 0.  1.
    9900012    2    1    2    0    0 -0.16572870877E+02  0.86810648008E+01 -0.81178958079E+00  0.72461549789E+02  0.69999973288E+02 0.  0.
         12    1    1    2    0    0  0.16572870877E+02 -0.86810648008E+01  0.81178958079E+00  0.18726450211E+02  0.00000000000E+00 0. -1.
         11    1    3    3    0    0  0.11360701406E+01  0.26274147423E+01  0.11509681708E+02  0.11860300876E+02  0.51100000000E-03 0. -1.
        -11    1    3    3    0    0  0.20471247746E+02  0.41995923322E+01 -0.19166429377E+01  0.20985282472E+02  0.51100000000E-03 0.  1.
        -12    1    3    3    0    0 -0.38180188763E+02  0.18540577263E+01 -0.10404828351E+02  0.39615966441E+02  0.00000000000E+00 0.  1.
</event>
<event>
 7    1  0.2797450E-013  0.7246156E+02  0.7816164E-02  0.1226708E+00
        -11   -1    0    0    0    0  0.00000000000E+00  0.00000000000E+00  0.45593999997E+02  0.45594000000E+02  0.51100000000E-03 0. -1.
         11   -1    0    0    0    0 -0.00000000000E+00 -0.00000000000E+00 -0.45593999997E+02  0.45594000000E+02  0.51100000000E-03 0.  1.
    9900012    2    1    2    0    0  0.22691000998E+01  0.45801563861E+01 -0.18015348214E+02  0.72461563632E+02  0.69999991321E+02 0.  0.
         12    1    1    2    0    0 -0.22691000998E+01 -0.45801563861E+01  0.18015348214E+02  0.18726436368E+02  0.00000000000E+00 0. -1.
         11    1    3    3    0    0  0.97174231457E+01 -0.25713188718E+01 -0.32146958119E+02  0.33681848374E+02  0.51100000000E-03 0.  1.
        -11    1    3    3    0    0  0.20121870303E+01  0.18490379313E+02  0.38360254038E+00  0.18603498997E+02  0.51100000000E-03 0. -1.
        -12    1    3    3    0    0 -0.94605100762E+01 -0.11338904055E+02  0.13748007365E+02  0.20176216260E+02  0.00000000000E+00 0.  1.
</event>
<event>
 7    1  0.2797450E-013  0.7246158E+02  0.7816164E-02  0.1226708E+00
        -11   -1    0    0    0    0  0.00000000000E+00  0.00000000000E+00  0.45593999997E+02  0.45594000000E+02  0.51100000000E-03 0.  1.
         11   -1    0    0    0    0 -0.00000000000E+00 -0.00000000000E+00 -0.45593999997E+02  0.45594000000E+02  0.51100000000E-03 0. -1.
    9900012    2    1    2    0    0  0.93368789152E+01  0.14438320889E+02 -0.74186555339E+01  0.72461578348E+02  0.70000010491E+02 0.  0.
         12    1    1    2    0    0 -0.93368789152E+01 -0.14438320889E+02  0.74186555339E+01  0.18726421652E+02  0.00000000000E+00 0. -1.
         11    1    3    3    0    0  0.20761955088E+02 -0.11418548399E+02 -0.55511401140E+01  0.24336334634E+02  0.51100000000E-03 0. -1.
        -11    1    3    3    0    0  0.13719373441E+02  0.15203545619E+02 -0.34685699947E+01  0.20770170559E+02  0.51100000000E-03 0.  1.
         12    1    3    3    0    0 -0.25144449613E+02  0.10653323669E+02  0.16010545749E+01  0.27355073154E+02  0.00000000000E+00 0. -1.
</event>
<event>
 7    1  0.2797450E-013  0.7246149E+02  0.7816164E-02  0.1226708E+00
        -11   -1    0    0    0    0  0.00000000000E+00  0.00000000000E+00  0.45593999997E+02  0.45594000000E+02  0.51100000000E-03 0.  1.
         11   -1    0    0    0    0 -0.00000000000E+00 -0.00000000000E+00 -0.45593999997E+02  0.45594000000E+02  0.51100000000E-03 0. -1.
    9900012    2    1    2    0    0 -0.86088210238E+01 -0.15775160014E+02 -0.52644857865E+01  0.72461487151E+02  0.69999891690E+02 0.  0.
         12    1    1    2    0    0  0.86088210238E+01  0.15775160014E+02  0.52644857865E+01  0.18726512849E+02  0.00000000000E+00 0. -1.
         11    1    3    3    0    0  0.28596991492E+02 -0.11506817993E+02 -0.31646356238E+01  0.30987250630E+02  0.51100000000E-03 0. -1.
        -11    1    3    3    0    0  0.17870323183E+00 -0.34575879480E+01  0.17570749488E+01  0.38825458015E+01  0.51100000000E-03 0.  1.
        -12    1    3    3    0    0 -0.37384515747E+02 -0.81075407249E+00 -0.38569251115E+01  0.37591690720E+02  0.00000000000E+00 0.  1.
</event>
<event>
 7    1  0.2797450E-013  0.7246158E+02  0.7816164E-02  0.1226708E+00
        -11   -1    0    0    0    0  0.00000000000E+00  0.00000000000E+00  0.45593999997E+02  0.45594000000E+02  0.51100000000E-03 0.  1.
         11   -1    0    0    0    0 -0.00000000000E+00 -0.00000000000E+00 -0.45593999997E+02  0.45594000000E+02  0.51100000000E-03 0. -1.
    9900012    2    1    2    0    0  0.55485676124E+01  0.16765851801E+02  0.62288502891E+01  0.72461575753E+02  0.70000007111E+02 0.  0.
         12    1    1    2    0    0 -0.55485676124E+01 -0.16765851801E+02 -0.62288502891E+01  0.18726424247E+02  0.00000000000E+00 0. -1.
         11    1    3    3    0    0  0.33736824827E+00 -0.14902658143E+02 -0.12188784402E+02  0.19255375939E+02  0.51100000000E-03 0. -1.
        -11    1    3    3    0    0  0.20088811855E+02  0.78956778258E+01  0.10851745290E+02  0.24159107313E+02  0.51100000000E-03 0.  1.
        -12    1    3    3    0    0 -0.14877612490E+02  0.23772832118E+02  0.75658894015E+01  0.29047092501E+02  0.00000000000E+00 0.  1.
</event>
<event>
 7    1  0.2797450E-013  0.7246158E+02  0.7816164E-02  0.1226708E+00
        -11   -1    0    0    0    0  0.00000000000E+00  0.00000000000E+00  0.45593999997E+02  0.45594000000E+02  0.51100000000E-03 0. -1.
         11   -1    0    0    0    0 -0.00000000000E+00 -0.00000000000E+00 -0.45593999997E+02  0.45594000000E+02  0.51100000000E-03 0.  1.
    9900012    2    1    2    0    0 -0.18405510145E+02 -0.19113248644E+01  0.28745089703E+01  0.72461581008E+02  0.70000013957E+02 0.  0.
         12    1    1    2    0    0  0.18405510145E+02  0.19113248644E+01 -0.28745089703E+01  0.18726418992E+02  0.00000000000E+00 0. -1.
         11    1    3    3    0    0 -0.16236352462E+02 -0.14509885656E+02  0.24813058782E+02  0.33012782515E+02  0.51100000000E-03 0. -1.
        -11    1    3    3    0    0 -0.83401337205E+01 -0.75971963868E+01 -0.48361204191E+01  0.12274497317E+02  0.51100000000E-03 0.  1.
        -12    1    3    3    0    0  0.61709760374E+01  0.20195757178E+02 -0.17102429393E+02  0.27174301176E+02  0.00000000000E+00 0.  1.
</event>
<event>
 7    1  0.2797450E-013  0.7246158E+02  0.7816164E-02  0.1226708E+00
        -11   -1    0    0    0    0  0.00000000000E+00  0.00000000000E+00  0.45593999997E+02  0.45594000000E+02  0.51100000000E-03 0.  1.
         11   -1    0    0    0    0 -0.00000000000E+00 -0.00000000000E+00 -0.45593999997E+02  0.45594000000E+02  0.51100000000E-03 0. -1.
    9900012    2    1    2    0    0  0.10890505921E+02 -0.13941786475E+02  0.61402263292E+01  0.72461577258E+02  0.70000009072E+02 0.  0.
         12    1    1    2    0    0 -0.10890505921E+02  0.13941786475E+02 -0.61402263292E+01  0.18726422742E+02  0.00000000000E+00 0. -1.
         11    1    3    3    0    0 -0.73403429174E+01 -0.60277002680E+01 -0.12021690485E+02  0.15321058940E+02  0.51100000000E-03 0. -1.
        -11    1    3    3    0    0 -0.14341856717E+02  0.46835490460E+00  0.18614634351E+02  0.23503464057E+02  0.51100000000E-03 0.  1.
         12    1    3    3    0    0  0.32572705555E+02 -0.83824411117E+01 -0.45271753633E+00  0.33637054261E+02  0.00000000000E+00 0. -1.
</event>
<event>
 7    1  0.2797450E-013  0.7246161E+02  0.7816164E-02  0.1226708E+00
        -11   -1    0    0    0    0  0.00000000000E+00  0.00000000000E+00  0.45593999997E+02  0.45594000000E+02  0.51100000000E-03 0.  1.
         11   -1    0    0    0    0 -0.00000000000E+00 -0.00000000000E+00 -0.45593999997E+02  0.45594000000E+02  0.51100000000E-03 0. -1.
    9900012    2    1    2    0    0  0.14057032840E+02  0.22920859833E+01  0.12158280745E+02  0.72461611638E+02  0.70000053858E+02 0.  0.
         12    1    1    2    0    0 -0.14057032840E+02 -0.22920859833E+01 -0.12158280745E+02  0.18726388362E+02  0.00000000000E+00 0. -1.
         11    1    3    3    0    0  0.77566237931E+01 -0.11910096562E+02 -0.10412327989E+02  0.17619085878E+02  0.51100000000E-03 0. -1.
        -11    1    3    3    0    0  0.16034628428E+02 -0.35555505208E+01 -0.79244943485E+01  0.18235922221E+02  0.51100000000E-03 0.  1.
         12    1    3    3    0    0 -0.97342193814E+01  0.17757733066E+02  0.30495103082E+02  0.36606603538E+02  0.00000000000E+00 0. -1.
</event>
<event>
 7    1  0.2797450E-013  0.7246157E+02  0.7816164E-02  0.1226708E+00
        -11   -1    0    0    0    0  0.00000000000E+00  0.00000000000E+00  0.45593999997E+02  0.45594000000E+02  0.51100000000E-03 0. -1.
         11   -1    0    0    0    0 -0.00000000000E+00 -0.00000000000E+00 -0.45593999997E+02  0.45594000000E+02  0.51100000000E-03 0.  1.
    9900012    2    1    2    0    0 -0.16868449662E+02  0.78800888373E+01 -0.20097126962E+01  0.72461565764E+02  0.69999994099E+02 0.  0.
         12    1    1    2    0    0  0.16868449662E+02 -0.78800888373E+01  0.20097126962E+01  0.18726434236E+02  0.00000000000E+00 0. -1.
         11    1    3    3    0    0  0.50541307277E+01 -0.57441796820E+00  0.12018807014E+01  0.52267304212E+01  0.51100000000E-03 0. -1.
        -11    1    3    3    0    0  0.14132904584E+02 -0.11762235964E+02 -0.15566257643E+02  0.24091441719E+02  0.51100000000E-03 0.  1.
         12    1    3    3    0    0 -0.36055484973E+02  0.20216742769E+02  0.12354664245E+02  0.43143393624E+02  0.00000000000E+00 0. -1.
</event>
<event>
 7    1  0.2797450E-013  0.7246144E+02  0.7816164E-02  0.1226708E+00
        -11   -1    0    0    0    0  0.00000000000E+00  0.00000000000E+00  0.45593999997E+02  0.45594000000E+02  0.51100000000E-03 0.  1.
         11   -1    0    0    0    0 -0.00000000000E+00 -0.00000000000E+00 -0.45593999997E+02  0.45594000000E+02  0.51100000000E-03 0. -1.
    9900012    2    1    2    0    0 -0.16081915662E+02  0.93036390330E+01  0.23448858419E+01  0.72461435974E+02  0.69999825022E+02 0.  0.
         12    1    1    2    0    0  0.16081915662E+02 -0.93036390330E+01 -0.23448858419E+01  0.18726564026E+02  0.00000000000E+00 0. -1.
         11    1    3    3    0    0 -0.70022878229E-01 -0.70456737155E+01 -0.51095904336E+00  0.70645240967E+01  0.51100000000E-03 0. -1.
        -11    1    3    3    0    0 -0.12525008699E+02 -0.18505520503E+02  0.16528491912E+02  0.27794265184E+02  0.51100000000E-03 0.  1.
         12    1    3    3    0    0 -0.34868840850E+01  0.34854833251E+02 -0.13672647026E+02  0.37602646693E+02  0.00000000000E+00 0. -1.
</event>
<event>
 7    1  0.2797450E-013  0.7246155E+02  0.7816164E-02  0.1226708E+00
        -11   -1    0    0    0    0  0.00000000000E+00  0.00000000000E+00  0.45593999997E+02  0.45594000000E+02  0.51100000000E-03 0. -1.
         11   -1    0    0    0    0 -0.00000000000E+00 -0.00000000000E+00 -0.45593999997E+02  0.45594000000E+02  0.51100000000E-03 0.  1.
    9900012    2    1    2    0    0 -0.20059743143E+01  0.15670070758E+01 -0.18552637432E+02  0.72461553466E+02  0.69999978077E+02 0.  0.
         12    1    1    2    0    0  0.20059743143E+01 -0.15670070758E+01  0.18552637432E+02  0.18726446534E+02  0.00000000000E+00 0. -1.
         11    1    3    3    0    0 -0.23482168430E+02  0.13953563290E+02 -0.20981024383E+02  0.34442960777E+02  0.51100000000E-03 0. -1.
        -11    1    3    3    0    0 -0.13381502424E+01 -0.20706167361E+01 -0.98343843683E+01  0.10138698926E+02  0.51100000000E-03 0.  1.
        -12    1    3    3    0    0  0.22814344358E+02 -0.10315939478E+02  0.12262771319E+02  0.27879893763E+02  0.00000000000E+00 0.  1.
</event>
<event>
 7    1  0.2797450E-013  0.7246157E+02  0.7816164E-02  0.1226708E+00
        -11   -1    0    0    0    0  0.00000000000E+00  0.00000000000E+00  0.45593999997E+02  0.45594000000E+02  0.51100000000E-03 0.  1.
         11   -1    0    0    0    0 -0.00000000000E+00 -0.00000000000E+00 -0.45593999997E+02  0.45594000000E+02  0.51100000000E-03 0. -1.
    9900012    2    1    2    0    0  0.86083502520E+01  0.10804902950E+02  0.12642377592E+02  0.72461565929E+02  0.69999994314E+02 0.  0.
         12    1    1    2    0    0 -0.86083502520E+01 -0.10804902950E+02 -0.12642377592E+02  0.18726434071E+02  0.00000000000E+00 0. -1.
         11    1    3    3    0    0 -0.11681156044E+00  0.65908849868E+00 -0.92772571591E+00  0.11439920694E+01  0.51100000000E-03 0. -1.
        -11    1    3    3    0    0 -0.30239749854E+02  0.38758437208E+01  0.73959184403E+01  0.31371392153E+02  0.51100000000E-03 0.  1.
        -12    1    3    3    0    0  0.38964911667E+02  0.62699707306E+01  0.61741848678E+01  0.39946181707E+02  0.00000000000E+00 0.  1.
</event>
<event>
 7    1  0.2797450E-013  0.7246155E+02  0.7816164E-02  0.1226708E+00
        -11   -1    0    0    0    0  0.00000000000E+00  0.00000000000E+00  0.45593999997E+02  0.45594000000E+02  0.51100000000E-03 0. -1.
         11   -1    0    0    0    0 -0.00000000000E+00 -0.00000000000E+00 -0.45593999997E+02  0.45594000000E+02  0.51100000000E-03 0.  1.
    9900012    2    1    2    0    0 -0.11050793494E+02 -0.81261417701E+01 -0.12748558302E+02  0.72461549304E+02  0.69999972656E+02 0.  0.
         12    1    1    2    0    0  0.11050793494E+02  0.81261417701E+01  0.12748558302E+02  0.18726450696E+02  0.00000000000E+00 0. -1.
         11    1    3    3    0    0 -0.94620471985E+01 -0.19744906179E+02  0.92597864059E+01  0.23772574571E+02  0.51100000000E-03 0. -1.
        -11    1    3    3    0    0  0.19168282065E+02 -0.84357103699E+00 -0.10679070395E+02  0.21958533517E+02  0.51100000000E-03 0.  1.
        -12    1    3    3    0    0 -0.20757028361E+02  0.12462335446E+02 -0.11329274312E+02  0.26730441216E+02  0.00000000000E+00 0.  1.
</event>
<event>
 7    1  0.2797450E-013  0.7246159E+02  0.7816164E-02  0.1226708E+00
        -11   -1    0    0    0    0  0.00000000000E+00  0.00000000000E+00  0.45593999997E+02  0.45594000000E+02  0.51100000000E-03 0. -1.
         11   -1    0    0    0    0 -0.00000000000E+00 -0.00000000000E+00 -0.45593999997E+02  0.45594000000E+02  0.51100000000E-03 0.  1.
    9900012    2    1    2    0    0  0.16777813338E+02 -0.36960091570E+01 -0.74513806939E+01  0.72461586079E+02  0.70000020563E+02 0.  0.
         12    1    1    2    0    0 -0.16777813338E+02  0.36960091570E+01  0.74513806939E+01  0.18726413921E+02  0.00000000000E+00 0. -1.
         11    1    3    3    0    0 -0.89851294408E+01  0.89535875581E+01  0.94569250572E+00  0.12719811941E+02  0.51100000000E-03 0. -1.
        -11    1    3    3    0    0  0.21848963550E+02  0.17847751668E+02 -0.16342019846E+01  0.28259335877E+02  0.51100000000E-03 0.  1.
        -12    1    3    3    0    0  0.39139792290E+01 -0.30497348384E+02 -0.67628712151E+01  0.31482438262E+02  0.00000000000E+00 0.  1.
</event>
<event>
 7    1  0.2797450E-013  0.7246160E+02  0.7816164E-02  0.1226708E+00
        -11   -1    0    0    0    0  0.00000000000E+00  0.00000000000E+00  0.45593999997E+02  0.45594000000E+02  0.51100000000E-03 0.  1.
         11   -1    0    0    0    0 -0.00000000000E+00 -0.00000000000E+00 -0.45593999997E+02  0.45594000000E+02  0.51100000000E-03 0. -1.
    9900012    2    1    2    0    0  0.13219689299E+02  0.10855370769E+02  0.76209460680E+01  0.72461599421E+02  0.70000037943E+02 0.  0.
         12    1    1    2    0    0 -0.13219689299E+02 -0.10855370769E+02 -0.76209460680E+01  0.18726400579E+02  0.00000000000E+00 0. -1.
         11    1    3    3    0    0 -0.20562568399E+02  0.19169496624E+02 -0.57663860691E+01  0.28697387138E+02  0.51100000000E-03 0. -1.
        -11    1    3    3    0    0  0.31251329293E+01 -0.32389066984E+01 -0.57252930019E+01  0.72825787085E+01  0.51100000000E-03 0.  1.
        -12    1    3    3    0    0  0.30657124768E+02 -0.50752191567E+01  0.19112625139E+02  0.36481633575E+02  0.00000000000E+00 0.  1.
</event>
<event>
 7    1  0.2797450E-013  0.7246156E+02  0.7816164E-02  0.1226708E+00
        -11   -1    0    0    0    0  0.00000000000E+00  0.00000000000E+00  0.45593999997E+02  0.45594000000E+02  0.51100000000E-03 0.  1.
         11   -1    0    0    0    0 -0.00000000000E+00 -0.00000000000E+00 -0.45593999997E+02  0.45594000000E+02  0.51100000000E-03 0. -1.
    9900012    2    1    2    0    0 -0.74930180313E+01 -0.14282963100E+02  0.95147921217E+01  0.72461558180E+02  0.69999984219E+02 0.  0.
         12    1    1    2    0    0  0.74930180313E+01  0.14282963100E+02 -0.95147921217E+01  0.18726441820E+02  0.00000000000E+00 0. -1.
         11    1    3    3    0    0  0.11068933193E+02  0.55416824808E+01  0.36194215679E+00  0.12383962578E+02  0.51100000000E-03 0. -1.
        -11    1    3    3    0    0  0.16054582075E+02 -0.15870709881E+02  0.11150792435E+02  0.25178745201E+02  0.51100000000E-03 0.  1.
         12    1    3    3    0    0 -0.34616533299E+02 -0.39539356993E+01 -0.19979424704E+01  0.34898850400E+02  0.00000000000E+00 0. -1.
</event>
<event>
 7    1  0.2797450E-013  0.7246153E+02  0.7816164E-02  0.1226708E+00
        -11   -1    0    0    0    0  0.00000000000E+00  0.00000000000E+00  0.45593999997E+02  0.45594000000E+02  0.51100000000E-03 0.  1.
         11   -1    0    0    0    0 -0.00000000000E+00 -0.00000000000E+00 -0.45593999997E+02  0.45594000000E+02  0.51100000000E-03 0. -1.
    9900012    2    1    2    0    0 -0.62239744771E+01 -0.12741929243E+02 -0.12230533836E+02  0.72461532714E+02  0.69999951045E+02 0.  0.
         12    1    1    2    0    0  0.62239744771E+01  0.12741929243E+02  0.12230533836E+02  0.18726467286E+02  0.00000000000E+00 0. -1.
         11    1    3    3    0    0 -0.66394754527E+01 -0.16304271605E+02 -0.94478489507E+01  0.19979333245E+02  0.51100000000E-03 0. -1.
        -11    1    3    3    0    0 -0.21105716832E+02 -0.25839381641E+01 -0.15890236519E+02  0.26544823155E+02  0.51100000000E-03 0.  1.
         12    1    3    3    0    0  0.21521217807E+02  0.61462805268E+01  0.13107551634E+02  0.25937376314E+02  0.00000000000E+00 0. -1.
</event>
<event>
 7    1  0.2797450E-013  0.7246164E+02  0.7816164E-02  0.1226708E+00
        -11   -1    0    0    0    0  0.00000000000E+00  0.00000000000E+00  0.45593999997E+02  0.45594000000E+02  0.51100000000E-03 0.  1.
         11   -1    0    0    0    0 -0.00000000000E+00 -0.00000000000E+00 -0.45593999997E+02  0.45594000000E+02  0.51100000000E-03 0. -1.
    9900012    2    1    2    0    0 -0.27420311820E+01  0.18316436379E+02  0.27687325956E+01  0.72461642724E+02  0.70000094353E+02 0.  0.
         12    1    1    2    0    0  0.27420311820E+01 -0.18316436379E+02 -0.27687325956E+01  0.18726357276E+02  0.00000000000E+00 0. -1.
         11    1    3    3    0    0  0.13273052719E+01  0.77137818718E+01 -0.58387454292E+01  0.97649945468E+01  0.51100000000E-03 0. -1.
        -11    1    3    3    0    0  0.13470230876E+01  0.35069438818E+02 -0.27112012659E+01  0.35199866801E+02  0.51100000000E-03 0.  1.
         12    1    3    3    0    0 -0.54163595415E+01 -0.24466784311E+02  0.11318679291E+02  0.27496781377E+02  0.00000000000E+00 0. -1.
</event>
<event>
 7    1  0.2797450E-013  0.7246158E+02  0.7816164E-02  0.1226708E+00
        -11   -1    0    0    0    0  0.00000000000E+00  0.00000000000E+00  0.45593999997E+02  0.45594000000E+02  0.51100000000E-03 0.  1.
         11   -1    0    0    0    0 -0.00000000000E+00 -0.00000000000E+00 -0.45593999997E+02  0.45594000000E+02  0.51100000000E-03 0. -1.
    9900012    2    1    2    0    0  0.52845669207E+01 -0.17926207856E+02 -0.11845442620E+01  0.72461582276E+02  0.70000015609E+02 0.  0.
         12    1    1    2    0    0 -0.52845669207E+01  0.17926207856E+02  0.11845442620E+01  0.18726417724E+02  0.00000000000E+00 0. -1.
         11    1    3    3    0    0 -0.14213523914E+02  0.10443948813E+02 -0.14051185899E+02  0.22550746202E+02  0.51100000000E-03 0. -1.
        -11    1    3    3    0    0 -0.16314845250E+01 -0.15378357176E+02 -0.80773705717E+01  0.17447049229E+02  0.51100000000E-03 0.  1.
        -12    1    3    3    0    0  0.21129575360E+02 -0.12991799494E+02  0.20944012208E+02  0.32463786845E+02  0.00000000000E+00 0.  1.
</event>
<event>
 7    1  0.2797450E-013  0.7246152E+02  0.7816164E-02  0.1226708E+00
        -11   -1    0    0    0    0  0.00000000000E+00  0.00000000000E+00  0.45593999997E+02  0.45594000000E+02  0.51100000000E-03 0. -1.
         11   -1    0    0    0    0 -0.00000000000E+00 -0.00000000000E+00 -0.45593999997E+02  0.45594000000E+02  0.51100000000E-03 0.  1.
    9900012    2    1    2    0    0  0.75448147791E+01  0.90650026496E+01 -0.14545871093E+02  0.72461524919E+02  0.69999940890E+02 0.  0.
         12    1    1    2    0    0 -0.75448147791E+01 -0.90650026496E+01  0.14545871093E+02  0.18726475081E+02  0.00000000000E+00 0. -1.
         11    1    3    3    0    0  0.21538257276E+02  0.24252341794E+01  0.13761885723E+02  0.25674263109E+02  0.51100000000E-03 0. -1.
        -11    1    3    3    0    0  0.10798066128E+02  0.25131752238E+01 -0.14031756205E+02  0.17883077595E+02  0.51100000000E-03 0.  1.
        -12    1    3    3    0    0 -0.24791508624E+02  0.41265932464E+01 -0.14276000612E+02  0.28904184215E+02  0.00000000000E+00 0.  1.
</event>
<event>
 7    1  0.2797450E-013  0.7246156E+02  0.7816164E-02  0.1226708E+00
        -11   -1    0    0    0    0  0.00000000000E+00  0.00000000000E+00  0.45593999997E+02  0.45594000000E+02  0.51100000000E-03 0. -1.
         11   -1    0    0    0    0 -0.00000000000E+00 -0.00000000000E+00 -0.45593999997E+02  0.45594000000E+02  0.51100000000E-03 0.  1.
    9900012    2    1    2    0    0  0.12529484611E+02  0.10227258142E+02  0.94389941440E+01  0.72461564029E+02  0.69999991838E+02 0.  0.
         12    1    1    2    0    0 -0.12529484611E+02 -0.10227258142E+02 -0.94389941440E+01  0.18726435971E+02  0.00000000000E+00 0. -1.
         11    1    3    3    0    0 -0.21790787220E+00  0.69350502060E+01  0.82611391854E+01  0.10788365312E+02  0.51100000000E-03 0. -1.
        -11    1    3    3    0    0 -0.59087156137E+01  0.29166208388E+02  0.18622349424E+00  0.29759289498E+02  0.51100000000E-03 0.  1.
         12    1    3    3    0    0  0.18656108097E+02 -0.25874000452E+02  0.99163146442E+00  0.31913909220E+02  0.00000000000E+00 0. -1.
</event>
<event>
 7    1  0.2797450E-013  0.7246155E+02  0.7816164E-02  0.1226708E+00
        -11   -1    0    0    0    0  0.00000000000E+00  0.00000000000E+00  0.45593999997E+02  0.45594000000E+02  0.51100000000E-03 0.  1.
         11   -1    0    0    0    0 -0.00000000000E+00 -0.00000000000E+00 -0.45593999997E+02  0.45594000000E+02  0.51100000000E-03 0. -1.
    9900012    2    1    2    0    0 -0.19225927529E+01 -0.57824018225E+00  0.18618519447E+02  0.72461548360E+02  0.69999971427E+02 0.  0.
         12    1    1    2    0    0  0.19225927529E+01  0.57824018225E+00 -0.18618519447E+02  0.18726451640E+02  0.00000000000E+00 0. -1.
         11    1    3    3    0    0 -0.11540300433E+02  0.31970330149E+02  0.10893139362E+02  0.35692310508E+02  0.51100000000E-03 0. -1.
        -11    1    3    3    0    0 -0.11779594496E+00 -0.30794186995E+01 -0.26302227751E+01  0.40515142255E+01  0.51100000000E-03 0.  1.
        -12    1    3    3    0    0  0.97355036250E+01 -0.29469151632E+02  0.10355602860E+02  0.32717723627E+02  0.00000000000E+00 0.  1.
</event>
<event>
 7    1  0.2797450E-013  0.7246159E+02  0.7816164E-02  0.1226708E+00
        -11   -1    0    0    0    0  0.00000000000E+00  0.00000000000E+00  0.45593999997E+02  0.45594000000E+02  0.51100000000E-03 0. -1.
         11   -1    0    0    0    0 -0.00000000000E+00 -0.00000000000E+00 -0.45593999997E+02  0.45594000000E+02  0.51100000000E-03 0.  1.
    9900012    2    1    2    0    0  0.12096861222E+02  0.43565135884E+01 -0.13614884721E+02  0.72461592228E+02  0.70000028573E+02 0.  0.
         12    1    1    2    0    0 -0.12096861222E+02 -0.43565135884E+01  0.13614884721E+02  0.18726407772E+02  0.00000000000E+00 0. -1.
         11    1    3    3    0    0 -0.93245979016E+01 -0.58187158456E+01 -0.25456735619E+02  0.27728162015E+02  0.51100000000E-03 0. -1.
        -11    1    3    3    0    0  0.93555642420E+01 -0.35258708514E+01 -0.11410084323E+02  0.15170641782E+02  0.51100000000E-03 0.  1.
         12    1    3    3    0    0  0.12065894882E+02  0.13701100285E+02  0.23251935221E+02  0.29562788432E+02  0.00000000000E+00 0. -1.
</event>
<event>
 7    1  0.2797450E-013  0.7246175E+02  0.7816164E-02  0.1226708E+00
        -11   -1    0    0    0    0  0.00000000000E+00  0.00000000000E+00  0.45593999997E+02  0.45594000000E+02  0.51100000000E-03 0.  1.
         11   -1    0    0    0    0 -0.00000000000E+00 -0.00000000000E+00 -0.45593999997E+02  0.45594000000E+02  0.51100000000E-03 0. -1.
    9900012    2    1    2    0    0 -0.12049004535E+02  0.31133121507E+01  0.13992894742E+02  0.72461753016E+02  0.70000238029E+02 0.  0.
         12    1    1    2    0    0  0.12049004535E+02 -0.31133121507E+01 -0.13992894742E+02  0.18726246984E+02  0.00000000000E+00 0. -1.
         11    1    3    3    0    0 -0.17448417532E+02 -0.24987400081E+01  0.47859946404E+01  0.18264630326E+02  0.51100000000E-03 0. -1.
        -11    1    3    3    0    0  0.19396485670E+01 -0.69373530467E-01  0.31179417842E+02  0.31239768669E+02  0.51100000000E-03 0.  1.
         12    1    3    3    0    0  0.34597644294E+01  0.56814256893E+01 -0.21972517741E+02  0.22957354021E+02  0.00000000000E+00 0. -1.
</event>
<event>
 7    1  0.2797450E-013  0.7246154E+02  0.7816164E-02  0.1226708E+00
        -11   -1    0    0    0    0  0.00000000000E+00  0.00000000000E+00  0.45593999997E+02  0.45594000000E+02  0.51100000000E-03 0.  1.
         11   -1    0    0    0    0 -0.00000000000E+00 -0.00000000000E+00 -0.45593999997E+02  0.45594000000E+02  0.51100000000E-03 0. -1.
    9900012    2    1    2    0    0 -0.39096459442E+01  0.18305883372E+02 -0.53817795965E+00  0.72461539231E+02  0.69999959534E+02 0.  0.
         12    1    1    2    0    0  0.39096459442E+01 -0.18305883372E+02  0.53817795965E+00  0.18726460769E+02  0.00000000000E+00 0. -1.
         11    1    3    3    0    0 -0.53892602945E+01 -0.17607922700E+02  0.11496123649E+02  0.21708153481E+02  0.51100000000E-03 0. -1.
        -11    1    3    3    0    0 -0.14162292749E+02  0.15051064838E+02  0.26368532188E+01  0.20834060666E+02  0.51100000000E-03 0.  1.
         12    1    3    3    0    0  0.15641907100E+02  0.20862741234E+02 -0.14671154827E+02  0.29919325084E+02  0.00000000000E+00 0. -1.
</event>
<event>
 7    1  0.2797450E-013  0.7246154E+02  0.7816164E-02  0.1226708E+00
        -11   -1    0    0    0    0  0.00000000000E+00  0.00000000000E+00  0.45593999997E+02  0.45594000000E+02  0.51100000000E-03 0. -1.
         11   -1    0    0    0    0 -0.00000000000E+00 -0.00000000000E+00 -0.45593999997E+02  0.45594000000E+02  0.51100000000E-03 0.  1.
    9900012    2    1    2    0    0  0.87361715851E+01  0.29552872546E+01 -0.16298038415E+02  0.72461535494E+02  0.69999954667E+02 0.  0.
         12    1    1    2    0    0 -0.87361715851E+01 -0.29552872546E+01  0.16298038415E+02  0.18726464506E+02  0.00000000000E+00 0. -1.
         11    1    3    3    0    0 -0.11609105931E+02 -0.18727068046E+02 -0.12504570601E+02  0.25334535801E+02  0.51100000000E-03 0. -1.
        -11    1    3    3    0    0  0.35672356440E+01 -0.39235168409E+01 -0.13909298977E+02  0.14885823888E+02  0.51100000000E-03 0.  1.
         12    1    3    3    0    0  0.16778041872E+02  0.25605872141E+02  0.10115831163E+02  0.32241175805E+02  0.00000000000E+00 0. -1.
</event>
<event>
 7    1  0.2797450E-013  0.7246159E+02  0.7816164E-02  0.1226708E+00
        -11   -1    0    0    0    0  0.00000000000E+00  0.00000000000E+00  0.45593999997E+02  0.45594000000E+02  0.51100000000E-03 0.  1.
         11   -1    0    0    0    0 -0.00000000000E+00 -0.00000000000E+00 -0.45593999997E+02  0.45594000000E+02  0.51100000000E-03 0. -1.
    9900012    2    1    2    0    0  0.67341268740E+01  0.15812534076E+02 -0.74359695662E+01  0.72461592388E+02  0.70000028781E+02 0.  0.
         12    1    1    2    0    0 -0.67341268740E+01 -0.15812534076E+02  0.74359695662E+01  0.18726407612E+02  0.00000000000E+00 0. -1.
         11    1    3    3    0    0 -0.12497448418E+02  0.11749346430E+01 -0.10988325366E+02  0.16682625183E+02  0.51100000000E-03 0. -1.
        -11    1    3    3    0    0 -0.16793515527E+02  0.37074912831E+00 -0.61070844616E+00  0.16808705594E+02  0.51100000000E-03 0.  1.
        -12    1    3    3    0    0  0.36025090819E+02  0.14266850305E+02  0.41630642462E+01  0.38970261611E+02  0.00000000000E+00 0.  1.
</event>
<event>
 7    1  0.2797450E-013  0.7246171E+02  0.7816164E-02  0.1226708E+00
        -11   -1    0    0    0    0  0.00000000000E+00  0.00000000000E+00  0.45593999997E+02  0.45594000000E+02  0.51100000000E-03 0.  1.
         11   -1    0    0    0    0 -0.00000000000E+00 -0.00000000000E+00 -0.45593999997E+02  0.45594000000E+02  0.51100000000E-03 0. -1.
    9900012    2    1    2    0    0  0.53813883370E+01  0.13765575393E+02  0.11498851440E+02  0.72461708568E+02  0.70000180127E+02 0.  0.
         12    1    1    2    0    0 -0.53813883370E+01 -0.13765575393E+02 -0.11498851440E+02  0.18726291432E+02  0.00000000000E+00 0. -1.
         11    1    3    3    0    0  0.10160374668E+02 -0.13544472759E+02 -0.14019611567E+02  0.21982617326E+02  0.51100000000E-03 0. -1.
        -11    1    3    3    0    0  0.41716821988E+01 -0.67117429854E+01  0.19662894768E+01  0.81435078951E+01  0.51100000000E-03 0.  1.
        -12    1    3    3    0    0 -0.89506685297E+01  0.34021791138E+02  0.23552173530E+02  0.42335583348E+02  0.00000000000E+00 0.  1.
</event>
<event>
 7    1  0.2797450E-013  0.7246144E+02  0.7816164E-02  0.1226708E+00
        -11   -1    0    0    0    0  0.00000000000E+00  0.00000000000E+00  0.45593999997E+02  0.45594000000E+02  0.51100000000E-03 0.  1.
         11   -1    0    0    0    0 -0.00000000000E+00 -0.00000000000E+00 -0.45593999997E+02  0.45594000000E+02  0.51100000000E-03 0. -1.
    9900012    2    1    2    0    0 -0.14541124538E+02 -0.11644273900E+02 -0.19106448720E+01  0.72461441818E+02  0.69999832636E+02 0.  0.
         12    1    1    2    0    0  0.14541124538E+02  0.11644273900E+02  0.19106448720E+01  0.18726558182E+02  0.00000000000E+00 0. -1.
         11    1    3    3    0    0  0.16917526585E+02  0.11459425772E+02  0.11087512342E+02  0.23247668162E+02  0.51100000000E-03 0.  1.
        -11    1    3    3    0    0  0.38112692169E+01 -0.49978785121E+01  0.23367183485E+01  0.67055809268E+01  0.51100000000E-03 0. -1.
        -12    1    3    3    0    0 -0.35269920340E+02 -0.18105821160E+02 -0.15334875562E+02  0.42508192730E+02  0.00000000000E+00 0.  1.
</event>
<event>
 7    1  0.2797450E-013  0.7246159E+02  0.7816164E-02  0.1226708E+00
        -11   -1    0    0    0    0  0.00000000000E+00  0.00000000000E+00  0.45593999997E+02  0.45594000000E+02  0.51100000000E-03 0. -1.
         11   -1    0    0    0    0 -0.00000000000E+00 -0.00000000000E+00 -0.45593999997E+02  0.45594000000E+02  0.51100000000E-03 0.  1.
    9900012    2    1    2    0    0  0.11232450710E+02 -0.68545817265E+00 -0.14967989241E+02  0.72461588070E+02  0.70000023156E+02 0.  0.
         12    1    1    2    0    0 -0.11232450710E+02  0.68545817265E+00  0.14967989241E+02  0.18726411930E+02  0.00000000000E+00 0. -1.
         11    1    3    3    0    0  0.11177943455E+02  0.12173542528E+02  0.12617223696E+02  0.20792688417E+02  0.51100000000E-03 0. -1.
        -11    1    3    3    0    0  0.19454802103E+02 -0.88100123510E+01 -0.22882250043E+02  0.31300207824E+02  0.51100000000E-03 0.  1.
        -12    1    3    3    0    0 -0.19400294848E+02 -0.40489883497E+01 -0.47029628936E+01  0.20368691829E+02  0.00000000000E+00 0.  1.
</event>
<event>
 7    1  0.2797450E-013  0.7246166E+02  0.7816164E-02  0.1226708E+00
        -11   -1    0    0    0    0  0.00000000000E+00  0.00000000000E+00  0.45593999997E+02  0.45594000000E+02  0.51100000000E-03 0.  1.
         11   -1    0    0    0    0 -0.00000000000E+00 -0.00000000000E+00 -0.45593999997E+02  0.45594000000E+02  0.51100000000E-03 0. -1.
    9900012    2    1    2    0    0 -0.11785478206E+02  0.69134948659E+01  0.12805542124E+02  0.72461659811E+02  0.70000116612E+02 0.  0.
         12    1    1    2    0    0  0.11785478206E+02 -0.69134948659E+01 -0.12805542124E+02  0.18726340189E+02  0.00000000000E+00 0. -1.
         11    1    3    3    0    0  0.12758453692E+01 -0.10029602913E+02 -0.16499267426E+02  0.19350621226E+02  0.51100000000E-03 0. -1.
        -11    1    3    3    0    0 -0.38251884562E+01 -0.98448639060E+01  0.21125482899E+02  0.23618624855E+02  0.51100000000E-03 0.  1.
        -12    1    3    3    0    0 -0.92361351190E+01  0.26787961684E+02  0.81793266506E+01  0.29492413730E+02  0.00000000000E+00 0.  1.
</event>
<event>
 7    1  0.2797450E-013  0.7246153E+02  0.7816164E-02  0.1226708E+00
        -11   -1    0    0    0    0  0.00000000000E+00  0.00000000000E+00  0.45593999997E+02  0.45594000000E+02  0.51100000000E-03 0.  1.
         11   -1    0    0    0    0 -0.00000000000E+00 -0.00000000000E+00 -0.45593999997E+02  0.45594000000E+02  0.51100000000E-03 0. -1.
    9900012    2    1    2    0    0  0.10193438291E+02  0.57519533725E+01  0.14618117997E+02  0.72461534088E+02  0.69999952834E+02 0.  0.
         12    1    1    2    0    0 -0.10193438291E+02 -0.57519533725E+01 -0.14618117997E+02  0.18726465912E+02  0.00000000000E+00 0. -1.
         11    1    3    3    0    0  0.22395004441E+01  0.15942334500E+02 -0.90845825498E+01  0.18485211168E+02  0.51100000000E-03 0. -1.
        -11    1    3    3    0    0 -0.68580546902E+01 -0.12388329944E+02 -0.98398230973E+01  0.17243136367E+02  0.51100000000E-03 0.  1.
        -12    1    3    3    0    0  0.14811992537E+02  0.21979488164E+01  0.33542523644E+02  0.36733186553E+02  0.00000000000E+00 0.  1.
</event>
<event>
 7    1  0.2797450E-013  0.7246153E+02  0.7816164E-02  0.1226708E+00
        -11   -1    0    0    0    0  0.00000000000E+00  0.00000000000E+00  0.45593999997E+02  0.45594000000E+02  0.51100000000E-03 0.  1.
         11   -1    0    0    0    0 -0.00000000000E+00 -0.00000000000E+00 -0.45593999997E+02  0.45594000000E+02  0.51100000000E-03 0. -1.
    9900012    2    1    2    0    0  0.30143089177E+01 -0.17610407104E+01  0.18398191950E+02  0.72461527036E+02  0.69999943648E+02 0.  0.
         12    1    1    2    0    0 -0.30143089177E+01  0.17610407104E+01 -0.18398191950E+02  0.18726472964E+02  0.00000000000E+00 0. -1.
         11    1    3    3    0    0 -0.27811225952E+02 -0.13242290624E+02 -0.45460003257E+01  0.31136613001E+02  0.51100000000E-03 0.  1.
        -11    1    3    3    0    0  0.15414368176E+02  0.10933083608E+02  0.11508264197E+02  0.22126346480E+02  0.51100000000E-03 0. -1.
        -12    1    3    3    0    0  0.15411166694E+02  0.54816630486E+00  0.11435928079E+02  0.19198567556E+02  0.00000000000E+00 0.  1.
</event>
<event>
 7    1  0.2797450E-013  0.7246160E+02  0.7816164E-02  0.1226708E+00
        -11   -1    0    0    0    0  0.00000000000E+00  0.00000000000E+00  0.45593999997E+02  0.45594000000E+02  0.51100000000E-03 0. -1.
         11   -1    0    0    0    0 -0.00000000000E+00 -0.00000000000E+00 -0.45593999997E+02  0.45594000000E+02  0.51100000000E-03 0.  1.
    9900012    2    1    2    0    0  0.36951980528E+01 -0.18234780049E+02 -0.21251307322E+01  0.72461604919E+02  0.70000045105E+02 0.  0.
         12    1    1    2    0    0 -0.36951980528E+01  0.18234780049E+02  0.21251307322E+01  0.18726395081E+02  0.00000000000E+00 0. -1.
         11    1    3    3    0    0 -0.39889349368E+01 -0.25497145446E+01  0.12429951943E+02  0.13300990631E+02  0.51100000000E-03 0. -1.
        -11    1    3    3    0    0 -0.12555721978E+02 -0.15004942680E+02  0.14068072009E+02  0.24097823751E+02  0.51100000000E-03 0.  1.
         12    1    3    3    0    0  0.20239854967E+02 -0.68012282414E+00 -0.28623154685E+02  0.35062790537E+02  0.00000000000E+00 0. -1.
</event>
<event>
 7    1  0.2797450E-013  0.7246157E+02  0.7816164E-02  0.1226708E+00
        -11   -1    0    0    0    0  0.00000000000E+00  0.00000000000E+00  0.45593999997E+02  0.45594000000E+02  0.51100000000E-03 0. -1.
         11   -1    0    0    0    0 -0.00000000000E+00 -0.00000000000E+00 -0.45593999997E+02  0.45594000000E+02  0.51100000000E-03 0.  1.
    9900012    2    1    2    0    0  0.45133807699E+01 -0.14939351190E+02 -0.10350092626E+02  0.72461568484E+02  0.69999997642E+02 0.  0.
         12    1    1    2    0    0 -0.45133807699E+01  0.14939351190E+02  0.10350092626E+02  0.18726431516E+02  0.00000000000E+00 0. -1.
         11    1    3    3    0    0  0.23229942007E+02 -0.10789560005E+02 -0.66911977002E+00  0.25622110223E+02  0.51100000000E-03 0. -1.
        -11    1    3    3    0    0 -0.24524137898E+01 -0.68805902070E+01  0.15272050640E+02  0.16929039725E+02  0.51100000000E-03 0.  1.
         12    1    3    3    0    0 -0.16264147447E+02  0.27307990221E+01 -0.24953023496E+02  0.29910418537E+02  0.00000000000E+00 0. -1.
</event>
<event>
 7    1  0.2797450E-013  0.7246150E+02  0.7816164E-02  0.1226708E+00
        -11   -1    0    0    0    0  0.00000000000E+00  0.00000000000E+00  0.45593999997E+02  0.45594000000E+02  0.51100000000E-03 0. -1.
         11   -1    0    0    0    0 -0.00000000000E+00 -0.00000000000E+00 -0.45593999997E+02  0.45594000000E+02  0.51100000000E-03 0.  1.
    9900012    2    1    2    0    0  0.87637227963E+01 -0.38773768049E+01 -0.16088662814E+02  0.72461495807E+02  0.69999902967E+02 0.  0.
         12    1    1    2    0    0 -0.87637227963E+01  0.38773768049E+01  0.16088662814E+02  0.18726504193E+02  0.00000000000E+00 0. -1.
         11    1    3    3    0    0 -0.15665313889E+01 -0.24042636749E+02 -0.29264861566E+02  0.37906919226E+02  0.51100000000E-03 0. -1.
        -11    1    3    3    0    0 -0.21175035451E+01 -0.20993869247E+01 -0.30958560967E+01  0.42983219931E+01  0.51100000000E-03 0.  1.
        -12    1    3    3    0    0  0.12447757730E+02  0.22264646869E+02  0.16272054849E+02  0.30256254589E+02  0.00000000000E+00 0.  1.
</event>
<event>
 7    1  0.2797450E-013  0.7246156E+02  0.7816164E-02  0.1226708E+00
        -11   -1    0    0    0    0  0.00000000000E+00  0.00000000000E+00  0.45593999997E+02  0.45594000000E+02  0.51100000000E-03 0. -1.
         11   -1    0    0    0    0 -0.00000000000E+00 -0.00000000000E+00 -0.45593999997E+02  0.45594000000E+02  0.51100000000E-03 0.  1.
    9900012    2    1    2    0    0  0.79089432781E+01  0.11121262375E+02 -0.12823631606E+02  0.72461564456E+02  0.69999992395E+02 0.  0.
         12    1    1    2    0    0 -0.79089432781E+01 -0.11121262375E+02  0.12823631606E+02  0.18726435544E+02  0.00000000000E+00 0. -1.
         11    1    3    3    0    0 -0.11343962908E+00  0.61914300334E+01  0.46972109912E+01  0.77724169835E+01  0.51100000000E-03 0. -1.
        -11    1    3    3    0    0  0.10393466020E+02  0.29339664045E+02  0.48406163183E+01  0.31500342678E+02  0.51100000000E-03 0.  1.
         12    1    3    3    0    0 -0.23710831129E+01 -0.24409831703E+02 -0.22361458916E+02  0.33188804795E+02  0.00000000000E+00 0. -1.
</event>
<event>
 7    1  0.2910699E-013  0.7246160E+02  0.7816164E-02  0.1226708E+00
        -11   -1    0    0    0    0  0.00000000000E+00  0.00000000000E+00  0.45593999997E+02  0.45594000000E+02  0.51100000000E-03 0. -1.
         11   -1    0    0    0    0 -0.00000000000E+00 -0.00000000000E+00 -0.45593999997E+02  0.45594000000E+02  0.51100000000E-03 0.  1.
    9900012    2    1    2    0    0 -0.97609473262E+01 -0.12282523028E+02 -0.10224561545E+02  0.72461598225E+02  0.70000036385E+02 0.  0.
         12    1    1    2    0    0  0.97609473262E+01  0.12282523028E+02  0.10224561545E+02  0.18726401775E+02  0.00000000000E+00 0. -1.
         11    1    3    3    0    0  0.54603088430E+01 -0.80336222380E+01  0.21339041109E+02  0.23445868178E+02  0.51100000000E-03 0. -1.
        -11    1    3    3    0    0 -0.26528415590E+01 -0.11202197701E+02  0.27336978955E+01  0.11832155599E+02  0.51100000000E-03 0.  1.
        -12    1    3    3    0    0 -0.12568414610E+02  0.69532969111E+01 -0.34297300549E+02  0.37183574448E+02  0.00000000000E+00 0.  1.
</event>
<event>
 7    1  0.2797450E-013  0.7246158E+02  0.7816164E-02  0.1226708E+00
        -11   -1    0    0    0    0  0.00000000000E+00  0.00000000000E+00  0.45593999997E+02  0.45594000000E+02  0.51100000000E-03 0. -1.
         11   -1    0    0    0    0 -0.00000000000E+00 -0.00000000000E+00 -0.45593999997E+02  0.45594000000E+02  0.51100000000E-03 0.  1.
    9900012    2    1    2    0    0 -0.44407273214E+01 -0.18107573874E+02 -0.17534383648E+01  0.72461579177E+02  0.70000011571E+02 0.  0.
         12    1    1    2    0    0  0.44407273214E+01  0.18107573874E+02  0.17534383648E+01  0.18726420823E+02  0.00000000000E+00 0. -1.
         11    1    3    3    0    0 -0.45218801251E+01  0.10571997830E+02 -0.73315916182E+01  0.13636963514E+02  0.51100000000E-03 0. -1.
        -11    1    3    3    0    0 -0.24369828150E+02 -0.16692927484E+02  0.10105866193E+02  0.31219719471E+02  0.51100000000E-03 0.  1.
        -12    1    3    3    0    0  0.24450980954E+02 -0.11986644220E+02 -0.45277129393E+01  0.27604896192E+02  0.00000000000E+00 0.  1.
</event>
<event>
 7    1  0.2797450E-013  0.7246156E+02  0.7816164E-02  0.1226708E+00
        -11   -1    0    0    0    0  0.00000000000E+00  0.00000000000E+00  0.45593999997E+02  0.45594000000E+02  0.51100000000E-03 0.  1.
         11   -1    0    0    0    0 -0.00000000000E+00 -0.00000000000E+00 -0.45593999997E+02  0.45594000000E+02  0.51100000000E-03 0. -1.
    9900012    2    1    2    0    0 -0.13796167246E+02 -0.94253182602E+01  0.84562761311E+01  0.72461562512E+02  0.69999989862E+02 0.  0.
         12    1    1    2    0    0  0.13796167246E+02  0.94253182602E+01 -0.84562761311E+01  0.18726437488E+02  0.00000000000E+00 0. -1.
         11    1    3    3    0    0 -0.32876329399E+02  0.79941764367E+01  0.13318471646E+02  0.36361264814E+02  0.51100000000E-03 0. -1.
        -11    1    3    3    0    0 -0.50838319686E+01  0.53453753318E+00  0.15082533428E+01  0.53297191546E+01  0.51100000000E-03 0.  1.
        -12    1    3    3    0    0  0.24163994122E+02 -0.17954032230E+02 -0.63704488575E+01  0.30770578543E+02  0.00000000000E+00 0.  1.
</event>
<event>
 7    1  0.2797450E-013  0.7246158E+02  0.7816164E-02  0.1226708E+00
        -11   -1    0    0    0    0  0.00000000000E+00  0.00000000000E+00  0.45593999997E+02  0.45594000000E+02  0.51100000000E-03 0.  1.
         11   -1    0    0    0    0 -0.00000000000E+00 -0.00000000000E+00 -0.45593999997E+02  0.45594000000E+02  0.51100000000E-03 0. -1.
    9900012    2    1    2    0    0 -0.10915652524E+02 -0.66601345112E+01  0.13681007769E+02  0.72461579218E+02  0.70000011624E+02 0.  0.
         12    1    1    2    0    0  0.10915652524E+02  0.66601345112E+01 -0.13681007769E+02  0.18726420782E+02  0.00000000000E+00 0. -1.
         11    1    3    3    0    0  0.56402545046E+01  0.34049065367E+01  0.31441954378E+01  0.73001249724E+01  0.51100000000E-03 0. -1.
        -11    1    3    3    0    0 -0.17087135641E+02 -0.13131180819E+02  0.34673704455E+02  0.40824795101E+02  0.51100000000E-03 0.  1.
         12    1    3    3    0    0  0.53122861277E+00  0.30661397707E+01 -0.24136892123E+02  0.24336659144E+02  0.00000000000E+00 0. -1.
</event>
<event>
 7    1  0.2797450E-013  0.7246169E+02  0.7816164E-02  0.1226708E+00
        -11   -1    0    0    0    0  0.00000000000E+00  0.00000000000E+00  0.45593999997E+02  0.45594000000E+02  0.51100000000E-03 0.  1.
         11   -1    0    0    0    0 -0.00000000000E+00 -0.00000000000E+00 -0.45593999997E+02  0.45594000000E+02  0.51100000000E-03 0. -1.
    9900012    2    1    2    0    0 -0.14373612071E+01 -0.15339041941E+02 -0.10645308405E+02  0.72461686803E+02  0.70000151774E+02 0.  0.
         12    1    1    2    0    0  0.14373612071E+01  0.15339041941E+02  0.10645308405E+02  0.18726313197E+02  0.00000000000E+00 0. -1.
         11    1    3    3    0    0 -0.11053266342E+02 -0.16670123573E+01  0.31157521553E+01  0.11604375846E+02  0.51100000000E-03 0. -1.
        -11    1    3    3    0    0  0.21886943492E+02 -0.24958648988E+02  0.73067728676E+01  0.33990607302E+02  0.51100000000E-03 0.  1.
         12    1    3    3    0    0 -0.12271038357E+02  0.11286619404E+02 -0.21067833428E+02  0.26866703655E+02  0.00000000000E+00 0. -1.
</event>
<event>
 7    1  0.2797450E-013  0.7246157E+02  0.7816164E-02  0.1226708E+00
        -11   -1    0    0    0    0  0.00000000000E+00  0.00000000000E+00  0.45593999997E+02  0.45594000000E+02  0.51100000000E-03 0. -1.
         11   -1    0    0    0    0 -0.00000000000E+00 -0.00000000000E+00 -0.45593999997E+02  0.45594000000E+02  0.51100000000E-03 0.  1.
    9900012    2    1    2    0    0 -0.91385378874E+01 -0.49094779600E+01 -0.15590487956E+02  0.72461570461E+02  0.70000000218E+02 0.  0.
         12    1    1    2    0    0  0.91385378874E+01  0.49094779600E+01  0.15590487956E+02  0.18726429539E+02  0.00000000000E+00 0. -1.
         11    1    3    3    0    0 -0.11612886764E+02 -0.17994305930E+02 -0.20047721228E+02  0.29335393497E+02  0.51100000000E-03 0.  1.
        -11    1    3    3    0    0 -0.14069523648E+02  0.12855813598E+02 -0.96688300481E+01  0.21370767738E+02  0.51100000000E-03 0. -1.
        -12    1    3    3    0    0  0.16543872525E+02  0.22901437223E+00  0.14126063320E+02  0.21755409227E+02  0.00000000000E+00 0.  1.
</event>
<event>
 7    1  0.2797450E-013  0.7246161E+02  0.7816164E-02  0.1226708E+00
        -11   -1    0    0    0    0  0.00000000000E+00  0.00000000000E+00  0.45593999997E+02  0.45594000000E+02  0.51100000000E-03 0.  1.
         11   -1    0    0    0    0 -0.00000000000E+00 -0.00000000000E+00 -0.45593999997E+02  0.45594000000E+02  0.51100000000E-03 0. -1.
    9900012    2    1    2    0    0 -0.48876081510E+01  0.11243193721E+02  0.14155548467E+02  0.72461610308E+02  0.70000052125E+02 0.  0.
         12    1    1    2    0    0  0.48876081510E+01 -0.11243193721E+02 -0.14155548467E+02  0.18726389692E+02  0.00000000000E+00 0. -1.
         11    1    3    3    0    0  0.37138371090E+01  0.16689084893E+02 -0.57844260118E+01  0.18049313704E+02  0.51100000000E-03 0. -1.
        -11    1    3    3    0    0 -0.36190362893E+01  0.20247238083E+02  0.19341487574E+02  0.28233689371E+02  0.51100000000E-03 0.  1.
        -12    1    3    3    0    0 -0.49824089707E+01 -0.25693129255E+02  0.59848690492E+00  0.26178607233E+02  0.00000000000E+00 0.  1.
</event>
<event>
 7    1  0.2797450E-013  0.7246150E+02  0.7816164E-02  0.1226708E+00
        -11   -1    0    0    0    0  0.00000000000E+00  0.00000000000E+00  0.45593999997E+02  0.45594000000E+02  0.51100000000E-03 0. -1.
         11   -1    0    0    0    0 -0.00000000000E+00 -0.00000000000E+00 -0.45593999997E+02  0.45594000000E+02  0.51100000000E-03 0.  1.
    9900012    2    1    2    0    0 -0.14873823317E+02  0.84392339736E+00 -0.11346317625E+02  0.72461501384E+02  0.69999910231E+02 0.  0.
         12    1    1    2    0    0  0.14873823317E+02 -0.84392339736E+00  0.11346317625E+02  0.18726498616E+02  0.00000000000E+00 0. -1.
         11    1    3    3    0    0 -0.14342639769E+02  0.12624513460E+02 -0.11145928021E+02  0.22120609561E+02  0.51100000000E-03 0. -1.
        -11    1    3    3    0    0 -0.22896679520E+02 -0.72395261282E+00 -0.78976310428E+01  0.24231273527E+02  0.51100000000E-03 0.  1.
         12    1    3    3    0    0  0.22365495971E+02 -0.11056637450E+02  0.76972414385E+01  0.26109618295E+02  0.00000000000E+00 0. -1.
</event>
<event>
 7    1  0.2797450E-013  0.7246156E+02  0.7816164E-02  0.1226708E+00
        -11   -1    0    0    0    0  0.00000000000E+00  0.00000000000E+00  0.45593999997E+02  0.45594000000E+02  0.51100000000E-03 0.  1.
         11   -1    0    0    0    0 -0.00000000000E+00 -0.00000000000E+00 -0.45593999997E+02  0.45594000000E+02  0.51100000000E-03 0. -1.
    9900012    2    1    2    0    0  0.18575282051E+02 -0.14308515175E+01  0.18950370299E+01  0.72461558675E+02  0.69999984864E+02 0.  0.
         12    1    1    2    0    0 -0.18575282051E+02  0.14308515175E+01 -0.18950370299E+01  0.18726441325E+02  0.00000000000E+00 0. -1.
         11    1    3    3    0    0  0.30358386199E+02 -0.12133088013E+02  0.32051000870E+01  0.32849902651E+02  0.51100000000E-03 0. -1.
        -11    1    3    3    0    0  0.92236316033E+01  0.24864339109E+01 -0.11423957529E+02  0.14891760790E+02  0.51100000000E-03 0.  1.
        -12    1    3    3    0    0 -0.21006735751E+02  0.82158025848E+01  0.10113894472E+02  0.24719895235E+02  0.00000000000E+00 0.  1.
</event>
<event>
 7    1  0.2797450E-013  0.7246154E+02  0.7816164E-02  0.1226708E+00
        -11   -1    0    0    0    0  0.00000000000E+00  0.00000000000E+00  0.45593999997E+02  0.45594000000E+02  0.51100000000E-03 0.  1.
         11   -1    0    0    0    0 -0.00000000000E+00 -0.00000000000E+00 -0.45593999997E+02  0.45594000000E+02  0.51100000000E-03 0. -1.
    9900012    2    1    2    0    0  0.31166465336E+01 -0.13197739085E+02 -0.12914586904E+02  0.72461538576E+02  0.69999958681E+02 0.  0.
         12    1    1    2    0    0 -0.31166465336E+01  0.13197739085E+02  0.12914586904E+02  0.18726461424E+02  0.00000000000E+00 0. -1.
         11    1    3    3    0    0  0.71900813594E+01  0.98532813661E+01 -0.28869463433E+01  0.12534707140E+02  0.51100000000E-03 0. -1.
        -11    1    3    3    0    0  0.17484119192E+02  0.12421983549E+01 -0.19377274445E+02  0.26128839351E+02  0.51100000000E-03 0.  1.
         12    1    3    3    0    0 -0.21557554018E+02 -0.24293218806E+02  0.93496338842E+01  0.33797992085E+02  0.00000000000E+00 0. -1.
</event>
<event>
 7    1  0.2797450E-013  0.7246156E+02  0.7816164E-02  0.1226708E+00
        -11   -1    0    0    0    0  0.00000000000E+00  0.00000000000E+00  0.45593999997E+02  0.45594000000E+02  0.51100000000E-03 0. -1.
         11   -1    0    0    0    0 -0.00000000000E+00 -0.00000000000E+00 -0.45593999997E+02  0.45594000000E+02  0.51100000000E-03 0.  1.
    9900012    2    1    2    0    0 -0.19227771998E+01  0.73054749496E+01 -0.17135129081E+02  0.72461556531E+02  0.69999982070E+02 0.  0.
         12    1    1    2    0    0  0.19227771998E+01 -0.73054749496E+01  0.17135129081E+02  0.18726443469E+02  0.00000000000E+00 0. -1.
         11    1    3    3    0    0 -0.26592962735E+01 -0.20075560855E+01 -0.11837425516E+02  0.12297429863E+02  0.51100000000E-03 0. -1.
        -11    1    3    3    0    0  0.13671526475E+02  0.13138593764E+02 -0.27964852579E+02  0.33787072414E+02  0.51100000000E-03 0.  1.
         12    1    3    3    0    0 -0.12935007402E+02 -0.38255627286E+01  0.22667149015E+02  0.26377054254E+02  0.00000000000E+00 0. -1.
</event>
<event>
 7    1  0.2797450E-013  0.7246154E+02  0.7816164E-02  0.1226708E+00
        -11   -1    0    0    0    0  0.00000000000E+00  0.00000000000E+00  0.45593999997E+02  0.45594000000E+02  0.51100000000E-03 0.  1.
         11   -1    0    0    0    0 -0.00000000000E+00 -0.00000000000E+00 -0.45593999997E+02  0.45594000000E+02  0.51100000000E-03 0. -1.
    9900012    2    1    2    0    0  0.17009105205E+02 -0.77228667192E+01  0.13145500097E+01  0.72461538189E+02  0.69999958177E+02 0.  0.
         12    1    1    2    0    0 -0.17009105205E+02  0.77228667192E+01 -0.13145500097E+01  0.18726461811E+02  0.00000000000E+00 0. -1.
         11    1    3    3    0    0  0.11266029674E+02 -0.22354160897E+02 -0.25121376235E+01  0.25158353876E+02  0.51100000000E-03 0. -1.
        -11    1    3    3    0    0 -0.14541402192E+02 -0.75999142188E+01  0.50989152701E+01  0.17181676608E+02  0.51100000000E-03 0.  1.
        -12    1    3    3    0    0  0.20284477723E+02  0.22231208397E+02 -0.12722276369E+01  0.30121507706E+02  0.00000000000E+00 0.  1.
</event>
<event>
 7    1  0.2797450E-013  0.7246155E+02  0.7816164E-02  0.1226708E+00
        -11   -1    0    0    0    0  0.00000000000E+00  0.00000000000E+00  0.45593999997E+02  0.45594000000E+02  0.51100000000E-03 0.  1.
         11   -1    0    0    0    0 -0.00000000000E+00 -0.00000000000E+00 -0.45593999997E+02  0.45594000000E+02  0.51100000000E-03 0. -1.
    9900012    2    1    2    0    0 -0.16605476509E+02 -0.14946876039E+01  0.85266725888E+01  0.72461545809E+02  0.69999968103E+02 0.  0.
         12    1    1    2    0    0  0.16605476509E+02  0.14946876039E+01 -0.85266725888E+01  0.18726454191E+02  0.00000000000E+00 0. -1.
         11    1    3    3    0    0  0.41872497554E+01 -0.50377214754E+01 -0.16809593110E+02  0.18040901279E+02  0.51100000000E-03 0. -1.
        -11    1    3    3    0    0  0.54292054751E+01  0.98591972110E+01  0.25033174261E+02  0.27447037282E+02  0.51100000000E-03 0.  1.
         12    1    3    3    0    0 -0.26221931740E+02 -0.63161633394E+01  0.30309143837E+00  0.26973607247E+02  0.00000000000E+00 0. -1.
</event>
<event>
 7    1  0.2797450E-013  0.7246153E+02  0.7816164E-02  0.1226708E+00
        -11   -1    0    0    0    0  0.00000000000E+00  0.00000000000E+00  0.45593999997E+02  0.45594000000E+02  0.51100000000E-03 0. -1.
         11   -1    0    0    0    0 -0.00000000000E+00 -0.00000000000E+00 -0.45593999997E+02  0.45594000000E+02  0.51100000000E-03 0.  1.
    9900012    2    1    2    0    0 -0.17155643961E+02  0.66988407955E+01 -0.33897114100E+01  0.72461528598E+02  0.69999945683E+02 0.  0.
         12    1    1    2    0    0  0.17155643961E+02 -0.66988407955E+01  0.33897114100E+01  0.18726471402E+02  0.00000000000E+00 0. -1.
         11    1    3    3    0    0 -0.12594927058E+02 -0.27560659044E+02  0.57627205112E+01  0.30845276178E+02  0.51100000000E-03 0. -1.
        -11    1    3    3    0    0 -0.47754055451E+01  0.64492777471E+01 -0.11145480322E+02  0.13733878311E+02  0.51100000000E-03 0.  1.
        -12    1    3    3    0    0  0.21468864197E+00  0.27810222092E+02  0.19930484012E+01  0.27882374109E+02  0.00000000000E+00 0.  1.
</event>
<event>
 7    1  0.2797450E-013  0.7246182E+02  0.7816164E-02  0.1226707E+00
        -11   -1    0    0    0    0  0.00000000000E+00  0.00000000000E+00  0.45593999997E+02  0.45594000000E+02  0.51100000000E-03 0.  1.
         11   -1    0    0    0    0 -0.00000000000E+00 -0.00000000000E+00 -0.45593999997E+02  0.45594000000E+02  0.51100000000E-03 0. -1.
    9900012    2    1    2    0    0  0.70624517721E+01 -0.10069979387E+02  0.14120444824E+02  0.72461823885E+02  0.70000330348E+02 0.  0.
         12    1    1    2    0    0 -0.70624517721E+01  0.10069979387E+02 -0.14120444824E+02  0.18726176115E+02  0.00000000000E+00 0. -1.
         11    1    3    3    0    0 -0.21283911714E+02  0.66301484417E+01  0.41528400448E+01  0.22676195600E+02  0.51100000000E-03 0. -1.
        -11    1    3    3    0    0 -0.78898505019E+01 -0.46406634032E+01  0.69183769003E+01  0.11473858852E+02  0.51100000000E-03 0.  1.
         12    1    3    3    0    0  0.36236213988E+02 -0.12059464425E+02  0.30492278786E+01  0.38311769432E+02  0.00000000000E+00 0. -1.
</event>
<event>
 7    1  0.2797450E-013  0.7246159E+02  0.7816164E-02  0.1226708E+00
        -11   -1    0    0    0    0  0.00000000000E+00  0.00000000000E+00  0.45593999997E+02  0.45594000000E+02  0.51100000000E-03 0. -1.
         11   -1    0    0    0    0 -0.00000000000E+00 -0.00000000000E+00 -0.45593999997E+02  0.45594000000E+02  0.51100000000E-03 0.  1.
    9900012    2    1    2    0    0 -0.18104870131E+02  0.47414051051E+01  0.64137284497E+00  0.72461585395E+02  0.70000019672E+02 0.  0.
         12    1    1    2    0    0  0.18104870131E+02 -0.47414051051E+01 -0.64137284497E+00  0.18726414605E+02  0.00000000000E+00 0. -1.
         11    1    3    3    0    0 -0.22061480844E+01  0.67212877483E+01  0.10894775772E+01  0.71574967704E+01  0.51100000000E-03 0. -1.
        -11    1    3    3    0    0  0.11060587344E+02  0.24166437781E+02 -0.62513516725E+01  0.27302613527E+02  0.51100000000E-03 0.  1.
         12    1    3    3    0    0 -0.26959309390E+02 -0.26146320425E+02  0.58032469403E+01  0.38001475098E+02  0.00000000000E+00 0. -1.
</event>
<event>
 7    1  0.2797450E-013  0.7246158E+02  0.7816164E-02  0.1226708E+00
        -11   -1    0    0    0    0  0.00000000000E+00  0.00000000000E+00  0.45593999997E+02  0.45594000000E+02  0.51100000000E-03 0. -1.
         11   -1    0    0    0    0 -0.00000000000E+00 -0.00000000000E+00 -0.45593999997E+02  0.45594000000E+02  0.51100000000E-03 0.  1.
    9900012    2    1    2    0    0 -0.49422265489E+01 -0.10666396769E+02 -0.14576730347E+02  0.72461583074E+02  0.70000016648E+02 0.  0.
         12    1    1    2    0    0  0.49422265489E+01  0.10666396769E+02  0.14576730347E+02  0.18726416926E+02  0.00000000000E+00 0. -1.
         11    1    3    3    0    0 -0.71258548547E+01  0.17839235543E+01 -0.17712149731E+02  0.19174995150E+02  0.51100000000E-03 0. -1.
        -11    1    3    3    0    0  0.91982464583E+01 -0.11145676212E+02 -0.22464385428E+02  0.26711092247E+02  0.51100000000E-03 0.  1.
         12    1    3    3    0    0 -0.70146181525E+01 -0.13046441113E+01  0.25599804812E+02  0.26575495677E+02  0.00000000000E+00 0. -1.
</event>
<event>
 7    1  0.2797450E-013  0.7246148E+02  0.7816164E-02  0.1226708E+00
        -11   -1    0    0    0    0  0.00000000000E+00  0.00000000000E+00  0.45593999997E+02  0.45594000000E+02  0.51100000000E-03 0.  1.
         11   -1    0    0    0    0 -0.00000000000E+00 -0.00000000000E+00 -0.45593999997E+02  0.45594000000E+02  0.51100000000E-03 0. -1.
    9900012    2    1    2    0    0  0.11894691381E+02 -0.14048598694E+02  0.34403043867E+01  0.72461481301E+02  0.69999884069E+02 0.  0.
         12    1    1    2    0    0 -0.11894691381E+02  0.14048598694E+02 -0.34403043867E+01  0.18726518699E+02  0.00000000000E+00 0. -1.
         11    1    3    3    0    0 -0.10066621312E+02 -0.11216048420E+02  0.17465438622E+02  0.23068986829E+02  0.51100000000E-03 0. -1.
        -11    1    3    3    0    0  0.16504898678E+02 -0.14846544319E+02  0.81000898003E+01  0.23631398893E+02  0.51100000000E-03 0.  1.
         12    1    3    3    0    0  0.54564140147E+01  0.12013994045E+02 -0.22125224036E+02  0.25761095579E+02  0.00000000000E+00 0. -1.
</event>
<event>
 7    1  0.2797450E-013  0.7246161E+02  0.7816164E-02  0.1226708E+00
        -11   -1    0    0    0    0  0.00000000000E+00  0.00000000000E+00  0.45593999997E+02  0.45594000000E+02  0.51100000000E-03 0.  1.
         11   -1    0    0    0    0 -0.00000000000E+00 -0.00000000000E+00 -0.45593999997E+02  0.45594000000E+02  0.51100000000E-03 0. -1.
    9900012    2    1    2    0    0  0.11216529476E+02  0.11112017880E+02  0.10069271547E+02  0.72461609415E+02  0.70000050962E+02 0.  0.
         12    1    1    2    0    0 -0.11216529476E+02 -0.11112017880E+02 -0.10069271547E+02  0.18726390585E+02  0.00000000000E+00 0. -1.
         11    1    3    3    0    0  0.32004583547E+01  0.73763887150E+01 -0.14895372360E+02  0.16927083688E+02  0.51100000000E-03 0. -1.
        -11    1    3    3    0    0 -0.12567329219E+02 -0.24386077023E+01 -0.87835411006E+01  0.15525307268E+02  0.51100000000E-03 0.  1.
        -12    1    3    3    0    0  0.20583400340E+02  0.61742368672E+01  0.33748185008E+02  0.40009218460E+02  0.00000000000E+00 0.  1.
</event>
<event>
 7    1  0.2797450E-013  0.7246139E+02  0.7816164E-02  0.1226708E+00
        -11   -1    0    0    0    0  0.00000000000E+00  0.00000000000E+00  0.45593999997E+02  0.45594000000E+02  0.51100000000E-03 0. -1.
         11   -1    0    0    0    0 -0.00000000000E+00 -0.00000000000E+00 -0.45593999997E+02  0.45594000000E+02  0.51100000000E-03 0.  1.
    9900012    2    1    2    0    0 -0.11379578151E+02 -0.73691418984E+01 -0.12918466179E+02  0.72461392736E+02  0.69999768696E+02 0.  0.
         12    1    1    2    0    0  0.11379578151E+02  0.73691418984E+01  0.12918466179E+02  0.18726607264E+02  0.00000000000E+00 0. -1.
         11    1    3    3    0    0  0.61741919256E+01  0.53943110860E+01 -0.13795677515E+02  0.16048051482E+02  0.51100000000E-03 0.  1.
        -11    1    3    3    0    0  0.15803071840E+01  0.17939591916E+02  0.77211815736E+01  0.19594462842E+02  0.51100000000E-03 0. -1.
        -12    1    3    3    0    0 -0.19134077261E+02 -0.30703044901E+02 -0.68439702375E+01  0.36818878411E+02  0.00000000000E+00 0.  1.
</event>
<event>
 7    1  0.2797450E-013  0.7246152E+02  0.7816164E-02  0.1226708E+00
        -11   -1    0    0    0    0  0.00000000000E+00  0.00000000000E+00  0.45593999997E+02  0.45594000000E+02  0.51100000000E-03 0.  1.
         11   -1    0    0    0    0 -0.00000000000E+00 -0.00000000000E+00 -0.45593999997E+02  0.45594000000E+02  0.51100000000E-03 0. -1.
    9900012    2    1    2    0    0  0.35767385254E+01  0.54556782076E+01  0.17553451126E+02  0.72461517959E+02  0.69999931823E+02 0.  0.
         12    1    1    2    0    0 -0.35767385254E+01 -0.54556782076E+01 -0.17553451126E+02  0.18726482041E+02  0.00000000000E+00 0. -1.
         11    1    3    3    0    0 -0.45877265757E+01  0.53633987272E+01 -0.20739902615E+02  0.21907917331E+02  0.51100000000E-03 0.  1.
        -11    1    3    3    0    0  0.69778367879E+01 -0.69185580145E+01 -0.16659832841E+01  0.99665516505E+01  0.51100000000E-03 0. -1.
        -12    1    3    3    0    0  0.11866283132E+01  0.70108374948E+01  0.39959337026E+02  0.40587048977E+02  0.00000000000E+00 0.  1.
</event>
<event>
 7    1  0.2797450E-013  0.7246166E+02  0.7816164E-02  0.1226708E+00
        -11   -1    0    0    0    0  0.00000000000E+00  0.00000000000E+00  0.45593999997E+02  0.45594000000E+02  0.51100000000E-03 0. -1.
         11   -1    0    0    0    0 -0.00000000000E+00 -0.00000000000E+00 -0.45593999997E+02  0.45594000000E+02  0.51100000000E-03 0.  1.
    9900012    2    1    2    0    0 -0.13160927294E+02  0.94389286727E+01 -0.94006675841E+01  0.72461656717E+02  0.70000112582E+02 0.  0.
         12    1    1    2    0    0  0.13160927294E+02 -0.94389286727E+01  0.94006675841E+01  0.18726343283E+02  0.00000000000E+00 0. -1.
         11    1    3    3    0    0  0.20192959500E+02  0.11154823115E+02  0.42969609410E+01  0.23465923499E+02  0.51100000000E-03 0.  1.
        -11    1    3    3    0    0 -0.33296098569E+01  0.40428184227E+01  0.93451409063E+01  0.10712718675E+02  0.51100000000E-03 0. -1.
         12    1    3    3    0    0 -0.30024276936E+02 -0.57587128649E+01 -0.23042769431E+02  0.38283014543E+02  0.00000000000E+00 0. -1.
</event>
<event>
 7    1  0.2797450E-013  0.7246155E+02  0.7816164E-02  0.1226708E+00
        -11   -1    0    0    0    0  0.00000000000E+00  0.00000000000E+00  0.45593999997E+02  0.45594000000E+02  0.51100000000E-03 0.  1.
         11   -1    0    0    0    0 -0.00000000000E+00 -0.00000000000E+00 -0.45593999997E+02  0.45594000000E+02  0.51100000000E-03 0. -1.
    9900012    2    1    2    0    0  0.35288548153E+01 -0.17608336904E+02  0.53078631215E+01  0.72461554642E+02  0.69999979610E+02 0.  0.
         12    1    1    2    0    0 -0.35288548153E+01  0.17608336904E+02 -0.53078631215E+01  0.18726445358E+02  0.00000000000E+00 0. -1.
         11    1    3    3    0    0  0.85661979159E+01 -0.19401078732E+02 -0.15243261428E+02  0.26117783633E+02  0.51100000000E-03 0. -1.
        -11    1    3    3    0    0 -0.38898383166E+01  0.61937610510E+01 -0.11686710626E+02  0.13786686462E+02  0.51100000000E-03 0.  1.
        -12    1    3    3    0    0 -0.11475047839E+01 -0.44010192230E+01  0.32237835175E+02  0.32557084547E+02  0.00000000000E+00 0.  1.
</event>
<event>
 7    1  0.2797450E-013  0.7246157E+02  0.7816164E-02  0.1226708E+00
        -11   -1    0    0    0    0  0.00000000000E+00  0.00000000000E+00  0.45593999997E+02  0.45594000000E+02  0.51100000000E-03 0.  1.
         11   -1    0    0    0    0 -0.00000000000E+00 -0.00000000000E+00 -0.45593999997E+02  0.45594000000E+02  0.51100000000E-03 0. -1.
    9900012    2    1    2    0    0 -0.11582328840E+02  0.12810673539E+02  0.72398665905E+01  0.72461565045E+02  0.69999993161E+02 0.  0.
         12    1    1    2    0    0  0.11582328840E+02 -0.12810673539E+02 -0.72398665905E+01  0.18726434955E+02  0.00000000000E+00 0. -1.
         11    1    3    3    0    0 -0.18851297878E+02 -0.19373595112E+02  0.87427911032E+01  0.28410280108E+02  0.51100000000E-03 0. -1.
        -11    1    3    3    0    0  0.14285043765E+02  0.47539367068E+01 -0.41433147491E+01  0.15615039127E+02  0.51100000000E-03 0.  1.
         12    1    3    3    0    0 -0.70160747272E+01  0.27430331944E+02  0.26403902363E+01  0.28436245810E+02  0.00000000000E+00 0. -1.
</event>
<event>
 7    1  0.2797450E-013  0.7246153E+02  0.7816164E-02  0.1226708E+00
        -11   -1    0    0    0    0  0.00000000000E+00  0.00000000000E+00  0.45593999997E+02  0.45594000000E+02  0.51100000000E-03 0.  1.
         11   -1    0    0    0    0 -0.00000000000E+00 -0.00000000000E+00 -0.45593999997E+02  0.45594000000E+02  0.51100000000E-03 0. -1.
    9900012    2    1    2    0    0 -0.10770950320E+02  0.10950687074E+02  0.10712138496E+02  0.72461525977E+02  0.69999942268E+02 0.  0.
         12    1    1    2    0    0  0.10770950320E+02 -0.10950687074E+02 -0.10712138496E+02  0.18726474023E+02  0.00000000000E+00 0. -1.
         11    1    3    3    0    0 -0.19039934293E+02  0.16423953723E+02  0.11728525191E+02  0.27745696193E+02  0.51100000000E-03 0. -1.
        -11    1    3    3    0    0  0.22238162832E+02 -0.42990236585E+01  0.11959767947E+02  0.25613542124E+02  0.51100000000E-03 0.  1.
         12    1    3    3    0    0 -0.13969178858E+02 -0.11742429910E+01 -0.12976154642E+02  0.19102287660E+02  0.00000000000E+00 0. -1.
</event>
<event>
 7    1  0.2797450E-013  0.7246123E+02  0.7816164E-02  0.1226709E+00
        -11   -1    0    0    0    0  0.00000000000E+00  0.00000000000E+00  0.45593999997E+02  0.45594000000E+02  0.51100000000E-03 0. -1.
         11   -1    0    0    0    0 -0.00000000000E+00 -0.00000000000E+00 -0.45593999997E+02  0.45594000000E+02  0.51100000000E-03 0.  1.
    9900012    2    1    2    0    0 -0.58434140351E+01  0.16831347045E+02 -0.57664730300E+01  0.72461229266E+02  0.69999555746E+02 0.  0.
         12    1    1    2    0    0  0.58434140351E+01 -0.16831347045E+02  0.57664730300E+01  0.18726770734E+02  0.00000000000E+00 0. -1.
         11    1    3    3    0    0 -0.85082138274E+01 -0.19023031070E+02  0.98258607478E+01  0.23039378319E+02  0.51100000000E-03 0. -1.
        -11    1    3    3    0    0  0.74943936390E+01 -0.24631149935E+01 -0.33263569607E+00  0.78957911734E+01  0.51100000000E-03 0.  1.
        -12    1    3    3    0    0 -0.48295938466E+01  0.38317493108E+02 -0.15259698082E+02  0.41526059774E+02  0.00000000000E+00 0.  1.
</event>
<event>
 7    1  0.2797450E-013  0.7246163E+02  0.7816164E-02  0.1226708E+00
        -11   -1    0    0    0    0  0.00000000000E+00  0.00000000000E+00  0.45593999997E+02  0.45594000000E+02  0.51100000000E-03 0. -1.
         11   -1    0    0    0    0 -0.00000000000E+00 -0.00000000000E+00 -0.45593999997E+02  0.45594000000E+02  0.51100000000E-03 0.  1.
    9900012    2    1    2    0    0  0.11517725941E+02  0.60794770556E+01 -0.13455810181E+02  0.72461631432E+02  0.70000079643E+02 0.  0.
         12    1    1    2    0    0 -0.11517725941E+02 -0.60794770556E+01  0.13455810181E+02  0.18726368568E+02  0.00000000000E+00 0. -1.
         11    1    3    3    0    0 -0.14222074399E+02  0.24726412742E+02  0.62404023979E+01  0.29199409406E+02  0.51100000000E-03 0. -1.
        -11    1    3    3    0    0  0.87284334146E+01  0.32715283405E+01 -0.10481303239E+02  0.14026623450E+02  0.51100000000E-03 0.  1.
        -12    1    3    3    0    0  0.17011366925E+02 -0.21918464027E+02 -0.92149093401E+01  0.29235598576E+02  0.00000000000E+00 0.  1.
</event>
<event>
 7    1  0.2797450E-013  0.7246130E+02  0.7816164E-02  0.1226709E+00
        -11   -1    0    0    0    0  0.00000000000E+00  0.00000000000E+00  0.45593999997E+02  0.45594000000E+02  0.51100000000E-03 0.  1.
         11   -1    0    0    0    0 -0.00000000000E+00 -0.00000000000E+00 -0.45593999997E+02  0.45594000000E+02  0.51100000000E-03 0. -1.
    9900012    2    1    2    0    0  0.10364976591E+02 -0.18818519882E+01  0.15482733809E+02  0.72461303739E+02  0.69999652762E+02 0.  0.
         12    1    1    2    0    0 -0.10364976591E+02  0.18818519882E+01 -0.15482733809E+02  0.18726696261E+02  0.00000000000E+00 0. -1.
         11    1    3    3    0    0  0.37909556755E+01 -0.32872980776E+01 -0.52777542835E+01  0.72823323271E+01  0.51100000000E-03 0. -1.
        -11    1    3    3    0    0  0.29643422157E+02 -0.10035096381E+02 -0.12248200011E+01  0.31319894968E+02  0.51100000000E-03 0.  1.
         12    1    3    3    0    0 -0.23069401241E+02  0.11440542470E+02  0.21985308094E+02  0.33859076444E+02  0.00000000000E+00 0. -1.
</event>
<event>
 7    1  0.2797450E-013  0.7246150E+02  0.7816164E-02  0.1226708E+00
        -11   -1    0    0    0    0  0.00000000000E+00  0.00000000000E+00  0.45593999997E+02  0.45594000000E+02  0.51100000000E-03 0. -1.
         11   -1    0    0    0    0 -0.00000000000E+00 -0.00000000000E+00 -0.45593999997E+02  0.45594000000E+02  0.51100000000E-03 0.  1.
    9900012    2    1    2    0    0 -0.98310569559E+01  0.14423920498E+02 -0.67810380516E+01  0.72461504320E+02  0.69999914056E+02 0.  0.
         12    1    1    2    0    0  0.98310569559E+01 -0.14423920498E+02  0.67810380516E+01  0.18726495680E+02  0.00000000000E+00 0. -1.
         11    1    3    3    0    0 -0.67143246194E+01 -0.17153687852E+02  0.18234405170E+02  0.25919581289E+02  0.51100000000E-03 0. -1.
        -11    1    3    3    0    0  0.13419629667E+01 -0.20957243785E+01 -0.83377767890E+01  0.87012325172E+01  0.51100000000E-03 0.  1.
        -12    1    3    3    0    0 -0.44586953032E+01  0.33673332729E+02 -0.16677666433E+02  0.37840690513E+02  0.00000000000E+00 0.  1.
</event>
<event>
 7    1  0.2940464E-013  0.7246158E+02  0.7816164E-02  0.1226708E+00
        -11   -1    0    0    0    0  0.00000000000E+00  0.00000000000E+00  0.45593999997E+02  0.45594000000E+02  0.51100000000E-03 0. -1.
         11   -1    0    0    0    0 -0.00000000000E+00 -0.00000000000E+00 -0.45593999997E+02  0.45594000000E+02  0.51100000000E-03 0.  1.
    9900012    2    1    2    0    0  0.17337515007E+02 -0.54393529020E+00 -0.70564517736E+01  0.72461580058E+02  0.70000012719E+02 0.  0.
         12    1    1    2    0    0 -0.17337515007E+02  0.54393529020E+00  0.70564517736E+01  0.18726419942E+02  0.00000000000E+00 0. -1.
         11    1    3    3    0    0  0.12540196994E+02 -0.28502866101E+01 -0.36471023837E+01  0.13367199799E+02  0.51100000000E-03 0. -1.
        -11    1    3    3    0    0  0.36102292937E+01 -0.14468511364E+01 -0.30990564221E+02  0.31233671010E+02  0.51100000000E-03 0.  1.
         12    1    3    3    0    0  0.11870887189E+01  0.37532024563E+01  0.27581214831E+02  0.27860709249E+02  0.00000000000E+00 0. -1.
</event>
<event>
 7    1  0.2797450E-013  0.7246156E+02  0.7816164E-02  0.1226708E+00
        -11   -1    0    0    0    0  0.00000000000E+00  0.00000000000E+00  0.45593999997E+02  0.45594000000E+02  0.51100000000E-03 0. -1.
         11   -1    0    0    0    0 -0.00000000000E+00 -0.00000000000E+00 -0.45593999997E+02  0.45594000000E+02  0.51100000000E-03 0.  1.
    9900012    2    1    2    0    0  0.96916091613E+00  0.14850982213E+02 -0.11366108532E+02  0.72461564975E+02  0.69999993071E+02 0.  0.
         12    1    1    2    0    0 -0.96916091613E+00 -0.14850982213E+02  0.11366108532E+02  0.18726435025E+02  0.00000000000E+00 0. -1.
         11    1    3    3    0    0  0.11278990829E+02  0.41495557242E+01 -0.10982054544E+02  0.16280048191E+02  0.51100000000E-03 0. -1.
        -11    1    3    3    0    0  0.11940658741E+02  0.22245613333E+01 -0.21279854833E+02  0.24502249413E+02  0.51100000000E-03 0.  1.
         12    1    3    3    0    0 -0.22250488654E+02  0.84768651556E+01  0.20895800846E+02  0.31679267372E+02  0.00000000000E+00 0. -1.
</event>
<event>
 7    1  0.2797450E-013  0.7246160E+02  0.7816164E-02  0.1226708E+00
        -11   -1    0    0    0    0  0.00000000000E+00  0.00000000000E+00  0.45593999997E+02  0.45594000000E+02  0.51100000000E-03 0.  1.
         11   -1    0    0    0    0 -0.00000000000E+00 -0.00000000000E+00 -0.45593999997E+02  0.45594000000E+02  0.51100000000E-03 0. -1.
    9900012    2    1    2    0    0  0.18528465113E+02 -0.16691829291E+01 -0.21419201008E+01  0.72461601179E+02  0.70000040232E+02 0.  0.
         12    1    1    2    0    0 -0.18528465113E+02  0.16691829291E+01  0.21419201008E+01  0.18726398821E+02  0.00000000000E+00 0. -1.
         11    1    3    3    0    0  0.19029986924E+02  0.15269926465E+02 -0.21723076837E+02  0.32668074999E+02  0.51100000000E-03 0. -1.
        -11    1    3    3    0    0  0.13282882331E+01 -0.25048834444E+02  0.97346407155E+01  0.26906721963E+02  0.51100000000E-03 0.  1.
         12    1    3    3    0    0 -0.18298100438E+01  0.81097250501E+01  0.98465160210E+01  0.12886804217E+02  0.00000000000E+00 0. -1.
</event>
<event>
 7    1  0.2797450E-013  0.7246135E+02  0.7816164E-02  0.1226709E+00
        -11   -1    0    0    0    0  0.00000000000E+00  0.00000000000E+00  0.45593999997E+02  0.45594000000E+02  0.51100000000E-03 0.  1.
         11   -1    0    0    0    0 -0.00000000000E+00 -0.00000000000E+00 -0.45593999997E+02  0.45594000000E+02  0.51100000000E-03 0. -1.
    9900012    2    1    2    0    0  0.12430884054E+02 -0.38117719164E+01  0.13477058538E+02  0.72461345458E+02  0.69999707108E+02 0.  0.
         12    1    1    2    0    0 -0.12430884054E+02  0.38117719164E+01 -0.13477058538E+02  0.18726654542E+02  0.00000000000E+00 0. -1.
         11    1    3    3    0    0  0.29645893735E+00  0.68460255270E+01  0.12709461409E+02  0.14439056859E+02  0.51100000000E-03 0. -1.
        -11    1    3    3    0    0  0.25143325785E+02 -0.52663268071E+01 -0.20258756698E+02  0.32716024404E+02  0.51100000000E-03 0.  1.
         12    1    3    3    0    0 -0.13008900669E+02 -0.53914706364E+01  0.21026353827E+02  0.25306264195E+02  0.00000000000E+00 0. -1.
</event>
<event>
 7    1  0.2797450E-013  0.7246156E+02  0.7816164E-02  0.1226708E+00
        -11   -1    0    0    0    0  0.00000000000E+00  0.00000000000E+00  0.45593999997E+02  0.45594000000E+02  0.51100000000E-03 0. -1.
         11   -1    0    0    0    0 -0.00000000000E+00 -0.00000000000E+00 -0.45593999997E+02  0.45594000000E+02  0.51100000000E-03 0.  1.
    9900012    2    1    2    0    0 -0.16211432250E+02 -0.12537045113E+01 -0.92896315183E+01  0.72461559752E+02  0.69999986267E+02 0.  0.
         12    1    1    2    0    0  0.16211432250E+02  0.12537045113E+01  0.92896315183E+01  0.18726440248E+02  0.00000000000E+00 0. -1.
         11    1    3    3    0    0 -0.13343739966E+02 -0.91946993737E+01  0.14179632680E+02  0.21532762853E+02  0.51100000000E-03 0. -1.
        -11    1    3    3    0    0 -0.14463917761E+02 -0.74957940885E+01 -0.26774142459E+02  0.31340812860E+02  0.51100000000E-03 0.  1.
        -12    1    3    3    0    0  0.11596225477E+02  0.15436788951E+02  0.33048782609E+01  0.19587984040E+02  0.00000000000E+00 0.  1.
</event>
<event>
 7    1  0.2797450E-013  0.7246159E+02  0.7816164E-02  0.1226708E+00
        -11   -1    0    0    0    0  0.00000000000E+00  0.00000000000E+00  0.45593999997E+02  0.45594000000E+02  0.51100000000E-03 0. -1.
         11   -1    0    0    0    0 -0.00000000000E+00 -0.00000000000E+00 -0.45593999997E+02  0.45594000000E+02  0.51100000000E-03 0.  1.
    9900012    2    1    2    0    0  0.10332238008E+02 -0.61334320076E+01 -0.14363300092E+02  0.72461587637E+02  0.70000022592E+02 0.  0.
         12    1    1    2    0    0 -0.10332238008E+02  0.61334320076E+01  0.14363300092E+02  0.18726412363E+02  0.00000000000E+00 0. -1.
         11    1    3    3    0    0  0.72725546719E+01  0.11054217267E+02  0.10511021419E+02  0.16898737893E+02  0.51100000000E-03 0. -1.
        -11    1    3    3    0    0 -0.88031406562E+00  0.14208963030E+02  0.15731011165E+01  0.14322856929E+02  0.51100000000E-03 0.  1.
        -12    1    3    3    0    0  0.39399974020E+01 -0.31396612304E+02 -0.26447422627E+02  0.41239992815E+02  0.00000000000E+00 0.  1.
</event>
<event>
 7    1  0.2797450E-013  0.7246163E+02  0.7816164E-02  0.1226708E+00
        -11   -1    0    0    0    0  0.00000000000E+00  0.00000000000E+00  0.45593999997E+02  0.45594000000E+02  0.51100000000E-03 0.  1.
         11   -1    0    0    0    0 -0.00000000000E+00 -0.00000000000E+00 -0.45593999997E+02  0.45594000000E+02  0.51100000000E-03 0. -1.
    9900012    2    1    2    0    0 -0.19905644965E+01  0.17789059497E+02 -0.55012754896E+01  0.72461627772E+02  0.70000074876E+02 0.  0.
         12    1    1    2    0    0  0.19905644965E+01 -0.17789059497E+02  0.55012754896E+01  0.18726372228E+02  0.00000000000E+00 0. -1.
         11    1    3    3    0    0  0.97824579910E+01 -0.30877310248E+01 -0.54565458866E+01  0.11619141986E+02  0.51100000000E-03 0. -1.
        -11    1    3    3    0    0 -0.11951863545E+01 -0.39738167536E+01  0.24197183570E+02  0.24550425312E+02  0.51100000000E-03 0.  1.
         12    1    3    3    0    0 -0.10577836133E+02  0.24850607275E+02 -0.24241913173E+02  0.36292060474E+02  0.00000000000E+00 0. -1.
</event>
<event>
 7    1  0.2797450E-013  0.7246158E+02  0.7816164E-02  0.1226708E+00
        -11   -1    0    0    0    0  0.00000000000E+00  0.00000000000E+00  0.45593999997E+02  0.45594000000E+02  0.51100000000E-03 0.  1.
         11   -1    0    0    0    0 -0.00000000000E+00 -0.00000000000E+00 -0.45593999997E+02  0.45594000000E+02  0.51100000000E-03 0. -1.
    9900012    2    1    2    0    0  0.31364501283E+01 -0.15334120840E+02  0.10281354083E+02  0.72461579543E+02  0.70000012048E+02 0.  0.
         12    1    1    2    0    0 -0.31364501283E+01  0.15334120840E+02 -0.10281354083E+02  0.18726420457E+02  0.00000000000E+00 0. -1.
         11    1    3    3    0    0  0.19571108248E+02 -0.17612137047E+02 -0.58572215659E+01  0.26972628610E+02  0.51100000000E-03 0. -1.
        -11    1    3    3    0    0 -0.26868383203E+01 -0.15042369832E+02  0.17623897191E+02  0.23325817087E+02  0.51100000000E-03 0.  1.
         12    1    3    3    0    0 -0.13747819800E+02  0.17320386038E+02 -0.14853215426E+01  0.22163133845E+02  0.00000000000E+00 0. -1.
</event>
<event>
 7    1  0.2797450E-013  0.7246167E+02  0.7816164E-02  0.1226708E+00
        -11   -1    0    0    0    0  0.00000000000E+00  0.00000000000E+00  0.45593999997E+02  0.45594000000E+02  0.51100000000E-03 0. -1.
         11   -1    0    0    0    0 -0.00000000000E+00 -0.00000000000E+00 -0.45593999997E+02  0.45594000000E+02  0.51100000000E-03 0.  1.
    9900012    2    1    2    0    0  0.15241656524E+02  0.10113936046E+02 -0.40094520755E+01  0.72461668221E+02  0.70000127568E+02 0.  0.
         12    1    1    2    0    0 -0.15241656524E+02 -0.10113936046E+02  0.40094520755E+01  0.18726331779E+02  0.00000000000E+00 0. -1.
         11    1    3    3    0    0  0.11697175772E+02 -0.25858018269E+02 -0.11717691307E+02  0.30704483706E+02  0.51100000000E-03 0. -1.
        -11    1    3    3    0    0 -0.16731728391E+01  0.60077938328E+00 -0.38012360070E+01  0.41964078280E+01  0.51100000000E-03 0.  1.
        -12    1    3    3    0    0  0.52176535910E+01  0.35371174932E+02  0.11509475238E+02  0.37560776687E+02  0.00000000000E+00 0.  1.
</event>
<event>
 7    1  0.2797450E-013  0.7246159E+02  0.7816164E-02  0.1226708E+00
        -11   -1    0    0    0    0  0.00000000000E+00  0.00000000000E+00  0.45593999997E+02  0.45594000000E+02  0.51100000000E-03 0.  1.
         11   -1    0    0    0    0 -0.00000000000E+00 -0.00000000000E+00 -0.45593999997E+02  0.45594000000E+02  0.51100000000E-03 0. -1.
    9900012    2    1    2    0    0 -0.15715492883E+02 -0.77999559018E+01 -0.65469452949E+01  0.72461587601E+02  0.70000022546E+02 0.  0.
         12    1    1    2    0    0  0.15715492883E+02  0.77999559018E+01  0.65469452949E+01  0.18726412399E+02  0.00000000000E+00 0. -1.
         11    1    3    3    0    0 -0.10776985372E+02  0.16382369890E+02 -0.39802271127E+01  0.20009189515E+02  0.51100000000E-03 0. -1.
        -11    1    3    3    0    0 -0.21135352764E+02 -0.28248034551E+02  0.13289598575E+01  0.35304684208E+02  0.51100000000E-03 0.  1.
         12    1    3    3    0    0  0.16196845253E+02  0.40657087586E+01 -0.38956780398E+01  0.17147713878E+02  0.00000000000E+00 0. -1.
</event>
<event>
 7    1  0.2797450E-013  0.7246156E+02  0.7816164E-02  0.1226708E+00
        -11   -1    0    0    0    0  0.00000000000E+00  0.00000000000E+00  0.45593999997E+02  0.45594000000E+02  0.51100000000E-03 0. -1.
         11   -1    0    0    0    0 -0.00000000000E+00 -0.00000000000E+00 -0.45593999997E+02  0.45594000000E+02  0.51100000000E-03 0.  1.
    9900012    2    1    2    0    0 -0.13946775400E+02  0.92949755915E+01 -0.83528596728E+01  0.72461564674E+02  0.69999992678E+02 0.  0.
         12    1    1    2    0    0  0.13946775400E+02 -0.92949755915E+01  0.83528596728E+01  0.18726435326E+02  0.00000000000E+00 0. -1.
         11    1    3    3    0    0 -0.28200711739E+02  0.22837241673E+01 -0.11012285398E+02  0.30360598950E+02  0.51100000000E-03 0. -1.
        -11    1    3    3    0    0 -0.10223850214E+02  0.23578404408E+01  0.11588971330E+02  0.15633002958E+02  0.51100000000E-03 0.  1.
        -12    1    3    3    0    0  0.24477786552E+02  0.46534109834E+01 -0.89295456044E+01  0.26467962766E+02  0.00000000000E+00 0.  1.
</event>
<event>
 7    1  0.2797450E-013  0.7246174E+02  0.7816164E-02  0.1226708E+00
        -11   -1    0    0    0    0  0.00000000000E+00  0.00000000000E+00  0.45593999997E+02  0.45594000000E+02  0.51100000000E-03 0.  1.
         11   -1    0    0    0    0 -0.00000000000E+00 -0.00000000000E+00 -0.45593999997E+02  0.45594000000E+02  0.51100000000E-03 0. -1.
    9900012    2    1    2    0    0  0.88821356024E+01  0.16024862518E+02  0.38709530494E+01  0.72461739586E+02  0.70000220534E+02 0.  0.
         12    1    1    2    0    0 -0.88821356024E+01 -0.16024862518E+02 -0.38709530494E+01  0.18726260414E+02  0.00000000000E+00 0. -1.
         11    1    3    3    0    0 -0.13055084207E+02  0.13467805776E+02 -0.17586099221E+02  0.25711629706E+02  0.51100000000E-03 0. -1.
        -11    1    3    3    0    0  0.10925460502E+02  0.17673184247E+02  0.18491977614E+02  0.27814750852E+02  0.51100000000E-03 0.  1.
        -12    1    3    3    0    0  0.11011759307E+02 -0.15116127505E+02  0.29650746572E+01  0.18935359028E+02  0.00000000000E+00 0.  1.
</event>
<event>
 7    1  0.2797450E-013  0.7246162E+02  0.7816164E-02  0.1226708E+00
        -11   -1    0    0    0    0  0.00000000000E+00  0.00000000000E+00  0.45593999997E+02  0.45594000000E+02  0.51100000000E-03 0.  1.
         11   -1    0    0    0    0 -0.00000000000E+00 -0.00000000000E+00 -0.45593999997E+02  0.45594000000E+02  0.51100000000E-03 0. -1.
    9900012    2    1    2    0    0 -0.16627760258E+02  0.79572598682E+01  0.32980134970E+01  0.72461620509E+02  0.70000065414E+02 0.  0.
         12    1    1    2    0    0  0.16627760258E+02 -0.79572598682E+01 -0.32980134970E+01  0.18726379491E+02  0.00000000000E+00 0. -1.
         11    1    3    3    0    0 -0.28547620226E+00 -0.51758371364E+01 -0.13677708094E+02  0.14627046376E+02  0.51100000000E-03 0. -1.
        -11    1    3    3    0    0  0.20474756610E+01  0.61756998760E+01 -0.17209498828E+02  0.18398322633E+02  0.51100000000E-03 0.  1.
        -12    1    3    3    0    0 -0.18389759717E+02  0.69573971285E+01  0.34185220419E+02  0.39436251500E+02  0.00000000000E+00 0.  1.
</event>
<event>
 7    1  0.2797450E-013  0.7246163E+02  0.7816164E-02  0.1226708E+00
        -11   -1    0    0    0    0  0.00000000000E+00  0.00000000000E+00  0.45593999997E+02  0.45594000000E+02  0.51100000000E-03 0. -1.
         11   -1    0    0    0    0 -0.00000000000E+00 -0.00000000000E+00 -0.45593999997E+02  0.45594000000E+02  0.51100000000E-03 0.  1.
    9900012    2    1    2    0    0  0.70906764835E+01 -0.39212663978E+00 -0.17327592372E+02  0.72461630525E+02  0.70000078462E+02 0.  0.
         12    1    1    2    0    0 -0.70906764835E+01  0.39212663978E+00  0.17327592372E+02  0.18726369475E+02  0.00000000000E+00 0. -1.
         11    1    3    3    0    0 -0.89449045059E+01  0.27257952942E+02 -0.23776574132E+01  0.28786465053E+02  0.51100000000E-03 0. -1.
        -11    1    3    3    0    0 -0.56752742739E+01 -0.10099879575E+02  0.81574175693E+00  0.11613859840E+02  0.51100000000E-03 0.  1.
        -12    1    3    3    0    0  0.21710855263E+02 -0.17550200007E+02 -0.15765676716E+02  0.32061305632E+02  0.00000000000E+00 0.  1.
</event>
<event>
 7    1  0.2797450E-013  0.7246148E+02  0.7816164E-02  0.1226708E+00
        -11   -1    0    0    0    0  0.00000000000E+00  0.00000000000E+00  0.45593999997E+02  0.45594000000E+02  0.51100000000E-03 0. -1.
         11   -1    0    0    0    0 -0.00000000000E+00 -0.00000000000E+00 -0.45593999997E+02  0.45594000000E+02  0.51100000000E-03 0.  1.
    9900012    2    1    2    0    0 -0.44782114836E+01  0.14649090898E+02  0.10771832269E+02  0.72461478362E+02  0.69999880241E+02 0.  0.
         12    1    1    2    0    0  0.44782114836E+01 -0.14649090898E+02 -0.10771832269E+02  0.18726521638E+02  0.00000000000E+00 0. -1.
         11    1    3    3    0    0  0.12448563121E+02 -0.19209988564E+02 -0.50730422357E+00  0.22896456980E+02  0.51100000000E-03 0. -1.
        -11    1    3    3    0    0 -0.24062392686E+02  0.16032422387E+02  0.86741678014E+01  0.30187389697E+02  0.51100000000E-03 0.  1.
         12    1    3    3    0    0  0.71356180813E+01  0.17826657074E+02  0.26049686916E+01  0.19377631685E+02  0.00000000000E+00 0. -1.
</event>
<event>
 7    1  0.2797450E-013  0.7246149E+02  0.7816164E-02  0.1226708E+00
        -11   -1    0    0    0    0  0.00000000000E+00  0.00000000000E+00  0.45593999997E+02  0.45594000000E+02  0.51100000000E-03 0.  1.
         11   -1    0    0    0    0 -0.00000000000E+00 -0.00000000000E+00 -0.45593999997E+02  0.45594000000E+02  0.51100000000E-03 0. -1.
    9900012    2    1    2    0    0 -0.77356330783E+01 -0.16931909785E+02 -0.20377662373E+01  0.72461492602E+02  0.69999898791E+02 0.  0.
         12    1    1    2    0    0  0.77356330783E+01  0.16931909785E+02  0.20377662373E+01  0.18726507398E+02  0.00000000000E+00 0. -1.
         11    1    3    3    0    0 -0.22199006042E+02 -0.30611798988E+02 -0.13489763715E+02  0.40147874563E+02  0.51100000000E-03 0. -1.
        -11    1    3    3    0    0 -0.43699410594E+01  0.87621280499E+01  0.12337183269E+00  0.97921649136E+01  0.51100000000E-03 0.  1.
        -12    1    3    3    0    0  0.18833314023E+02  0.49177611536E+01  0.11328625645E+02  0.22521453125E+02  0.00000000000E+00 0.  1.
</event>
<event>
 7    1  0.2797450E-013  0.7246163E+02  0.7816164E-02  0.1226708E+00
        -11   -1    0    0    0    0  0.00000000000E+00  0.00000000000E+00  0.45593999997E+02  0.45594000000E+02  0.51100000000E-03 0.  1.
         11   -1    0    0    0    0 -0.00000000000E+00 -0.00000000000E+00 -0.45593999997E+02  0.45594000000E+02  0.51100000000E-03 0. -1.
    9900012    2    1    2    0    0  0.38316073764E+01  0.25559650836E+01  0.18151106799E+02  0.72461632210E+02  0.70000080656E+02 0.  0.
         12    1    1    2    0    0 -0.38316073764E+01 -0.25559650836E+01 -0.18151106799E+02  0.18726367790E+02  0.00000000000E+00 0. -1.
         11    1    3    3    0    0  0.10127486192E+02  0.16492785439E+02 -0.11777433777E+02  0.22655813707E+02  0.51100000000E-03 0. -1.
        -11    1    3    3    0    0  0.43422646891E+01 -0.19560094358E+01 -0.76176884366E+01  0.89838974238E+01  0.51100000000E-03 0.  1.
        -12    1    3    3    0    0 -0.10638143504E+02 -0.11980810919E+02  0.37546229013E+02  0.40821921079E+02  0.00000000000E+00 0.  1.
</event>
<event>
 7    1  0.2797450E-013  0.7246160E+02  0.7816164E-02  0.1226708E+00
        -11   -1    0    0    0    0  0.00000000000E+00  0.00000000000E+00  0.45593999997E+02  0.45594000000E+02  0.51100000000E-03 0.  1.
         11   -1    0    0    0    0 -0.00000000000E+00 -0.00000000000E+00 -0.45593999997E+02  0.45594000000E+02  0.51100000000E-03 0. -1.
    9900012    2    1    2    0    0  0.93484333061E+01  0.19062173805E+01  0.16113695528E+02  0.72461600091E+02  0.70000038816E+02 0.  0.
         12    1    1    2    0    0 -0.93484333061E+01 -0.19062173805E+01 -0.16113695528E+02  0.18726399909E+02  0.00000000000E+00 0. -1.
         11    1    3    3    0    0  0.23815428406E+02  0.17707355477E+02 -0.17496281385E+01  0.29728542968E+02  0.51100000000E-03 0. -1.
        -11    1    3    3    0    0 -0.31919266696E+01  0.52202483951E+01 -0.62975217509E+01  0.87805563397E+01  0.51100000000E-03 0.  1.
        -12    1    3    3    0    0 -0.11275068430E+02 -0.21021386492E+02  0.24160845417E+02  0.33952500783E+02  0.00000000000E+00 0.  1.
</event>
<event>
 7    1  0.2797450E-013  0.7246156E+02  0.7816164E-02  0.1226708E+00
        -11   -1    0    0    0    0  0.00000000000E+00  0.00000000000E+00  0.45593999997E+02  0.45594000000E+02  0.51100000000E-03 0.  1.
         11   -1    0    0    0    0 -0.00000000000E+00 -0.00000000000E+00 -0.45593999997E+02  0.45594000000E+02  0.51100000000E-03 0. -1.
    9900012    2    1    2    0    0 -0.11072239882E+02  0.38715811296E+01  0.14597801215E+02  0.72461563159E+02  0.69999990705E+02 0.  0.
         12    1    1    2    0    0  0.11072239882E+02 -0.38715811296E+01 -0.14597801215E+02  0.18726436841E+02  0.00000000000E+00 0. -1.
         11    1    3    3    0    0 -0.90548249797E+01  0.27203280619E+01 -0.38064261364E+01  0.10192100881E+02  0.51100000000E-03 0. -1.
        -11    1    3    3    0    0 -0.20422772653E+02  0.10729177234E+02  0.30508232000E+02  0.38248622289E+02  0.51100000000E-03 0.  1.
        -12    1    3    3    0    0  0.18405357751E+02 -0.95779241662E+01 -0.12104004649E+02  0.24020839990E+02  0.00000000000E+00 0.  1.
</event>
<event>
 7    1  0.2797450E-013  0.7246159E+02  0.7816164E-02  0.1226708E+00
        -11   -1    0    0    0    0  0.00000000000E+00  0.00000000000E+00  0.45593999997E+02  0.45594000000E+02  0.51100000000E-03 0.  1.
         11   -1    0    0    0    0 -0.00000000000E+00 -0.00000000000E+00 -0.45593999997E+02  0.45594000000E+02  0.51100000000E-03 0. -1.
    9900012    2    1    2    0    0  0.12075595409E+02  0.78437180480E+01  0.11972231521E+02  0.72461594982E+02  0.70000032160E+02 0.  0.
         12    1    1    2    0    0 -0.12075595409E+02 -0.78437180480E+01 -0.11972231521E+02  0.18726405018E+02  0.00000000000E+00 0. -1.
         11    1    3    3    0    0 -0.15931350224E+02  0.21980934582E+02 -0.14832576843E+01  0.27187671079E+02  0.51100000000E-03 0. -1.
        -11    1    3    3    0    0 -0.62088878892E+01 -0.30864297884E+01  0.15126719457E+00  0.69353600977E+01  0.51100000000E-03 0.  1.
        -12    1    3    3    0    0  0.34215833523E+02 -0.11050786746E+02  0.13304222011E+02  0.38338563805E+02  0.00000000000E+00 0.  1.
</event>
<event>
 7    1  0.2797450E-013  0.7246137E+02  0.7816164E-02  0.1226709E+00
        -11   -1    0    0    0    0  0.00000000000E+00  0.00000000000E+00  0.45593999997E+02  0.45594000000E+02  0.51100000000E-03 0.  1.
         11   -1    0    0    0    0 -0.00000000000E+00 -0.00000000000E+00 -0.45593999997E+02  0.45594000000E+02  0.51100000000E-03 0. -1.
    9900012    2    1    2    0    0 -0.47763822435E+01 -0.17472697707E+02 -0.47516108066E+01  0.72461366620E+02  0.69999734676E+02 0.  0.
         12    1    1    2    0    0  0.47763822435E+01  0.17472697707E+02  0.47516108066E+01  0.18726633380E+02  0.00000000000E+00 0. -1.
         11    1    3    3    0    0 -0.27089711544E+02 -0.13643456987E+02  0.96484454722E+01  0.31829057328E+02  0.51100000000E-03 0. -1.
        -11    1    3    3    0    0 -0.56196780573E+01 -0.78447223012E+01 -0.22560633974E+01  0.99101095738E+01  0.51100000000E-03 0.  1.
        -12    1    3    3    0    0  0.27933007358E+02  0.40154815809E+01 -0.12143992881E+02  0.30722199718E+02  0.00000000000E+00 0.  1.
</event>
<event>
 7    1  0.2797450E-013  0.7246157E+02  0.7816164E-02  0.1226708E+00
        -11   -1    0    0    0    0  0.00000000000E+00  0.00000000000E+00  0.45593999997E+02  0.45594000000E+02  0.51100000000E-03 0.  1.
         11   -1    0    0    0    0 -0.00000000000E+00 -0.00000000000E+00 -0.45593999997E+02  0.45594000000E+02  0.51100000000E-03 0. -1.
    9900012    2    1    2    0    0 -0.13244798696E+02 -0.19371066450E+01 -0.13095878006E+02  0.72461572274E+02  0.70000002578E+02 0.  0.
         12    1    1    2    0    0  0.13244798696E+02  0.19371066450E+01  0.13095878006E+02  0.18726427726E+02  0.00000000000E+00 0. -1.
         11    1    3    3    0    0 -0.12898097180E+02  0.21398293419E+02  0.20141461381E+01  0.25066006005E+02  0.51100000000E-03 0. -1.
        -11    1    3    3    0    0  0.33687267182E+00  0.77146883887E+01  0.60541387522E+01  0.98123644666E+01  0.51100000000E-03 0.  1.
         12    1    3    3    0    0 -0.68357418824E+00 -0.31050088453E+02 -0.21164162896E+02  0.37583201802E+02  0.00000000000E+00 0. -1.
</event>
<event>
 7    1  0.2797450E-013  0.7246155E+02  0.7816164E-02  0.1226708E+00
        -11   -1    0    0    0    0  0.00000000000E+00  0.00000000000E+00  0.45593999997E+02  0.45594000000E+02  0.51100000000E-03 0.  1.
         11   -1    0    0    0    0 -0.00000000000E+00 -0.00000000000E+00 -0.45593999997E+02  0.45594000000E+02  0.51100000000E-03 0. -1.
    9900012    2    1    2    0    0  0.84908254941E+01  0.15368897233E+02  0.65101943983E+01  0.72461554773E+02  0.69999979780E+02 0.  0.
         12    1    1    2    0    0 -0.84908254941E+01 -0.15368897233E+02 -0.65101943983E+01  0.18726445227E+02  0.00000000000E+00 0. -1.
         11    1    3    3    0    0 -0.31194325282E+01  0.10276273366E+02  0.41470765256E+01  0.11512206459E+02  0.51100000000E-03 0. -1.
        -11    1    3    3    0    0 -0.34944240846E+01  0.72009163336E+00  0.29430392643E+02  0.29645868903E+02  0.51100000000E-03 0.  1.
         12    1    3    3    0    0  0.15104682107E+02  0.43725322342E+01 -0.27067274771E+02  0.31303479410E+02  0.00000000000E+00 0. -1.
</event>
<event>
 7    1  0.2797450E-013  0.7246157E+02  0.7816164E-02  0.1226708E+00
        -11   -1    0    0    0    0  0.00000000000E+00  0.00000000000E+00  0.45593999997E+02  0.45594000000E+02  0.51100000000E-03 0.  1.
         11   -1    0    0    0    0 -0.00000000000E+00 -0.00000000000E+00 -0.45593999997E+02  0.45594000000E+02  0.51100000000E-03 0. -1.
    9900012    2    1    2    0    0  0.16817060930E+01 -0.18646751665E+02  0.38698917128E+00  0.72461568315E+02  0.69999997421E+02 0.  0.
         12    1    1    2    0    0 -0.16817060930E+01  0.18646751665E+02 -0.38698917128E+00  0.18726431685E+02  0.00000000000E+00 0. -1.
         11    1    3    3    0    0  0.19926768010E+01  0.35992142358E+01  0.50047932098E+00  0.41443435862E+01  0.51100000000E-03 0. -1.
        -11    1    3    3    0    0  0.29305557714E+02 -0.70731580296E+01  0.12627139051E+02  0.32684704654E+02  0.51100000000E-03 0.  1.
        -12    1    3    3    0    0 -0.29616528422E+02 -0.15172807871E+02 -0.12740629201E+02  0.35632520075E+02  0.00000000000E+00 0.  1.
</event>
<event>
 7    1  0.2797450E-013  0.7246158E+02  0.7816164E-02  0.1226708E+00
        -11   -1    0    0    0    0  0.00000000000E+00  0.00000000000E+00  0.45593999997E+02  0.45594000000E+02  0.51100000000E-03 0.  1.
         11   -1    0    0    0    0 -0.00000000000E+00 -0.00000000000E+00 -0.45593999997E+02  0.45594000000E+02  0.51100000000E-03 0. -1.
    9900012    2    1    2    0    0  0.32482497254E+01 -0.55999868189E+01  0.17571787896E+02  0.72461582603E+02  0.70000016034E+02 0.  0.
         12    1    1    2    0    0 -0.32482497254E+01  0.55999868189E+01 -0.17571787896E+02  0.18726417397E+02  0.00000000000E+00 0. -1.
         11    1    3    3    0    0 -0.34947241843E-01 -0.16130620539E+01 -0.20327484158E+01  0.25952373461E+01  0.51100000000E-03 0. -1.
        -11    1    3    3    0    0  0.24883294688E+02 -0.25393666237E+02  0.16812195272E+02  0.39327681722E+02  0.51100000000E-03 0.  1.
         12    1    3    3    0    0 -0.21600097721E+02  0.21406741472E+02  0.27923410407E+01  0.30538663535E+02  0.00000000000E+00 0. -1.
</event>
<event>
 7    1  0.2797450E-013  0.7246184E+02  0.7816164E-02  0.1226707E+00
        -11   -1    0    0    0    0  0.00000000000E+00  0.00000000000E+00  0.45593999997E+02  0.45594000000E+02  0.51100000000E-03 0.  1.
         11   -1    0    0    0    0 -0.00000000000E+00 -0.00000000000E+00 -0.45593999997E+02  0.45594000000E+02  0.51100000000E-03 0. -1.
    9900012    2    1    2    0    0 -0.99489349490E+01  0.15647926821E+02 -0.26134774980E+01  0.72461836884E+02  0.70000347281E+02 0.  0.
         12    1    1    2    0    0  0.99489349490E+01 -0.15647926821E+02  0.26134774980E+01  0.18726163116E+02  0.00000000000E+00 0. -1.
         11    1    3    3    0    0  0.43752243687E+01 -0.26844583239E+01 -0.15520754264E+02  0.16347560000E+02  0.51100000000E-03 0. -1.
        -11    1    3    3    0    0  0.16739433754E+02 -0.39011183812E+00 -0.20751048383E+01  0.16872074265E+02  0.51100000000E-03 0.  1.
         12    1    3    3    0    0 -0.31063593072E+02  0.18722496983E+02  0.14982381604E+02  0.39242202619E+02  0.00000000000E+00 0. -1.
</event>
<event>
 7    1  0.2797450E-013  0.7246159E+02  0.7816164E-02  0.1226708E+00
        -11   -1    0    0    0    0  0.00000000000E+00  0.00000000000E+00  0.45593999997E+02  0.45594000000E+02  0.51100000000E-03 0.  1.
         11   -1    0    0    0    0 -0.00000000000E+00 -0.00000000000E+00 -0.45593999997E+02  0.45594000000E+02  0.51100000000E-03 0. -1.
    9900012    2    1    2    0    0 -0.14754870644E+02  0.87969538048E+01  0.74555893517E+01  0.72461590399E+02  0.70000026190E+02 0.  0.
         12    1    1    2    0    0  0.14754870644E+02 -0.87969538048E+01 -0.74555893517E+01  0.18726409601E+02  0.00000000000E+00 0. -1.
         11    1    3    3    0    0  0.21122529206E+01  0.22205783197E+01  0.40659953787E+01  0.50916499443E+01  0.51100000000E-03 0. -1.
        -11    1    3    3    0    0  0.53766731474E+01  0.29895865248E+02  0.13992560567E+02  0.33443431710E+02  0.51100000000E-03 0.  1.
         12    1    3    3    0    0 -0.22243796712E+02 -0.23319489763E+02 -0.10602966594E+02  0.33926508744E+02  0.00000000000E+00 0. -1.
</event>
<event>
 7    1  0.2797450E-013  0.7246154E+02  0.7816164E-02  0.1226708E+00
        -11   -1    0    0    0    0  0.00000000000E+00  0.00000000000E+00  0.45593999997E+02  0.45594000000E+02  0.51100000000E-03 0.  1.
         11   -1    0    0    0    0 -0.00000000000E+00 -0.00000000000E+00 -0.45593999997E+02  0.45594000000E+02  0.51100000000E-03 0. -1.
    9900012    2    1    2    0    0 -0.67804230062E+00  0.69601838127E+01  0.17371715983E+02  0.72461537006E+02  0.69999956635E+02 0.  0.
         12    1    1    2    0    0  0.67804230062E+00 -0.69601838127E+01 -0.17371715983E+02  0.18726462994E+02  0.00000000000E+00 0. -1.
         11    1    3    3    0    0 -0.48632782760E+01 -0.50543742728E+01 -0.14665697833E+02  0.16256717629E+02  0.51100000000E-03 0. -1.
        -11    1    3    3    0    0 -0.17637531964E+02  0.88557888659E+01  0.33436040206E+01  0.20017173085E+02  0.51100000000E-03 0.  1.
        -12    1    3    3    0    0  0.21822767939E+02  0.31587692196E+01  0.28693809796E+02  0.36187646291E+02  0.00000000000E+00 0.  1.
</event>
<event>
 7    1  0.2797450E-013  0.7246151E+02  0.7816164E-02  0.1226708E+00
        -11   -1    0    0    0    0  0.00000000000E+00  0.00000000000E+00  0.45593999997E+02  0.45594000000E+02  0.51100000000E-03 0.  1.
         11   -1    0    0    0    0 -0.00000000000E+00 -0.00000000000E+00 -0.45593999997E+02  0.45594000000E+02  0.51100000000E-03 0. -1.
    9900012    2    1    2    0    0  0.33872124048E+00  0.18515156612E+02 -0.27849193853E+01  0.72461507204E+02  0.69999917813E+02 0.  0.
         12    1    1    2    0    0 -0.33872124048E+00 -0.18515156612E+02  0.27849193853E+01  0.18726492796E+02  0.00000000000E+00 0. -1.
         11    1    3    3    0    0 -0.36812340462E+01 -0.17822857075E+02 -0.66122189938E+00  0.18211066225E+02  0.51100000000E-03 0. -1.
        -11    1    3    3    0    0  0.88636244135E+01 -0.41078461213E+01 -0.85861303777E+01  0.13006147494E+02  0.51100000000E-03 0.  1.
        -12    1    3    3    0    0 -0.48436691268E+01  0.40445859808E+02  0.64624328918E+01  0.41244293485E+02  0.00000000000E+00 0.  1.
</event>
<event>
 7    1  0.2797450E-013  0.7246154E+02  0.7816164E-02  0.1226708E+00
        -11   -1    0    0    0    0  0.00000000000E+00  0.00000000000E+00  0.45593999997E+02  0.45594000000E+02  0.51100000000E-03 0.  1.
         11   -1    0    0    0    0 -0.00000000000E+00 -0.00000000000E+00 -0.45593999997E+02  0.45594000000E+02  0.51100000000E-03 0. -1.
    9900012    2    1    2    0    0 -0.57433673311E+01 -0.16843280710E+02  0.58307737517E+01  0.72461540219E+02  0.69999960822E+02 0.  0.
         12    1    1    2    0    0  0.57433673311E+01  0.16843280710E+02 -0.58307737517E+01  0.18726459781E+02  0.00000000000E+00 0. -1.
         11    1    3    3    0    0 -0.25347642528E+02 -0.10500001940E+02 -0.14221223890E+02  0.30903013310E+02  0.51100000000E-03 0. -1.
        -11    1    3    3    0    0 -0.39159820423E+01 -0.10503112204E+02  0.14885870511E+01  0.11307792578E+02  0.51100000000E-03 0.  1.
        -12    1    3    3    0    0  0.23520257239E+02  0.41598334342E+01  0.18563410591E+02  0.30250734331E+02  0.00000000000E+00 0.  1.
</event>
<event>
 7    1  0.2797450E-013  0.7246156E+02  0.7816164E-02  0.1226708E+00
        -11   -1    0    0    0    0  0.00000000000E+00  0.00000000000E+00  0.45593999997E+02  0.45594000000E+02  0.51100000000E-03 0.  1.
         11   -1    0    0    0    0 -0.00000000000E+00 -0.00000000000E+00 -0.45593999997E+02  0.45594000000E+02  0.51100000000E-03 0. -1.
    9900012    2    1    2    0    0 -0.42788827438E+01  0.13445263545E+01  0.18181387594E+02  0.72461562980E+02  0.69999990471E+02 0.  0.
         12    1    1    2    0    0  0.42788827438E+01 -0.13445263545E+01 -0.18181387594E+02  0.18726437020E+02  0.00000000000E+00 0. -1.
         11    1    3    3    0    0  0.22063049688E+02 -0.85906282654E+01 -0.33519032153E+01  0.23912597327E+02  0.51100000000E-03 0. -1.
        -11    1    3    3    0    0 -0.11081102770E+02 -0.85875672745E+01 -0.28828937263E+01  0.14312519931E+02  0.51100000000E-03 0.  1.
        -12    1    3    3    0    0 -0.15260829662E+02  0.18522721894E+02  0.24416184535E+02  0.34236445721E+02  0.00000000000E+00 0.  1.
</event>
<event>
 7    1  0.2797450E-013  0.7246155E+02  0.7816164E-02  0.1226708E+00
        -11   -1    0    0    0    0  0.00000000000E+00  0.00000000000E+00  0.45593999997E+02  0.45594000000E+02  0.51100000000E-03 0.  1.
         11   -1    0    0    0    0 -0.00000000000E+00 -0.00000000000E+00 -0.45593999997E+02  0.45594000000E+02  0.51100000000E-03 0. -1.
    9900012    2    1    2    0    0 -0.47817320468E+01  0.30169087223E+01  0.17852542624E+02  0.72461548714E+02  0.69999971888E+02 0.  0.
         12    1    1    2    0    0  0.47817320468E+01 -0.30169087223E+01 -0.17852542624E+02  0.18726451286E+02  0.00000000000E+00 0. -1.
         11    1    3    3    0    0 -0.21086824711E+02 -0.14413382378E+02 -0.72458753363E+01  0.26549999578E+02  0.51100000000E-03 0. -1.
        -11    1    3    3    0    0 -0.20798969454E+01 -0.72182444636E+01  0.32216343570E+01  0.81736131931E+01  0.51100000000E-03 0.  1.
        -12    1    3    3    0    0  0.18384989610E+02  0.24648535563E+02  0.21876783604E+02  0.37737935943E+02  0.00000000000E+00 0.  1.
</event>
<event>
 7    1  0.2797450E-013  0.7246158E+02  0.7816164E-02  0.1226708E+00
        -11   -1    0    0    0    0  0.00000000000E+00  0.00000000000E+00  0.45593999997E+02  0.45594000000E+02  0.51100000000E-03 0.  1.
         11   -1    0    0    0    0 -0.00000000000E+00 -0.00000000000E+00 -0.45593999997E+02  0.45594000000E+02  0.51100000000E-03 0. -1.
    9900012    2    1    2    0    0 -0.16557039206E+02 -0.62214510450E+01  0.61511568094E+01  0.72461582017E+02  0.70000015271E+02 0.  0.
         12    1    1    2    0    0  0.16557039206E+02  0.62214510450E+01 -0.61511568094E+01  0.18726417983E+02  0.00000000000E+00 0. -1.
         11    1    3    3    0    0 -0.63107846573E+01 -0.11332748799E+02 -0.48457593456E+01  0.13846970146E+02  0.51100000000E-03 0. -1.
        -11    1    3    3    0    0 -0.21265261844E+02  0.36832470558E+01  0.29787852175E+02  0.36784423437E+02  0.51100000000E-03 0.  1.
         12    1    3    3    0    0  0.11019007295E+02  0.14280506981E+01 -0.18790936020E+02  0.21830188434E+02  0.00000000000E+00 0. -1.
</event>
<event>
 7    1  0.2797450E-013  0.7246152E+02  0.7816164E-02  0.1226708E+00
        -11   -1    0    0    0    0  0.00000000000E+00  0.00000000000E+00  0.45593999997E+02  0.45594000000E+02  0.51100000000E-03 0.  1.
         11   -1    0    0    0    0 -0.00000000000E+00 -0.00000000000E+00 -0.45593999997E+02  0.45594000000E+02  0.51100000000E-03 0. -1.
    9900012    2    1    2    0    0  0.15335518692E+02 -0.88402298549E+01  0.61117305090E+01  0.72461520159E+02  0.69999934689E+02 0.  0.
         12    1    1    2    0    0 -0.15335518692E+02  0.88402298549E+01 -0.61117305090E+01  0.18726479841E+02  0.00000000000E+00 0. -1.
         11    1    3    3    0    0  0.85144958517E+01  0.12506681820E+02 -0.12207596968E+01  0.15179064011E+02  0.51100000000E-03 0. -1.
        -11    1    3    3    0    0  0.95528714965E+01  0.10937429383E+02  0.18040495087E+02  0.23159105738E+02  0.51100000000E-03 0.  1.
        -12    1    3    3    0    0 -0.27318486565E+01 -0.32284341058E+02 -0.10708004881E+02  0.34123350409E+02  0.00000000000E+00 0.  1.
</event>
<event>
 7    1  0.2797450E-013  0.7246160E+02  0.7816164E-02  0.1226708E+00
        -11   -1    0    0    0    0  0.00000000000E+00  0.00000000000E+00  0.45593999997E+02  0.45594000000E+02  0.51100000000E-03 0.  1.
         11   -1    0    0    0    0 -0.00000000000E+00 -0.00000000000E+00 -0.45593999997E+02  0.45594000000E+02  0.51100000000E-03 0. -1.
    9900012    2    1    2    0    0 -0.11111236449E+02 -0.94542008578E+01  0.11740376421E+02  0.72461603448E+02  0.70000043189E+02 0.  0.
         12    1    1    2    0    0  0.11111236449E+02  0.94542008578E+01 -0.11740376421E+02  0.18726396552E+02  0.00000000000E+00 0. -1.
         11    1    3    3    0    0 -0.82649761255E+01  0.22690580822E+02  0.86872124231E+01  0.25663981537E+02  0.51100000000E-03 0. -1.
        -11    1    3    3    0    0  0.53952079789E+01  0.49127886247E+01  0.49006057347E+01  0.87897496002E+01  0.51100000000E-03 0.  1.
        -12    1    3    3    0    0 -0.82414683028E+01 -0.37057570304E+02 -0.18474417368E+01  0.38007872311E+02  0.00000000000E+00 0.  1.
</event>
<event>
 7    1  0.2797450E-013  0.7246180E+02  0.7816164E-02  0.1226707E+00
        -11   -1    0    0    0    0  0.00000000000E+00  0.00000000000E+00  0.45593999997E+02  0.45594000000E+02  0.51100000000E-03 0. -1.
         11   -1    0    0    0    0 -0.00000000000E+00 -0.00000000000E+00 -0.45593999997E+02  0.45594000000E+02  0.51100000000E-03 0.  1.
    9900012    2    1    2    0    0  0.91164820178E+01 -0.85591227849E+01 -0.13939217674E+02  0.72461798661E+02  0.70000297489E+02 0.  0.
         12    1    1    2    0    0 -0.91164820178E+01  0.85591227849E+01  0.13939217674E+02  0.18726201339E+02  0.00000000000E+00 0. -1.
         11    1    3    3    0    0  0.27830070891E+02 -0.25675686479E+01  0.14359812643E+02  0.31421481091E+02  0.51100000000E-03 0. -1.
        -11    1    3    3    0    0 -0.54747253441E+01 -0.13421156151E+02 -0.14980393968E+02  0.20844957513E+02  0.51100000000E-03 0.  1.
        -12    1    3    3    0    0 -0.13238863529E+02  0.74296020144E+01 -0.13318636349E+02  0.20195360057E+02  0.00000000000E+00 0.  1.
</event>
<event>
 7    1  0.2797450E-013  0.7246162E+02  0.7816164E-02  0.1226708E+00
        -11   -1    0    0    0    0  0.00000000000E+00  0.00000000000E+00  0.45593999997E+02  0.45594000000E+02  0.51100000000E-03 0. -1.
         11   -1    0    0    0    0 -0.00000000000E+00 -0.00000000000E+00 -0.45593999997E+02  0.45594000000E+02  0.51100000000E-03 0.  1.
    9900012    2    1    2    0    0 -0.22381295730E+01 -0.57975594707E+00 -0.18583107977E+02  0.72461621732E+02  0.70000067007E+02 0.  0.
         12    1    1    2    0    0  0.22381295730E+01  0.57975594707E+00  0.18583107977E+02  0.18726378268E+02  0.00000000000E+00 0. -1.
         11    1    3    3    0    0 -0.92471018998E+01  0.26419406000E+02 -0.78587436259E+00  0.28001991102E+02  0.51100000000E-03 0. -1.
        -11    1    3    3    0    0  0.56559989739E+01  0.53661418483E+01 -0.69184247516E+00  0.78271609796E+01  0.51100000000E-03 0.  1.
        -12    1    3    3    0    0  0.13529733530E+01 -0.32365303795E+02 -0.17105391139E+02  0.36632469650E+02  0.00000000000E+00 0.  1.
</event>
<event>
 7    1  0.2797450E-013  0.7246158E+02  0.7816164E-02  0.1226708E+00
        -11   -1    0    0    0    0  0.00000000000E+00  0.00000000000E+00  0.45593999997E+02  0.45594000000E+02  0.51100000000E-03 0.  1.
         11   -1    0    0    0    0 -0.00000000000E+00 -0.00000000000E+00 -0.45593999997E+02  0.45594000000E+02  0.51100000000E-03 0. -1.
    9900012    2    1    2    0    0  0.10755082830E+02  0.75843574899E+01  0.13322333212E+02  0.72461578894E+02  0.70000011203E+02 0.  0.
         12    1    1    2    0    0 -0.10755082830E+02 -0.75843574899E+01 -0.13322333212E+02  0.18726421106E+02  0.00000000000E+00 0. -1.
         11    1    3    3    0    0  0.15441761144E+02  0.94128830401E+01 -0.14184459909E+02  0.22983673717E+02  0.51100000000E-03 0. -1.
        -11    1    3    3    0    0  0.10341856707E+02  0.10113853999E+02 -0.16610029480E+01  0.14560321903E+02  0.51100000000E-03 0.  1.
        -12    1    3    3    0    0 -0.15028535021E+02 -0.11942379549E+02  0.29167796070E+02  0.34917583274E+02  0.00000000000E+00 0.  1.
</event>
<event>
 7    1  0.2797450E-013  0.7246157E+02  0.7816164E-02  0.1226708E+00
        -11   -1    0    0    0    0  0.00000000000E+00  0.00000000000E+00  0.45593999997E+02  0.45594000000E+02  0.51100000000E-03 0. -1.
         11   -1    0    0    0    0 -0.00000000000E+00 -0.00000000000E+00 -0.45593999997E+02  0.45594000000E+02  0.51100000000E-03 0.  1.
    9900012    2    1    2    0    0  0.92714064662E+01 -0.13105042561E+02  0.96425082550E+01  0.72461572582E+02  0.70000002981E+02 0.  0.
         12    1    1    2    0    0 -0.92714064662E+01  0.13105042561E+02 -0.96425082550E+01  0.18726427418E+02  0.00000000000E+00 0. -1.
         11    1    3    3    0    0  0.32444546357E+01 -0.27302044302E+02  0.23727260456E+01  0.27596339215E+02  0.51100000000E-03 0. -1.
        -11    1    3    3    0    0  0.27793583448E+01 -0.85288920178E+01 -0.11938118979E+02  0.14932699584E+02  0.51100000000E-03 0.  1.
         12    1    3    3    0    0  0.32475934857E+01  0.22725893759E+02  0.19207901188E+02  0.29932533783E+02  0.00000000000E+00 0. -1.
</event>
<event>
 7    1  0.2797450E-013  0.7246169E+02  0.7816164E-02  0.1226708E+00
        -11   -1    0    0    0    0  0.00000000000E+00  0.00000000000E+00  0.45593999997E+02  0.45594000000E+02  0.51100000000E-03 0.  1.
         11   -1    0    0    0    0 -0.00000000000E+00 -0.00000000000E+00 -0.45593999997E+02  0.45594000000E+02  0.51100000000E-03 0. -1.
    9900012    2    1    2    0    0 -0.14661317225E+01  0.18069644488E+02  0.46918136836E+01  0.72461689370E+02  0.70000155118E+02 0.  0.
         12    1    1    2    0    0  0.14661317225E+01 -0.18069644488E+02 -0.46918136836E+01  0.18726310630E+02  0.00000000000E+00 0. -1.
         11    1    3    3    0    0  0.14410291583E+02  0.11881679445E+02 -0.85402680663E+01  0.20536966399E+02  0.51100000000E-03 0. -1.
        -11    1    3    3    0    0  0.25319179317E+01  0.22083176157E+02 -0.33635287999E+01  0.22480894196E+02  0.51100000000E-03 0.  1.
        -12    1    3    3    0    0 -0.18408341237E+02 -0.15895211114E+02  0.16595610550E+02  0.29443828776E+02  0.00000000000E+00 0.  1.
</event>
<event>
 7    1  0.2797450E-013  0.7246152E+02  0.7816164E-02  0.1226708E+00
        -11   -1    0    0    0    0  0.00000000000E+00  0.00000000000E+00  0.45593999997E+02  0.45594000000E+02  0.51100000000E-03 0. -1.
         11   -1    0    0    0    0 -0.00000000000E+00 -0.00000000000E+00 -0.45593999997E+02  0.45594000000E+02  0.51100000000E-03 0.  1.
    9900012    2    1    2    0    0  0.12645072297E+01 -0.17423192068E+02  0.67464316079E+01  0.72461523027E+02  0.69999938426E+02 0.  0.
         12    1    1    2    0    0 -0.12645072297E+01  0.17423192068E+02 -0.67464316079E+01  0.18726476973E+02  0.00000000000E+00 0. -1.
         11    1    3    3    0    0 -0.17147882460E+02  0.73103879446E+01  0.14281893545E+02  0.23483273372E+02  0.51100000000E-03 0. -1.
        -11    1    3    3    0    0 -0.14036786986E+01  0.37132858831E+01 -0.13259008665E+02  0.13840524447E+02  0.51100000000E-03 0.  1.
        -12    1    3    3    0    0  0.19816068388E+02 -0.28446865896E+02  0.57235467273E+01  0.35137725208E+02  0.00000000000E+00 0.  1.
</event>
<event>
 7    1  0.2797450E-013  0.7246158E+02  0.7816164E-02  0.1226708E+00
        -11   -1    0    0    0    0  0.00000000000E+00  0.00000000000E+00  0.45593999997E+02  0.45594000000E+02  0.51100000000E-03 0.  1.
         11   -1    0    0    0    0 -0.00000000000E+00 -0.00000000000E+00 -0.45593999997E+02  0.45594000000E+02  0.51100000000E-03 0. -1.
    9900012    2    1    2    0    0  0.11134572728E+02  0.12279966318E+02  0.87122097821E+01  0.72461577974E+02  0.70000010004E+02 0.  0.
         12    1    1    2    0    0 -0.11134572728E+02 -0.12279966318E+02 -0.87122097821E+01  0.18726422026E+02  0.00000000000E+00 0. -1.
         11    1    3    3    0    0 -0.25360440237E+02 -0.35705067877E+01  0.10938176381E+02  0.27848593331E+02  0.51100000000E-03 0. -1.
        -11    1    3    3    0    0  0.20685570778E+02  0.19211249621E+02  0.42808266364E+00  0.28233813158E+02  0.51100000000E-03 0.  1.
        -12    1    3    3    0    0  0.15809442187E+02 -0.33607765154E+01 -0.26540492627E+01  0.16379171485E+02  0.00000000000E+00 0.  1.
</event>
<event>
 7    1  0.2797450E-013  0.7246168E+02  0.7816164E-02  0.1226708E+00
        -11   -1    0    0    0    0  0.00000000000E+00  0.00000000000E+00  0.45593999997E+02  0.45594000000E+02  0.51100000000E-03 0.  1.
         11   -1    0    0    0    0 -0.00000000000E+00 -0.00000000000E+00 -0.45593999997E+02  0.45594000000E+02  0.51100000000E-03 0. -1.
    9900012    2    1    2    0    0 -0.97318253585E+01  0.15702704306E+02  0.30645713141E+01  0.72461683099E+02  0.70000146949E+02 0.  0.
         12    1    1    2    0    0  0.97318253585E+01 -0.15702704306E+02 -0.30645713141E+01  0.18726316901E+02  0.00000000000E+00 0. -1.
         11    1    3    3    0    0 -0.19505950055E+02 -0.17229094522E+02  0.15666189616E+02  0.30376854395E+02  0.51100000000E-03 0. -1.
        -11    1    3    3    0    0  0.83535360171E+01  0.13512728457E+01 -0.15954900204E+01  0.86112189009E+01  0.51100000000E-03 0.  1.
        -12    1    3    3    0    0  0.14205886797E+01  0.31580525982E+02 -0.11006128282E+02  0.33473609803E+02  0.00000000000E+00 0.  1.
</event>
<event>
 7    1  0.2797450E-013  0.7246158E+02  0.7816164E-02  0.1226708E+00
        -11   -1    0    0    0    0  0.00000000000E+00  0.00000000000E+00  0.45593999997E+02  0.45594000000E+02  0.51100000000E-03 0.  1.
         11   -1    0    0    0    0 -0.00000000000E+00 -0.00000000000E+00 -0.45593999997E+02  0.45594000000E+02  0.51100000000E-03 0. -1.
    9900012    2    1    2    0    0 -0.49385361742E+01  0.13343304757E+02  0.12175633477E+02  0.72461575570E+02  0.70000006872E+02 0.  0.
         12    1    1    2    0    0  0.49385361742E+01 -0.13343304757E+02 -0.12175633477E+02  0.18726424430E+02  0.00000000000E+00 0. -1.
         11    1    3    3    0    0  0.65539780681E+01  0.10116366994E+02  0.57317023399E+01  0.13347206511E+02  0.51100000000E-03 0. -1.
        -11    1    3    3    0    0  0.21827546700E+02 -0.62376036918E+01  0.89128970341E+01  0.24388301059E+02  0.51100000000E-03 0.  1.
         12    1    3    3    0    0 -0.33320060942E+02  0.94645414542E+01 -0.24689658969E+01  0.34726068000E+02  0.00000000000E+00 0. -1.
</event>
<event>
 7    1  0.2797450E-013  0.7246157E+02  0.7816164E-02  0.1226708E+00
        -11   -1    0    0    0    0  0.00000000000E+00  0.00000000000E+00  0.45593999997E+02  0.45594000000E+02  0.51100000000E-03 0.  1.
         11   -1    0    0    0    0 -0.00000000000E+00 -0.00000000000E+00 -0.45593999997E+02  0.45594000000E+02  0.51100000000E-03 0. -1.
    9900012    2    1    2    0    0 -0.13003621259E+02 -0.11461715339E+02  0.70861793053E+01  0.72461574247E+02  0.70000005148E+02 0.  0.
         12    1    1    2    0    0  0.13003621259E+02  0.11461715339E+02 -0.70861793053E+01  0.18726425753E+02  0.00000000000E+00 0. -1.
         11    1    3    3    0    0 -0.92206466844E+01 -0.39040099190E+01  0.10513507703E+02  0.14518796892E+02  0.51100000000E-03 0. -1.
        -11    1    3    3    0    0 -0.83523598266E+01 -0.20664565448E+02  0.20498816169E+02  0.30281803850E+02  0.51100000000E-03 0.  1.
         12    1    3    3    0    0  0.45693852522E+01  0.13106860028E+02 -0.23926144566E+02  0.27660973504E+02  0.00000000000E+00 0. -1.
</event>
<event>
 7    1  0.2797450E-013  0.7246158E+02  0.7816164E-02  0.1226708E+00
        -11   -1    0    0    0    0  0.00000000000E+00  0.00000000000E+00  0.45593999997E+02  0.45594000000E+02  0.51100000000E-03 0. -1.
         11   -1    0    0    0    0 -0.00000000000E+00 -0.00000000000E+00 -0.45593999997E+02  0.45594000000E+02  0.51100000000E-03 0.  1.
    9900012    2    1    2    0    0 -0.94256915335E+01 -0.15903236995E+02  0.29870076422E+01  0.72461579561E+02  0.70000012072E+02 0.  0.
         12    1    1    2    0    0  0.94256915335E+01  0.15903236995E+02 -0.29870076422E+01  0.18726420439E+02  0.00000000000E+00 0. -1.
         11    1    3    3    0    0 -0.28905181589E+01 -0.46000733131E+01  0.20811866178E+02  0.21509289709E+02  0.51100000000E-03 0. -1.
        -11    1    3    3    0    0 -0.15200012697E+02 -0.26448897603E+01  0.11453338152E+02  0.19214962475E+02  0.51100000000E-03 0.  1.
         12    1    3    3    0    0  0.86648393225E+01 -0.86582739214E+01 -0.29278196688E+02  0.31737327377E+02  0.00000000000E+00 0. -1.
</event>
<event>
 7    1  0.2797450E-013  0.7246165E+02  0.7816164E-02  0.1226708E+00
        -11   -1    0    0    0    0  0.00000000000E+00  0.00000000000E+00  0.45593999997E+02  0.45594000000E+02  0.51100000000E-03 0. -1.
         11   -1    0    0    0    0 -0.00000000000E+00 -0.00000000000E+00 -0.45593999997E+02  0.45594000000E+02  0.51100000000E-03 0.  1.
    9900012    2    1    2    0    0  0.23316258091E+01  0.17467959034E+02 -0.63332648730E+01  0.72461646493E+02  0.70000099262E+02 0.  0.
         12    1    1    2    0    0 -0.23316258091E+01 -0.17467959034E+02  0.63332648730E+01  0.18726353507E+02  0.00000000000E+00 0. -1.
         11    1    3    3    0    0  0.49421723419E+01  0.10248729050E+02  0.33543231493E+01  0.11862250994E+02  0.51100000000E-03 0. -1.
        -11    1    3    3    0    0  0.24734279693E+02  0.19658514187E+01 -0.18986132810E+02  0.31242957656E+02  0.51100000000E-03 0.  1.
         12    1    3    3    0    0 -0.27344826225E+02  0.52533785653E+01  0.92985447880E+01  0.29356437843E+02  0.00000000000E+00 0. -1.
</event>
<event>
 7    1  0.2797450E-013  0.7246161E+02  0.7816164E-02  0.1226708E+00
        -11   -1    0    0    0    0  0.00000000000E+00  0.00000000000E+00  0.45593999997E+02  0.45594000000E+02  0.51100000000E-03 0.  1.
         11   -1    0    0    0    0 -0.00000000000E+00 -0.00000000000E+00 -0.45593999997E+02  0.45594000000E+02  0.51100000000E-03 0. -1.
    9900012    2    1    2    0    0  0.10363436878E+02  0.13627643382E+02  0.75871183267E+01  0.72461605457E+02  0.70000045806E+02 0.  0.
         12    1    1    2    0    0 -0.10363436878E+02 -0.13627643382E+02 -0.75871183267E+01  0.18726394543E+02  0.00000000000E+00 0. -1.
         11    1    3    3    0    0 -0.12079791210E+02  0.14821973453E+02 -0.72211103938E+01  0.20439097052E+02  0.51100000000E-03 0. -1.
        -11    1    3    3    0    0  0.21571134192E+02  0.19477575202E+02  0.10396563527E+02  0.30867107080E+02  0.51100000000E-03 0.  1.
         12    1    3    3    0    0  0.87209389664E+00 -0.20671905274E+02  0.44116651934E+01  0.21155401324E+02  0.00000000000E+00 0. -1.
</event>
<event>
 7    1  0.2797450E-013  0.7246153E+02  0.7816164E-02  0.1226708E+00
        -11   -1    0    0    0    0  0.00000000000E+00  0.00000000000E+00  0.45593999997E+02  0.45594000000E+02  0.51100000000E-03 0. -1.
         11   -1    0    0    0    0 -0.00000000000E+00 -0.00000000000E+00 -0.45593999997E+02  0.45594000000E+02  0.51100000000E-03 0.  1.
    9900012    2    1    2    0    0  0.14800052022E+02  0.66070438147E+01 -0.93800821572E+01  0.72461534527E+02  0.69999953407E+02 0.  0.
         12    1    1    2    0    0 -0.14800052022E+02 -0.66070438147E+01  0.93800821572E+01  0.18726465473E+02  0.00000000000E+00 0. -1.
         11    1    3    3    0    0  0.13415915464E+02  0.12303950705E+02  0.24969091208E+02  0.30900315641E+02  0.51100000000E-03 0. -1.
        -11    1    3    3    0    0 -0.89247595651E+01  0.10955294799E+01 -0.64901797386E+01  0.11089362084E+02  0.51100000000E-03 0.  1.
        -12    1    3    3    0    0  0.10308896123E+02 -0.67924363707E+01 -0.27858993626E+02  0.30471856802E+02  0.00000000000E+00 0.  1.
</event>
<event>
 7    1  0.2797450E-013  0.7246161E+02  0.7816164E-02  0.1226708E+00
        -11   -1    0    0    0    0  0.00000000000E+00  0.00000000000E+00  0.45593999997E+02  0.45594000000E+02  0.51100000000E-03 0.  1.
         11   -1    0    0    0    0 -0.00000000000E+00 -0.00000000000E+00 -0.45593999997E+02  0.45594000000E+02  0.51100000000E-03 0. -1.
    9900012    2    1    2    0    0 -0.14631352720E+02 -0.55595026636E+01 -0.10280721085E+02  0.72461607440E+02  0.70000048390E+02 0.  0.
         12    1    1    2    0    0  0.14631352720E+02  0.55595026636E+01  0.10280721085E+02  0.18726392560E+02  0.00000000000E+00 0. -1.
         11    1    3    3    0    0 -0.24412257295E+02 -0.48815067260E+01  0.89364118766E+01  0.26450838770E+02  0.51100000000E-03 0. -1.
        -11    1    3    3    0    0 -0.15607696353E+01 -0.78723482707E+01  0.10607478964E+02  0.13301446515E+02  0.51100000000E-03 0.  1.
         12    1    3    3    0    0  0.11341674210E+02  0.71943523331E+01 -0.29824611925E+02  0.32709322156E+02  0.00000000000E+00 0. -1.
</event>
<event>
 7    1  0.2797450E-013  0.7246156E+02  0.7816164E-02  0.1226708E+00
        -11   -1    0    0    0    0  0.00000000000E+00  0.00000000000E+00  0.45593999997E+02  0.45594000000E+02  0.51100000000E-03 0.  1.
         11   -1    0    0    0    0 -0.00000000000E+00 -0.00000000000E+00 -0.45593999997E+02  0.45594000000E+02  0.51100000000E-03 0. -1.
    9900012    2    1    2    0    0  0.66130803939E+01  0.13306747817E+02  0.11396364309E+02  0.72461561758E+02  0.69999988880E+02 0.  0.
         12    1    1    2    0    0 -0.66130803939E+01 -0.13306747817E+02 -0.11396364309E+02  0.18726438242E+02  0.00000000000E+00 0. -1.
         11    1    3    3    0    0 -0.87017187604E+01  0.58175472209E+01  0.65105832122E+01  0.12326859254E+02  0.51100000000E-03 0. -1.
        -11    1    3    3    0    0 -0.17588550852E+01  0.19276203356E+02  0.24744034514E+02  0.31415487126E+02  0.51100000000E-03 0.  1.
         12    1    3    3    0    0  0.17073654239E+02 -0.11787002760E+02 -0.19858253417E+02  0.28719215378E+02  0.00000000000E+00 0. -1.
</event>
<event>
 7    1  0.2797450E-013  0.7246153E+02  0.7816164E-02  0.1226708E+00
        -11   -1    0    0    0    0  0.00000000000E+00  0.00000000000E+00  0.45593999997E+02  0.45594000000E+02  0.51100000000E-03 0.  1.
         11   -1    0    0    0    0 -0.00000000000E+00 -0.00000000000E+00 -0.45593999997E+02  0.45594000000E+02  0.51100000000E-03 0. -1.
    9900012    2    1    2    0    0  0.12568395218E+02  0.97841608468E+01  0.98481661221E+01  0.72461528421E+02  0.69999945452E+02 0.  0.
         12    1    1    2    0    0 -0.12568395218E+02 -0.97841608468E+01 -0.98481661221E+01  0.18726471579E+02  0.00000000000E+00 0. -1.
         11    1    3    3    0    0  0.94672520856E+00 -0.26788911180E+01  0.23820808705E+01  0.37077022234E+01  0.51100000000E-03 0. -1.
        -11    1    3    3    0    0  0.40943793909E+01 -0.90067792866E+01  0.33060575260E+02  0.34509240103E+02  0.51100000000E-03 0.  1.
         12    1    3    3    0    0  0.75272906187E+01  0.21469831251E+02 -0.25594490008E+02  0.34244586095E+02  0.00000000000E+00 0. -1.
</event>
<event>
 7    1  0.2797450E-013  0.7246141E+02  0.7816164E-02  0.1226708E+00
        -11   -1    0    0    0    0  0.00000000000E+00  0.00000000000E+00  0.45593999997E+02  0.45594000000E+02  0.51100000000E-03 0.  1.
         11   -1    0    0    0    0 -0.00000000000E+00 -0.00000000000E+00 -0.45593999997E+02  0.45594000000E+02  0.51100000000E-03 0. -1.
    9900012    2    1    2    0    0  0.19282704855E+00 -0.17650754259E+02  0.62529186329E+01  0.72461406620E+02  0.69999786784E+02 0.  0.
         12    1    1    2    0    0 -0.19282704855E+00  0.17650754259E+02 -0.62529186329E+01  0.18726593380E+02  0.00000000000E+00 0. -1.
         11    1    3    3    0    0  0.28273612301E+00  0.15348700700E+02  0.88188509414E+01  0.17704086677E+02  0.51100000000E-03 0. -1.
        -11    1    3    3    0    0  0.26309632378E+01 -0.10720224177E+02  0.20054193194E+02  0.22891392244E+02  0.51100000000E-03 0.  1.
        -12    1    3    3    0    0 -0.27208723122E+01 -0.22279230782E+02 -0.22620125502E+02  0.31865927699E+02  0.00000000000E+00 0.  1.
</event>
<event>
 7    1  0.2797450E-013  0.7246152E+02  0.7816164E-02  0.1226708E+00
        -11   -1    0    0    0    0  0.00000000000E+00  0.00000000000E+00  0.45593999997E+02  0.45594000000E+02  0.51100000000E-03 0. -1.
         11   -1    0    0    0    0 -0.00000000000E+00 -0.00000000000E+00 -0.45593999997E+02  0.45594000000E+02  0.51100000000E-03 0.  1.
    9900012    2    1    2    0    0 -0.13750079131E+02  0.12705175583E+02  0.44139438923E+00  0.72461521642E+02  0.69999936621E+02 0.  0.
         12    1    1    2    0    0  0.13750079131E+02 -0.12705175583E+02 -0.44139438923E+00  0.18726478358E+02  0.00000000000E+00 0. -1.
         11    1    3    3    0    0 -0.99611070264E+01 -0.20329152278E+02 -0.19404823244E+02  0.29816861856E+02  0.51100000000E-03 0. -1.
        -11    1    3    3    0    0  0.22292022946E+01 -0.14821014225E+01  0.18677019064E+01  0.32640891791E+01  0.51100000000E-03 0.  1.
        -12    1    3    3    0    0 -0.60181743987E+01  0.34516429283E+02  0.17978515727E+02  0.39380570607E+02  0.00000000000E+00 0.  1.
</event>
<event>
 7    1  0.2797450E-013  0.7246156E+02  0.7816164E-02  0.1226708E+00
        -11   -1    0    0    0    0  0.00000000000E+00  0.00000000000E+00  0.45593999997E+02  0.45594000000E+02  0.51100000000E-03 0. -1.
         11   -1    0    0    0    0 -0.00000000000E+00 -0.00000000000E+00 -0.45593999997E+02  0.45594000000E+02  0.51100000000E-03 0.  1.
    9900012    2    1    2    0    0  0.52270469619E+00  0.18336016194E+01 -0.18629123700E+02  0.72461559737E+02  0.69999986247E+02 0.  0.
         12    1    1    2    0    0 -0.52270469619E+00 -0.18336016194E+01  0.18629123700E+02  0.18726440263E+02  0.00000000000E+00 0. -1.
         11    1    3    3    0    0 -0.88988528356E+01  0.12803912303E+02 -0.10998643690E+02  0.19081402342E+02  0.51100000000E-03 0. -1.
        -11    1    3    3    0    0  0.22341971385E+02  0.12750822917E+02 -0.53291563034E+01  0.26270650498E+02  0.51100000000E-03 0.  1.
         12    1    3    3    0    0 -0.12920413854E+02 -0.23721133600E+02 -0.23013237064E+01  0.27109506897E+02  0.00000000000E+00 0. -1.
</event>
<event>
 7    1  0.2797450E-013  0.7246148E+02  0.7816164E-02  0.1226708E+00
        -11   -1    0    0    0    0  0.00000000000E+00  0.00000000000E+00  0.45593999997E+02  0.45594000000E+02  0.51100000000E-03 0. -1.
         11   -1    0    0    0    0 -0.00000000000E+00 -0.00000000000E+00 -0.45593999997E+02  0.45594000000E+02  0.51100000000E-03 0.  1.
    9900012    2    1    2    0    0  0.11041882796E+02 -0.39747578411E+01  0.14593174845E+02  0.72461477963E+02  0.69999879721E+02 0.  0.
         12    1    1    2    0    0 -0.11041882796E+02  0.39747578411E+01 -0.14593174845E+02  0.18726522037E+02  0.00000000000E+00 0. -1.
         11    1    3    3    0    0 -0.18585353501E+02  0.37649198439E+01  0.42409060692E+01  0.19431296167E+02  0.51100000000E-03 0. -1.
        -11    1    3    3    0    0  0.27958329394E+02 -0.13167666152E+01  0.24631498400E+02  0.37284216105E+02  0.51100000000E-03 0.  1.
         12    1    3    3    0    0  0.16689069028E+01 -0.64229110698E+01 -0.14279229625E+02  0.15745965691E+02  0.00000000000E+00 0. -1.
</event>
<event>
 7    1  0.2797450E-013  0.7246152E+02  0.7816164E-02  0.1226708E+00
        -11   -1    0    0    0    0  0.00000000000E+00  0.00000000000E+00  0.45593999997E+02  0.45594000000E+02  0.51100000000E-03 0.  1.
         11   -1    0    0    0    0 -0.00000000000E+00 -0.00000000000E+00 -0.45593999997E+02  0.45594000000E+02  0.51100000000E-03 0. -1.
    9900012    2    1    2    0    0  0.44024890911E+01  0.86303336113E+01  0.16025493607E+02  0.72461521052E+02  0.69999935853E+02 0.  0.
         12    1    1    2    0    0 -0.44024890911E+01 -0.86303336113E+01 -0.16025493607E+02  0.18726478948E+02  0.00000000000E+00 0. -1.
         11    1    3    3    0    0 -0.30266708132E+01  0.12461396528E+02  0.80727023156E+00  0.12849078765E+02  0.51100000000E-03 0. -1.
        -11    1    3    3    0    0  0.53706386146E+00  0.20388654964E+02  0.25291856224E+02  0.32490978446E+02  0.51100000000E-03 0.  1.
        -12    1    3    3    0    0  0.68920960428E+01 -0.24219717881E+02 -0.10073632849E+02  0.27121463841E+02  0.00000000000E+00 0.  1.
</event>
<event>
 7    1  0.2797450E-013  0.7246159E+02  0.7816164E-02  0.1226708E+00
        -11   -1    0    0    0    0  0.00000000000E+00  0.00000000000E+00  0.45593999997E+02  0.45594000000E+02  0.51100000000E-03 0.  1.
         11   -1    0    0    0    0 -0.00000000000E+00 -0.00000000000E+00 -0.45593999997E+02  0.45594000000E+02  0.51100000000E-03 0. -1.
    9900012    2    1    2    0    0 -0.15131876391E+02  0.18568784351E+01 -0.10874588471E+02  0.72461592041E+02  0.70000028329E+02 0.  0.
         12    1    1    2    0    0  0.15131876391E+02 -0.18568784351E+01  0.10874588471E+02  0.18726407959E+02  0.00000000000E+00 0. -1.
         11    1    3    3    0    0 -0.25914464904E+02  0.29314613073E+02 -0.32977901177E+01  0.39265524965E+02  0.51100000000E-03 0. -1.
        -11    1    3    3    0    0  0.89552247712E+01 -0.60248842791E+01 -0.30241413348E+01  0.11208956791E+02  0.51100000000E-03 0.  1.
        -12    1    3    3    0    0  0.18273637418E+01 -0.21432850359E+02 -0.45526570184E+01  0.21987110285E+02  0.00000000000E+00 0.  1.
</event>
<event>
 7    1  0.2797450E-013  0.7246151E+02  0.7816164E-02  0.1226708E+00
        -11   -1    0    0    0    0  0.00000000000E+00  0.00000000000E+00  0.45593999997E+02  0.45594000000E+02  0.51100000000E-03 0.  1.
         11   -1    0    0    0    0 -0.00000000000E+00 -0.00000000000E+00 -0.45593999997E+02  0.45594000000E+02  0.51100000000E-03 0. -1.
    9900012    2    1    2    0    0  0.11402805491E+02  0.14764989650E+02 -0.16286914644E+01  0.72461507314E+02  0.69999917956E+02 0.  0.
         12    1    1    2    0    0 -0.11402805491E+02 -0.14764989650E+02  0.16286914644E+01  0.18726492686E+02  0.00000000000E+00 0. -1.
         11    1    3    3    0    0 -0.26911130539E+02  0.97972805429E+01  0.14424976254E+01  0.28675363164E+02  0.51100000000E-03 0. -1.
        -11    1    3    3    0    0  0.39882112648E+01 -0.18981762227E+01  0.61636644221E+01  0.75828531197E+01  0.51100000000E-03 0.  1.
        -12    1    3    3    0    0  0.34325724765E+02  0.68658853301E+01 -0.92348535119E+01  0.36203291030E+02  0.00000000000E+00 0.  1.
</event>
<event>
 7    1  0.2797450E-013  0.7246157E+02  0.7816164E-02  0.1226708E+00
        -11   -1    0    0    0    0  0.00000000000E+00  0.00000000000E+00  0.45593999997E+02  0.45594000000E+02  0.51100000000E-03 0. -1.
         11   -1    0    0    0    0 -0.00000000000E+00 -0.00000000000E+00 -0.45593999997E+02  0.45594000000E+02  0.51100000000E-03 0.  1.
    9900012    2    1    2    0    0 -0.99571229184E+01 -0.41594849307E+00 -0.15854390499E+02  0.72461574606E+02  0.70000005616E+02 0.  0.
         12    1    1    2    0    0  0.99571229184E+01  0.41594849307E+00  0.15854390499E+02  0.18726425394E+02  0.00000000000E+00 0. -1.
         11    1    3    3    0    0 -0.70883000957E+01  0.71437473024E+00  0.10066283284E+01  0.71949725749E+01  0.51100000000E-03 0. -1.
        -11    1    3    3    0    0 -0.19873877064E+02  0.85840221485E+01 -0.33285910604E+02  0.39706526803E+02  0.51100000000E-03 0.  1.
         12    1    3    3    0    0  0.17005054241E+02 -0.97143453718E+01  0.16424891777E+02  0.25560075227E+02  0.00000000000E+00 0. -1.
</event>
<event>
 7    1  0.2797450E-013  0.7246153E+02  0.7816164E-02  0.1226708E+00
        -11   -1    0    0    0    0  0.00000000000E+00  0.00000000000E+00  0.45593999997E+02  0.45594000000E+02  0.51100000000E-03 0. -1.
         11   -1    0    0    0    0 -0.00000000000E+00 -0.00000000000E+00 -0.45593999997E+02  0.45594000000E+02  0.51100000000E-03 0.  1.
    9900012    2    1    2    0    0  0.64899277887E+01  0.15742518879E+02  0.77932509292E+01  0.72461526135E+02  0.69999942475E+02 0.  0.
         12    1    1    2    0    0 -0.64899277887E+01 -0.15742518879E+02 -0.77932509292E+01  0.18726473865E+02  0.00000000000E+00 0. -1.
         11    1    3    3    0    0  0.56458060213E+01  0.91755504299E+01  0.33846280976E+02  0.35519524032E+02  0.51100000000E-03 0. -1.
        -11    1    3    3    0    0  0.40582433272E+01  0.12439175390E+02 -0.36845907516E+01  0.13593330444E+02  0.51100000000E-03 0.  1.
         12    1    3    3    0    0 -0.32141215598E+01 -0.58722069411E+01 -0.22368439295E+02  0.23348671659E+02  0.00000000000E+00 0. -1.
</event>
<event>
 7    1  0.2797450E-013  0.7246150E+02  0.7816164E-02  0.1226708E+00
        -11   -1    0    0    0    0  0.00000000000E+00  0.00000000000E+00  0.45593999997E+02  0.45594000000E+02  0.51100000000E-03 0.  1.
         11   -1    0    0    0    0 -0.00000000000E+00 -0.00000000000E+00 -0.45593999997E+02  0.45594000000E+02  0.51100000000E-03 0. -1.
    9900012    2    1    2    0    0  0.42305052056E+00  0.17762646492E+02  0.59153532280E+01  0.72461495095E+02  0.69999902039E+02 0.  0.
         12    1    1    2    0    0 -0.42305052056E+00 -0.17762646492E+02 -0.59153532280E+01  0.18726504905E+02  0.00000000000E+00 0. -1.
         11    1    3    3    0    0  0.42469793500E+01 -0.10433153409E+01 -0.20031268814E+02  0.20503099060E+02  0.51100000000E-03 0. -1.
        -11    1    3    3    0    0  0.21294701316E+01 -0.86863572452E+01 -0.49113206532E+01  0.10203358077E+02  0.51100000000E-03 0.  1.
        -12    1    3    3    0    0 -0.59533989610E+01  0.27492319078E+02  0.30857942695E+02  0.41755037958E+02  0.00000000000E+00 0.  1.
</event>
<event>
 7    1  0.2797450E-013  0.7246158E+02  0.7816164E-02  0.1226708E+00
        -11   -1    0    0    0    0  0.00000000000E+00  0.00000000000E+00  0.45593999997E+02  0.45594000000E+02  0.51100000000E-03 0. -1.
         11   -1    0    0    0    0 -0.00000000000E+00 -0.00000000000E+00 -0.45593999997E+02  0.45594000000E+02  0.51100000000E-03 0.  1.
    9900012    2    1    2    0    0 -0.14847145946E+01  0.13541816469E+02 -0.12848877846E+02  0.72461579289E+02  0.70000011718E+02 0.  0.
         12    1    1    2    0    0  0.14847145946E+01 -0.13541816469E+02  0.12848877846E+02  0.18726420711E+02  0.00000000000E+00 0. -1.
         11    1    3    3    0    0 -0.20346702273E+02 -0.18202961039E+02  0.71720247173E+01  0.28227185881E+02  0.51100000000E-03 0. -1.
        -11    1    3    3    0    0  0.50555452740E+01  0.23419561927E+01  0.83288795005E+00  0.56335601021E+01  0.51100000000E-03 0.  1.
        -12    1    3    3    0    0  0.13806442404E+02  0.29402821315E+02 -0.20853790514E+02  0.38600833306E+02  0.00000000000E+00 0.  1.
</event>
<event>
 7    1  0.2797450E-013  0.7246166E+02  0.7816164E-02  0.1226708E+00
        -11   -1    0    0    0    0  0.00000000000E+00  0.00000000000E+00  0.45593999997E+02  0.45594000000E+02  0.51100000000E-03 0.  1.
         11   -1    0    0    0    0 -0.00000000000E+00 -0.00000000000E+00 -0.45593999997E+02  0.45594000000E+02  0.51100000000E-03 0. -1.
    9900012    2    1    2    0    0 -0.43055228581E+01 -0.11534391516E+02  0.14110145440E+02  0.72461657082E+02  0.70000113058E+02 0.  0.
         12    1    1    2    0    0  0.43055228581E+01  0.11534391516E+02 -0.14110145440E+02  0.18726342918E+02  0.00000000000E+00 0. -1.
         11    1    3    3    0    0  0.12416086628E+02  0.17943087363E+02 -0.76872820874E+01  0.23134560671E+02  0.51100000000E-03 0. -1.
        -11    1    3    3    0    0  0.12886017035E+01  0.50740832995E+01  0.33650739352E+01  0.62233864199E+01  0.51100000000E-03 0.  1.
        -12    1    3    3    0    0 -0.18010211189E+02 -0.34551562179E+02  0.18432353592E+02  0.43103709992E+02  0.00000000000E+00 0.  1.
</event>
<event>
 7    1  0.2797450E-013  0.7246153E+02  0.7816164E-02  0.1226708E+00
        -11   -1    0    0    0    0  0.00000000000E+00  0.00000000000E+00  0.45593999997E+02  0.45594000000E+02  0.51100000000E-03 0. -1.
         11   -1    0    0    0    0 -0.00000000000E+00 -0.00000000000E+00 -0.45593999997E+02  0.45594000000E+02  0.51100000000E-03 0.  1.
    9900012    2    1    2    0    0  0.56819701914E+01  0.81904049627E+00 -0.17824847199E+02  0.72461527020E+02  0.69999943628E+02 0.  0.
         12    1    1    2    0    0 -0.56819701914E+01 -0.81904049627E+00  0.17824847199E+02  0.18726472980E+02  0.00000000000E+00 0. -1.
         11    1    3    3    0    0  0.20183353908E+02 -0.15194450272E+01 -0.17350541855E+01  0.20314696686E+02  0.51100000000E-03 0. -1.
        -11    1    3    3    0    0  0.55415164842E+01  0.16481930409E+02  0.67277098336E+01  0.18644691331E+02  0.51100000000E-03 0.  1.
        -12    1    3    3    0    0 -0.20042900200E+02 -0.14143444885E+02 -0.22817502847E+02  0.33502139004E+02  0.00000000000E+00 0.  1.
</event>
<event>
 7    1  0.2797450E-013  0.7246165E+02  0.7816164E-02  0.1226708E+00
        -11   -1    0    0    0    0  0.00000000000E+00  0.00000000000E+00  0.45593999997E+02  0.45594000000E+02  0.51100000000E-03 0.  1.
         11   -1    0    0    0    0 -0.00000000000E+00 -0.00000000000E+00 -0.45593999997E+02  0.45594000000E+02  0.51100000000E-03 0. -1.
    9900012    2    1    2    0    0 -0.11005492706E+02 -0.55640201843E+00  0.15140867336E+02  0.72461646469E+02  0.70000099231E+02 0.  0.
         12    1    1    2    0    0  0.11005492706E+02  0.55640201843E+00 -0.15140867336E+02  0.18726353531E+02  0.00000000000E+00 0. -1.
         11    1    3    3    0    0 -0.93455731121E+01 -0.23731807134E+02  0.47518505508E+01  0.25944527179E+02  0.51100000000E-03 0. -1.
        -11    1    3    3    0    0 -0.18053507965E+02  0.12845437685E+02 -0.38265679415E+01  0.22485040397E+02  0.51100000000E-03 0.  1.
        -12    1    3    3    0    0  0.16393588371E+02  0.10329967430E+02  0.14215584727E+02  0.24032078893E+02  0.00000000000E+00 0.  1.
</event>
<event>
 7    1  0.2797450E-013  0.7246158E+02  0.7816164E-02  0.1226708E+00
        -11   -1    0    0    0    0  0.00000000000E+00  0.00000000000E+00  0.45593999997E+02  0.45594000000E+02  0.51100000000E-03 0.  1.
         11   -1    0    0    0    0 -0.00000000000E+00 -0.00000000000E+00 -0.45593999997E+02  0.45594000000E+02  0.51100000000E-03 0. -1.
    9900012    2    1    2    0    0 -0.10030971060E+02 -0.10544646462E+02  0.11784267378E+02  0.72461577302E+02  0.70000009129E+02 0.  0.
         12    1    1    2    0    0  0.10030971060E+02  0.10544646462E+02 -0.11784267378E+02  0.18726422698E+02  0.00000000000E+00 0. -1.
         11    1    3    3    0    0 -0.63843573165E+01  0.13337009967E+01 -0.70307881909E+01  0.95901386611E+01  0.51100000000E-03 0. -1.
        -11    1    3    3    0    0 -0.30528859274E+02 -0.10797133518E+02  0.54740873984E+01  0.32841360719E+02  0.51100000000E-03 0.  1.
        -12    1    3    3    0    0  0.26882245530E+02 -0.10812139403E+01  0.13340968170E+02  0.30030077922E+02  0.00000000000E+00 0.  1.
</event>
<event>
 7    1  0.2797450E-013  0.7246158E+02  0.7816164E-02  0.1226708E+00
        -11   -1    0    0    0    0  0.00000000000E+00  0.00000000000E+00  0.45593999997E+02  0.45594000000E+02  0.51100000000E-03 0.  1.
         11   -1    0    0    0    0 -0.00000000000E+00 -0.00000000000E+00 -0.45593999997E+02  0.45594000000E+02  0.51100000000E-03 0. -1.
    9900012    2    1    2    0    0 -0.16554065344E+02 -0.84526644617E+01 -0.22791048886E+01  0.72461576556E+02  0.70000008157E+02 0.  0.
         12    1    1    2    0    0  0.16554065344E+02  0.84526644617E+01  0.22791048886E+01  0.18726423444E+02  0.00000000000E+00 0. -1.
         11    1    3    3    0    0 -0.13095885771E+02  0.47595939713E+01  0.56666264171E+01  0.15042161218E+02  0.51100000000E-03 0. -1.
        -11    1    3    3    0    0 -0.28300702676E+02 -0.76522877805E+00  0.69814827239E+00  0.28319653217E+02  0.51100000000E-03 0.  1.
        -12    1    3    3    0    0  0.24842523103E+02 -0.12447029655E+02 -0.86438795781E+01  0.29099762121E+02  0.00000000000E+00 0.  1.
</event>
<event>
 7    1  0.2797450E-013  0.7246121E+02  0.7816164E-02  0.1226709E+00
        -11   -1    0    0    0    0  0.00000000000E+00  0.00000000000E+00  0.45593999997E+02  0.45594000000E+02  0.51100000000E-03 0.  1.
         11   -1    0    0    0    0 -0.00000000000E+00 -0.00000000000E+00 -0.45593999997E+02  0.45594000000E+02  0.51100000000E-03 0. -1.
    9900012    2    1    2    0    0 -0.18650662251E+02 -0.85235225736E+00  0.14556162349E+01  0.72461213693E+02  0.69999535459E+02 0.  0.
         12    1    1    2    0    0  0.18650662251E+02  0.85235225736E+00 -0.14556162349E+01  0.18726786307E+02  0.00000000000E+00 0. -1.
         11    1    3    3    0    0  0.34359881264E+01  0.85473667220E+00 -0.75307547879E+01  0.83215898193E+01  0.51100000000E-03 0. -1.
        -11    1    3    3    0    0  0.97064654184E+01  0.20805483254E+02  0.10295309665E+02  0.25161021556E+02  0.51100000000E-03 0.  1.
        -12    1    3    3    0    0 -0.31793115795E+02 -0.22512572184E+02 -0.13089386425E+01  0.38978602318E+02  0.00000000000E+00 0.  1.
</event>
<event>
 7    1  0.2797450E-013  0.7246156E+02  0.7816164E-02  0.1226708E+00
        -11   -1    0    0    0    0  0.00000000000E+00  0.00000000000E+00  0.45593999997E+02  0.45594000000E+02  0.51100000000E-03 0. -1.
         11   -1    0    0    0    0 -0.00000000000E+00 -0.00000000000E+00 -0.45593999997E+02  0.45594000000E+02  0.51100000000E-03 0.  1.
    9900012    2    1    2    0    0 -0.89495956908E+01  0.16447724355E+02  0.23826612241E+00  0.72461556925E+02  0.69999982584E+02 0.  0.
         12    1    1    2    0    0  0.89495956908E+01 -0.16447724355E+02 -0.23826612241E+00  0.18726443075E+02  0.00000000000E+00 0. -1.
         11    1    3    3    0    0  0.10429017784E+02  0.10892491527E+02  0.21112417353E+01  0.15227216605E+02  0.51100000000E-03 0. -1.
        -11    1    3    3    0    0 -0.13830759029E+02 -0.92518058798E+01 -0.24508102778E+02  0.29623181960E+02  0.51100000000E-03 0.  1.
         12    1    3    3    0    0 -0.55478544452E+01  0.14807038708E+02  0.22635127165E+02  0.27611158361E+02  0.00000000000E+00 0. -1.
</event>
<event>
 7    1  0.2797450E-013  0.7246151E+02  0.7816164E-02  0.1226708E+00
        -11   -1    0    0    0    0  0.00000000000E+00  0.00000000000E+00  0.45593999997E+02  0.45594000000E+02  0.51100000000E-03 0.  1.
         11   -1    0    0    0    0 -0.00000000000E+00 -0.00000000000E+00 -0.45593999997E+02  0.45594000000E+02  0.51100000000E-03 0. -1.
    9900012    2    1    2    0    0 -0.14654185594E+01  0.18324756391E+02  0.35689149897E+01  0.72461513342E+02  0.69999925809E+02 0.  0.
         12    1    1    2    0    0  0.14654185594E+01 -0.18324756391E+02 -0.35689149897E+01  0.18726486658E+02  0.00000000000E+00 0. -1.
         11    1    3    3    0    0  0.16172560781E+02  0.22611591320E+02  0.16696710789E+02  0.32428628335E+02  0.51100000000E-03 0. -1.
        -11    1    3    3    0    0 -0.25328421583E+01  0.13107093298E+02 -0.10220797858E+02  0.16812968008E+02  0.51100000000E-03 0.  1.
         12    1    3    3    0    0 -0.15105137182E+02 -0.17393928226E+02 -0.29069979418E+01  0.23219916999E+02  0.00000000000E+00 0. -1.
</event>
<event>
 7    1  0.2797450E-013  0.7246153E+02  0.7816164E-02  0.1226708E+00
        -11   -1    0    0    0    0  0.00000000000E+00  0.00000000000E+00  0.45593999997E+02  0.45594000000E+02  0.51100000000E-03 0. -1.
         11   -1    0    0    0    0 -0.00000000000E+00 -0.00000000000E+00 -0.45593999997E+02  0.45594000000E+02  0.51100000000E-03 0.  1.
    9900012    2    1    2    0    0  0.15673015982E+02  0.60720149426E+01 -0.82563941374E+01  0.72461525703E+02  0.69999941912E+02 0.  0.
         12    1    1    2    0    0 -0.15673015982E+02 -0.60720149426E+01  0.82563941374E+01  0.18726474297E+02  0.00000000000E+00 0. -1.
         11    1    3    3    0    0  0.34399221834E+02  0.99583439204E+00  0.16120766956E+02  0.38002332512E+02  0.51100000000E-03 0. -1.
        -11    1    3    3    0    0  0.19434741432E+01 -0.23189885997E+00  0.13155556133E+00  0.19616768219E+01  0.51100000000E-03 0.  1.
        -12    1    3    3    0    0 -0.20669679995E+02  0.53080794106E+01 -0.24508716654E+02  0.32497516369E+02  0.00000000000E+00 0.  1.
</event>
<event>
 7    1  0.2797450E-013  0.7246150E+02  0.7816164E-02  0.1226708E+00
        -11   -1    0    0    0    0  0.00000000000E+00  0.00000000000E+00  0.45593999997E+02  0.45594000000E+02  0.51100000000E-03 0.  1.
         11   -1    0    0    0    0 -0.00000000000E+00 -0.00000000000E+00 -0.45593999997E+02  0.45594000000E+02  0.51100000000E-03 0. -1.
    9900012    2    1    2    0    0 -0.11081411507E+02  0.79449347627E+01  0.12835969428E+02  0.72461500580E+02  0.69999909184E+02 0.  0.
         12    1    1    2    0    0  0.11081411507E+02 -0.79449347627E+01 -0.12835969428E+02  0.18726499420E+02  0.00000000000E+00 0. -1.
         11    1    3    3    0    0 -0.11148762035E+02  0.15149303667E+01 -0.22177287913E+02  0.24868092174E+02  0.51100000000E-03 0. -1.
        -11    1    3    3    0    0  0.28543576595E+01  0.18743962558E+02  0.16210994296E+02  0.24945537203E+02  0.51100000000E-03 0.  1.
         12    1    3    3    0    0 -0.27870071316E+01 -0.12313958162E+02  0.18802263046E+02  0.22647871203E+02  0.00000000000E+00 0. -1.
</event>
<event>
 7    1  0.2797450E-013  0.7246163E+02  0.7816164E-02  0.1226708E+00
        -11   -1    0    0    0    0  0.00000000000E+00  0.00000000000E+00  0.45593999997E+02  0.45594000000E+02  0.51100000000E-03 0.  1.
         11   -1    0    0    0    0 -0.00000000000E+00 -0.00000000000E+00 -0.45593999997E+02  0.45594000000E+02  0.51100000000E-03 0. -1.
    9900012    2    1    2    0    0 -0.16994727606E+02 -0.78109179534E+01 -0.91971871488E+00  0.72461625867E+02  0.70000072393E+02 0.  0.
         12    1    1    2    0    0  0.16994727606E+02  0.78109179534E+01  0.91971871488E+00  0.18726374133E+02  0.00000000000E+00 0. -1.
         11    1    3    3    0    0 -0.27324979651E+02  0.10906746248E+02 -0.73108949826E+01  0.30316015773E+02  0.51100000000E-03 0. -1.
        -11    1    3    3    0    0 -0.13098172070E+01  0.97660894012E+01  0.56665730450E+01  0.11366713406E+02  0.51100000000E-03 0.  1.
         12    1    3    3    0    0  0.11640069252E+02 -0.28483753603E+02  0.72460322276E+00  0.30778896688E+02  0.00000000000E+00 0. -1.
</event>
<event>
 7    1  0.2797450E-013  0.7246165E+02  0.7816164E-02  0.1226708E+00
        -11   -1    0    0    0    0  0.00000000000E+00  0.00000000000E+00  0.45593999997E+02  0.45594000000E+02  0.51100000000E-03 0. -1.
         11   -1    0    0    0    0 -0.00000000000E+00 -0.00000000000E+00 -0.45593999997E+02  0.45594000000E+02  0.51100000000E-03 0.  1.
    9900012    2    1    2    0    0 -0.15805696876E+02  0.38852949433E+01 -0.92606942907E+01  0.72461654140E+02  0.70000109225E+02 0.  0.
         12    1    1    2    0    0  0.15805696876E+02 -0.38852949433E+01  0.92606942907E+01  0.18726345860E+02  0.00000000000E+00 0. -1.
         11    1    3    3    0    0 -0.32676241098E+02 -0.11336714833E+02 -0.45540027148E+01  0.34885480884E+02  0.51100000000E-03 0. -1.
        -11    1    3    3    0    0  0.16375403979E+01 -0.68650943359E+01  0.54192949420E+01  0.88983041488E+01  0.51100000000E-03 0.  1.
        -12    1    3    3    0    0  0.15233003825E+02  0.22087104112E+02 -0.10125986518E+02  0.28677869107E+02  0.00000000000E+00 0.  1.
</event>
<event>
 7    1  0.2797450E-013  0.7246155E+02  0.7816164E-02  0.1226708E+00
        -11   -1    0    0    0    0  0.00000000000E+00  0.00000000000E+00  0.45593999997E+02  0.45594000000E+02  0.51100000000E-03 0.  1.
         11   -1    0    0    0    0 -0.00000000000E+00 -0.00000000000E+00 -0.45593999997E+02  0.45594000000E+02  0.51100000000E-03 0. -1.
    9900012    2    1    2    0    0 -0.15074565262E+02  0.39193326781E+01 -0.10395964536E+02  0.72461554391E+02  0.69999979283E+02 0.  0.
         12    1    1    2    0    0  0.15074565262E+02 -0.39193326781E+01  0.10395964536E+02  0.18726445609E+02  0.00000000000E+00 0. -1.
         11    1    3    3    0    0 -0.17820323802E+02  0.18416082881E+02 -0.18480613761E+02  0.31595080857E+02  0.51100000000E-03 0. -1.
        -11    1    3    3    0    0  0.15872483205E+00 -0.42089437239E+00 -0.14294959833E+02  0.14302035608E+02  0.51100000000E-03 0.  1.
        -12    1    3    3    0    0  0.25870337081E+01 -0.14075855831E+02  0.22379609057E+02  0.26564437926E+02  0.00000000000E+00 0.  1.
</event>
<event>
 7    1  0.2797450E-013  0.7246162E+02  0.7816164E-02  0.1226708E+00
        -11   -1    0    0    0    0  0.00000000000E+00  0.00000000000E+00  0.45593999997E+02  0.45594000000E+02  0.51100000000E-03 0.  1.
         11   -1    0    0    0    0 -0.00000000000E+00 -0.00000000000E+00 -0.45593999997E+02  0.45594000000E+02  0.51100000000E-03 0. -1.
    9900012    2    1    2    0    0 -0.68461242727E+01  0.71937107903E+00  0.17415235727E+02  0.72461618936E+02  0.70000063365E+02 0.  0.
         12    1    1    2    0    0  0.68461242727E+01 -0.71937107903E+00 -0.17415235727E+02  0.18726381064E+02  0.00000000000E+00 0. -1.
         11    1    3    3    0    0 -0.13787444681E+02  0.17679890196E+02  0.12566613666E+02  0.25701982948E+02  0.51100000000E-03 0. -1.
        -11    1    3    3    0    0 -0.13869222800E+02 -0.62226931281E+01  0.14891106748E+02  0.21279621972E+02  0.51100000000E-03 0.  1.
        -12    1    3    3    0    0  0.20810543209E+02 -0.10737825988E+02 -0.10042484686E+02  0.25480014016E+02  0.00000000000E+00 0.  1.
</event>
<event>
 7    1  0.2797450E-013  0.7246153E+02  0.7816164E-02  0.1226708E+00
        -11   -1    0    0    0    0  0.00000000000E+00  0.00000000000E+00  0.45593999997E+02  0.45594000000E+02  0.51100000000E-03 0.  1.
         11   -1    0    0    0    0 -0.00000000000E+00 -0.00000000000E+00 -0.45593999997E+02  0.45594000000E+02  0.51100000000E-03 0. -1.
    9900012    2    1    2    0    0  0.48279229262E+01  0.16692783549E+02  0.69801622362E+01  0.72461534043E+02  0.69999952776E+02 0.  0.
         12    1    1    2    0    0 -0.48279229262E+01 -0.16692783549E+02 -0.69801622362E+01  0.18726465957E+02  0.00000000000E+00 0. -1.
         11    1    3    3    0    0  0.79191460672E+00 -0.25418696311E+02 -0.32420950155E+01  0.25636856890E+02  0.51100000000E-03 0. -1.
        -11    1    3    3    0    0  0.24279155425E+01  0.96756852579E+01 -0.47677332471E+01  0.11056443355E+02  0.51100000000E-03 0.  1.
        -12    1    3    3    0    0  0.16080927770E+01  0.32435794602E+02  0.14989990499E+02  0.35768233797E+02  0.00000000000E+00 0.  1.
</event>
<event>
 7    1  0.2797450E-013  0.7246153E+02  0.7816164E-02  0.1226708E+00
        -11   -1    0    0    0    0  0.00000000000E+00  0.00000000000E+00  0.45593999997E+02  0.45594000000E+02  0.51100000000E-03 0. -1.
         11   -1    0    0    0    0 -0.00000000000E+00 -0.00000000000E+00 -0.45593999997E+02  0.45594000000E+02  0.51100000000E-03 0.  1.
    9900012    2    1    2    0    0 -0.87850092396E+01  0.55195974510E+00 -0.16528753363E+02  0.72461528505E+02  0.69999945562E+02 0.  0.
         12    1    1    2    0    0  0.87850092396E+01 -0.55195974510E+00  0.16528753363E+02  0.18726471495E+02  0.00000000000E+00 0. -1.
         11    1    3    3    0    0  0.10634453488E+01 -0.69574582577E+01 -0.10070727632E+02  0.12286443615E+02  0.51100000000E-03 0. -1.
        -11    1    3    3    0    0 -0.24183433451E+02  0.18898646971E+00 -0.25565288388E+02  0.35191733973E+02  0.51100000000E-03 0.  1.
         12    1    3    3    0    0  0.14334978862E+02  0.73204315331E+01  0.19107262657E+02  0.24983350917E+02  0.00000000000E+00 0. -1.
</event>
<event>
 7    1  0.2797450E-013  0.7246157E+02  0.7816164E-02  0.1226708E+00
        -11   -1    0    0    0    0  0.00000000000E+00  0.00000000000E+00  0.45593999997E+02  0.45594000000E+02  0.51100000000E-03 0.  1.
         11   -1    0    0    0    0 -0.00000000000E+00 -0.00000000000E+00 -0.45593999997E+02  0.45594000000E+02  0.51100000000E-03 0. -1.
    9900012    2    1    2    0    0 -0.16351403032E+02 -0.67968620892E+01 -0.60920798849E+01  0.72461570743E+02  0.70000000585E+02 0.  0.
         12    1    1    2    0    0  0.16351403032E+02  0.67968620892E+01  0.60920798849E+01  0.18726429257E+02  0.00000000000E+00 0. -1.
         11    1    3    3    0    0  0.14379545744E+01 -0.33383692278E+02 -0.33523971769E+01  0.33582394056E+02  0.51100000000E-03 0. -1.
        -11    1    3    3    0    0 -0.34947945588E+01 -0.31438781637E+01 -0.35339045587E+01  0.58809897643E+01  0.51100000000E-03 0.  1.
        -12    1    3    3    0    0 -0.14294563048E+02  0.29730708352E+02  0.79422185068E+00  0.32998186923E+02  0.00000000000E+00 0.  1.
</event>
<event>
 7    1  0.2797450E-013  0.7246160E+02  0.7816164E-02  0.1226708E+00
        -11   -1    0    0    0    0  0.00000000000E+00  0.00000000000E+00  0.45593999997E+02  0.45594000000E+02  0.51100000000E-03 0.  1.
         11   -1    0    0    0    0 -0.00000000000E+00 -0.00000000000E+00 -0.45593999997E+02  0.45594000000E+02  0.51100000000E-03 0. -1.
    9900012    2    1    2    0    0  0.60893027125E+01 -0.16270971373E+02  0.69895483496E+01  0.72461604108E+02  0.70000044049E+02 0.  0.
         12    1    1    2    0    0 -0.60893027125E+01  0.16270971373E+02 -0.69895483496E+01  0.18726395892E+02  0.00000000000E+00 0. -1.
         11    1    3    3    0    0 -0.13849525313E+02 -0.93031334899E+01 -0.16692118241E+02  0.23600518125E+02  0.51100000000E-03 0. -1.
        -11    1    3    3    0    0  0.20424445203E+02  0.94356927262E+01  0.33720990093E+01  0.22749973870E+02  0.51100000000E-03 0.  1.
        -12    1    3    3    0    0 -0.48561717803E+00 -0.16403530610E+02  0.20309567581E+02  0.26111112114E+02  0.00000000000E+00 0.  1.
</event>
<event>
 7    1  0.2797450E-013  0.7246138E+02  0.7816164E-02  0.1226709E+00
        -11   -1    0    0    0    0  0.00000000000E+00  0.00000000000E+00  0.45593999997E+02  0.45594000000E+02  0.51100000000E-03 0.  1.
         11   -1    0    0    0    0 -0.00000000000E+00 -0.00000000000E+00 -0.45593999997E+02  0.45594000000E+02  0.51100000000E-03 0. -1.
    9900012    2    1    2    0    0 -0.37716334123E+01  0.16725507059E+02  0.75311576503E+01  0.72461384168E+02  0.69999757535E+02 0.  0.
         12    1    1    2    0    0  0.37716334123E+01 -0.16725507059E+02 -0.75311576503E+01  0.18726615832E+02  0.00000000000E+00 0. -1.
         11    1    3    3    0    0  0.22055345124E+02  0.14401454246E+02 -0.12723778941E+01  0.26371558139E+02  0.51100000000E-03 0. -1.
        -11    1    3    3    0    0  0.18140214481E+01 -0.16324175699E+00 -0.11537876205E+02  0.11680749517E+02  0.51100000000E-03 0.  1.
        -12    1    3    3    0    0 -0.27640999984E+02  0.24872945705E+01  0.20341411750E+02  0.34409076512E+02  0.00000000000E+00 0.  1.
</event>
<event>
 7    1  0.2797450E-013  0.7246156E+02  0.7816164E-02  0.1226708E+00
        -11   -1    0    0    0    0  0.00000000000E+00  0.00000000000E+00  0.45593999997E+02  0.45594000000E+02  0.51100000000E-03 0.  1.
         11   -1    0    0    0    0 -0.00000000000E+00 -0.00000000000E+00 -0.45593999997E+02  0.45594000000E+02  0.51100000000E-03 0. -1.
    9900012    2    1    2    0    0  0.79412518365E+01 -0.66797313431E+00  0.16946084112E+02  0.72461563190E+02  0.69999990746E+02 0.  0.
         12    1    1    2    0    0 -0.79412518365E+01  0.66797313431E+00 -0.16946084112E+02  0.18726436810E+02  0.00000000000E+00 0. -1.
         11    1    3    3    0    0 -0.20412378973E+01  0.81865980789E+01  0.46950652453E+01  0.96556034600E+01  0.51100000000E-03 0. -1.
        -11    1    3    3    0    0  0.79788756725E+01  0.23619309560E+02  0.16642773521E+02  0.29975258995E+02  0.51100000000E-03 0.  1.
         12    1    3    3    0    0  0.20036140613E+01 -0.32473880774E+02 -0.43917546539E+01  0.32830700735E+02  0.00000000000E+00 0. -1.
</event>
<event>
 7    1  0.2797450E-013  0.7246163E+02  0.7816164E-02  0.1226708E+00
        -11   -1    0    0    0    0  0.00000000000E+00  0.00000000000E+00  0.45593999997E+02  0.45594000000E+02  0.51100000000E-03 0.  1.
         11   -1    0    0    0    0 -0.00000000000E+00 -0.00000000000E+00 -0.45593999997E+02  0.45594000000E+02  0.51100000000E-03 0. -1.
    9900012    2    1    2    0    0 -0.35139707049E+01 -0.18897894051E+01  0.18296384727E+02  0.72461628537E+02  0.70000075872E+02 0.  0.
         12    1    1    2    0    0  0.35139707049E+01  0.18897894051E+01 -0.18296384727E+02  0.18726371463E+02  0.00000000000E+00 0. -1.
         11    1    3    3    0    0 -0.11145374800E+02  0.20432470975E+01  0.20253097501E+02  0.23207373759E+02  0.51100000000E-03 0. -1.
        -11    1    3    3    0    0  0.69233564270E+01 -0.18760609245E+02  0.16246857944E+02  0.25765358852E+02  0.51100000000E-03 0.  1.
         12    1    3    3    0    0  0.70804766838E+00  0.14827572742E+02 -0.18203570718E+02  0.23488895926E+02  0.00000000000E+00 0. -1.
</event>
<event>
 7    1  0.2797450E-013  0.7246155E+02  0.7816164E-02  0.1226708E+00
        -11   -1    0    0    0    0  0.00000000000E+00  0.00000000000E+00  0.45593999997E+02  0.45594000000E+02  0.51100000000E-03 0.  1.
         11   -1    0    0    0    0 -0.00000000000E+00 -0.00000000000E+00 -0.45593999997E+02  0.45594000000E+02  0.51100000000E-03 0. -1.
    9900012    2    1    2    0    0 -0.10605485947E+02 -0.36987420357E+01  0.14984089075E+02  0.72461549449E+02  0.69999972846E+02 0.  0.
         12    1    1    2    0    0  0.10605485947E+02  0.36987420357E+01 -0.14984089075E+02  0.18726450551E+02  0.00000000000E+00 0. -1.
         11    1    3    3    0    0 -0.27127438133E+01 -0.48768753755E+01  0.35703292716E+01  0.66249636824E+01  0.51100000000E-03 0. -1.
        -11    1    3    3    0    0 -0.15839882551E+02  0.28085536253E+02  0.18123912994E+02  0.36988855731E+02  0.51100000000E-03 0.  1.
         12    1    3    3    0    0  0.79471404169E+01 -0.26907402914E+02 -0.67101531905E+01  0.28847730035E+02  0.00000000000E+00 0. -1.
</event>
<event>
 7    1  0.2797450E-013  0.7246158E+02  0.7816164E-02  0.1226708E+00
        -11   -1    0    0    0    0  0.00000000000E+00  0.00000000000E+00  0.45593999997E+02  0.45594000000E+02  0.51100000000E-03 0.  1.
         11   -1    0    0    0    0 -0.00000000000E+00 -0.00000000000E+00 -0.45593999997E+02  0.45594000000E+02  0.51100000000E-03 0. -1.
    9900012    2    1    2    0    0  0.13799785651E+02 -0.11979449739E+02  0.40911328800E+01  0.72461583677E+02  0.70000017433E+02 0.  0.
         12    1    1    2    0    0 -0.13799785651E+02  0.11979449739E+02 -0.40911328800E+01  0.18726416323E+02  0.00000000000E+00 0. -1.
         11    1    3    3    0    0  0.13315387798E+02 -0.22392518642E+02 -0.24103665605E+02  0.35492409599E+02  0.51100000000E-03 0. -1.
        -11    1    3    3    0    0  0.10976632639E+02  0.47106275219E+01  0.13248629394E+02  0.17838235811E+02  0.51100000000E-03 0.  1.
        -12    1    3    3    0    0 -0.10492234786E+02  0.57024413811E+01  0.14946169090E+02  0.19130938267E+02  0.00000000000E+00 0.  1.
</event>
<event>
 7    1  0.2797450E-013  0.7246154E+02  0.7816164E-02  0.1226708E+00
        -11   -1    0    0    0    0  0.00000000000E+00  0.00000000000E+00  0.45593999997E+02  0.45594000000E+02  0.51100000000E-03 0.  1.
         11   -1    0    0    0    0 -0.00000000000E+00 -0.00000000000E+00 -0.45593999997E+02  0.45594000000E+02  0.51100000000E-03 0. -1.
    9900012    2    1    2    0    0  0.11670128940E+02 -0.11289033517E+02  0.93298575584E+01  0.72461536658E+02  0.69999956183E+02 0.  0.
         12    1    1    2    0    0 -0.11670128940E+02  0.11289033517E+02 -0.93298575584E+01  0.18726463342E+02  0.00000000000E+00 0. -1.
         11    1    3    3    0    0  0.19597039472E+01  0.70320111131E+01  0.30830849700E+02  0.31683290759E+02  0.51100000000E-03 0.  1.
        -11    1    3    3    0    0 -0.55253167804E+01  0.22403604046E+01 -0.12146865024E+02  0.13531247926E+02  0.51100000000E-03 0. -1.
        -12    1    3    3    0    0  0.15235741773E+02 -0.20561405035E+02 -0.93541271172E+01  0.27246997973E+02  0.00000000000E+00 0.  1.
</event>
<event>
 7    1  0.2797450E-013  0.7246160E+02  0.7816164E-02  0.1226708E+00
        -11   -1    0    0    0    0  0.00000000000E+00  0.00000000000E+00  0.45593999997E+02  0.45594000000E+02  0.51100000000E-03 0. -1.
         11   -1    0    0    0    0 -0.00000000000E+00 -0.00000000000E+00 -0.45593999997E+02  0.45594000000E+02  0.51100000000E-03 0.  1.
    9900012    2    1    2    0    0  0.10034128676E+01  0.59861080912E+01 -0.17715464697E+02  0.72461601070E+02  0.70000040091E+02 0.  0.
         12    1    1    2    0    0 -0.10034128676E+01 -0.59861080912E+01  0.17715464697E+02  0.18726398930E+02  0.00000000000E+00 0. -1.
         11    1    3    3    0    0 -0.11884524481E+01  0.33992208779E+02 -0.26732298479E+01  0.34117866800E+02  0.51100000000E-03 0. -1.
        -11    1    3    3    0    0  0.83754885844E+01 -0.22012910796E+01 -0.26422393499E+01  0.90540554719E+01  0.51100000000E-03 0.  1.
        -12    1    3    3    0    0 -0.61836232687E+01 -0.25804809609E+02 -0.12399995499E+02  0.29289678797E+02  0.00000000000E+00 0.  1.
</event>
<event>
 7    1  0.2797450E-013  0.7246187E+02  0.7816164E-02  0.1226707E+00
        -11   -1    0    0    0    0  0.00000000000E+00  0.00000000000E+00  0.45593999997E+02  0.45594000000E+02  0.51100000000E-03 0. -1.
         11   -1    0    0    0    0 -0.00000000000E+00 -0.00000000000E+00 -0.45593999997E+02  0.45594000000E+02  0.51100000000E-03 0.  1.
    9900012    2    1    2    0    0  0.62484706430E+00 -0.71809284914E+01 -0.17283278423E+02  0.72461871705E+02  0.70000392643E+02 0.  0.
         12    1    1    2    0    0 -0.62484706430E+00  0.71809284914E+01  0.17283278423E+02  0.18726128295E+02  0.00000000000E+00 0. -1.
         11    1    3    3    0    0  0.12501777264E+02  0.56050409699E+01  0.83286375922E+00  0.13726054835E+02  0.51100000000E-03 0. -1.
        -11    1    3    3    0    0 -0.20621098699E+02  0.82081589669E+01  0.84643051647E+01  0.23753905939E+02  0.51100000000E-03 0.  1.
        -12    1    3    3    0    0  0.87441684993E+01 -0.20994128428E+02 -0.26580447347E+02  0.34981910931E+02  0.00000000000E+00 0.  1.
</event>
<event>
 7    1  0.2797450E-013  0.7246141E+02  0.7816164E-02  0.1226708E+00
        -11   -1    0    0    0    0  0.00000000000E+00  0.00000000000E+00  0.45593999997E+02  0.45594000000E+02  0.51100000000E-03 0. -1.
         11   -1    0    0    0    0 -0.00000000000E+00 -0.00000000000E+00 -0.45593999997E+02  0.45594000000E+02  0.51100000000E-03 0.  1.
    9900012    2    1    2    0    0  0.15319732657E+02 -0.75717336507E+01 -0.76589815026E+01  0.72461405093E+02  0.69999784794E+02 0.  0.
         12    1    1    2    0    0 -0.15319732657E+02  0.75717336507E+01  0.76589815026E+01  0.18726594907E+02  0.00000000000E+00 0. -1.
         11    1    3    3    0    0 -0.35595268239E+01  0.12949423729E+02 -0.21379280077E+02  0.25247404282E+02  0.51100000000E-03 0. -1.
        -11    1    3    3    0    0  0.48940409921E+01 -0.13609066545E+02 -0.10870632445E+02  0.18092235337E+02  0.51100000000E-03 0.  1.
         12    1    3    3    0    0  0.13985218489E+02 -0.69120908341E+01  0.24590931020E+02  0.29121765474E+02  0.00000000000E+00 0. -1.
</event>
<event>
 7    1  0.4396501E-013  0.7246169E+02  0.7816164E-02  0.1226708E+00
        -11   -1    0    0    0    0  0.00000000000E+00  0.00000000000E+00  0.45593999997E+02  0.45594000000E+02  0.51100000000E-03 0. -1.
         11   -1    0    0    0    0 -0.00000000000E+00 -0.00000000000E+00 -0.45593999997E+02  0.45594000000E+02  0.51100000000E-03 0.  1.
    9900012    2    1    2    0    0 -0.19996900204E+01 -0.69938669375E+01 -0.17255777126E+02  0.72461687519E+02  0.70000152706E+02 0.  0.
         12    1    1    2    0    0  0.19996900204E+01  0.69938669375E+01  0.17255777126E+02  0.18726312481E+02  0.00000000000E+00 0. -1.
         11    1    3    3    0    0  0.23008471397E+02 -0.34500663104E+01 -0.61347241602E+00  0.23273784871E+02  0.51100000000E-03 0. -1.
        -11    1    3    3    0    0 -0.29853782185E+01 -0.13043298725E+02 -0.20912148645E+02  0.24826560091E+02  0.51100000000E-03 0.  1.
        -12    1    3    3    0    0 -0.22022783199E+02  0.94994980975E+01  0.42698439349E+01  0.24361342556E+02  0.00000000000E+00 0.  1.
</event>
<event>
 7    1  0.2797450E-013  0.7246137E+02  0.7816164E-02  0.1226709E+00
        -11   -1    0    0    0    0  0.00000000000E+00  0.00000000000E+00  0.45593999997E+02  0.45594000000E+02  0.51100000000E-03 0.  1.
         11   -1    0    0    0    0 -0.00000000000E+00 -0.00000000000E+00 -0.45593999997E+02  0.45594000000E+02  0.51100000000E-03 0. -1.
    9900012    2    1    2    0    0  0.14323682868E+02 -0.16729438465E+01  0.11946548588E+02  0.72461370426E+02  0.69999739634E+02 0.  0.
         12    1    1    2    0    0 -0.14323682868E+02  0.16729438465E+01 -0.11946548588E+02  0.18726629574E+02  0.00000000000E+00 0. -1.
         11    1    3    3    0    0 -0.45181436582E+01  0.92957019261E+01 -0.97486024205E+01  0.14207707269E+02  0.51100000000E-03 0. -1.
        -11    1    3    3    0    0 -0.12397742810E+02 -0.13901205153E+02 -0.22798693453E+01  0.18765535856E+02  0.51100000000E-03 0.  1.
        -12    1    3    3    0    0  0.31239569336E+02  0.29325593800E+01  0.23975020354E+02  0.39488127302E+02  0.00000000000E+00 0.  1.
</event>
<event>
 7    1  0.2797450E-013  0.7246150E+02  0.7816164E-02  0.1226708E+00
        -11   -1    0    0    0    0  0.00000000000E+00  0.00000000000E+00  0.45593999997E+02  0.45594000000E+02  0.51100000000E-03 0.  1.
         11   -1    0    0    0    0 -0.00000000000E+00 -0.00000000000E+00 -0.45593999997E+02  0.45594000000E+02  0.51100000000E-03 0. -1.
    9900012    2    1    2    0    0 -0.72442575403E+01 -0.16529552230E+02  0.49976283301E+01  0.72461503981E+02  0.69999913614E+02 0.  0.
         12    1    1    2    0    0  0.72442575403E+01  0.16529552230E+02 -0.49976283301E+01  0.18726496019E+02  0.00000000000E+00 0. -1.
         11    1    3    3    0    0 -0.36853861548E+01 -0.94820813436E+01 -0.22535252259E+01  0.10419707958E+02  0.51100000000E-03 0. -1.
        -11    1    3    3    0    0  0.23902598704E+01  0.24918335527E+02 -0.77897801711E+01  0.26216740130E+02  0.51100000000E-03 0.  1.
         12    1    3    3    0    0 -0.59491312559E+01 -0.31965806413E+02  0.15040933727E+02  0.35825055893E+02  0.00000000000E+00 0. -1.
</event>
<event>
 7    1  0.2797450E-013  0.7246156E+02  0.7816164E-02  0.1226708E+00
        -11   -1    0    0    0    0  0.00000000000E+00  0.00000000000E+00  0.45593999997E+02  0.45594000000E+02  0.51100000000E-03 0.  1.
         11   -1    0    0    0    0 -0.00000000000E+00 -0.00000000000E+00 -0.45593999997E+02  0.45594000000E+02  0.51100000000E-03 0. -1.
    9900012    2    1    2    0    0  0.45455839811E+01 -0.18161867525E+02  0.40491054375E+00  0.72461555643E+02  0.69999980914E+02 0.  0.
         12    1    1    2    0    0 -0.45455839811E+01  0.18161867525E+02 -0.40491054375E+00  0.18726444357E+02  0.00000000000E+00 0. -1.
         11    1    3    3    0    0 -0.10074431767E+01 -0.23186540953E+01  0.93072364412E+01  0.96444672741E+01  0.51100000000E-03 0. -1.
        -11    1    3    3    0    0 -0.17425186487E+02 -0.18390609631E+02  0.15098391394E+02  0.29492593471E+02  0.51100000000E-03 0.  1.
         12    1    3    3    0    0  0.22978213645E+02  0.25473962021E+01 -0.24000717291E+02  0.33324494898E+02  0.00000000000E+00 0. -1.
</event>
<event>
 7    1  0.2797450E-013  0.7246155E+02  0.7816164E-02  0.1226708E+00
        -11   -1    0    0    0    0  0.00000000000E+00  0.00000000000E+00  0.45593999997E+02  0.45594000000E+02  0.51100000000E-03 0.  1.
         11   -1    0    0    0    0 -0.00000000000E+00 -0.00000000000E+00 -0.45593999997E+02  0.45594000000E+02  0.51100000000E-03 0. -1.
    9900012    2    1    2    0    0 -0.16854729949E+00 -0.14566747376E+02  0.11766965644E+02  0.72461547646E+02  0.69999970496E+02 0.  0.
         12    1    1    2    0    0  0.16854729949E+00  0.14566747376E+02 -0.11766965644E+02  0.18726452354E+02  0.00000000000E+00 0. -1.
         11    1    3    3    0    0  0.41690989819E+01 -0.62762369475E+01  0.59902333595E+01  0.96257691903E+01  0.51100000000E-03 0. -1.
        -11    1    3    3    0    0  0.24746925887E+02 -0.19378040398E+02  0.22816584279E+01  0.31513881956E+02  0.51100000000E-03 0.  1.
         12    1    3    3    0    0 -0.29084572168E+02  0.11087529970E+02  0.34950738565E+01  0.31321896499E+02  0.00000000000E+00 0. -1.
</event>
<event>
 7    1  0.2797450E-013  0.7246142E+02  0.7816164E-02  0.1226708E+00
        -11   -1    0    0    0    0  0.00000000000E+00  0.00000000000E+00  0.45593999997E+02  0.45594000000E+02  0.51100000000E-03 0. -1.
         11   -1    0    0    0    0 -0.00000000000E+00 -0.00000000000E+00 -0.45593999997E+02  0.45594000000E+02  0.51100000000E-03 0.  1.
    9900012    2    1    2    0    0 -0.15806147749E+02 -0.42978247396E+01  0.90763016297E+01  0.72461418480E+02  0.69999802233E+02 0.  0.
         12    1    1    2    0    0  0.15806147749E+02  0.42978247396E+01 -0.90763016297E+01  0.18726581520E+02  0.00000000000E+00 0. -1.
         11    1    3    3    0    0 -0.19917531158E+01  0.27707440801E+01  0.33202131486E+00  0.34284605359E+01  0.51100000000E-03 0. -1.
        -11    1    3    3    0    0 -0.59802816696E+01  0.33851797749E+01 -0.28629080635E+02  0.29442273506E+02  0.51100000000E-03 0.  1.
         12    1    3    3    0    0 -0.78341129639E+01 -0.10453748595E+02  0.37373360949E+02  0.39590684438E+02  0.00000000000E+00 0. -1.
</event>
<event>
 7    1  0.2797450E-013  0.7246138E+02  0.7816164E-02  0.1226709E+00
        -11   -1    0    0    0    0  0.00000000000E+00  0.00000000000E+00  0.45593999997E+02  0.45594000000E+02  0.51100000000E-03 0. -1.
         11   -1    0    0    0    0 -0.00000000000E+00 -0.00000000000E+00 -0.45593999997E+02  0.45594000000E+02  0.51100000000E-03 0.  1.
    9900012    2    1    2    0    0  0.50631304503E+01 -0.78684463526E+00 -0.18011995317E+02  0.72461377514E+02  0.69999748867E+02 0.  0.
         12    1    1    2    0    0 -0.50631304503E+01  0.78684463526E+00  0.18011995317E+02  0.18726622486E+02  0.00000000000E+00 0. -1.
         11    1    3    3    0    0  0.74621374806E+01 -0.60627496796E+01  0.11437482156E+02  0.14941767893E+02  0.51100000000E-03 0. -1.
        -11    1    3    3    0    0 -0.33689285889E+01 -0.12686260075E+02  0.84203344699E+01  0.15594643548E+02  0.51100000000E-03 0.  1.
        -12    1    3    3    0    0  0.96992155866E+00  0.17962165120E+02 -0.37869811943E+02  0.41924966073E+02  0.00000000000E+00 0.  1.
</event>
<event>
 7    1  0.2797450E-013  0.7246162E+02  0.7816164E-02  0.1226708E+00
        -11   -1    0    0    0    0  0.00000000000E+00  0.00000000000E+00  0.45593999997E+02  0.45594000000E+02  0.51100000000E-03 0. -1.
         11   -1    0    0    0    0 -0.00000000000E+00 -0.00000000000E+00 -0.45593999997E+02  0.45594000000E+02  0.51100000000E-03 0.  1.
    9900012    2    1    2    0    0 -0.17041799660E+02  0.56479161395E+01 -0.53249950383E+01  0.72461615818E+02  0.70000059303E+02 0.  0.
         12    1    1    2    0    0  0.17041799660E+02 -0.56479161395E+01  0.53249950383E+01  0.18726384182E+02  0.00000000000E+00 0. -1.
         11    1    3    3    0    0  0.10808459810E+01  0.26764675433E+02  0.87207990564E+01  0.28170346387E+02  0.51100000000E-03 0. -1.
        -11    1    3    3    0    0 -0.57992484805E+00  0.22143136448E+01  0.76087705419E+01  0.79456206282E+01  0.51100000000E-03 0.  1.
        -12    1    3    3    0    0 -0.17542720793E+02 -0.23331072939E+02 -0.21654564637E+02  0.36345648803E+02  0.00000000000E+00 0.  1.
</event>
<event>
 7    1  0.2797450E-013  0.7246163E+02  0.7816164E-02  0.1226708E+00
        -11   -1    0    0    0    0  0.00000000000E+00  0.00000000000E+00  0.45593999997E+02  0.45594000000E+02  0.51100000000E-03 0. -1.
         11   -1    0    0    0    0 -0.00000000000E+00 -0.00000000000E+00 -0.45593999997E+02  0.45594000000E+02  0.51100000000E-03 0.  1.
    9900012    2    1    2    0    0 -0.11108316460E+02  0.39470589037E+01 -0.14550016020E+02  0.72461629963E+02  0.70000077730E+02 0.  0.
         12    1    1    2    0    0  0.11108316460E+02 -0.39470589037E+01  0.14550016020E+02  0.18726370037E+02  0.00000000000E+00 0. -1.
         11    1    3    3    0    0  0.74106227381E+01 -0.11109720628E+02 -0.92557162788E+01  0.16248430875E+02  0.51100000000E-03 0. -1.
        -11    1    3    3    0    0  0.16119599254E+02  0.61735293616E+01 -0.10306477186E+02  0.20104164174E+02  0.51100000000E-03 0.  1.
         12    1    3    3    0    0 -0.34638538453E+02  0.88832501700E+01  0.50121774450E+01  0.36109034914E+02  0.00000000000E+00 0. -1.
</event>
<event>
 7    1  0.2797450E-013  0.7246157E+02  0.7816164E-02  0.1226708E+00
        -11   -1    0    0    0    0  0.00000000000E+00  0.00000000000E+00  0.45593999997E+02  0.45594000000E+02  0.51100000000E-03 0. -1.
         11   -1    0    0    0    0 -0.00000000000E+00 -0.00000000000E+00 -0.45593999997E+02  0.45594000000E+02  0.51100000000E-03 0.  1.
    9900012    2    1    2    0    0 -0.32167949602E+01  0.53193741200E+01 -0.17664534756E+02  0.72461566838E+02  0.69999995497E+02 0.  0.
         12    1    1    2    0    0  0.32167949602E+01 -0.53193741200E+01  0.17664534756E+02  0.18726433162E+02  0.00000000000E+00 0. -1.
         11    1    3    3    0    0 -0.16140477203E+02  0.14142738021E+02 -0.28366639211E+01  0.21646678857E+02  0.51100000000E-03 0.  1.
        -11    1    3    3    0    0 -0.14058328899E+02 -0.15331266760E+02 -0.52538266268E+01  0.21454301349E+02  0.51100000000E-03 0. -1.
         12    1    3    3    0    0  0.26982011142E+02  0.65079028588E+01 -0.95740442080E+01  0.29360586632E+02  0.00000000000E+00 0. -1.
</event>
<event>
 7    1  0.2797450E-013  0.7246154E+02  0.7816164E-02  0.1226708E+00
        -11   -1    0    0    0    0  0.00000000000E+00  0.00000000000E+00  0.45593999997E+02  0.45594000000E+02  0.51100000000E-03 0. -1.
         11   -1    0    0    0    0 -0.00000000000E+00 -0.00000000000E+00 -0.45593999997E+02  0.45594000000E+02  0.51100000000E-03 0.  1.
    9900012    2    1    2    0    0  0.12234180177E+01  0.82734223454E+01 -0.16755123503E+02  0.72461536572E+02  0.69999956070E+02 0.  0.
         12    1    1    2    0    0 -0.12234180177E+01 -0.82734223454E+01  0.16755123503E+02  0.18726463428E+02  0.00000000000E+00 0. -1.
         11    1    3    3    0    0  0.35532843026E+01 -0.12119951013E+02 -0.24826439364E+02  0.27854463442E+02  0.51100000000E-03 0. -1.
        -11    1    3    3    0    0 -0.60185879952E+01  0.18328925901E+02 -0.12904286066E+02  0.23209772193E+02  0.51100000000E-03 0.  1.
        -12    1    3    3    0    0  0.36887217103E+01  0.20644474571E+01  0.20975601927E+02  0.21397300937E+02  0.00000000000E+00 0.  1.
</event>
<event>
 7    1  0.2797450E-013  0.7246155E+02  0.7816164E-02  0.1226708E+00
        -11   -1    0    0    0    0  0.00000000000E+00  0.00000000000E+00  0.45593999997E+02  0.45594000000E+02  0.51100000000E-03 0. -1.
         11   -1    0    0    0    0 -0.00000000000E+00 -0.00000000000E+00 -0.45593999997E+02  0.45594000000E+02  0.51100000000E-03 0.  1.
    9900012    2    1    2    0    0 -0.13676698914E+02 -0.53275021269E+01 -0.11629510339E+02  0.72461551249E+02  0.69999975191E+02 0.  0.
         12    1    1    2    0    0  0.13676698914E+02  0.53275021269E+01  0.11629510339E+02  0.18726448751E+02  0.00000000000E+00 0. -1.
         11    1    3    3    0    0 -0.15970415839E+01  0.90064743638E+01 -0.11897665290E+02  0.15007383580E+02  0.51100000000E-03 0. -1.
        -11    1    3    3    0    0 -0.51938156557E+01  0.10606934822E+01 -0.25837108029E+02  0.26375309350E+02  0.51100000000E-03 0.  1.
         12    1    3    3    0    0 -0.68858416742E+01 -0.15394669973E+02  0.26105262981E+02  0.31078858320E+02  0.00000000000E+00 0. -1.
</event>
<event>
 7    1  0.2797450E-013  0.7246158E+02  0.7816164E-02  0.1226708E+00
        -11   -1    0    0    0    0  0.00000000000E+00  0.00000000000E+00  0.45593999997E+02  0.45594000000E+02  0.51100000000E-03 0.  1.
         11   -1    0    0    0    0 -0.00000000000E+00 -0.00000000000E+00 -0.45593999997E+02  0.45594000000E+02  0.51100000000E-03 0. -1.
    9900012    2    1    2    0    0 -0.31096470653E+00  0.38054848527E+01  0.18333045788E+02  0.72461575304E+02  0.70000006527E+02 0.  0.
         12    1    1    2    0    0  0.31096470653E+00 -0.38054848527E+01 -0.18333045788E+02  0.18726424696E+02  0.00000000000E+00 0. -1.
         11    1    3    3    0    0  0.62144372989E+01 -0.72355024337E+01 -0.24215136456E+02  0.26025844084E+02  0.51100000000E-03 0. -1.
        -11    1    3    3    0    0 -0.13027887604E+01 -0.15024969122E+01  0.24456318831E+00  0.20036384254E+01  0.51100000000E-03 0.  1.
        -12    1    3    3    0    0 -0.52226132450E+01  0.12543484199E+02  0.42303619056E+02  0.44432092795E+02  0.00000000000E+00 0.  1.
</event>
<event>
 7    1  0.2797450E-013  0.7246137E+02  0.7816164E-02  0.1226709E+00
        -11   -1    0    0    0    0  0.00000000000E+00  0.00000000000E+00  0.45593999997E+02  0.45594000000E+02  0.51100000000E-03 0.  1.
         11   -1    0    0    0    0 -0.00000000000E+00 -0.00000000000E+00 -0.45593999997E+02  0.45594000000E+02  0.51100000000E-03 0. -1.
    9900012    2    1    2    0    0 -0.36764275260E+01  0.18116283361E+02 -0.29951167137E+01  0.72461372800E+02  0.69999742727E+02 0.  0.
         12    1    1    2    0    0  0.36764275260E+01 -0.18116283361E+02  0.29951167137E+01  0.18726627200E+02  0.00000000000E+00 0. -1.
         11    1    3    3    0    0  0.15822501215E+02 -0.11895214419E+02 -0.16765066225E+02  0.25940607483E+02  0.51100000000E-03 0. -1.
        -11    1    3    3    0    0  0.32675716951E+01  0.70900494622E+01 -0.48907297301E+01  0.92122236031E+01  0.51100000000E-03 0.  1.
        -12    1    3    3    0    0 -0.22766500436E+02  0.22921448318E+02  0.18660679241E+02  0.37308541714E+02  0.00000000000E+00 0.  1.
</event>
<event>
 7    1  0.2797450E-013  0.7246164E+02  0.7816164E-02  0.1226708E+00
        -11   -1    0    0    0    0  0.00000000000E+00  0.00000000000E+00  0.45593999997E+02  0.45594000000E+02  0.51100000000E-03 0. -1.
         11   -1    0    0    0    0 -0.00000000000E+00 -0.00000000000E+00 -0.45593999997E+02  0.45594000000E+02  0.51100000000E-03 0.  1.
    9900012    2    1    2    0    0 -0.12427175122E+02 -0.83817132207E+00 -0.13983532845E+02  0.72461644148E+02  0.70000096208E+02 0.  0.
         12    1    1    2    0    0  0.12427175122E+02  0.83817132207E+00  0.13983532845E+02  0.18726355852E+02  0.00000000000E+00 0. -1.
         11    1    3    3    0    0 -0.25593239528E+02  0.19726992400E+02 -0.21583062530E+01  0.32385589771E+02  0.51100000000E-03 0. -1.
        -11    1    3    3    0    0  0.35288337782E+01 -0.93352709754E+01 -0.20587029518E+02  0.22878499440E+02  0.51100000000E-03 0.  1.
        -12    1    3    3    0    0  0.96372306279E+01 -0.11229892747E+02  0.87618029258E+01  0.17197554937E+02  0.00000000000E+00 0.  1.
</event>
<event>
 7    1  0.2797450E-013  0.7246190E+02  0.7816164E-02  0.1226707E+00
        -11   -1    0    0    0    0  0.00000000000E+00  0.00000000000E+00  0.45593999997E+02  0.45594000000E+02  0.51100000000E-03 0.  1.
         11   -1    0    0    0    0 -0.00000000000E+00 -0.00000000000E+00 -0.45593999997E+02  0.45594000000E+02  0.51100000000E-03 0. -1.
    9900012    2    1    2    0    0 -0.10114089203E+02 -0.69178394428E+01  0.14160354661E+02  0.72461896639E+02  0.70000425123E+02 0.  0.
         12    1    1    2    0    0  0.10114089203E+02  0.69178394428E+01 -0.14160354661E+02  0.18726103361E+02  0.00000000000E+00 0. -1.
         11    1    3    3    0    0  0.30020626662E+01  0.67196295358E+01  0.90337688909E+01  0.11652243646E+02  0.51100000000E-03 0. -1.
        -11    1    3    3    0    0 -0.11072925393E+02 -0.36127701542E+02  0.57313722177E+01  0.38218701224E+02  0.51100000000E-03 0.  1.
         12    1    3    3    0    0 -0.20432264764E+01  0.22490232563E+02 -0.60478644786E+00  0.22590951769E+02  0.00000000000E+00 0. -1.
</event>
<event>
 7    1  0.2797450E-013  0.7246152E+02  0.7816164E-02  0.1226708E+00
        -11   -1    0    0    0    0  0.00000000000E+00  0.00000000000E+00  0.45593999997E+02  0.45594000000E+02  0.51100000000E-03 0.  1.
         11   -1    0    0    0    0 -0.00000000000E+00 -0.00000000000E+00 -0.45593999997E+02  0.45594000000E+02  0.51100000000E-03 0. -1.
    9900012    2    1    2    0    0 -0.17214371610E+02 -0.57790733595E+01  0.45769699289E+01  0.72461523221E+02  0.69999938678E+02 0.  0.
         12    1    1    2    0    0  0.17214371610E+02  0.57790733595E+01 -0.45769699289E+01  0.18726476779E+02  0.00000000000E+00 0. -1.
         11    1    3    3    0    0  0.16669743624E+02 -0.23215268817E+02 -0.43371065111E+01  0.28907430738E+02  0.51100000000E-03 0. -1.
        -11    1    3    3    0    0 -0.11228158457E+02  0.11887569498E+02 -0.40802312014E+01  0.16853312369E+02  0.51100000000E-03 0.  1.
        -12    1    3    3    0    0 -0.22655956778E+02  0.55486259589E+01  0.12994307641E+02  0.26700780113E+02  0.00000000000E+00 0.  1.
</event>
<event>
 7    1  0.2797450E-013  0.7246156E+02  0.7816164E-02  0.1226708E+00
        -11   -1    0    0    0    0  0.00000000000E+00  0.00000000000E+00  0.45593999997E+02  0.45594000000E+02  0.51100000000E-03 0. -1.
         11   -1    0    0    0    0 -0.00000000000E+00 -0.00000000000E+00 -0.45593999997E+02  0.45594000000E+02  0.51100000000E-03 0.  1.
    9900012    2    1    2    0    0 -0.11788809581E+02  0.68837816222E+00  0.14533742873E+02  0.72461559395E+02  0.69999985802E+02 0.  0.
         12    1    1    2    0    0  0.11788809581E+02 -0.68837816222E+00 -0.14533742873E+02  0.18726440605E+02  0.00000000000E+00 0. -1.
         11    1    3    3    0    0  0.33048546591E+01  0.27596345176E+01  0.76759273643E+01  0.88009947251E+01  0.51100000000E-03 0. -1.
        -11    1    3    3    0    0  0.23754016471E+02 -0.26162152593E+01 -0.14095109483E+01  0.23939185495E+02  0.51100000000E-03 0.  1.
         12    1    3    3    0    0 -0.38847680711E+02  0.54495890398E+00  0.82673264567E+01  0.39721379175E+02  0.00000000000E+00 0. -1.
</event>
<event>
 7    1  0.2797450E-013  0.7246157E+02  0.7816164E-02  0.1226708E+00
        -11   -1    0    0    0    0  0.00000000000E+00  0.00000000000E+00  0.45593999997E+02  0.45594000000E+02  0.51100000000E-03 0. -1.
         11   -1    0    0    0    0 -0.00000000000E+00 -0.00000000000E+00 -0.45593999997E+02  0.45594000000E+02  0.51100000000E-03 0.  1.
    9900012    2    1    2    0    0  0.16075774665E+02  0.37202417057E+01 -0.88548557186E+01  0.72461569501E+02  0.69999998967E+02 0.  0.
         12    1    1    2    0    0 -0.16075774665E+02 -0.37202417057E+01  0.88548557186E+01  0.18726430499E+02  0.00000000000E+00 0. -1.
         11    1    3    3    0    0 -0.88203542738E+01 -0.17194114299E+02  0.67582030775E+00  0.19336311680E+02  0.51100000000E-03 0. -1.
        -11    1    3    3    0    0 -0.34455499574E+00 -0.74209056058E+00  0.12954018545E+02  0.12979831018E+02  0.51100000000E-03 0.  1.
        -12    1    3    3    0    0  0.25240683934E+02  0.21656446565E+02 -0.22484694571E+02  0.40145426803E+02  0.00000000000E+00 0.  1.
</event>
<event>
 7    1  0.2797450E-013  0.7246156E+02  0.7816164E-02  0.1226708E+00
        -11   -1    0    0    0    0  0.00000000000E+00  0.00000000000E+00  0.45593999997E+02  0.45594000000E+02  0.51100000000E-03 0.  1.
         11   -1    0    0    0    0 -0.00000000000E+00 -0.00000000000E+00 -0.45593999997E+02  0.45594000000E+02  0.51100000000E-03 0. -1.
    9900012    2    1    2    0    0  0.77218201599E+01  0.25133701824E+01  0.16874125948E+02  0.72461557125E+02  0.69999982844E+02 0.  0.
         12    1    1    2    0    0 -0.77218201599E+01 -0.25133701824E+01 -0.16874125948E+02  0.18726442875E+02  0.00000000000E+00 0. -1.
         11    1    3    3    0    0  0.11618160958E+02 -0.86745349116E+01  0.82562172775E+01  0.16685153400E+02  0.51100000000E-03 0. -1.
        -11    1    3    3    0    0 -0.13002895077E+02 -0.13879013774E+02  0.19254639445E+02  0.27063692360E+02  0.51100000000E-03 0.  1.
         12    1    3    3    0    0  0.91065542789E+01  0.25066918868E+02 -0.10636730775E+02  0.28712711365E+02  0.00000000000E+00 0. -1.
</event>
<event>
 7    1  0.2797450E-013  0.7246155E+02  0.7816164E-02  0.1226708E+00
        -11   -1    0    0    0    0  0.00000000000E+00  0.00000000000E+00  0.45593999997E+02  0.45594000000E+02  0.51100000000E-03 0.  1.
         11   -1    0    0    0    0 -0.00000000000E+00 -0.00000000000E+00 -0.45593999997E+02  0.45594000000E+02  0.51100000000E-03 0. -1.
    9900012    2    1    2    0    0  0.66218302541E+01 -0.17350068002E+02 -0.24096834345E+01  0.72461546256E+02  0.69999968685E+02 0.  0.
         12    1    1    2    0    0 -0.66218302541E+01  0.17350068002E+02  0.24096834345E+01  0.18726453744E+02  0.00000000000E+00 0. -1.
         11    1    3    3    0    0 -0.53654334671E+01 -0.24748011349E+01  0.52003123426E+01  0.78711984901E+01  0.51100000000E-03 0. -1.
        -11    1    3    3    0    0  0.15332794621E+02 -0.37871930025E+02 -0.37031811017E+01  0.41025494820E+02  0.51100000000E-03 0.  1.
         12    1    3    3    0    0 -0.33455309000E+01  0.22996663158E+02 -0.39068146755E+01  0.23564852945E+02  0.00000000000E+00 0. -1.
</event>
<event>
 7    1  0.2797450E-013  0.7246160E+02  0.7816164E-02  0.1226708E+00
        -11   -1    0    0    0    0  0.00000000000E+00  0.00000000000E+00  0.45593999997E+02  0.45594000000E+02  0.51100000000E-03 0.  1.
         11   -1    0    0    0    0 -0.00000000000E+00 -0.00000000000E+00 -0.45593999997E+02  0.45594000000E+02  0.51100000000E-03 0. -1.
    9900012    2    1    2    0    0  0.38195521451E+01  0.80429754325E+01  0.16474212290E+02  0.72461598772E+02  0.70000037097E+02 0.  0.
         12    1    1    2    0    0 -0.38195521451E+01 -0.80429754325E+01 -0.16474212290E+02  0.18726401228E+02  0.00000000000E+00 0. -1.
         11    1    3    3    0    0  0.79454757944E+01 -0.12928408987E+02  0.49326317823E+01  0.15956353001E+02  0.51100000000E-03 0. -1.
        -11    1    3    3    0    0 -0.66102208693E+01 -0.54880374347E+01  0.25200542519E+02  0.26624817715E+02  0.51100000000E-03 0.  1.
         12    1    3    3    0    0  0.24842972200E+01  0.26459421854E+02 -0.13658962012E+02  0.29880428056E+02  0.00000000000E+00 0. -1.
</event>
<event>
 7    1  0.2797450E-013  0.7246156E+02  0.7816164E-02  0.1226708E+00
        -11   -1    0    0    0    0  0.00000000000E+00  0.00000000000E+00  0.45593999997E+02  0.45594000000E+02  0.51100000000E-03 0. -1.
         11   -1    0    0    0    0 -0.00000000000E+00 -0.00000000000E+00 -0.45593999997E+02  0.45594000000E+02  0.51100000000E-03 0.  1.
    9900012    2    1    2    0    0  0.24579428489E+01  0.16573553390E+02 -0.83639296009E+01  0.72461562181E+02  0.69999989430E+02 0.  0.
         12    1    1    2    0    0 -0.24579428489E+01 -0.16573553390E+02  0.83639296009E+01  0.18726437819E+02  0.00000000000E+00 0. -1.
         11    1    3    3    0    0 -0.11970070298E+02 -0.12426502741E+02  0.98213511611E+01  0.19853450385E+02  0.51100000000E-03 0. -1.
        -11    1    3    3    0    0 -0.11272310801E+02  0.93303441254E+01 -0.13496353931E+02  0.19906578862E+02  0.51100000000E-03 0.  1.
         12    1    3    3    0    0  0.25700323947E+02  0.19669712006E+02 -0.46889268306E+01  0.32701532934E+02  0.00000000000E+00 0. -1.
</event>
<event>
 7    1  0.2797450E-013  0.7246160E+02  0.7816164E-02  0.1226708E+00
        -11   -1    0    0    0    0  0.00000000000E+00  0.00000000000E+00  0.45593999997E+02  0.45594000000E+02  0.51100000000E-03 0. -1.
         11   -1    0    0    0    0 -0.00000000000E+00 -0.00000000000E+00 -0.45593999997E+02  0.45594000000E+02  0.51100000000E-03 0.  1.
    9900012    2    1    2    0    0  0.73652801177E+01  0.16774042761E+02  0.38810100165E+01  0.72461598838E+02  0.70000037183E+02 0.  0.
         12    1    1    2    0    0 -0.73652801177E+01 -0.16774042761E+02 -0.38810100165E+01  0.18726401162E+02  0.00000000000E+00 0. -1.
         11    1    3    3    0    0  0.13628470389E+01 -0.75894274576E+01 -0.60159332216E+01  0.97799904895E+01  0.51100000000E-03 0. -1.
        -11    1    3    3    0    0  0.35921625835E+01  0.27957765284E+01 -0.22903621232E+02  0.23351570915E+02  0.51100000000E-03 0.  1.
         12    1    3    3    0    0  0.24102704952E+01  0.21567693690E+02  0.32800564470E+02  0.39330037433E+02  0.00000000000E+00 0. -1.
</event>
<event>
 7    1  0.2797450E-013  0.7246160E+02  0.7816164E-02  0.1226708E+00
        -11   -1    0    0    0    0  0.00000000000E+00  0.00000000000E+00  0.45593999997E+02  0.45594000000E+02  0.51100000000E-03 0.  1.
         11   -1    0    0    0    0 -0.00000000000E+00 -0.00000000000E+00 -0.45593999997E+02  0.45594000000E+02  0.51100000000E-03 0. -1.
    9900012    2    1    2    0    0 -0.10652280929E+02  0.68293533392E+01  0.13804594689E+02  0.72461601773E+02  0.70000041007E+02 0.  0.
         12    1    1    2    0    0  0.10652280929E+02 -0.68293533392E+01 -0.13804594689E+02  0.18726398227E+02  0.00000000000E+00 0. -1.
         11    1    3    3    0    0  0.11216165393E+02 -0.31771539367E+01 -0.10013126878E+02  0.15367478108E+02  0.51100000000E-03 0. -1.
        -11    1    3    3    0    0  0.97813193581E+01 -0.65212024642E+01  0.17117449180E+02  0.20765532900E+02  0.51100000000E-03 0.  1.
         12    1    3    3    0    0 -0.31649765680E+02  0.16527709740E+02  0.67002723879E+01  0.36328590764E+02  0.00000000000E+00 0. -1.
</event>
<event>
 7    1  0.2797450E-013  0.7246154E+02  0.7816164E-02  0.1226708E+00
        -11   -1    0    0    0    0  0.00000000000E+00  0.00000000000E+00  0.45593999997E+02  0.45594000000E+02  0.51100000000E-03 0. -1.
         11   -1    0    0    0    0 -0.00000000000E+00 -0.00000000000E+00 -0.45593999997E+02  0.45594000000E+02  0.51100000000E-03 0.  1.
    9900012    2    1    2    0    0 -0.13594305497E+01 -0.11037539320E+02 -0.15066681532E+02  0.72461542298E+02  0.69999963529E+02 0.  0.
         12    1    1    2    0    0  0.13594305497E+01  0.11037539320E+02  0.15066681532E+02  0.18726457702E+02  0.00000000000E+00 0. -1.
         11    1    3    3    0    0  0.39097317944E+01  0.16596160095E+02  0.19754162611E+00  0.17051614456E+02  0.51100000000E-03 0. -1.
        -11    1    3    3    0    0 -0.94022757205E+01 -0.65241887767E+01 -0.28113848787E+02  0.30353851844E+02  0.51100000000E-03 0.  1.
        -12    1    3    3    0    0  0.41331133764E+01 -0.21109510639E+02  0.12849625628E+02  0.25056075997E+02  0.00000000000E+00 0.  1.
</event>
<event>
 7    1  0.2797450E-013  0.7246158E+02  0.7816164E-02  0.1226708E+00
        -11   -1    0    0    0    0  0.00000000000E+00  0.00000000000E+00  0.45593999997E+02  0.45594000000E+02  0.51100000000E-03 0. -1.
         11   -1    0    0    0    0 -0.00000000000E+00 -0.00000000000E+00 -0.45593999997E+02  0.45594000000E+02  0.51100000000E-03 0.  1.
    9900012    2    1    2    0    0 -0.41315050009E+01  0.61660540525E-01 -0.18264871517E+02  0.72461583709E+02  0.70000017475E+02 0.  0.
         12    1    1    2    0    0  0.41315050009E+01 -0.61660540525E-01  0.18264871517E+02  0.18726416291E+02  0.00000000000E+00 0. -1.
         11    1    3    3    0    0 -0.55961215287E+01  0.95486772999E+01  0.47799091858E+01  0.12055759886E+02  0.51100000000E-03 0. -1.
        -11    1    3    3    0    0 -0.20859791772E+02 -0.25802768843E+00  0.68624440268E+01  0.21961116304E+02  0.51100000000E-03 0.  1.
         12    1    3    3    0    0  0.22324408299E+02 -0.92289890710E+01 -0.29907224729E+02  0.38444707519E+02  0.00000000000E+00 0. -1.
</event>
<event>
 7    1  0.2797450E-013  0.7246158E+02  0.7816164E-02  0.1226708E+00
        -11   -1    0    0    0    0  0.00000000000E+00  0.00000000000E+00  0.45593999997E+02  0.45594000000E+02  0.51100000000E-03 0.  1.
         11   -1    0    0    0    0 -0.00000000000E+00 -0.00000000000E+00 -0.45593999997E+02  0.45594000000E+02  0.51100000000E-03 0. -1.
    9900012    2    1    2    0    0  0.16114531282E+02  0.25769974785E+01  0.91847588306E+01  0.72461579381E+02  0.70000011837E+02 0.  0.
         12    1    1    2    0    0 -0.16114531282E+02 -0.25769974785E+01 -0.91847588306E+01  0.18726420619E+02  0.00000000000E+00 0. -1.
         11    1    3    3    0    0 -0.24572672052E+01 -0.10396155349E+02 -0.19099053267E+02  0.21883602174E+02  0.51100000000E-03 0. -1.
        -11    1    3    3    0    0 -0.68409732642E+01  0.69289454542E+01 -0.26492717497E+01  0.10090978217E+02  0.51100000000E-03 0.  1.
        -12    1    3    3    0    0  0.25412771751E+02  0.60442073731E+01  0.30933083848E+02  0.40486998989E+02  0.00000000000E+00 0.  1.
</event>
<event>
 7    1  0.2797450E-013  0.7246157E+02  0.7816164E-02  0.1226708E+00
        -11   -1    0    0    0    0  0.00000000000E+00  0.00000000000E+00  0.45593999997E+02  0.45594000000E+02  0.51100000000E-03 0.  1.
         11   -1    0    0    0    0 -0.00000000000E+00 -0.00000000000E+00 -0.45593999997E+02  0.45594000000E+02  0.51100000000E-03 0. -1.
    9900012    2    1    2    0    0  0.73570752211E+01  0.15697064316E+02  0.70820033113E+01  0.72461570686E+02  0.70000000511E+02 0.  0.
         12    1    1    2    0    0 -0.73570752211E+01 -0.15697064316E+02 -0.70820033113E+01  0.18726429314E+02  0.00000000000E+00 0. -1.
         11    1    3    3    0    0  0.16266588735E+02  0.89315625161E+01  0.90389995018E+01  0.20641662489E+02  0.51100000000E-03 0. -1.
        -11    1    3    3    0    0 -0.24540993886E+02  0.60560468449E+01  0.14475885647E+02  0.29128806187E+02  0.51100000000E-03 0.  1.
         12    1    3    3    0    0  0.15631480372E+02  0.70945495464E+00 -0.16432881838E+02  0.22691102011E+02  0.00000000000E+00 0. -1.
</event>
<event>
 7    1  0.2797450E-013  0.7246177E+02  0.7816164E-02  0.1226707E+00
        -11   -1    0    0    0    0  0.00000000000E+00  0.00000000000E+00  0.45593999997E+02  0.45594000000E+02  0.51100000000E-03 0. -1.
         11   -1    0    0    0    0 -0.00000000000E+00 -0.00000000000E+00 -0.45593999997E+02  0.45594000000E+02  0.51100000000E-03 0.  1.
    9900012    2    1    2    0    0  0.41939559669E+01  0.18073201127E+02 -0.25380508175E+01  0.72461773269E+02  0.70000264411E+02 0.  0.
         12    1    1    2    0    0 -0.41939559669E+01 -0.18073201127E+02  0.25380508175E+01  0.18726226731E+02  0.00000000000E+00 0. -1.
         11    1    3    3    0    0  0.13309558883E+02 -0.27588513316E+01  0.71008877995E+01  0.15335521710E+02  0.51100000000E-03 0. -1.
        -11    1    3    3    0    0 -0.10967332714E+02 -0.15776181976E+02 -0.67204427635E+01  0.20355212006E+02  0.51100000000E-03 0.  1.
        -12    1    3    3    0    0  0.18517297976E+01  0.36608234435E+02 -0.29184958535E+01  0.36771039552E+02  0.00000000000E+00 0.  1.
</event>
<event>
 7    1  0.2797450E-013  0.7246166E+02  0.7816164E-02  0.1226708E+00
        -11   -1    0    0    0    0  0.00000000000E+00  0.00000000000E+00  0.45593999997E+02  0.45594000000E+02  0.51100000000E-03 0. -1.
         11   -1    0    0    0    0 -0.00000000000E+00 -0.00000000000E+00 -0.45593999997E+02  0.45594000000E+02  0.51100000000E-03 0.  1.
    9900012    2    1    2    0    0  0.72789472244E+01 -0.15719244886E+02 -0.71132440056E+01  0.72461655649E+02  0.70000111190E+02 0.  0.
         12    1    1    2    0    0 -0.72789472244E+01  0.15719244886E+02  0.71132440056E+01  0.18726344351E+02  0.00000000000E+00 0. -1.
         11    1    3    3    0    0  0.11072034307E+02 -0.64184131583E+00  0.25711446825E+02  0.28001435714E+02  0.51100000000E-03 0. -1.
        -11    1    3    3    0    0  0.71295739564E+01  0.17901429761E+01 -0.19213347877E+01  0.75978262880E+01  0.51100000000E-03 0.  1.
        -12    1    3    3    0    0 -0.10922661039E+02 -0.16867546546E+02 -0.30903356043E+02  0.36862393647E+02  0.00000000000E+00 0.  1.
</event>
<event>
 7    1  0.2797450E-013  0.7246158E+02  0.7816164E-02  0.1226708E+00
        -11   -1    0    0    0    0  0.00000000000E+00  0.00000000000E+00  0.45593999997E+02  0.45594000000E+02  0.51100000000E-03 0. -1.
         11   -1    0    0    0    0 -0.00000000000E+00 -0.00000000000E+00 -0.45593999997E+02  0.45594000000E+02  0.51100000000E-03 0.  1.
    9900012    2    1    2    0    0  0.91012948316E+01 -0.15845757990E+02 -0.40935372436E+01  0.72461583870E+02  0.70000017685E+02 0.  0.
         12    1    1    2    0    0 -0.91012948316E+01  0.15845757990E+02  0.40935372436E+01  0.18726416130E+02  0.00000000000E+00 0. -1.
         11    1    3    3    0    0 -0.10491660183E+02 -0.13468214676E+02 -0.11371705934E+02  0.20513006510E+02  0.51100000000E-03 0.  1.
        -11    1    3    3    0    0 -0.14122554794E+01 -0.22368925672E+02  0.39750712453E+01  0.22763226769E+02  0.51100000000E-03 0. -1.
        -12    1    3    3    0    0  0.21005210494E+02  0.19991382357E+02  0.33030974455E+01  0.29185350592E+02  0.00000000000E+00 0.  1.
</event>
<event>
 7    1  0.2797450E-013  0.7246158E+02  0.7816164E-02  0.1226708E+00
        -11   -1    0    0    0    0  0.00000000000E+00  0.00000000000E+00  0.45593999997E+02  0.45594000000E+02  0.51100000000E-03 0.  1.
         11   -1    0    0    0    0 -0.00000000000E+00 -0.00000000000E+00 -0.45593999997E+02  0.45594000000E+02  0.51100000000E-03 0. -1.
    9900012    2    1    2    0    0 -0.24266298212E+01 -0.18429506485E+02  0.22679758718E+01  0.72461575992E+02  0.70000007423E+02 0.  0.
         12    1    1    2    0    0  0.24266298212E+01  0.18429506485E+02 -0.22679758718E+01  0.18726424008E+02  0.00000000000E+00 0. -1.
         11    1    3    3    0    0  0.90101088910E+01  0.53360638695E+01 -0.24255379039E+01  0.10748901071E+02  0.51100000000E-03 0. -1.
        -11    1    3    3    0    0  0.93769165888E+01  0.11814986458E+02  0.12703441786E+02  0.19720494497E+02  0.51100000000E-03 0.  1.
        -12    1    3    3    0    0 -0.20813655301E+02 -0.35580556812E+02 -0.80099280107E+01  0.41992180425E+02  0.00000000000E+00 0.  1.
</event>
<event>
 7    1  0.2797450E-013  0.7246161E+02  0.7816164E-02  0.1226708E+00
        -11   -1    0    0    0    0  0.00000000000E+00  0.00000000000E+00  0.45593999997E+02  0.45594000000E+02  0.51100000000E-03 0.  1.
         11   -1    0    0    0    0 -0.00000000000E+00 -0.00000000000E+00 -0.45593999997E+02  0.45594000000E+02  0.51100000000E-03 0. -1.
    9900012    2    1    2    0    0  0.93364926320E+01  0.36953561905E+01  0.15806709780E+02  0.72461606164E+02  0.70000046726E+02 0.  0.
         12    1    1    2    0    0 -0.93364926320E+01 -0.36953561905E+01 -0.15806709780E+02  0.18726393836E+02  0.00000000000E+00 0. -1.
         11    1    3    3    0    0 -0.27516446123E+01 -0.58069372961E+01 -0.16652489713E+01  0.66381566140E+01  0.51100000000E-03 0. -1.
        -11    1    3    3    0    0 -0.20440457438E+02 -0.12448083931E+02  0.96763373331E+01  0.25814697331E+02  0.51100000000E-03 0.  1.
         12    1    3    3    0    0  0.32528594683E+02  0.21950377417E+02  0.77956214183E+01  0.40008752219E+02  0.00000000000E+00 0. -1.
</event>
<event>
 7    1  0.2797450E-013  0.7246158E+02  0.7816164E-02  0.1226708E+00
        -11   -1    0    0    0    0  0.00000000000E+00  0.00000000000E+00  0.45593999997E+02  0.45594000000E+02  0.51100000000E-03 0.  1.
         11   -1    0    0    0    0 -0.00000000000E+00 -0.00000000000E+00 -0.45593999997E+02  0.45594000000E+02  0.51100000000E-03 0. -1.
    9900012    2    1    2    0    0  0.17303538921E+02 -0.68456239160E+01  0.20985192058E+01  0.72461579925E+02  0.70000012545E+02 0.  0.
         12    1    1    2    0    0 -0.17303538921E+02  0.68456239160E+01 -0.20985192058E+01  0.18726420075E+02  0.00000000000E+00 0. -1.
         11    1    3    3    0    0  0.22080346927E+02  0.38139411567E+00 -0.10710174407E+02  0.24543736838E+02  0.51100000000E-03 0. -1.
        -11    1    3    3    0    0  0.11179464565E+02 -0.12023945434E+02  0.23095444063E+02  0.28336464644E+02  0.51100000000E-03 0.  1.
         12    1    3    3    0    0 -0.15956272572E+02  0.47969274023E+01 -0.10286750450E+02  0.19581378443E+02  0.00000000000E+00 0. -1.
</event>
<event>
 7    1  0.2797450E-013  0.7246158E+02  0.7816164E-02  0.1226708E+00
        -11   -1    0    0    0    0  0.00000000000E+00  0.00000000000E+00  0.45593999997E+02  0.45594000000E+02  0.51100000000E-03 0.  1.
         11   -1    0    0    0    0 -0.00000000000E+00 -0.00000000000E+00 -0.45593999997E+02  0.45594000000E+02  0.51100000000E-03 0. -1.
    9900012    2    1    2    0    0  0.18625162983E+02 -0.15216431346E+01 -0.12110033610E+01  0.72461584884E+02  0.70000019006E+02 0.  0.
         12    1    1    2    0    0 -0.18625162983E+02  0.15216431346E+01  0.12110033610E+01  0.18726415116E+02  0.00000000000E+00 0. -1.
         11    1    3    3    0    0  0.35061127821E+00 -0.92589026761E+01 -0.61545853762E+01  0.11123359585E+02  0.51100000000E-03 0. -1.
        -11    1    3    3    0    0  0.36498810374E+02 -0.46973849017E+01 -0.50012761648E+01  0.37138138715E+02  0.51100000000E-03 0.  1.
         12    1    3    3    0    0 -0.18224258670E+02  0.12434644443E+02  0.99448581799E+01  0.24200086585E+02  0.00000000000E+00 0. -1.
</event>
<event>
 7    1  0.2797450E-013  0.7246125E+02  0.7816164E-02  0.1226709E+00
        -11   -1    0    0    0    0  0.00000000000E+00  0.00000000000E+00  0.45593999997E+02  0.45594000000E+02  0.51100000000E-03 0.  1.
         11   -1    0    0    0    0 -0.00000000000E+00 -0.00000000000E+00 -0.45593999997E+02  0.45594000000E+02  0.51100000000E-03 0. -1.
    9900012    2    1    2    0    0 -0.64410707793E+01  0.99778249795E+01  0.14479179581E+02  0.72461253741E+02  0.69999587629E+02 0.  0.
         12    1    1    2    0    0  0.64410707793E+01 -0.99778249795E+01 -0.14479179581E+02  0.18726746259E+02  0.00000000000E+00 0. -1.
         11    1    3    3    0    0 -0.13789549750E+02 -0.18517476550E+02  0.11028974065E+02  0.25586849929E+02  0.51100000000E-03 0. -1.
        -11    1    3    3    0    0 -0.10509776341E+02  0.11313202984E+02 -0.10272882210E+02  0.18546591861E+02  0.51100000000E-03 0.  1.
        -12    1    3    3    0    0  0.17858255311E+02  0.17182098546E+02  0.13723087726E+02  0.28327811951E+02  0.00000000000E+00 0.  1.
</event>
<event>
 7    1  0.2797450E-013  0.7246158E+02  0.7816164E-02  0.1226708E+00
        -11   -1    0    0    0    0  0.00000000000E+00  0.00000000000E+00  0.45593999997E+02  0.45594000000E+02  0.51100000000E-03 0.  1.
         11   -1    0    0    0    0 -0.00000000000E+00 -0.00000000000E+00 -0.45593999997E+02  0.45594000000E+02  0.51100000000E-03 0. -1.
    9900012    2    1    2    0    0  0.45743446954E+01 -0.18112894577E+02  0.12950667065E+01  0.72461580771E+02  0.70000013648E+02 0.  0.
         12    1    1    2    0    0 -0.45743446954E+01  0.18112894577E+02 -0.12950667065E+01  0.18726419229E+02  0.00000000000E+00 0. -1.
         11    1    3    3    0    0  0.93846648679E+01  0.69845384844E+01  0.15823754149E+02  0.19678590096E+02  0.51100000000E-03 0. -1.
        -11    1    3    3    0    0 -0.19771233896E+02  0.18638739585E+01 -0.45387615382E+01  0.20370961501E+02  0.51100000000E-03 0.  1.
         12    1    3    3    0    0  0.14960913723E+02 -0.26961307020E+02 -0.99899259046E+01  0.32412029175E+02  0.00000000000E+00 0. -1.
</event>
<event>
 7    1  0.2797450E-013  0.7246139E+02  0.7816164E-02  0.1226708E+00
        -11   -1    0    0    0    0  0.00000000000E+00  0.00000000000E+00  0.45593999997E+02  0.45594000000E+02  0.51100000000E-03 0.  1.
         11   -1    0    0    0    0 -0.00000000000E+00 -0.00000000000E+00 -0.45593999997E+02  0.45594000000E+02  0.51100000000E-03 0. -1.
    9900012    2    1    2    0    0  0.39751816971E+01 -0.15822284508E+02  0.91945098281E+01  0.72461394126E+02  0.69999770508E+02 0.  0.
         12    1    1    2    0    0 -0.39751816971E+01  0.15822284508E+02 -0.91945098281E+01  0.18726605874E+02  0.00000000000E+00 0. -1.
         11    1    3    3    0    0  0.63101759706E+00 -0.32052400505E+02  0.92839108621E+00  0.32072051253E+02  0.51100000000E-03 0.  1.
        -11    1    3    3    0    0  0.13455748110E+02 -0.84215859691E+00 -0.71515705434E+01  0.15261433412E+02  0.51100000000E-03 0. -1.
         12    1    3    3    0    0 -0.10111584010E+02  0.17072274594E+02  0.15417689285E+02  0.25127909461E+02  0.00000000000E+00 0. -1.
</event>
<event>
 7    1  0.2797450E-013  0.7246157E+02  0.7816164E-02  0.1226708E+00
        -11   -1    0    0    0    0  0.00000000000E+00  0.00000000000E+00  0.45593999997E+02  0.45594000000E+02  0.51100000000E-03 0.  1.
         11   -1    0    0    0    0 -0.00000000000E+00 -0.00000000000E+00 -0.45593999997E+02  0.45594000000E+02  0.51100000000E-03 0. -1.
    9900012    2    1    2    0    0  0.16155302528E+02  0.65765269885E+01  0.68143091615E+01  0.72461566374E+02  0.69999994893E+02 0.  0.
         12    1    1    2    0    0 -0.16155302528E+02 -0.65765269885E+01 -0.68143091615E+01  0.18726433626E+02  0.00000000000E+00 0. -1.
         11    1    3    3    0    0  0.81202969088E+01  0.71586572160E+01 -0.16032734964E+01  0.10943312167E+02  0.51100000000E-03 0. -1.
        -11    1    3    3    0    0  0.94576339038E-01  0.25888687896E+02  0.18801437096E+02  0.31995736322E+02  0.51100000000E-03 0.  1.
         12    1    3    3    0    0  0.79404292798E+01 -0.26470818124E+02 -0.10383854438E+02  0.29522517885E+02  0.00000000000E+00 0. -1.
</event>
<event>
 7    1  0.2797450E-013  0.7246157E+02  0.7816164E-02  0.1226708E+00
        -11   -1    0    0    0    0  0.00000000000E+00  0.00000000000E+00  0.45593999997E+02  0.45594000000E+02  0.51100000000E-03 0. -1.
         11   -1    0    0    0    0 -0.00000000000E+00 -0.00000000000E+00 -0.45593999997E+02  0.45594000000E+02  0.51100000000E-03 0.  1.
    9900012    2    1    2    0    0  0.16415804637E+02 -0.23638248330E+01 -0.86955761934E+01  0.72461565341E+02  0.69999993547E+02 0.  0.
         12    1    1    2    0    0 -0.16415804637E+02  0.23638248330E+01  0.86955761934E+01  0.18726434659E+02  0.00000000000E+00 0. -1.
         11    1    3    3    0    0 -0.38779906585E-01 -0.56175265726E+01  0.20263746765E+01  0.59719597508E+01  0.51100000000E-03 0. -1.
        -11    1    3    3    0    0  0.12870986726E+02 -0.28696796995E+02 -0.13485370823E+02  0.34220223313E+02  0.51100000000E-03 0.  1.
         12    1    3    3    0    0  0.35835978171E+01  0.31950498735E+02  0.27634199533E+01  0.32269382277E+02  0.00000000000E+00 0. -1.
</event>
<event>
 7    1  0.2797450E-013  0.7246151E+02  0.7816164E-02  0.1226708E+00
        -11   -1    0    0    0    0  0.00000000000E+00  0.00000000000E+00  0.45593999997E+02  0.45594000000E+02  0.51100000000E-03 0.  1.
         11   -1    0    0    0    0 -0.00000000000E+00 -0.00000000000E+00 -0.45593999997E+02  0.45594000000E+02  0.51100000000E-03 0. -1.
    9900012    2    1    2    0    0  0.24517075612E+01 -0.47169140984E+01  0.17956097791E+02  0.72461505494E+02  0.69999915586E+02 0.  0.
         12    1    1    2    0    0 -0.24517075612E+01  0.47169140984E+01 -0.17956097791E+02  0.18726494506E+02  0.00000000000E+00 0. -1.
         11    1    3    3    0    0 -0.22490076665E+02 -0.16231781135E+02  0.21630051436E+02  0.35172907082E+02  0.51100000000E-03 0. -1.
        -11    1    3    3    0    0 -0.44807575830E+01 -0.11218871506E+01 -0.24849584353E+01  0.52450775002E+01  0.51100000000E-03 0.  1.
        -12    1    3    3    0    0  0.29422541809E+02  0.12636754187E+02 -0.11889952092E+01  0.32043520913E+02  0.00000000000E+00 0.  1.
</event>
<event>
 7    1  0.2797450E-013  0.7246164E+02  0.7816164E-02  0.1226708E+00
        -11   -1    0    0    0    0  0.00000000000E+00  0.00000000000E+00  0.45593999997E+02  0.45594000000E+02  0.51100000000E-03 0.  1.
         11   -1    0    0    0    0 -0.00000000000E+00 -0.00000000000E+00 -0.45593999997E+02  0.45594000000E+02  0.51100000000E-03 0. -1.
    9900012    2    1    2    0    0  0.61336670698E+01  0.14009242756E+02  0.10807208928E+02  0.72461641060E+02  0.70000092186E+02 0.  0.
         12    1    1    2    0    0 -0.61336670698E+01 -0.14009242756E+02 -0.10807208928E+02  0.18726358940E+02  0.00000000000E+00 0. -1.
         11    1    3    3    0    0 -0.53156002704E+00  0.12978729464E+02  0.51449001209E+01  0.13971398358E+02  0.51100000000E-03 0. -1.
        -11    1    3    3    0    0 -0.22196232968E+02 -0.13028046084E+02 -0.77046796209E+00  0.25748715772E+02  0.51100000000E-03 0.  1.
         12    1    3    3    0    0  0.28861460065E+02  0.14058559376E+02  0.64327767688E+01  0.32741526931E+02  0.00000000000E+00 0. -1.
</event>
<event>
 7    1  0.2797450E-013  0.7246155E+02  0.7816164E-02  0.1226708E+00
        -11   -1    0    0    0    0  0.00000000000E+00  0.00000000000E+00  0.45593999997E+02  0.45594000000E+02  0.51100000000E-03 0.  1.
         11   -1    0    0    0    0 -0.00000000000E+00 -0.00000000000E+00 -0.45593999997E+02  0.45594000000E+02  0.51100000000E-03 0. -1.
    9900012    2    1    2    0    0 -0.18623593806E+02 -0.19366347411E+01  0.30157295045E+00  0.72461554886E+02  0.69999979928E+02 0.  0.
         12    1    1    2    0    0  0.18623593806E+02  0.19366347411E+01 -0.30157295045E+00  0.18726445114E+02  0.00000000000E+00 0. -1.
         11    1    3    3    0    0 -0.39494750612E+02  0.95043129869E+01  0.45721057989E+01  0.40878740721E+02  0.51100000000E-03 0. -1.
        -11    1    3    3    0    0 -0.18340120735E+01  0.32783352394E+01 -0.24035700250E+01  0.44596223331E+01  0.51100000000E-03 0.  1.
        -12    1    3    3    0    0  0.22705168880E+02 -0.14719282967E+02 -0.18669628234E+01  0.27123191832E+02  0.00000000000E+00 0.  1.
</event>
<event>
 7    1  0.2797450E-013  0.7246155E+02  0.7816164E-02  0.1226708E+00
        -11   -1    0    0    0    0  0.00000000000E+00  0.00000000000E+00  0.45593999997E+02  0.45594000000E+02  0.51100000000E-03 0. -1.
         11   -1    0    0    0    0 -0.00000000000E+00 -0.00000000000E+00 -0.45593999997E+02  0.45594000000E+02  0.51100000000E-03 0.  1.
    9900012    2    1    2    0    0 -0.15245629492E+02 -0.30435892198E+01  0.10439694193E+02  0.72461551624E+02  0.69999975678E+02 0.  0.
         12    1    1    2    0    0  0.15245629492E+02  0.30435892198E+01 -0.10439694193E+02  0.18726448376E+02  0.00000000000E+00 0. -1.
         11    1    3    3    0    0 -0.36884686962E+02  0.59426555511E+01 -0.27505545176E+01  0.37461458029E+02  0.51100000000E-03 0. -1.
        -11    1    3    3    0    0  0.61579283688E+00 -0.82805948461E+01 -0.25965024219E+01  0.86999584430E+01  0.51100000000E-03 0.  1.
         12    1    3    3    0    0  0.21023264633E+02 -0.70564992485E+00  0.15786751133E+02  0.26300135151E+02  0.00000000000E+00 0. -1.
</event>
<event>
 7    1  0.2797450E-013  0.7246157E+02  0.7816164E-02  0.1226708E+00
        -11   -1    0    0    0    0  0.00000000000E+00  0.00000000000E+00  0.45593999997E+02  0.45594000000E+02  0.51100000000E-03 0.  1.
         11   -1    0    0    0    0 -0.00000000000E+00 -0.00000000000E+00 -0.45593999997E+02  0.45594000000E+02  0.51100000000E-03 0. -1.
    9900012    2    1    2    0    0 -0.18680594998E+02 -0.50236355733E+00  0.12091879073E+01  0.72461571242E+02  0.70000001234E+02 0.  0.
         12    1    1    2    0    0  0.18680594998E+02  0.50236355733E+00 -0.12091879073E+01  0.18726428758E+02  0.00000000000E+00 0. -1.
         11    1    3    3    0    0  0.69407174804E+01  0.61041068557E+01  0.25674087839E+02  0.27287221666E+02  0.51100000000E-03 0. -1.
        -11    1    3    3    0    0 -0.97978293763E+01  0.10712262006E+02 -0.93789534088E+01  0.17283367295E+02  0.51100000000E-03 0.  1.
        -12    1    3    3    0    0 -0.15823483102E+02 -0.17318732419E+02 -0.15085946523E+02  0.27890982280E+02  0.00000000000E+00 0.  1.
</event>
<event>
 7    1  0.2797450E-013  0.7246155E+02  0.7816164E-02  0.1226708E+00
        -11   -1    0    0    0    0  0.00000000000E+00  0.00000000000E+00  0.45593999997E+02  0.45594000000E+02  0.51100000000E-03 0.  1.
         11   -1    0    0    0    0 -0.00000000000E+00 -0.00000000000E+00 -0.45593999997E+02  0.45594000000E+02  0.51100000000E-03 0. -1.
    9900012    2    1    2    0    0 -0.86576024391E+01 -0.13013417516E+02  0.10313906381E+02  0.72461553987E+02  0.69999978756E+02 0.  0.
         12    1    1    2    0    0  0.86576024391E+01  0.13013417516E+02 -0.10313906381E+02  0.18726446013E+02  0.00000000000E+00 0. -1.
         11    1    3    3    0    0  0.14141109989E+02 -0.15675662103E+02  0.20432516303E+02  0.29380011859E+02  0.51100000000E-03 0. -1.
        -11    1    3    3    0    0  0.65741593953E+01  0.46470013816E+01 -0.10996572249E+02  0.13628602096E+02  0.51100000000E-03 0.  1.
         12    1    3    3    0    0 -0.29372871823E+02 -0.19847567950E+01  0.87796232707E+00  0.29452940032E+02  0.00000000000E+00 0. -1.
</event>
<event>
 7    1  0.2797450E-013  0.7246158E+02  0.7816164E-02  0.1226708E+00
        -11   -1    0    0    0    0  0.00000000000E+00  0.00000000000E+00  0.45593999997E+02  0.45594000000E+02  0.51100000000E-03 0.  1.
         11   -1    0    0    0    0 -0.00000000000E+00 -0.00000000000E+00 -0.45593999997E+02  0.45594000000E+02  0.51100000000E-03 0. -1.
    9900012    2    1    2    0    0  0.15912018314E+02 -0.85798832770E+01 -0.48858997375E+01  0.72461581759E+02  0.70000014935E+02 0.  0.
         12    1    1    2    0    0 -0.15912018314E+02  0.85798832770E+01  0.48858997375E+01  0.18726418241E+02  0.00000000000E+00 0. -1.
         11    1    3    3    0    0  0.23001416284E+02 -0.96233968103E+01 -0.40586457238E+01  0.25261581950E+02  0.51100000000E-03 0. -1.
        -11    1    3    3    0    0  0.12293189271E+02  0.17143030155E+02 -0.49499737862E+01  0.21668138500E+02  0.51100000000E-03 0.  1.
         12    1    3    3    0    0 -0.19382587240E+02 -0.16099516621E+02  0.41227197725E+01  0.25531861309E+02  0.00000000000E+00 0. -1.
</event>
<event>
 7    1  0.2797450E-013  0.7246154E+02  0.7816164E-02  0.1226708E+00
        -11   -1    0    0    0    0  0.00000000000E+00  0.00000000000E+00  0.45593999997E+02  0.45594000000E+02  0.51100000000E-03 0.  1.
         11   -1    0    0    0    0 -0.00000000000E+00 -0.00000000000E+00 -0.45593999997E+02  0.45594000000E+02  0.51100000000E-03 0. -1.
    9900012    2    1    2    0    0  0.11064856994E+02  0.13168832951E+02  0.74047915340E+01  0.72461543868E+02  0.69999965575E+02 0.  0.
         12    1    1    2    0    0 -0.11064856994E+02 -0.13168832951E+02 -0.74047915340E+01  0.18726456132E+02  0.00000000000E+00 0. -1.
         11    1    3    3    0    0  0.12512841305E+02  0.18670229316E+02 -0.70065566745E+01  0.23542312905E+02  0.51100000000E-03 0. -1.
        -11    1    3    3    0    0  0.10444323990E+02  0.15525416688E+02  0.16125956624E+02  0.24701598009E+02  0.51100000000E-03 0.  1.
        -12    1    3    3    0    0 -0.11892308300E+02 -0.21026813052E+02 -0.17146084153E+01  0.24217632954E+02  0.00000000000E+00 0.  1.
</event>
<event>
 7    1  0.2797450E-013  0.7246163E+02  0.7816164E-02  0.1226708E+00
        -11   -1    0    0    0    0  0.00000000000E+00  0.00000000000E+00  0.45593999997E+02  0.45594000000E+02  0.51100000000E-03 0. -1.
         11   -1    0    0    0    0 -0.00000000000E+00 -0.00000000000E+00 -0.45593999997E+02  0.45594000000E+02  0.51100000000E-03 0.  1.
    9900012    2    1    2    0    0 -0.17316531475E+02  0.18928651943E+01 -0.68725216004E+01  0.72461634787E+02  0.70000084013E+02 0.  0.
         12    1    1    2    0    0  0.17316531475E+02 -0.18928651943E+01  0.68725216004E+01  0.18726365213E+02  0.00000000000E+00 0. -1.
         11    1    3    3    0    0 -0.36086419127E+02 -0.13217582782E+02 -0.53378157367E+01  0.38799824962E+02  0.51100000000E-03 0. -1.
        -11    1    3    3    0    0 -0.33827697928E+00 -0.54228472006E+01  0.90025316834E+00  0.55074639448E+01  0.51100000000E-03 0.  1.
        -12    1    3    3    0    0  0.19108164631E+02  0.20533295177E+02 -0.24349590320E+01  0.28154345879E+02  0.00000000000E+00 0.  1.
</event>
<event>
 7    1  0.2797450E-013  0.7246140E+02  0.7816164E-02  0.1226708E+00
        -11   -1    0    0    0    0  0.00000000000E+00  0.00000000000E+00  0.45593999997E+02  0.45594000000E+02  0.51100000000E-03 0. -1.
         11   -1    0    0    0    0 -0.00000000000E+00 -0.00000000000E+00 -0.45593999997E+02  0.45594000000E+02  0.51100000000E-03 0.  1.
    9900012    2    1    2    0    0  0.83985315547E+01 -0.11528621290E+02 -0.12134289450E+02  0.72461403363E+02  0.69999782541E+02 0.  0.
         12    1    1    2    0    0 -0.83985315547E+01  0.11528621290E+02  0.12134289450E+02  0.18726596637E+02  0.00000000000E+00 0. -1.
         11    1    3    3    0    0 -0.11361598645E+02 -0.26418888392E+02 -0.10274500864E+01  0.28776713530E+02  0.51100000000E-03 0. -1.
        -11    1    3    3    0    0 -0.63471727160E+01 -0.29377242552E+01 -0.98053686381E+01  0.12044172021E+02  0.51100000000E-03 0.  1.
        -12    1    3    3    0    0  0.26107302916E+02  0.17827991358E+02 -0.13014707256E+01  0.31640517812E+02  0.00000000000E+00 0.  1.
</event>
<event>
 7    1  0.2797450E-013  0.7246155E+02  0.7816164E-02  0.1226708E+00
        -11   -1    0    0    0    0  0.00000000000E+00  0.00000000000E+00  0.45593999997E+02  0.45594000000E+02  0.51100000000E-03 0. -1.
         11   -1    0    0    0    0 -0.00000000000E+00 -0.00000000000E+00 -0.45593999997E+02  0.45594000000E+02  0.51100000000E-03 0.  1.
    9900012    2    1    2    0    0 -0.76554185346E+01 -0.15488849219E+02 -0.72228891484E+01  0.72461547834E+02  0.69999970742E+02 0.  0.
         12    1    1    2    0    0  0.76554185346E+01  0.15488849219E+02  0.72228891484E+01  0.18726452166E+02  0.00000000000E+00 0. -1.
         11    1    3    3    0    0 -0.59134813699E+01  0.18427519882E+01 -0.20544974939E+02  0.21458354837E+02  0.51100000000E-03 0. -1.
        -11    1    3    3    0    0 -0.45626355930E+01 -0.39103221480E+01 -0.16834364354E+02  0.17874677237E+02  0.51100000000E-03 0.  1.
         12    1    3    3    0    0  0.28206984284E+01 -0.13421279059E+02  0.30156450144E+02  0.33128515761E+02  0.00000000000E+00 0. -1.
</event>
<event>
 7    1  0.2797450E-013  0.7246122E+02  0.7816164E-02  0.1226709E+00
        -11   -1    0    0    0    0  0.00000000000E+00  0.00000000000E+00  0.45593999997E+02  0.45594000000E+02  0.51100000000E-03 0. -1.
         11   -1    0    0    0    0 -0.00000000000E+00 -0.00000000000E+00 -0.45593999997E+02  0.45594000000E+02  0.51100000000E-03 0.  1.
    9900012    2    1    2    0    0  0.77310681718E+01  0.17051274792E+02  0.42061046447E+00  0.72461219703E+02  0.69999543289E+02 0.  0.
         12    1    1    2    0    0 -0.77310681718E+01 -0.17051274792E+02 -0.42061046447E+00  0.18726780297E+02  0.00000000000E+00 0. -1.
         11    1    3    3    0    0 -0.32110255252E+01  0.25582790697E+01 -0.20449676143E+02  0.20857725938E+02  0.51100000000E-03 0. -1.
        -11    1    3    3    0    0  0.44343823800E+01 -0.81823239810E+01 -0.93989980752E+01  0.13227068379E+02  0.51100000000E-03 0.  1.
         12    1    3    3    0    0  0.65077113170E+01  0.22675319703E+02  0.30269284682E+02  0.38376425386E+02  0.00000000000E+00 0. -1.
</event>
<event>
 7    1  0.2797450E-013  0.7246158E+02  0.7816164E-02  0.1226708E+00
        -11   -1    0    0    0    0  0.00000000000E+00  0.00000000000E+00  0.45593999997E+02  0.45594000000E+02  0.51100000000E-03 0.  1.
         11   -1    0    0    0    0 -0.00000000000E+00 -0.00000000000E+00 -0.45593999997E+02  0.45594000000E+02  0.51100000000E-03 0. -1.
    9900012    2    1    2    0    0  0.10386259067E+02  0.14242763697E+02 -0.63204490543E+01  0.72461580924E+02  0.70000013848E+02 0.  0.
         12    1    1    2    0    0 -0.10386259067E+02 -0.14242763697E+02  0.63204490543E+01  0.18726419076E+02  0.00000000000E+00 0. -1.
         11    1    3    3    0    0  0.81856370433E+01  0.16981450614E+02 -0.30028338062E+02  0.35455259212E+02  0.51100000000E-03 0. -1.
        -11    1    3    3    0    0  0.14241513419E+02 -0.38986657962E+01  0.69003820764E+01  0.16298330360E+02  0.51100000000E-03 0.  1.
        -12    1    3    3    0    0 -0.12040891396E+02  0.11599788796E+01  0.16807506931E+02  0.20707991352E+02  0.00000000000E+00 0.  1.
</event>
<event>
 7    1  0.2797450E-013  0.7246158E+02  0.7816164E-02  0.1226708E+00
        -11   -1    0    0    0    0  0.00000000000E+00  0.00000000000E+00  0.45593999997E+02  0.45594000000E+02  0.51100000000E-03 0. -1.
         11   -1    0    0    0    0 -0.00000000000E+00 -0.00000000000E+00 -0.45593999997E+02  0.45594000000E+02  0.51100000000E-03 0.  1.
    9900012    2    1    2    0    0 -0.83838732073E+01 -0.10158745115E+02 -0.13311255398E+02  0.72461576088E+02  0.70000007547E+02 0.  0.
         12    1    1    2    0    0  0.83838732073E+01  0.10158745115E+02  0.13311255398E+02  0.18726423912E+02  0.00000000000E+00 0. -1.
         11    1    3    3    0    0 -0.48576547971E+01 -0.11775316927E+02 -0.27445969811E+02  0.30257828045E+02  0.51100000000E-03 0. -1.
        -11    1    3    3    0    0  0.45217497582E+01 -0.12176893316E+02 -0.77395505329E+01  0.15120304045E+02  0.51100000000E-03 0.  1.
         12    1    3    3    0    0 -0.80479681685E+01  0.13793465128E+02  0.21874264946E+02  0.27083443998E+02  0.00000000000E+00 0. -1.
</event>
<event>
 7    1  0.2797450E-013  0.7246157E+02  0.7816164E-02  0.1226708E+00
        -11   -1    0    0    0    0  0.00000000000E+00  0.00000000000E+00  0.45593999997E+02  0.45594000000E+02  0.51100000000E-03 0. -1.
         11   -1    0    0    0    0 -0.00000000000E+00 -0.00000000000E+00 -0.45593999997E+02  0.45594000000E+02  0.51100000000E-03 0.  1.
    9900012    2    1    2    0    0  0.38011120214E+00  0.15886902603E+02 -0.99066135685E+01  0.72461570783E+02  0.70000000636E+02 0.  0.
         12    1    1    2    0    0 -0.38011120214E+00 -0.15886902603E+02  0.99066135685E+01  0.18726429217E+02  0.00000000000E+00 0. -1.
         11    1    3    3    0    0  0.79510099464E+01  0.79684326188E+01  0.15398080910E+02  0.19073944887E+02  0.51100000000E-03 0. -1.
        -11    1    3    3    0    0  0.10193310341E+02 -0.14772828999E+02 -0.12382989093E+02  0.21805468844E+02  0.51100000000E-03 0.  1.
         12    1    3    3    0    0 -0.17764209086E+02  0.22691298983E+02 -0.12921705385E+02  0.31582157052E+02  0.00000000000E+00 0. -1.
</event>
<event>
 7    1  0.2797450E-013  0.7246147E+02  0.7816164E-02  0.1226708E+00
        -11   -1    0    0    0    0  0.00000000000E+00  0.00000000000E+00  0.45593999997E+02  0.45594000000E+02  0.51100000000E-03 0.  1.
         11   -1    0    0    0    0 -0.00000000000E+00 -0.00000000000E+00 -0.45593999997E+02  0.45594000000E+02  0.51100000000E-03 0. -1.
    9900012    2    1    2    0    0 -0.71010533621E+01  0.14219056010E+02  0.99033546546E+01  0.72461469460E+02  0.69999868644E+02 0.  0.
         12    1    1    2    0    0  0.71010533621E+01 -0.14219056010E+02 -0.99033546546E+01  0.18726530540E+02  0.00000000000E+00 0. -1.
         11    1    3    3    0    0  0.25814235232E+01  0.17878713796E+01 -0.69362924419E+01  0.76139598487E+01  0.51100000000E-03 0. -1.
        -11    1    3    3    0    0 -0.26712152325E+01  0.29708808489E+02  0.29781101111E+02  0.42150476585E+02  0.51100000000E-03 0.  1.
         12    1    3    3    0    0 -0.70112616529E+01 -0.17277623859E+02 -0.12941454015E+02  0.22697033026E+02  0.00000000000E+00 0. -1.
</event>
<event>
 7    1  0.2797450E-013  0.7246157E+02  0.7816164E-02  0.1226708E+00
        -11   -1    0    0    0    0  0.00000000000E+00  0.00000000000E+00  0.45593999997E+02  0.45594000000E+02  0.51100000000E-03 0. -1.
         11   -1    0    0    0    0 -0.00000000000E+00 -0.00000000000E+00 -0.45593999997E+02  0.45594000000E+02  0.51100000000E-03 0.  1.
    9900012    2    1    2    0    0  0.12747712244E+02  0.35442565388E+00  0.13713115831E+02  0.72461565989E+02  0.69999994391E+02 0.  0.
         12    1    1    2    0    0 -0.12747712244E+02 -0.35442565388E+00 -0.13713115831E+02  0.18726434011E+02  0.00000000000E+00 0. -1.
         11    1    3    3    0    0 -0.10006672380E+02 -0.25343907762E+02  0.19126676219E+02  0.33290792965E+02  0.51100000000E-03 0. -1.
        -11    1    3    3    0    0  0.49747112057E+01  0.78760990380E+01  0.64604719205E+01  0.11336594962E+02  0.51100000000E-03 0.  1.
        -12    1    3    3    0    0  0.17779673418E+02  0.17822234378E+02 -0.11874032309E+02  0.27834178062E+02  0.00000000000E+00 0.  1.
</event>
<event>
 7    1  0.2797450E-013  0.7246156E+02  0.7816164E-02  0.1226708E+00
        -11   -1    0    0    0    0  0.00000000000E+00  0.00000000000E+00  0.45593999997E+02  0.45594000000E+02  0.51100000000E-03 0.  1.
         11   -1    0    0    0    0 -0.00000000000E+00 -0.00000000000E+00 -0.45593999997E+02  0.45594000000E+02  0.51100000000E-03 0. -1.
    9900012    2    1    2    0    0 -0.83772076830E+01 -0.76454769302E+00  0.16730733353E+02  0.72461559327E+02  0.69999985713E+02 0.  0.
         12    1    1    2    0    0  0.83772076830E+01  0.76454769302E+00 -0.16730733353E+02  0.18726440673E+02  0.00000000000E+00 0. -1.
         11    1    3    3    0    0  0.25723915551E+01  0.10789971041E+01  0.23224813473E+01  0.36297868991E+01  0.51100000000E-03 0. -1.
        -11    1    3    3    0    0 -0.20386305730E+02  0.12855625412E+01  0.38049082893E+02  0.43185493416E+02  0.51100000000E-03 0.  1.
         12    1    3    3    0    0  0.94367064916E+01 -0.31291073383E+01 -0.23640830887E+02  0.25646279012E+02  0.00000000000E+00 0. -1.
</event>
<event>
 7    1  0.2797450E-013  0.7246140E+02  0.7816164E-02  0.1226708E+00
        -11   -1    0    0    0    0  0.00000000000E+00  0.00000000000E+00  0.45593999997E+02  0.45594000000E+02  0.51100000000E-03 0.  1.
         11   -1    0    0    0    0 -0.00000000000E+00 -0.00000000000E+00 -0.45593999997E+02  0.45594000000E+02  0.51100000000E-03 0. -1.
    9900012    2    1    2    0    0 -0.80099773154E+01 -0.53255497612E+01  0.16067490984E+02  0.72461401714E+02  0.69999780392E+02 0.  0.
         12    1    1    2    0    0  0.80099773154E+01  0.53255497612E+01 -0.16067490984E+02  0.18726598286E+02  0.00000000000E+00 0. -1.
         11    1    3    3    0    0 -0.18917619824E+01 -0.10089342287E+02  0.55142925838E+01  0.11652511066E+02  0.51100000000E-03 0. -1.
        -11    1    3    3    0    0  0.50381601512E+01 -0.52126042271E+01  0.33023915824E+02  0.33810254615E+02  0.51100000000E-03 0.  1.
         12    1    3    3    0    0 -0.11156375484E+02  0.99763967528E+01 -0.22470717424E+02  0.26998636033E+02  0.00000000000E+00 0. -1.
</event>
<event>
 7    1  0.2797450E-013  0.7246160E+02  0.7816164E-02  0.1226708E+00
        -11   -1    0    0    0    0  0.00000000000E+00  0.00000000000E+00  0.45593999997E+02  0.45594000000E+02  0.51100000000E-03 0. -1.
         11   -1    0    0    0    0 -0.00000000000E+00 -0.00000000000E+00 -0.45593999997E+02  0.45594000000E+02  0.51100000000E-03 0.  1.
    9900012    2    1    2    0    0  0.11360986770E+02 -0.12255166159E+02 -0.84508526132E+01  0.72461600777E+02  0.70000039709E+02 0.  0.
         12    1    1    2    0    0 -0.11360986770E+02  0.12255166159E+02  0.84508526132E+01  0.18726399223E+02  0.00000000000E+00 0. -1.
         11    1    3    3    0    0  0.18261240813E+01  0.49325628274E+01  0.88112530444E+01  0.10261729176E+02  0.51100000000E-03 0. -1.
        -11    1    3    3    0    0 -0.73378625191E+01 -0.55599603711E+01 -0.34322769397E+02  0.35536036428E+02  0.51100000000E-03 0.  1.
         12    1    3    3    0    0  0.16872725208E+02 -0.11627768615E+02  0.17060663739E+02  0.26663835173E+02  0.00000000000E+00 0. -1.
</event>
<event>
 7    1  0.2797450E-013  0.7246158E+02  0.7816164E-02  0.1226708E+00
        -11   -1    0    0    0    0  0.00000000000E+00  0.00000000000E+00  0.45593999997E+02  0.45594000000E+02  0.51100000000E-03 0.  1.
         11   -1    0    0    0    0 -0.00000000000E+00 -0.00000000000E+00 -0.45593999997E+02  0.45594000000E+02  0.51100000000E-03 0. -1.
    9900012    2    1    2    0    0  0.89386380162E+01  0.14892463497E+02 -0.69995660210E+01  0.72461584351E+02  0.70000018311E+02 0.  0.
         12    1    1    2    0    0 -0.89386380162E+01 -0.14892463497E+02  0.69995660210E+01  0.18726415649E+02  0.00000000000E+00 0. -1.
         11    1    3    3    0    0  0.88386873461E+01 -0.44729290845E+01 -0.18085071890E+02  0.20620361639E+02  0.51100000000E-03 0. -1.
        -11    1    3    3    0    0  0.18081428274E+02  0.25833480848E+02  0.68601556997E+01  0.32270241983E+02  0.51100000000E-03 0.  1.
        -12    1    3    3    0    0 -0.17981477604E+02 -0.64680882669E+01  0.42253501695E+01  0.19570980729E+02  0.00000000000E+00 0.  1.
</event>
<event>
 7    1  0.2797450E-013  0.7246158E+02  0.7816164E-02  0.1226708E+00
        -11   -1    0    0    0    0  0.00000000000E+00  0.00000000000E+00  0.45593999997E+02  0.45594000000E+02  0.51100000000E-03 0.  1.
         11   -1    0    0    0    0 -0.00000000000E+00 -0.00000000000E+00 -0.45593999997E+02  0.45594000000E+02  0.51100000000E-03 0. -1.
    9900012    2    1    2    0    0  0.33769759860E+01 -0.13998205978E+02  0.11971845850E+02  0.72461579347E+02  0.70000011793E+02 0.  0.
         12    1    1    2    0    0 -0.33769759860E+01  0.13998205978E+02 -0.11971845850E+02  0.18726420653E+02  0.00000000000E+00 0. -1.
         11    1    3    3    0    0 -0.78758098721E+01 -0.21993052704E+01 -0.53801482703E+01  0.97883257243E+01  0.51100000000E-03 0. -1.
        -11    1    3    3    0    0  0.13803019500E+02 -0.39448314858E+01 -0.19888448873E+02  0.24528258023E+02  0.51100000000E-03 0.  1.
        -12    1    3    3    0    0 -0.25502336422E+01 -0.78540692223E+01  0.37240442993E+02  0.38144995600E+02  0.00000000000E+00 0.  1.
</event>
<event>
 7    1  0.2797450E-013  0.7246157E+02  0.7816164E-02  0.1226708E+00
        -11   -1    0    0    0    0  0.00000000000E+00  0.00000000000E+00  0.45593999997E+02  0.45594000000E+02  0.51100000000E-03 0.  1.
         11   -1    0    0    0    0 -0.00000000000E+00 -0.00000000000E+00 -0.45593999997E+02  0.45594000000E+02  0.51100000000E-03 0. -1.
    9900012    2    1    2    0    0 -0.60978131243E+01 -0.10710773673E+02  0.14098760504E+02  0.72461573610E+02  0.70000004319E+02 0.  0.
         12    1    1    2    0    0  0.60978131243E+01  0.10710773673E+02 -0.14098760504E+02  0.18726426390E+02  0.00000000000E+00 0. -1.
         11    1    3    3    0    0 -0.82036556020E+01 -0.25132981901E+01  0.42467765295E+01  0.95734917444E+01  0.51100000000E-03 0. -1.
        -11    1    3    3    0    0 -0.14327588932E+02 -0.47688255562E+01  0.31831163120E+02  0.35231299260E+02  0.51100000000E-03 0.  1.
         12    1    3    3    0    0  0.16433431409E+02 -0.34286499269E+01 -0.21979179145E+02  0.27656782605E+02  0.00000000000E+00 0. -1.
</event>
<event>
 7    1  0.2797450E-013  0.7246170E+02  0.7816164E-02  0.1226708E+00
        -11   -1    0    0    0    0  0.00000000000E+00  0.00000000000E+00  0.45593999997E+02  0.45594000000E+02  0.51100000000E-03 0. -1.
         11   -1    0    0    0    0 -0.00000000000E+00 -0.00000000000E+00 -0.45593999997E+02  0.45594000000E+02  0.51100000000E-03 0.  1.
    9900012    2    1    2    0    0 -0.12196966770E+02  0.13874691930E+02 -0.30661313953E+01  0.72461702014E+02  0.70000171589E+02 0.  0.
         12    1    1    2    0    0  0.12196966770E+02 -0.13874691930E+02  0.30661313953E+01  0.18726297986E+02  0.00000000000E+00 0. -1.
         11    1    3    3    0    0 -0.17881938179E+01 -0.16342705737E+02  0.84485309546E+01  0.18484029417E+02  0.51100000000E-03 0. -1.
        -11    1    3    3    0    0  0.54035647091E+01 -0.39474043781E+01 -0.14745318936E+02  0.16192743550E+02  0.51100000000E-03 0.  1.
         12    1    3    3    0    0 -0.15812337661E+02  0.34164802045E+02  0.32306565864E+01  0.37784929047E+02  0.00000000000E+00 0. -1.
</event>
<event>
 7    1  0.2797450E-013  0.7246160E+02  0.7816164E-02  0.1226708E+00
        -11   -1    0    0    0    0  0.00000000000E+00  0.00000000000E+00  0.45593999997E+02  0.45594000000E+02  0.51100000000E-03 0.  1.
         11   -1    0    0    0    0 -0.00000000000E+00 -0.00000000000E+00 -0.45593999997E+02  0.45594000000E+02  0.51100000000E-03 0. -1.
    9900012    2    1    2    0    0  0.13120210335E+02 -0.11846804999E+02  0.61799204723E+01  0.72461598185E+02  0.70000036332E+02 0.  0.
         12    1    1    2    0    0 -0.13120210335E+02  0.11846804999E+02 -0.61799204723E+01  0.18726401815E+02  0.00000000000E+00 0. -1.
         11    1    3    3    0    0 -0.21450278118E+01 -0.11858010392E+02  0.15372384050E+02  0.19532632859E+02  0.51100000000E-03 0. -1.
        -11    1    3    3    0    0  0.72035669391E+01  0.23573999619E+02  0.36335730535E+01  0.24916414030E+02  0.51100000000E-03 0.  1.
         12    1    3    3    0    0  0.80616712076E+01 -0.23562794226E+02 -0.12826036632E+02  0.28012551296E+02  0.00000000000E+00 0. -1.
</event>
<event>
 7    1  0.2797450E-013  0.7246157E+02  0.7816164E-02  0.1226708E+00
        -11   -1    0    0    0    0  0.00000000000E+00  0.00000000000E+00  0.45593999997E+02  0.45594000000E+02  0.51100000000E-03 0.  1.
         11   -1    0    0    0    0 -0.00000000000E+00 -0.00000000000E+00 -0.45593999997E+02  0.45594000000E+02  0.51100000000E-03 0. -1.
    9900012    2    1    2    0    0  0.15564057741E+02  0.69945499366E+01  0.77146414203E+01  0.72461566426E+02  0.69999994960E+02 0.  0.
         12    1    1    2    0    0 -0.15564057741E+02 -0.69945499366E+01 -0.77146414203E+01  0.18726433574E+02  0.00000000000E+00 0. -1.
         11    1    3    3    0    0 -0.42086460034E+01  0.99428671038E+01 -0.18881327045E+02  0.21750352150E+02  0.51100000000E-03 0. -1.
        -11    1    3    3    0    0  0.21004091482E+02  0.12002483559E+02  0.54724553611E+01  0.24802807069E+02  0.51100000000E-03 0.  1.
         12    1    3    3    0    0 -0.12313877380E+01 -0.14950800726E+02  0.21123513104E+02  0.25908407206E+02  0.00000000000E+00 0. -1.
</event>
<event>
 7    1  0.2797450E-013  0.7246146E+02  0.7816164E-02  0.1226708E+00
        -11   -1    0    0    0    0  0.00000000000E+00  0.00000000000E+00  0.45593999997E+02  0.45594000000E+02  0.51100000000E-03 0.  1.
         11   -1    0    0    0    0 -0.00000000000E+00 -0.00000000000E+00 -0.45593999997E+02  0.45594000000E+02  0.51100000000E-03 0. -1.
    9900012    2    1    2    0    0 -0.34991065128E+00 -0.28691387405E+01  0.18502129788E+02  0.72461462646E+02  0.69999859768E+02 0.  0.
         12    1    1    2    0    0  0.34991065128E+00  0.28691387405E+01 -0.18502129788E+02  0.18726537354E+02  0.00000000000E+00 0. -1.
         11    1    3    3    0    0 -0.12987236027E+02  0.95898123024E+01 -0.11959410789E+02  0.20091299269E+02  0.51100000000E-03 0. -1.
        -11    1    3    3    0    0 -0.79312220557E+01 -0.17699718743E+02  0.67268079503E+01  0.20528864371E+02  0.51100000000E-03 0.  1.
        -12    1    3    3    0    0  0.20568547431E+02  0.52407677006E+01  0.23734732627E+02  0.31841299006E+02  0.00000000000E+00 0.  1.
</event>
<event>
 7    1  0.2797450E-013  0.7246151E+02  0.7816164E-02  0.1226708E+00
        -11   -1    0    0    0    0  0.00000000000E+00  0.00000000000E+00  0.45593999997E+02  0.45594000000E+02  0.51100000000E-03 0.  1.
         11   -1    0    0    0    0 -0.00000000000E+00 -0.00000000000E+00 -0.45593999997E+02  0.45594000000E+02  0.51100000000E-03 0. -1.
    9900012    2    1    2    0    0 -0.10924711710E+02 -0.14256790526E+02  0.52986854224E+01  0.72461508891E+02  0.69999920011E+02 0.  0.
         12    1    1    2    0    0  0.10924711710E+02  0.14256790526E+02 -0.52986854224E+01  0.18726491109E+02  0.00000000000E+00 0. -1.
         11    1    3    3    0    0 -0.44924237656E+01 -0.13015462725E+02  0.18831655852E+02  0.23328424800E+02  0.51100000000E-03 0. -1.
        -11    1    3    3    0    0  0.19332410999E+02 -0.96515140697E-01  0.13094476288E+01  0.19376947220E+02  0.51100000000E-03 0.  1.
         12    1    3    3    0    0 -0.25764698943E+02 -0.11448126608E+01 -0.14842418059E+02  0.29756136871E+02  0.00000000000E+00 0. -1.
</event>
<event>
 7    1  0.2797450E-013  0.7246160E+02  0.7816164E-02  0.1226708E+00
        -11   -1    0    0    0    0  0.00000000000E+00  0.00000000000E+00  0.45593999997E+02  0.45594000000E+02  0.51100000000E-03 0. -1.
         11   -1    0    0    0    0 -0.00000000000E+00 -0.00000000000E+00 -0.45593999997E+02  0.45594000000E+02  0.51100000000E-03 0.  1.
    9900012    2    1    2    0    0  0.87318312808E+01  0.10925123411E+02 -0.12452912478E+02  0.72461595427E+02  0.70000032739E+02 0.  0.
         12    1    1    2    0    0 -0.87318312808E+01 -0.10925123411E+02  0.12452912478E+02  0.18726404573E+02  0.00000000000E+00 0. -1.
         11    1    3    3    0    0  0.12824577128E+02 -0.11376056169E+01 -0.17655725453E+02  0.21851511769E+02  0.51100000000E-03 0. -1.
        -11    1    3    3    0    0  0.94120626575E+01 -0.11536240506E+02 -0.11400036469E+02  0.18751869246E+02  0.51100000000E-03 0.  1.
         12    1    3    3    0    0 -0.13504808505E+02  0.23598969534E+02  0.16602849444E+02  0.31858214411E+02  0.00000000000E+00 0. -1.
</event>
<event>
 7    1  0.2797450E-013  0.7246156E+02  0.7816164E-02  0.1226708E+00
        -11   -1    0    0    0    0  0.00000000000E+00  0.00000000000E+00  0.45593999997E+02  0.45594000000E+02  0.51100000000E-03 0.  1.
         11   -1    0    0    0    0 -0.00000000000E+00 -0.00000000000E+00 -0.45593999997E+02  0.45594000000E+02  0.51100000000E-03 0. -1.
    9900012    2    1    2    0    0  0.98207572609E+01 -0.18787593842E+01  0.15833587113E+02  0.72461561714E+02  0.69999988823E+02 0.  0.
         12    1    1    2    0    0 -0.98207572609E+01  0.18787593842E+01 -0.15833587113E+02  0.18726438286E+02  0.00000000000E+00 0. -1.
         11    1    3    3    0    0  0.17547565356E+02 -0.84218478013E+01 -0.76725170917E+01  0.20921569948E+02  0.51100000000E-03 0. -1.
        -11    1    3    3    0    0  0.15096418168E+02 -0.85529650484E+01  0.14854073453E+02  0.22840721333E+02  0.51100000000E-03 0.  1.
        -12    1    3    3    0    0 -0.22823226262E+02  0.15096053465E+02  0.86520307520E+01  0.28699270433E+02  0.00000000000E+00 0.  1.
</event>
<event>
 7    1  0.2797450E-013  0.7246159E+02  0.7816164E-02  0.1226708E+00
        -11   -1    0    0    0    0  0.00000000000E+00  0.00000000000E+00  0.45593999997E+02  0.45594000000E+02  0.51100000000E-03 0.  1.
         11   -1    0    0    0    0 -0.00000000000E+00 -0.00000000000E+00 -0.45593999997E+02  0.45594000000E+02  0.51100000000E-03 0. -1.
    9900012    2    1    2    0    0  0.12434888006E+02  0.13917189421E+02 -0.15374639530E+01  0.72461590934E+02  0.70000026887E+02 0.  0.
         12    1    1    2    0    0 -0.12434888006E+02 -0.13917189421E+02  0.15374639530E+01  0.18726409066E+02  0.00000000000E+00 0. -1.
         11    1    3    3    0    0 -0.12933877109E+02  0.17597098494E+02  0.64888742481E-01  0.21839122311E+02  0.51100000000E-03 0. -1.
        -11    1    3    3    0    0  0.82282049054E+01  0.39568844379E+01  0.20013612273E+02  0.21997840050E+02  0.51100000000E-03 0.  1.
         12    1    3    3    0    0  0.17140560210E+02 -0.76367935115E+01 -0.21615964968E+02  0.28624628573E+02  0.00000000000E+00 0. -1.
</event>
<event>
 7    1  0.2797450E-013  0.7246159E+02  0.7816164E-02  0.1226708E+00
        -11   -1    0    0    0    0  0.00000000000E+00  0.00000000000E+00  0.45593999997E+02  0.45594000000E+02  0.51100000000E-03 0. -1.
         11   -1    0    0    0    0 -0.00000000000E+00 -0.00000000000E+00 -0.45593999997E+02  0.45594000000E+02  0.51100000000E-03 0.  1.
    9900012    2    1    2    0    0 -0.92318621908E+00 -0.18099833988E+02 -0.47140519348E+01  0.72461586867E+02  0.70000021589E+02 0.  0.
         12    1    1    2    0    0  0.92318621908E+00  0.18099833988E+02  0.47140519348E+01  0.18726413133E+02  0.00000000000E+00 0. -1.
         11    1    3    3    0    0  0.73035993851E+00 -0.14951249195E+01  0.29204533105E+01  0.33612307217E+01  0.51100000000E-03 0. -1.
        -11    1    3    3    0    0  0.58622629424E+01 -0.39615239844E+02  0.72298095554E+01  0.40694022917E+02  0.51100000000E-03 0.  1.
         12    1    3    3    0    0 -0.75158091000E+01  0.23010530776E+02 -0.14864314801E+02  0.28406333229E+02  0.00000000000E+00 0. -1.
</event>
<event>
 7    1  0.2797450E-013  0.7246167E+02  0.7816164E-02  0.1226708E+00
        -11   -1    0    0    0    0  0.00000000000E+00  0.00000000000E+00  0.45593999997E+02  0.45594000000E+02  0.51100000000E-03 0.  1.
         11   -1    0    0    0    0 -0.00000000000E+00 -0.00000000000E+00 -0.45593999997E+02  0.45594000000E+02  0.51100000000E-03 0. -1.
    9900012    2    1    2    0    0  0.18647556290E+02 -0.41815757371E+00  0.16641217703E+01  0.72461667935E+02  0.70000127194E+02 0.  0.
         12    1    1    2    0    0 -0.18647556290E+02  0.41815757371E+00 -0.16641217703E+01  0.18726332065E+02  0.00000000000E+00 0. -1.
         11    1    3    3    0    0  0.90683568391E+01 -0.20782910678E+02 -0.11350701886E+02  0.25357501958E+02  0.51100000000E-03 0. -1.
        -11    1    3    3    0    0  0.18603381912E+02 -0.41976400039E+01  0.46171934568E+01  0.19622040563E+02  0.51100000000E-03 0.  1.
        -12    1    3    3    0    0 -0.90241824608E+01  0.24562393108E+02  0.83976301999E+01  0.27482125413E+02  0.00000000000E+00 0.  1.
</event>
<event>
 7    1  0.2797450E-013  0.7246156E+02  0.7816164E-02  0.1226708E+00
        -11   -1    0    0    0    0  0.00000000000E+00  0.00000000000E+00  0.45593999997E+02  0.45594000000E+02  0.51100000000E-03 0. -1.
         11   -1    0    0    0    0 -0.00000000000E+00 -0.00000000000E+00 -0.45593999997E+02  0.45594000000E+02  0.51100000000E-03 0.  1.
    9900012    2    1    2    0    0  0.12305043180E+02 -0.54858473344E+01 -0.13006569342E+02  0.72461562681E+02  0.69999990082E+02 0.  0.
         12    1    1    2    0    0 -0.12305043180E+02  0.54858473344E+01  0.13006569342E+02  0.18726437319E+02  0.00000000000E+00 0. -1.
         11    1    3    3    0    0  0.72777642458E+01 -0.45662254321E+00  0.82634774733E+01  0.11020862796E+02  0.51100000000E-03 0. -1.
        -11    1    3    3    0    0  0.20877262749E+02 -0.28318416816E+01 -0.34669931224E+02  0.40569490489E+02  0.51100000000E-03 0.  1.
         12    1    3    3    0    0 -0.15849983815E+02 -0.21973831096E+01  0.13399884409E+02  0.20871209395E+02  0.00000000000E+00 0. -1.
</event>
<event>
 7    1  0.2797450E-013  0.7246161E+02  0.7816164E-02  0.1226708E+00
        -11   -1    0    0    0    0  0.00000000000E+00  0.00000000000E+00  0.45593999997E+02  0.45594000000E+02  0.51100000000E-03 0.  1.
         11   -1    0    0    0    0 -0.00000000000E+00 -0.00000000000E+00 -0.45593999997E+02  0.45594000000E+02  0.51100000000E-03 0. -1.
    9900012    2    1    2    0    0  0.13106893901E+02  0.22022297998E+01  0.13192320804E+02  0.72461606540E+02  0.70000047217E+02 0.  0.
         12    1    1    2    0    0 -0.13106893901E+02 -0.22022297998E+01 -0.13192320804E+02  0.18726393460E+02  0.00000000000E+00 0. -1.
         11    1    3    3    0    0  0.97921486006E+01 -0.23175003145E+02 -0.46491090518E+01  0.25584783763E+02  0.51100000000E-03 0. -1.
        -11    1    3    3    0    0  0.90385014372E+01 -0.53376151222E+00  0.18212039859E+02  0.20338579244E+02  0.51100000000E-03 0.  1.
        -12    1    3    3    0    0 -0.57237561372E+01  0.25910994457E+02 -0.37061000288E+00  0.26538243533E+02  0.00000000000E+00 0.  1.
</event>
<event>
 7    1  0.2797450E-013  0.7246149E+02  0.7816164E-02  0.1226708E+00
        -11   -1    0    0    0    0  0.00000000000E+00  0.00000000000E+00  0.45593999997E+02  0.45594000000E+02  0.51100000000E-03 0. -1.
         11   -1    0    0    0    0 -0.00000000000E+00 -0.00000000000E+00 -0.45593999997E+02  0.45594000000E+02  0.51100000000E-03 0.  1.
    9900012    2    1    2    0    0  0.67715586474E+01 -0.87896401163E+01 -0.15085438037E+02  0.72461488829E+02  0.69999893876E+02 0.  0.
         12    1    1    2    0    0 -0.67715586474E+01  0.87896401163E+01  0.15085438037E+02  0.18726511171E+02  0.00000000000E+00 0. -1.
         11    1    3    3    0    0 -0.15047083030E+02  0.37020475820E+00 -0.91910309692E+01  0.17635952194E+02  0.51100000000E-03 0. -1.
        -11    1    3    3    0    0  0.89221242730E+01  0.18080223918E+02 -0.12831640574E+02  0.23898740523E+02  0.51100000000E-03 0.  1.
        -12    1    3    3    0    0  0.12896517404E+02 -0.27240068793E+02  0.69372335069E+01  0.30926796112E+02  0.00000000000E+00 0.  1.
</event>
<event>
 7    1  0.2797450E-013  0.7246158E+02  0.7816164E-02  0.1226708E+00
        -11   -1    0    0    0    0  0.00000000000E+00  0.00000000000E+00  0.45593999997E+02  0.45594000000E+02  0.51100000000E-03 0.  1.
         11   -1    0    0    0    0 -0.00000000000E+00 -0.00000000000E+00 -0.45593999997E+02  0.45594000000E+02  0.51100000000E-03 0. -1.
    9900012    2    1    2    0    0  0.16541763203E+02  0.58491046931E+01  0.65449744588E+01  0.72461584266E+02  0.70000018201E+02 0.  0.
         12    1    1    2    0    0 -0.16541763203E+02 -0.58491046931E+01 -0.65449744588E+01  0.18726415734E+02  0.00000000000E+00 0. -1.
         11    1    3    3    0    0 -0.25940704367E+01  0.45430594694E+01 -0.46092467646E+01  0.69723558982E+01  0.51100000000E-03 0. -1.
        -11    1    3    3    0    0  0.84009853111E+01  0.30669788273E+02  0.12567358104E+02  0.34192849499E+02  0.51100000000E-03 0.  1.
         12    1    3    3    0    0  0.10734848329E+02 -0.29363743049E+02 -0.14131368802E+01  0.31296378869E+02  0.00000000000E+00 0. -1.
</event>
<event>
 7    1  0.2797450E-013  0.7246127E+02  0.7816164E-02  0.1226709E+00
        -11   -1    0    0    0    0  0.00000000000E+00  0.00000000000E+00  0.45593999997E+02  0.45594000000E+02  0.51100000000E-03 0. -1.
         11   -1    0    0    0    0 -0.00000000000E+00 -0.00000000000E+00 -0.45593999997E+02  0.45594000000E+02  0.51100000000E-03 0.  1.
    9900012    2    1    2    0    0  0.10957350400E+02 -0.13875190099E+02 -0.61730065931E+01  0.72461269413E+02  0.69999608045E+02 0.  0.
         12    1    1    2    0    0 -0.10957350400E+02  0.13875190099E+02  0.61730065931E+01  0.18726730587E+02  0.00000000000E+00 0. -1.
         11    1    3    3    0    0  0.15769226375E+02 -0.37124009407E+02  0.10275792825E+02  0.41622740100E+02  0.51100000000E-03 0. -1.
        -11    1    3    3    0    0 -0.24800893210E+01  0.11136990157E+01 -0.52732842630E+01  0.59328488702E+01  0.51100000000E-03 0.  1.
        -12    1    3    3    0    0 -0.23317866547E+01  0.22135120292E+02 -0.11175515155E+02  0.24905680443E+02  0.00000000000E+00 0.  1.
</event>
<event>
 7    1  0.2797450E-013  0.7246155E+02  0.7816164E-02  0.1226708E+00
        -11   -1    0    0    0    0  0.00000000000E+00  0.00000000000E+00  0.45593999997E+02  0.45594000000E+02  0.51100000000E-03 0. -1.
         11   -1    0    0    0    0 -0.00000000000E+00 -0.00000000000E+00 -0.45593999997E+02  0.45594000000E+02  0.51100000000E-03 0.  1.
    9900012    2    1    2    0    0 -0.61534489210E+01  0.16485088121E+02 -0.64075645419E+01  0.72461549526E+02  0.69999972946E+02 0.  0.
         12    1    1    2    0    0  0.61534489210E+01 -0.16485088121E+02  0.64075645419E+01  0.18726450474E+02  0.00000000000E+00 0. -1.
         11    1    3    3    0    0 -0.10897443859E+02 -0.11099528594E+01  0.95720003315E+01  0.14546802694E+02  0.51100000000E-03 0. -1.
        -11    1    3    3    0    0 -0.15636991225E+02  0.24912862579E+02 -0.20422904804E+02  0.35808675727E+02  0.51100000000E-03 0.  1.
         12    1    3    3    0    0  0.20380986163E+02 -0.73178215987E+01  0.44433399303E+01  0.22106071105E+02  0.00000000000E+00 0. -1.
</event>
<event>
 7    1  0.2797450E-013  0.7246152E+02  0.7816164E-02  0.1226708E+00
        -11   -1    0    0    0    0  0.00000000000E+00  0.00000000000E+00  0.45593999997E+02  0.45594000000E+02  0.51100000000E-03 0. -1.
         11   -1    0    0    0    0 -0.00000000000E+00 -0.00000000000E+00 -0.45593999997E+02  0.45594000000E+02  0.51100000000E-03 0.  1.
    9900012    2    1    2    0    0 -0.16667067606E+02  0.80510802463E+01 -0.28407975378E+01  0.72461516978E+02  0.69999930546E+02 0.  0.
         12    1    1    2    0    0  0.16667067606E+02 -0.80510802463E+01  0.28407975378E+01  0.18726483022E+02  0.00000000000E+00 0. -1.
         11    1    3    3    0    0  0.32914260927E+01 -0.11641066405E+02 -0.10124649563E+02  0.15775184367E+02  0.51100000000E-03 0. -1.
        -11    1    3    3    0    0 -0.26910953891E+02 -0.54585500192E+01 -0.48921728579E+01  0.27891370766E+02  0.51100000000E-03 0.  1.
        -12    1    3    3    0    0  0.69524601928E+01  0.25150696671E+02  0.12176024883E+02  0.28794961846E+02  0.00000000000E+00 0.  1.
</event>
<event>
 7    1  0.2797450E-013  0.7246136E+02  0.7816164E-02  0.1226709E+00
        -11   -1    0    0    0    0  0.00000000000E+00  0.00000000000E+00  0.45593999997E+02  0.45594000000E+02  0.51100000000E-03 0.  1.
         11   -1    0    0    0    0 -0.00000000000E+00 -0.00000000000E+00 -0.45593999997E+02  0.45594000000E+02  0.51100000000E-03 0. -1.
    9900012    2    1    2    0    0  0.57438142986E+01 -0.53032959980E+01  0.17016774414E+02  0.72461362219E+02  0.69999728942E+02 0.  0.
         12    1    1    2    0    0 -0.57438142986E+01  0.53032959980E+01 -0.17016774414E+02  0.18726637781E+02  0.00000000000E+00 0. -1.
         11    1    3    3    0    0  0.25868138432E+01 -0.43386459437E+00 -0.27292680930E+01  0.37853333975E+01  0.51100000000E-03 0. -1.
        -11    1    3    3    0    0 -0.33764420462E+01 -0.34835887129E+02  0.85725603074E+01  0.36033708988E+02  0.51100000000E-03 0.  1.
         12    1    3    3    0    0  0.65334425016E+01  0.29966455725E+02  0.11173482200E+02  0.32642319833E+02  0.00000000000E+00 0. -1.
</event>
<event>
 7    1  0.2797450E-013  0.7246160E+02  0.7816164E-02  0.1226708E+00
        -11   -1    0    0    0    0  0.00000000000E+00  0.00000000000E+00  0.45593999997E+02  0.45594000000E+02  0.51100000000E-03 0.  1.
         11   -1    0    0    0    0 -0.00000000000E+00 -0.00000000000E+00 -0.45593999997E+02  0.45594000000E+02  0.51100000000E-03 0. -1.
    9900012    2    1    2    0    0  0.11395515382E+01 -0.59419843026E+00  0.18682248460E+02  0.72461599999E+02  0.70000038696E+02 0.  0.
         12    1    1    2    0    0 -0.11395515382E+01  0.59419843026E+00 -0.18682248460E+02  0.18726400001E+02  0.00000000000E+00 0. -1.
         11    1    3    3    0    0  0.13328844035E+01  0.11779961762E+02 -0.16522000164E+01  0.11969705305E+02  0.51100000000E-03 0. -1.
        -11    1    3    3    0    0 -0.41434839530E+01  0.87818051605E+01  0.33758243619E+02  0.35127020563E+02  0.51100000000E-03 0.  1.
        -12    1    3    3    0    0  0.39501510876E+01 -0.21155965352E+02 -0.13423795143E+02  0.25364874130E+02  0.00000000000E+00 0.  1.
</event>
<event>
 7    1  0.2797450E-013  0.7246155E+02  0.7816164E-02  0.1226708E+00
        -11   -1    0    0    0    0  0.00000000000E+00  0.00000000000E+00  0.45593999997E+02  0.45594000000E+02  0.51100000000E-03 0.  1.
         11   -1    0    0    0    0 -0.00000000000E+00 -0.00000000000E+00 -0.45593999997E+02  0.45594000000E+02  0.51100000000E-03 0. -1.
    9900012    2    1    2    0    0 -0.93117690571E+01 -0.74561415065E+01 -0.14435263372E+02  0.72461550316E+02  0.69999973975E+02 0.  0.
         12    1    1    2    0    0  0.93117690571E+01  0.74561415065E+01  0.14435263372E+02  0.18726449684E+02  0.00000000000E+00 0. -1.
         11    1    3    3    0    0  0.71699114302E+01 -0.27806108754E+01 -0.31781398060E+02  0.32698573206E+02  0.51100000000E-03 0. -1.
        -11    1    3    3    0    0 -0.51969738743E+01  0.79893915351E+01 -0.57316179450E+01  0.11121616748E+02  0.51100000000E-03 0.  1.
        -12    1    3    3    0    0 -0.11284706613E+02 -0.12664922166E+02  0.23077752633E+02  0.28641360363E+02  0.00000000000E+00 0.  1.
</event>
<event>
 7    1  0.2797450E-013  0.7246154E+02  0.7816164E-02  0.1226708E+00
        -11   -1    0    0    0    0  0.00000000000E+00  0.00000000000E+00  0.45593999997E+02  0.45594000000E+02  0.51100000000E-03 0.  1.
         11   -1    0    0    0    0 -0.00000000000E+00 -0.00000000000E+00 -0.45593999997E+02  0.45594000000E+02  0.51100000000E-03 0. -1.
    9900012    2    1    2    0    0  0.57451063874E+01 -0.12906674599E+02  0.12291934257E+02  0.72461544265E+02  0.69999966092E+02 0.  0.
         12    1    1    2    0    0 -0.57451063874E+01  0.12906674599E+02 -0.12291934257E+02  0.18726455735E+02  0.00000000000E+00 0. -1.
         11    1    3    3    0    0  0.59733473534E+01  0.42732357862E+01 -0.22463260614E+02  0.23633440299E+02  0.51100000000E-03 0. -1.
        -11    1    3    3    0    0  0.60797522530E+01 -0.65300008890E+01 -0.27474589718E+01  0.93355680133E+01  0.51100000000E-03 0.  1.
         12    1    3    3    0    0 -0.63079932189E+01 -0.10649909496E+02  0.37502653843E+02  0.39492535953E+02  0.00000000000E+00 0. -1.
</event>
<event>
 7    1  0.2797450E-013  0.7246159E+02  0.7816164E-02  0.1226708E+00
        -11   -1    0    0    0    0  0.00000000000E+00  0.00000000000E+00  0.45593999997E+02  0.45594000000E+02  0.51100000000E-03 0.  1.
         11   -1    0    0    0    0 -0.00000000000E+00 -0.00000000000E+00 -0.45593999997E+02  0.45594000000E+02  0.51100000000E-03 0. -1.
    9900012    2    1    2    0    0 -0.17074287876E+02  0.71399226135E+01  0.28580980145E+01  0.72461587486E+02  0.70000022395E+02 0.  0.
         12    1    1    2    0    0  0.17074287876E+02 -0.71399226135E+01 -0.28580980145E+01  0.18726412514E+02  0.00000000000E+00 0. -1.
         11    1    3    3    0    0 -0.20528797809E+02 -0.13612650547E+02 -0.51690902830E+01  0.25168537681E+02  0.51100000000E-03 0. -1.
        -11    1    3    3    0    0  0.68333770382E+01 -0.92242464350E+01  0.12300654087E+02  0.16825214866E+02  0.51100000000E-03 0.  1.
        -12    1    3    3    0    0 -0.33788671054E+01  0.29976819596E+02 -0.42734657897E+01  0.30467834939E+02  0.00000000000E+00 0.  1.
</event>
<event>
 7    1  0.2797450E-013  0.7246160E+02  0.7816164E-02  0.1226708E+00
        -11   -1    0    0    0    0  0.00000000000E+00  0.00000000000E+00  0.45593999997E+02  0.45594000000E+02  0.51100000000E-03 0.  1.
         11   -1    0    0    0    0 -0.00000000000E+00 -0.00000000000E+00 -0.45593999997E+02  0.45594000000E+02  0.51100000000E-03 0. -1.
    9900012    2    1    2    0    0  0.10539984040E+02  0.97357882982E+01  0.12033338128E+02  0.72461599816E+02  0.70000038457E+02 0.  0.
         12    1    1    2    0    0 -0.10539984040E+02 -0.97357882982E+01 -0.12033338128E+02  0.18726400184E+02  0.00000000000E+00 0. -1.
         11    1    3    3    0    0 -0.27027795720E+02 -0.12307130765E+01 -0.11488890127E+01  0.27080183574E+02  0.51100000000E-03 0. -1.
        -11    1    3    3    0    0  0.15320953832E-01  0.49750805518E+01  0.36702066579E+01  0.61824006989E+01  0.51100000000E-03 0.  1.
        -12    1    3    3    0    0  0.37552458807E+02  0.59914208229E+01  0.95120204824E+01  0.39199015543E+02  0.00000000000E+00 0.  1.
</event>
<event>
 7    1  0.2797450E-013  0.7246141E+02  0.7816164E-02  0.1226708E+00
        -11   -1    0    0    0    0  0.00000000000E+00  0.00000000000E+00  0.45593999997E+02  0.45594000000E+02  0.51100000000E-03 0.  1.
         11   -1    0    0    0    0 -0.00000000000E+00 -0.00000000000E+00 -0.45593999997E+02  0.45594000000E+02  0.51100000000E-03 0. -1.
    9900012    2    1    2    0    0 -0.17095169134E+02  0.69493456697E+01  0.31854478701E+01  0.72461406848E+02  0.69999787080E+02 0.  0.
         12    1    1    2    0    0  0.17095169134E+02 -0.69493456697E+01 -0.31854478701E+01  0.18726593152E+02  0.00000000000E+00 0. -1.
         11    1    3    3    0    0  0.88102260555E+01  0.19383306324E+02 -0.28722275558E+01  0.21484467380E+02  0.51100000000E-03 0. -1.
        -11    1    3    3    0    0 -0.52733875467E+01 -0.18546346484E-01  0.21654602261E+02  0.22287457449E+02  0.51100000000E-03 0.  1.
         12    1    3    3    0    0 -0.20632007643E+02 -0.12415414307E+02 -0.15596926835E+02  0.28689482019E+02  0.00000000000E+00 0. -1.
</event>
<event>
 7    1  0.2797450E-013  0.7246160E+02  0.7816164E-02  0.1226708E+00
        -11   -1    0    0    0    0  0.00000000000E+00  0.00000000000E+00  0.45593999997E+02  0.45594000000E+02  0.51100000000E-03 0.  1.
         11   -1    0    0    0    0 -0.00000000000E+00 -0.00000000000E+00 -0.45593999997E+02  0.45594000000E+02  0.51100000000E-03 0. -1.
    9900012    2    1    2    0    0  0.83179405148E+01  0.15572325026E+01  0.16705240779E+02  0.72461596796E+02  0.70000034523E+02 0.  0.
         12    1    1    2    0    0 -0.83179405148E+01 -0.15572325026E+01 -0.16705240779E+02  0.18726403204E+02  0.00000000000E+00 0. -1.
         11    1    3    3    0    0 -0.30793084477E+01  0.76408162012E+01 -0.14964690455E+02  0.17082335128E+02  0.51100000000E-03 0. -1.
        -11    1    3    3    0    0 -0.11020443768E+02  0.91933190547E+01  0.22606253313E+02  0.26777042130E+02  0.51100000000E-03 0.  1.
        -12    1    3    3    0    0  0.22417692730E+02 -0.15276902753E+02  0.90636779207E+01  0.28602219539E+02  0.00000000000E+00 0.  1.
</event>
<event>
 7    1  0.2797450E-013  0.7246158E+02  0.7816164E-02  0.1226708E+00
        -11   -1    0    0    0    0  0.00000000000E+00  0.00000000000E+00  0.45593999997E+02  0.45594000000E+02  0.51100000000E-03 0. -1.
         11   -1    0    0    0    0 -0.00000000000E+00 -0.00000000000E+00 -0.45593999997E+02  0.45594000000E+02  0.51100000000E-03 0.  1.
    9900012    2    1    2    0    0 -0.18330719028E+02 -0.20263223967E+01  0.32492282162E+01  0.72461582122E+02  0.70000015407E+02 0.  0.
         12    1    1    2    0    0  0.18330719028E+02  0.20263223967E+01 -0.32492282162E+01  0.18726417878E+02  0.00000000000E+00 0. -1.
         11    1    3    3    0    0 -0.33707523052E+01 -0.16366159145E+01  0.68746964137E+01  0.78295551468E+01  0.51100000000E-03 0.  1.
        -11    1    3    3    0    0 -0.21888070238E+02  0.16464349696E+02  0.20633441906E+02  0.34291418092E+02  0.51100000000E-03 0. -1.
        -12    1    3    3    0    0  0.69281035144E+01 -0.16854056178E+02 -0.24258910103E+02  0.30340608883E+02  0.00000000000E+00 0.  1.
</event>
<event>
 7    1  0.2797450E-013  0.7246160E+02  0.7816164E-02  0.1226708E+00
        -11   -1    0    0    0    0  0.00000000000E+00  0.00000000000E+00  0.45593999997E+02  0.45594000000E+02  0.51100000000E-03 0.  1.
         11   -1    0    0    0    0 -0.00000000000E+00 -0.00000000000E+00 -0.45593999997E+02  0.45594000000E+02  0.51100000000E-03 0. -1.
    9900012    2    1    2    0    0 -0.50226128231E+01 -0.10199762400E+02  0.14880062381E+02  0.72461600211E+02  0.70000038972E+02 0.  0.
         12    1    1    2    0    0  0.50226128231E+01  0.10199762400E+02 -0.14880062381E+02  0.18726399789E+02  0.00000000000E+00 0. -1.
         11    1    3    3    0    0 -0.15854749108E+02 -0.24106719293E+02  0.16601265187E+02  0.33288271064E+02  0.51100000000E-03 0. -1.
        -11    1    3    3    0    0  0.33019136813E+01 -0.11246627432E+02  0.38399876384E+01  0.12334292354E+02  0.51100000000E-03 0.  1.
        -12    1    3    3    0    0  0.75302226036E+01  0.25153584325E+02 -0.55611904442E+01  0.26839036793E+02  0.00000000000E+00 0.  1.
</event>
<event>
 7    1  0.2797450E-013  0.7246153E+02  0.7816164E-02  0.1226708E+00
        -11   -1    0    0    0    0  0.00000000000E+00  0.00000000000E+00  0.45593999997E+02  0.45594000000E+02  0.51100000000E-03 0. -1.
         11   -1    0    0    0    0 -0.00000000000E+00 -0.00000000000E+00 -0.45593999997E+02  0.45594000000E+02  0.51100000000E-03 0.  1.
    9900012    2    1    2    0    0 -0.91234672747E+01 -0.14289961908E+02  0.79523563835E+01  0.72461531072E+02  0.69999948906E+02 0.  0.
         12    1    1    2    0    0  0.91234672747E+01  0.14289961908E+02 -0.79523563835E+01  0.18726468928E+02  0.00000000000E+00 0. -1.
         11    1    3    3    0    0 -0.15203629207E+02 -0.15152366233E+02  0.23257622552E+02  0.31649037119E+02  0.51100000000E-03 0. -1.
        -11    1    3    3    0    0  0.19032349229E+01  0.13883762501E+02  0.62029964670E+01  0.15325088247E+02  0.51100000000E-03 0.  1.
        -12    1    3    3    0    0  0.41769270097E+01 -0.13021358176E+02 -0.21508262636E+02  0.25487405706E+02  0.00000000000E+00 0.  1.
</event>
<event>
 7    1  0.2797450E-013  0.7246166E+02  0.7816164E-02  0.1226708E+00
        -11   -1    0    0    0    0  0.00000000000E+00  0.00000000000E+00  0.45593999997E+02  0.45594000000E+02  0.51100000000E-03 0.  1.
         11   -1    0    0    0    0 -0.00000000000E+00 -0.00000000000E+00 -0.45593999997E+02  0.45594000000E+02  0.51100000000E-03 0. -1.
    9900012    2    1    2    0    0  0.11115633820E+02  0.41635731717E+01  0.14483891066E+02  0.72461661405E+02  0.70000118688E+02 0.  0.
         12    1    1    2    0    0 -0.11115633820E+02 -0.41635731717E+01 -0.14483891066E+02  0.18726338595E+02  0.00000000000E+00 0. -1.
         11    1    3    3    0    0 -0.57962880089E+01 -0.11452003900E+02  0.23645887183E+02  0.26904894145E+02  0.51100000000E-03 0. -1.
        -11    1    3    3    0    0 -0.11295837472E+02  0.45075127874E+01  0.35707414647E+01  0.12675322899E+02  0.51100000000E-03 0.  1.
         12    1    3    3    0    0  0.28207759301E+02  0.11108064284E+02 -0.12732737582E+02  0.32881444361E+02  0.00000000000E+00 0. -1.
</event>
<event>
 7    1  0.2797450E-013  0.7246157E+02  0.7816164E-02  0.1226708E+00
        -11   -1    0    0    0    0  0.00000000000E+00  0.00000000000E+00  0.45593999997E+02  0.45594000000E+02  0.51100000000E-03 0.  1.
         11   -1    0    0    0    0 -0.00000000000E+00 -0.00000000000E+00 -0.45593999997E+02  0.45594000000E+02  0.51100000000E-03 0. -1.
    9900012    2    1    2    0    0 -0.13622828319E+02  0.12228381228E+02  0.39451722482E+01  0.72461571004E+02  0.70000000925E+02 0.  0.
         12    1    1    2    0    0  0.13622828319E+02 -0.12228381228E+02 -0.39451722482E+01  0.18726428996E+02  0.00000000000E+00 0. -1.
         11    1    3    3    0    0 -0.39043305867E+01  0.83981361114E+00 -0.18541739653E+02  0.18966950041E+02  0.51100000000E-03 0. -1.
        -11    1    3    3    0    0 -0.28322226329E+02  0.80019686620E+01  0.16029020382E+02  0.33512825923E+02  0.51100000000E-03 0.  1.
         12    1    3    3    0    0  0.18603728597E+02  0.33865989549E+01  0.64578915188E+01  0.19981795041E+02  0.00000000000E+00 0. -1.
</event>
<event>
 7    1  0.2797450E-013  0.7246137E+02  0.7816164E-02  0.1226709E+00
        -11   -1    0    0    0    0  0.00000000000E+00  0.00000000000E+00  0.45593999997E+02  0.45594000000E+02  0.51100000000E-03 0. -1.
         11   -1    0    0    0    0 -0.00000000000E+00 -0.00000000000E+00 -0.45593999997E+02  0.45594000000E+02  0.51100000000E-03 0.  1.
    9900012    2    1    2    0    0  0.11706666348E+01  0.16732456439E+02 -0.83271206438E+01  0.72461374648E+02  0.69999745134E+02 0.  0.
         12    1    1    2    0    0 -0.11706666348E+01 -0.16732456439E+02  0.83271206438E+01  0.18726625352E+02  0.00000000000E+00 0. -1.
         11    1    3    3    0    0 -0.43643301461E+01  0.37259677205E+01  0.20029399672E+01  0.60779915969E+01  0.51100000000E-03 0. -1.
        -11    1    3    3    0    0  0.91451377786E+01 -0.20468768520E+01 -0.35564835703E+02  0.36778808962E+02  0.51100000000E-03 0.  1.
         12    1    3    3    0    0 -0.36101409978E+01  0.15053365571E+02  0.25234775092E+02  0.29604574089E+02  0.00000000000E+00 0. -1.
</event>
<event>
 7    1  0.2797450E-013  0.7246158E+02  0.7816164E-02  0.1226708E+00
        -11   -1    0    0    0    0  0.00000000000E+00  0.00000000000E+00  0.45593999997E+02  0.45594000000E+02  0.51100000000E-03 0. -1.
         11   -1    0    0    0    0 -0.00000000000E+00 -0.00000000000E+00 -0.45593999997E+02  0.45594000000E+02  0.51100000000E-03 0.  1.
    9900012    2    1    2    0    0  0.17951984960E+02  0.42668909858E+01  0.31935279681E+01  0.72461581667E+02  0.70000014816E+02 0.  0.
         12    1    1    2    0    0 -0.17951984960E+02 -0.42668909858E+01 -0.31935279681E+01  0.18726418333E+02  0.00000000000E+00 0. -1.
         11    1    3    3    0    0 -0.47641907570E+01 -0.15680595820E+02 -0.22281026287E+02  0.27659044298E+02  0.51100000000E-03 0. -1.
        -11    1    3    3    0    0 -0.17645989527E+01 -0.27494205917E+01  0.37463043972E+01  0.49707061824E+01  0.51100000000E-03 0.  1.
        -12    1    3    3    0    0  0.24480774670E+02  0.22696907397E+02  0.21728249858E+02  0.39831831187E+02  0.00000000000E+00 0.  1.
</event>
<event>
 7    1  0.2797450E-013  0.7246156E+02  0.7816164E-02  0.1226708E+00
        -11   -1    0    0    0    0  0.00000000000E+00  0.00000000000E+00  0.45593999997E+02  0.45594000000E+02  0.51100000000E-03 0. -1.
         11   -1    0    0    0    0 -0.00000000000E+00 -0.00000000000E+00 -0.45593999997E+02  0.45594000000E+02  0.51100000000E-03 0.  1.
    9900012    2    1    2    0    0  0.17558426033E+02 -0.28020172193E+01  0.58762282397E+01  0.72461556569E+02  0.69999982120E+02 0.  0.
         12    1    1    2    0    0 -0.17558426033E+02  0.28020172193E+01 -0.58762282397E+01  0.18726443431E+02  0.00000000000E+00 0. -1.
         11    1    3    3    0    0  0.10230839573E+01 -0.99579798332E+01  0.82393760694E+01  0.12965160293E+02  0.51100000000E-03 0. -1.
        -11    1    3    3    0    0 -0.16660078751E+02  0.11220583896E+01 -0.15980529358E+02  0.23112649304E+02  0.51100000000E-03 0.  1.
         12    1    3    3    0    0  0.33195420827E+02  0.60339042244E+01  0.13617381528E+02  0.36383746972E+02  0.00000000000E+00 0. -1.
</event>
<event>
 7    1  0.2797450E-013  0.7246155E+02  0.7816164E-02  0.1226708E+00
        -11   -1    0    0    0    0  0.00000000000E+00  0.00000000000E+00  0.45593999997E+02  0.45594000000E+02  0.51100000000E-03 0. -1.
         11   -1    0    0    0    0 -0.00000000000E+00 -0.00000000000E+00 -0.45593999997E+02  0.45594000000E+02  0.51100000000E-03 0.  1.
    9900012    2    1    2    0    0 -0.11998088010E+02  0.11882326128E+02  0.80954463482E+01  0.72461547007E+02  0.69999969664E+02 0.  0.
         12    1    1    2    0    0  0.11998088010E+02 -0.11882326128E+02 -0.80954463482E+01  0.18726452993E+02  0.00000000000E+00 0. -1.
         11    1    3    3    0    0  0.12120909904E+00  0.79624027228E+01 -0.23552071984E+01  0.83043091208E+01  0.51100000000E-03 0. -1.
        -11    1    3    3    0    0  0.16732324838E+02  0.22326767404E+02  0.10837884317E+02  0.29931838800E+02  0.51100000000E-03 0.  1.
         12    1    3    3    0    0 -0.28851621947E+02 -0.18406843998E+02 -0.38723077057E+00  0.34225399087E+02  0.00000000000E+00 0. -1.
</event>
<event>
 7    1  0.2797450E-013  0.7246124E+02  0.7816164E-02  0.1226709E+00
        -11   -1    0    0    0    0  0.00000000000E+00  0.00000000000E+00  0.45593999997E+02  0.45594000000E+02  0.51100000000E-03 0. -1.
         11   -1    0    0    0    0 -0.00000000000E+00 -0.00000000000E+00 -0.45593999997E+02  0.45594000000E+02  0.51100000000E-03 0.  1.
    9900012    2    1    2    0    0 -0.84039134246E+01  0.16614542826E+02 -0.20056349506E+01  0.72461244656E+02  0.69999575794E+02 0.  0.
         12    1    1    2    0    0  0.84039134246E+01 -0.16614542826E+02  0.20056349506E+01  0.18726755344E+02  0.00000000000E+00 0. -1.
         11    1    3    3    0    0 -0.11403033686E+02  0.11279702387E+02  0.18822882458E+02  0.24729774918E+02  0.51100000000E-03 0. -1.
        -11    1    3    3    0    0 -0.15773129428E+01  0.23324504708E+02 -0.64495464121E+01  0.24251125441E+02  0.51100000000E-03 0.  1.
        -12    1    3    3    0    0  0.45764332048E+01 -0.17989664268E+02 -0.14378970997E+02  0.23480344297E+02  0.00000000000E+00 0.  1.
</event>
<event>
 7    1  0.2797450E-013  0.7246103E+02  0.7816164E-02  0.1226709E+00
        -11   -1    0    0    0    0  0.00000000000E+00  0.00000000000E+00  0.45593999997E+02  0.45594000000E+02  0.51100000000E-03 0.  1.
         11   -1    0    0    0    0 -0.00000000000E+00 -0.00000000000E+00 -0.45593999997E+02  0.45594000000E+02  0.51100000000E-03 0. -1.
    9900012    2    1    2    0    0 -0.15416312492E+02 -0.43079932370E+01  0.97199822131E+01  0.72461026117E+02  0.69999291105E+02 0.  0.
         12    1    1    2    0    0  0.15416312492E+02  0.43079932370E+01 -0.97199822131E+01  0.18726973883E+02  0.00000000000E+00 0. -1.
         11    1    3    3    0    0  0.69725007946E+01  0.37077643615E+00 -0.44623836524E+01  0.82865017117E+01  0.51100000000E-03 0. -1.
        -11    1    3    3    0    0 -0.35268817536E+02  0.30675616602E+01 -0.90167381619E+01  0.36532191178E+02  0.51100000000E-03 0.  1.
         12    1    3    3    0    0  0.12880004249E+02 -0.77463313333E+01  0.23199104027E+02  0.27642333227E+02  0.00000000000E+00 0. -1.
</event>
<event>
 7    1  0.2797450E-013  0.7246121E+02  0.7816164E-02  0.1226709E+00
        -11   -1    0    0    0    0  0.00000000000E+00  0.00000000000E+00  0.45593999997E+02  0.45594000000E+02  0.51100000000E-03 0.  1.
         11   -1    0    0    0    0 -0.00000000000E+00 -0.00000000000E+00 -0.45593999997E+02  0.45594000000E+02  0.51100000000E-03 0. -1.
    9900012    2    1    2    0    0 -0.12635749447E+02  0.12951714665E+02 -0.48253030280E+01  0.72461211002E+02  0.69999531954E+02 0.  0.
         12    1    1    2    0    0  0.12635749447E+02 -0.12951714665E+02  0.48253030280E+01  0.18726788998E+02  0.00000000000E+00 0. -1.
         11    1    3    3    0    0 -0.14640384648E+02  0.33280598733E+01  0.29221256462E+02  0.32852681392E+02  0.51100000000E-03 0.  1.
        -11    1    3    3    0    0  0.41352164470E+01 -0.42044251712E+01 -0.69645600677E+01  0.91259138326E+01  0.51100000000E-03 0. -1.
        -12    1    3    3    0    0 -0.21305812461E+01  0.13828079962E+02 -0.27081999423E+02  0.30482615777E+02  0.00000000000E+00 0.  1.
</event>
<event>
 7    1  0.2797450E-013  0.7246162E+02  0.7816164E-02  0.1226708E+00
        -11   -1    0    0    0    0  0.00000000000E+00  0.00000000000E+00  0.45593999997E+02  0.45594000000E+02  0.51100000000E-03 0.  1.
         11   -1    0    0    0    0 -0.00000000000E+00 -0.00000000000E+00 -0.45593999997E+02  0.45594000000E+02  0.51100000000E-03 0. -1.
    9900012    2    1    2    0    0  0.65883287800E+01  0.17401627989E+02 -0.21105537019E+01  0.72461623689E+02  0.70000069557E+02 0.  0.
         12    1    1    2    0    0 -0.65883287800E+01 -0.17401627989E+02  0.21105537019E+01  0.18726376311E+02  0.00000000000E+00 0. -1.
         11    1    3    3    0    0  0.15499465348E+02 -0.12185718257E+02 -0.20073616751E+02  0.28136724138E+02  0.51100000000E-03 0. -1.
        -11    1    3    3    0    0  0.20645929415E+01  0.82396909313E+01 -0.60057130649E+01  0.10403059182E+02  0.51100000000E-03 0.  1.
         12    1    3    3    0    0 -0.10975729509E+02  0.21347655315E+02  0.23968776113E+02  0.33921840370E+02  0.00000000000E+00 0. -1.
</event>
<event>
 7    1  0.2797450E-013  0.7246162E+02  0.7816164E-02  0.1226708E+00
        -11   -1    0    0    0    0  0.00000000000E+00  0.00000000000E+00  0.45593999997E+02  0.45594000000E+02  0.51100000000E-03 0.  1.
         11   -1    0    0    0    0 -0.00000000000E+00 -0.00000000000E+00 -0.45593999997E+02  0.45594000000E+02  0.51100000000E-03 0. -1.
    9900012    2    1    2    0    0 -0.11620016417E+02 -0.55968595723E+01  0.13576731368E+02  0.72461621460E+02  0.70000066652E+02 0.  0.
         12    1    1    2    0    0  0.11620016417E+02  0.55968595723E+01 -0.13576731368E+02  0.18726378540E+02  0.00000000000E+00 0. -1.
         11    1    3    3    0    0  0.13218996621E+01  0.83221103598E+00  0.12464853966E+02  0.12562347654E+02  0.51100000000E-03 0. -1.
        -11    1    3    3    0    0  0.24125655226E+01 -0.19338277711E+02  0.23042053150E+02  0.30178231738E+02  0.51100000000E-03 0.  1.
         12    1    3    3    0    0 -0.15354481602E+02  0.12909207103E+02 -0.21930175747E+02  0.29721042068E+02  0.00000000000E+00 0. -1.
</event>
<event>
 7    1  0.2797450E-013  0.7246168E+02  0.7816164E-02  0.1226708E+00
        -11   -1    0    0    0    0  0.00000000000E+00  0.00000000000E+00  0.45593999997E+02  0.45594000000E+02  0.51100000000E-03 0. -1.
         11   -1    0    0    0    0 -0.00000000000E+00 -0.00000000000E+00 -0.45593999997E+02  0.45594000000E+02  0.51100000000E-03 0.  1.
    9900012    2    1    2    0    0 -0.12395590461E+02 -0.27766711492E+00 -0.14033793076E+02  0.72461678685E+02  0.70000141198E+02 0.  0.
         12    1    1    2    0    0  0.12395590461E+02  0.27766711492E+00  0.14033793076E+02  0.18726321315E+02  0.00000000000E+00 0. -1.
         11    1    3    3    0    0 -0.33119146733E+02 -0.15876538273E+02 -0.25950051348E+01  0.36819511129E+02  0.51100000000E-03 0. -1.
        -11    1    3    3    0    0  0.65413818186E+00  0.38630685884E+01  0.55882780946E+01  0.68249577291E+01  0.51100000000E-03 0.  1.
        -12    1    3    3    0    0  0.20069418090E+02  0.11735802570E+02 -0.17027066036E+02  0.28817209827E+02  0.00000000000E+00 0.  1.
</event>
<event>
 7    1  0.2797450E-013  0.7246167E+02  0.7816164E-02  0.1226708E+00
        -11   -1    0    0    0    0  0.00000000000E+00  0.00000000000E+00  0.45593999997E+02  0.45594000000E+02  0.51100000000E-03 0. -1.
         11   -1    0    0    0    0 -0.00000000000E+00 -0.00000000000E+00 -0.45593999997E+02  0.45594000000E+02  0.51100000000E-03 0.  1.
    9900012    2    1    2    0    0  0.14414032182E+02 -0.52483687971E-01 -0.11954433555E+02  0.72461666672E+02  0.70000125550E+02 0.  0.
         12    1    1    2    0    0 -0.14414032182E+02  0.52483687971E-01  0.11954433555E+02  0.18726333328E+02  0.00000000000E+00 0. -1.
         11    1    3    3    0    0 -0.23957150567E+01  0.11111821529E+02  0.15434069592E+01  0.11471448628E+02  0.51100000000E-03 0. -1.
        -11    1    3    3    0    0  0.14730757153E+02  0.16745339265E+02 -0.22411885407E+02  0.31617941127E+02  0.51100000000E-03 0.  1.
         12    1    3    3    0    0  0.20789900859E+01 -0.27909644482E+02  0.89140448921E+01  0.29372276916E+02  0.00000000000E+00 0. -1.
</event>
<event>
 7    1  0.2797450E-013  0.7246155E+02  0.7816164E-02  0.1226708E+00
        -11   -1    0    0    0    0  0.00000000000E+00  0.00000000000E+00  0.45593999997E+02  0.45594000000E+02  0.51100000000E-03 0. -1.
         11   -1    0    0    0    0 -0.00000000000E+00 -0.00000000000E+00 -0.45593999997E+02  0.45594000000E+02  0.51100000000E-03 0.  1.
    9900012    2    1    2    0    0 -0.17323084082E+02  0.69532630735E+01  0.14976525636E+01  0.72461546180E+02  0.69999968587E+02 0.  0.
         12    1    1    2    0    0  0.17323084082E+02 -0.69532630735E+01 -0.14976525636E+01  0.18726453820E+02  0.00000000000E+00 0. -1.
         11    1    3    3    0    0  0.26736486607E+01  0.44974829567E+01  0.20154854464E+02  0.20822917875E+02  0.51100000000E-03 0. -1.
        -11    1    3    3    0    0 -0.10697668344E+02 -0.18885907556E+02 -0.18245826777E+02  0.28355384096E+02  0.51100000000E-03 0.  1.
         12    1    3    3    0    0 -0.92990643977E+01  0.21341687673E+02 -0.41137512330E+00  0.23283244209E+02  0.00000000000E+00 0. -1.
</event>
<event>
 7    1  0.2797450E-013  0.7246153E+02  0.7816164E-02  0.1226708E+00
        -11   -1    0    0    0    0  0.00000000000E+00  0.00000000000E+00  0.45593999997E+02  0.45594000000E+02  0.51100000000E-03 0.  1.
         11   -1    0    0    0    0 -0.00000000000E+00 -0.00000000000E+00 -0.45593999997E+02  0.45594000000E+02  0.51100000000E-03 0. -1.
    9900012    2    1    2    0    0  0.61946944307E+00 -0.67048276324E+01  0.17474044069E+02  0.72461530175E+02  0.69999947738E+02 0.  0.
         12    1    1    2    0    0 -0.61946944307E+00  0.67048276324E+01 -0.17474044069E+02  0.18726469825E+02  0.00000000000E+00 0. -1.
         11    1    3    3    0    0 -0.69991942153E+01 -0.10226833662E+02 -0.10202072274E+02  0.16051763933E+02  0.51100000000E-03 0. -1.
        -11    1    3    3    0    0  0.58741970649E+01 -0.34332338213E+01 -0.13231534157E+02  0.14878399848E+02  0.51100000000E-03 0.  1.
        -12    1    3    3    0    0  0.17444665934E+01  0.69552398509E+01  0.40907650500E+02  0.41531366394E+02  0.00000000000E+00 0.  1.
</event>
<event>
 7    1  0.2797450E-013  0.7246129E+02  0.7816164E-02  0.1226709E+00
        -11   -1    0    0    0    0  0.00000000000E+00  0.00000000000E+00  0.45593999997E+02  0.45594000000E+02  0.51100000000E-03 0.  1.
         11   -1    0    0    0    0 -0.00000000000E+00 -0.00000000000E+00 -0.45593999997E+02  0.45594000000E+02  0.51100000000E-03 0. -1.
    9900012    2    1    2    0    0  0.69969141365E+01  0.14882479714E+02  0.89579354989E+01  0.72461291312E+02  0.69999636573E+02 0.  0.
         12    1    1    2    0    0 -0.69969141365E+01 -0.14882479714E+02 -0.89579354989E+01  0.18726708688E+02  0.00000000000E+00 0. -1.
         11    1    3    3    0    0 -0.13407063313E+02 -0.13155776830E+02  0.49940535114E+01  0.19436161695E+02  0.51100000000E-03 0. -1.
        -11    1    3    3    0    0 -0.36014638763E+01  0.24092774267E+01  0.15475599288E+02  0.16070760199E+02  0.51100000000E-03 0.  1.
         12    1    3    3    0    0  0.24005441326E+02  0.25628979118E+02 -0.11511717301E+02  0.36954369418E+02  0.00000000000E+00 0. -1.
</event>
<event>
 7    1  0.2797450E-013  0.7246152E+02  0.7816164E-02  0.1226708E+00
        -11   -1    0    0    0    0  0.00000000000E+00  0.00000000000E+00  0.45593999997E+02  0.45594000000E+02  0.51100000000E-03 0. -1.
         11   -1    0    0    0    0 -0.00000000000E+00 -0.00000000000E+00 -0.45593999997E+02  0.45594000000E+02  0.51100000000E-03 0.  1.
    9900012    2    1    2    0    0 -0.15299926888E+02  0.10581907231E+01 -0.10745854226E+02  0.72461523731E+02  0.69999939343E+02 0.  0.
         12    1    1    2    0    0  0.15299926888E+02 -0.10581907231E+01  0.10745854226E+02  0.18726476269E+02  0.00000000000E+00 0. -1.
         11    1    3    3    0    0  0.57882380814E+01 -0.27477439519E+01 -0.93316423907E+01  0.11319600120E+02  0.51100000000E-03 0. -1.
        -11    1    3    3    0    0 -0.84141180846E+01  0.27526805067E+02  0.11882211808E+02  0.31140156359E+02  0.51100000000E-03 0.  1.
         12    1    3    3    0    0 -0.12674046885E+02 -0.23720870392E+02 -0.13296423643E+02  0.30001767253E+02  0.00000000000E+00 0. -1.
</event>
<event>
 7    1  0.2797450E-013  0.7246159E+02  0.7816164E-02  0.1226708E+00
        -11   -1    0    0    0    0  0.00000000000E+00  0.00000000000E+00  0.45593999997E+02  0.45594000000E+02  0.51100000000E-03 0.  1.
         11   -1    0    0    0    0 -0.00000000000E+00 -0.00000000000E+00 -0.45593999997E+02  0.45594000000E+02  0.51100000000E-03 0. -1.
    9900012    2    1    2    0    0  0.10540298113E+02 -0.13088398091E+01  0.15422955810E+02  0.72461587854E+02  0.70000022875E+02 0.  0.
         12    1    1    2    0    0 -0.10540298113E+02  0.13088398091E+01 -0.15422955810E+02  0.18726412146E+02  0.00000000000E+00 0. -1.
         11    1    3    3    0    0 -0.63672397991E+01  0.11328522316E+02 -0.26353770403E+01  0.13259802899E+02  0.51100000000E-03 0. -1.
        -11    1    3    3    0    0  0.22302438985E+02 -0.49256012117E+01  0.33840203006E+02  0.40826702925E+02  0.51100000000E-03 0.  1.
         12    1    3    3    0    0 -0.53949010731E+01 -0.77117609131E+01 -0.15781870156E+02  0.18375082030E+02  0.00000000000E+00 0. -1.
</event>
<event>
 7    1  0.2797450E-013  0.7246155E+02  0.7816164E-02  0.1226708E+00
        -11   -1    0    0    0    0  0.00000000000E+00  0.00000000000E+00  0.45593999997E+02  0.45594000000E+02  0.51100000000E-03 0. -1.
         11   -1    0    0    0    0 -0.00000000000E+00 -0.00000000000E+00 -0.45593999997E+02  0.45594000000E+02  0.51100000000E-03 0.  1.
    9900012    2    1    2    0    0  0.18669081197E+02  0.24396881549E+00  0.14441855297E+01  0.72461553851E+02  0.69999978580E+02 0.  0.
         12    1    1    2    0    0 -0.18669081197E+02 -0.24396881549E+00 -0.14441855297E+01  0.18726446149E+02  0.00000000000E+00 0. -1.
         11    1    3    3    0    0 -0.23783871885E+02 -0.45760870637E+00  0.44953863528E+01  0.24209305366E+02  0.51100000000E-03 0. -1.
        -11    1    3    3    0    0  0.23303195347E+02 -0.32862839696E+01  0.90918981768E+01  0.25228975176E+02  0.51100000000E-03 0.  1.
        -12    1    3    3    0    0  0.19149757734E+02  0.39878614915E+01 -0.12143099000E+02  0.23023273309E+02  0.00000000000E+00 0.  1.
</event>
<event>
 7    1  0.2797450E-013  0.7246178E+02  0.7816164E-02  0.1226707E+00
        -11   -1    0    0    0    0  0.00000000000E+00  0.00000000000E+00  0.45593999997E+02  0.45594000000E+02  0.51100000000E-03 0.  1.
         11   -1    0    0    0    0 -0.00000000000E+00 -0.00000000000E+00 -0.45593999997E+02  0.45594000000E+02  0.51100000000E-03 0. -1.
    9900012    2    1    2    0    0  0.14747600178E+02  0.66273627901E+01  0.94476369597E+01  0.72461775269E+02  0.70000267017E+02 0.  0.
         12    1    1    2    0    0 -0.14747600178E+02 -0.66273627901E+01 -0.94476369597E+01  0.18726224731E+02  0.00000000000E+00 0. -1.
         11    1    3    3    0    0 -0.10223215808E+01 -0.13143189002E+02  0.95611968285E+01  0.16285117243E+02  0.51100000000E-03 0. -1.
        -11    1    3    3    0    0  0.88964830561E+00 -0.31579585660E+01  0.21239269996E+02  0.21491178810E+02  0.51100000000E-03 0.  1.
         12    1    3    3    0    0  0.14880273453E+02  0.22928510358E+02 -0.21352829865E+02  0.34685479217E+02  0.00000000000E+00 0. -1.
</event>
<event>
 7    1  0.2797450E-013  0.7246151E+02  0.7816164E-02  0.1226708E+00
        -11   -1    0    0    0    0  0.00000000000E+00  0.00000000000E+00  0.45593999997E+02  0.45594000000E+02  0.51100000000E-03 0. -1.
         11   -1    0    0    0    0 -0.00000000000E+00 -0.00000000000E+00 -0.45593999997E+02  0.45594000000E+02  0.51100000000E-03 0.  1.
    9900012    2    1    2    0    0  0.14563114004E+02 -0.29546410327E+01 -0.11395935414E+02  0.72461507080E+02  0.69999917652E+02 0.  0.
         12    1    1    2    0    0 -0.14563114004E+02  0.29546410327E+01  0.11395935414E+02  0.18726492920E+02  0.00000000000E+00 0. -1.
         11    1    3    3    0    0  0.28137044119E+02 -0.14475638451E+02 -0.99965784978E+01  0.33183865692E+02  0.51100000000E-03 0. -1.
        -11    1    3    3    0    0 -0.12109252795E+02 -0.82561409007E+01  0.86783123168E+01  0.17032644268E+02  0.51100000000E-03 0.  1.
        -12    1    3    3    0    0 -0.14646773208E+01  0.19777138319E+02 -0.10077669233E+02  0.22244997121E+02  0.00000000000E+00 0.  1.
</event>
<event>
 7    1  0.2797450E-013  0.7246155E+02  0.7816164E-02  0.1226708E+00
        -11   -1    0    0    0    0  0.00000000000E+00  0.00000000000E+00  0.45593999997E+02  0.45594000000E+02  0.51100000000E-03 0. -1.
         11   -1    0    0    0    0 -0.00000000000E+00 -0.00000000000E+00 -0.45593999997E+02  0.45594000000E+02  0.51100000000E-03 0.  1.
    9900012    2    1    2    0    0  0.29710226263E+00 -0.88359863692E+01 -0.16508092363E+02  0.72461547097E+02  0.69999969781E+02 0.  0.
         12    1    1    2    0    0 -0.29710226263E+00  0.88359863692E+01  0.16508092363E+02  0.18726452903E+02  0.00000000000E+00 0. -1.
         11    1    3    3    0    0 -0.80905435356E+01  0.13651357909E+01  0.10095308411E+02  0.13009063864E+02  0.51100000000E-03 0. -1.
        -11    1    3    3    0    0 -0.16615469415E+02 -0.20273474213E+02 -0.13040548408E+02  0.29277012888E+02  0.51100000000E-03 0.  1.
         12    1    3    3    0    0  0.25003115214E+02  0.10072352053E+02 -0.13562852366E+02  0.30175470346E+02  0.00000000000E+00 0. -1.
</event>
<event>
 7    1  0.2797450E-013  0.7246161E+02  0.7816164E-02  0.1226708E+00
        -11   -1    0    0    0    0  0.00000000000E+00  0.00000000000E+00  0.45593999997E+02  0.45594000000E+02  0.51100000000E-03 0. -1.
         11   -1    0    0    0    0 -0.00000000000E+00 -0.00000000000E+00 -0.45593999997E+02  0.45594000000E+02  0.51100000000E-03 0.  1.
    9900012    2    1    2    0    0  0.18182747998E+02 -0.56960672766E+00 -0.44430809426E+01  0.72461608333E+02  0.70000049553E+02 0.  0.
         12    1    1    2    0    0 -0.18182747998E+02  0.56960672766E+00  0.44430809426E+01  0.18726391667E+02  0.00000000000E+00 0. -1.
         11    1    3    3    0    0  0.26064214070E+02 -0.21013597556E+01 -0.23989257447E+02  0.35485820281E+02  0.51100000000E-03 0. -1.
        -11    1    3    3    0    0  0.87899501975E+01 -0.79553391138E+01  0.48401064685E+01  0.12805361212E+02  0.51100000000E-03 0.  1.
        -12    1    3    3    0    0 -0.16671416269E+02  0.94870921418E+01  0.14706070035E+02  0.24170426840E+02  0.00000000000E+00 0.  1.
</event>
<event>
 7    1  0.2797450E-013  0.7246220E+02  0.7816164E-02  0.1226706E+00
        -11   -1    0    0    0    0  0.00000000000E+00  0.00000000000E+00  0.45593999997E+02  0.45594000000E+02  0.51100000000E-03 0.  1.
         11   -1    0    0    0    0 -0.00000000000E+00 -0.00000000000E+00 -0.45593999997E+02  0.45594000000E+02  0.51100000000E-03 0. -1.
    9900012    2    1    2    0    0 -0.15468536177E+02 -0.46209920006E+01  0.94882221398E+01  0.72462201275E+02  0.70000821964E+02 0.  0.
         12    1    1    2    0    0  0.15468536177E+02  0.46209920006E+01 -0.94882221398E+01  0.18725798725E+02  0.00000000000E+00 0. -1.
         11    1    3    3    0    0 -0.48478226237E+01 -0.20439661815E+02 -0.63448190311E+01  0.21943971566E+02  0.51100000000E-03 0. -1.
        -11    1    3    3    0    0 -0.23141188824E+02 -0.48507653141E+01  0.99111307260E+01  0.25637376169E+02  0.51100000000E-03 0.  1.
         12    1    3    3    0    0  0.12520475270E+02  0.20669435129E+02  0.59219104449E+01  0.24880853539E+02  0.00000000000E+00 0. -1.
</event>
<event>
 7    1  0.2797450E-013  0.7246157E+02  0.7816164E-02  0.1226708E+00
        -11   -1    0    0    0    0  0.00000000000E+00  0.00000000000E+00  0.45593999997E+02  0.45594000000E+02  0.51100000000E-03 0.  1.
         11   -1    0    0    0    0 -0.00000000000E+00 -0.00000000000E+00 -0.45593999997E+02  0.45594000000E+02  0.51100000000E-03 0. -1.
    9900012    2    1    2    0    0 -0.15237363161E+02 -0.10300620232E+02  0.35212438113E+01  0.72461570249E+02  0.69999999941E+02 0.  0.
         12    1    1    2    0    0  0.15237363161E+02  0.10300620232E+02 -0.35212438113E+01  0.18726429751E+02  0.00000000000E+00 0. -1.
         11    1    3    3    0    0 -0.20301312835E+01  0.10626760458E+01  0.10334650082E+01  0.25137150974E+01  0.51100000000E-03 0. -1.
        -11    1    3    3    0    0 -0.16472208072E+02 -0.35453971053E+02 -0.12910836518E+02  0.41170467596E+02  0.51100000000E-03 0.  1.
         12    1    3    3    0    0  0.32649761944E+01  0.24090674776E+02  0.15398615322E+02  0.28777387556E+02  0.00000000000E+00 0. -1.
</event>
<event>
 7    1  0.2797450E-013  0.7246160E+02  0.7816164E-02  0.1226708E+00
        -11   -1    0    0    0    0  0.00000000000E+00  0.00000000000E+00  0.45593999997E+02  0.45594000000E+02  0.51100000000E-03 0.  1.
         11   -1    0    0    0    0 -0.00000000000E+00 -0.00000000000E+00 -0.45593999997E+02  0.45594000000E+02  0.51100000000E-03 0. -1.
    9900012    2    1    2    0    0 -0.62895874943E+01  0.40488236802E+01  0.17167593950E+02  0.72461597086E+02  0.70000034901E+02 0.  0.
         12    1    1    2    0    0  0.62895874943E+01 -0.40488236802E+01 -0.17167593950E+02  0.18726402914E+02  0.00000000000E+00 0. -1.
         11    1    3    3    0    0  0.27252699882E+02 -0.10951227768E+02  0.15994392689E+02  0.33443379588E+02  0.51100000000E-03 0.  1.
        -11    1    3    3    0    0 -0.41881105717E+01  0.57750510182E+01 -0.34138310201E+01  0.79085856459E+01  0.51100000000E-03 0. -1.
        -12    1    3    3    0    0 -0.29354176805E+02  0.92250004304E+01  0.45870322816E+01  0.31109631852E+02  0.00000000000E+00 0.  1.
</event>
<event>
 7    1  0.2797450E-013  0.7246147E+02  0.7816164E-02  0.1226708E+00
        -11   -1    0    0    0    0  0.00000000000E+00  0.00000000000E+00  0.45593999997E+02  0.45594000000E+02  0.51100000000E-03 0. -1.
         11   -1    0    0    0    0 -0.00000000000E+00 -0.00000000000E+00 -0.45593999997E+02  0.45594000000E+02  0.51100000000E-03 0.  1.
    9900012    2    1    2    0    0  0.50485280631E+00 -0.39401439030E+01 -0.18300367961E+02  0.72461465942E+02  0.69999864062E+02 0.  0.
         12    1    1    2    0    0 -0.50485280631E+00  0.39401439030E+01  0.18300367961E+02  0.18726534058E+02  0.00000000000E+00 0. -1.
         11    1    3    3    0    0  0.28234501601E+01 -0.50553575908E+01  0.57261265191E+01  0.81435272672E+01  0.51100000000E-03 0. -1.
        -11    1    3    3    0    0 -0.25072395762E+02  0.16678147880E+02 -0.42963958607E+01  0.30417834631E+02  0.51100000000E-03 0.  1.
         12    1    3    3    0    0  0.22753798409E+02 -0.15562934192E+02 -0.19730098619E+02  0.33900104044E+02  0.00000000000E+00 0. -1.
</event>
<event>
 7    1  0.2797450E-013  0.7246149E+02  0.7816164E-02  0.1226708E+00
        -11   -1    0    0    0    0  0.00000000000E+00  0.00000000000E+00  0.45593999997E+02  0.45594000000E+02  0.51100000000E-03 0. -1.
         11   -1    0    0    0    0 -0.00000000000E+00 -0.00000000000E+00 -0.45593999997E+02  0.45594000000E+02  0.51100000000E-03 0.  1.
    9900012    2    1    2    0    0 -0.91724172419E+01  0.55801384083E+01 -0.15343111658E+02  0.72461487830E+02  0.69999892574E+02 0.  0.
         12    1    1    2    0    0  0.91724172419E+01 -0.55801384083E+01  0.15343111658E+02  0.18726512170E+02  0.00000000000E+00 0. -1.
         11    1    3    3    0    0 -0.29814643625E+02 -0.10813915898E+02 -0.15067207599E+02  0.35112312607E+02  0.51100000000E-03 0. -1.
        -11    1    3    3    0    0  0.24613709160E+01  0.17414975090E+02 -0.54601008075E+01  0.18416090933E+02  0.51100000000E-03 0.  1.
        -12    1    3    3    0    0  0.18180855467E+02 -0.10209207837E+01  0.51841967489E+01  0.18933084289E+02  0.00000000000E+00 0.  1.
</event>
<event>
 7    1  0.2797450E-013  0.7246155E+02  0.7816164E-02  0.1226708E+00
        -11   -1    0    0    0    0  0.00000000000E+00  0.00000000000E+00  0.45593999997E+02  0.45594000000E+02  0.51100000000E-03 0. -1.
         11   -1    0    0    0    0 -0.00000000000E+00 -0.00000000000E+00 -0.45593999997E+02  0.45594000000E+02  0.51100000000E-03 0.  1.
    9900012    2    1    2    0    0 -0.95725506617E+01 -0.18139544887E+00 -0.16093893827E+02  0.72461546812E+02  0.69999969411E+02 0.  0.
         12    1    1    2    0    0  0.95725506617E+01  0.18139544887E+00  0.16093893827E+02  0.18726453188E+02  0.00000000000E+00 0. -1.
         11    1    3    3    0    0  0.54854080257E+01 -0.94476584423E+01  0.79638267249E+01  0.13519263575E+02  0.51100000000E-03 0. -1.
        -11    1    3    3    0    0 -0.24897573229E+02 -0.13390891517E+02 -0.76466175871E+01  0.29286104027E+02  0.51100000000E-03 0.  1.
        -12    1    3    3    0    0  0.98396145417E+01  0.22657154510E+02 -0.16411102964E+02  0.29656179210E+02  0.00000000000E+00 0.  1.
</event>
<event>
 7    1  0.2797450E-013  0.7246228E+02  0.7816164E-02  0.1226706E+00
        -11   -1    0    0    0    0  0.00000000000E+00  0.00000000000E+00  0.45593999997E+02  0.45594000000E+02  0.51100000000E-03 0. -1.
         11   -1    0    0    0    0 -0.00000000000E+00 -0.00000000000E+00 -0.45593999997E+02  0.45594000000E+02  0.51100000000E-03 0.  1.
    9900012    2    1    2    0    0 -0.11530241982E+02 -0.12912088888E+02  0.71403186027E+01  0.72462277868E+02  0.70000921740E+02 0.  0.
         12    1    1    2    0    0  0.11530241982E+02  0.12912088888E+02 -0.71403186027E+01  0.18725722132E+02  0.00000000000E+00 0. -1.
         11    1    3    3    0    0 -0.68553006061E+01 -0.18636626037E+02  0.91721968010E-01  0.19857678355E+02  0.51100000000E-03 0. -1.
        -11    1    3    3    0    0 -0.26746332616E+02  0.11090451999E+02  0.74090936188E+01  0.29887440547E+02  0.51100000000E-03 0.  1.
         12    1    3    3    0    0  0.22071391240E+02 -0.53659148496E+01 -0.36049698412E+00  0.22717158967E+02  0.00000000000E+00 0. -1.
</event>
<event>
 7    1  0.2797450E-013  0.7246156E+02  0.7816164E-02  0.1226708E+00
        -11   -1    0    0    0    0  0.00000000000E+00  0.00000000000E+00  0.45593999997E+02  0.45594000000E+02  0.51100000000E-03 0.  1.
         11   -1    0    0    0    0 -0.00000000000E+00 -0.00000000000E+00 -0.45593999997E+02  0.45594000000E+02  0.51100000000E-03 0. -1.
    9900012    2    1    2    0    0  0.11617177777E+02  0.34088981212E+01  0.14286360258E+02  0.72461561596E+02  0.69999988669E+02 0.  0.
         12    1    1    2    0    0 -0.11617177777E+02 -0.34088981212E+01 -0.14286360258E+02  0.18726438404E+02  0.00000000000E+00 0. -1.
         11    1    3    3    0    0 -0.93260455339E+00  0.59707149777E+01  0.11379967067E+02  0.12884985033E+02  0.51100000000E-03 0. -1.
        -11    1    3    3    0    0 -0.16502011321E+02 -0.45875869608E+01  0.19583735741E+02  0.26017014387E+02  0.51100000000E-03 0.  1.
         12    1    3    3    0    0  0.29051793651E+02  0.20257701042E+01 -0.16677342551E+02  0.33559562176E+02  0.00000000000E+00 0. -1.
</event>
<event>
 7    1  0.2797450E-013  0.7246160E+02  0.7816164E-02  0.1226708E+00
        -11   -1    0    0    0    0  0.00000000000E+00  0.00000000000E+00  0.45593999997E+02  0.45594000000E+02  0.51100000000E-03 0.  1.
         11   -1    0    0    0    0 -0.00000000000E+00 -0.00000000000E+00 -0.45593999997E+02  0.45594000000E+02  0.51100000000E-03 0. -1.
    9900012    2    1    2    0    0 -0.94752896421E+01  0.12663599182E+02  0.10026481149E+02  0.72461596654E+02  0.70000034339E+02 0.  0.
         12    1    1    2    0    0  0.94752896421E+01 -0.12663599182E+02 -0.10026481149E+02  0.18726403346E+02  0.00000000000E+00 0. -1.
         11    1    3    3    0    0 -0.23030351051E+02 -0.16924243445E+01  0.11048365864E+02  0.25599370270E+02  0.51100000000E-03 0. -1.
        -11    1    3    3    0    0  0.17029450166E+01 -0.12093594133E+02  0.10069529778E+02  0.15828786150E+02  0.51100000000E-03 0.  1.
         12    1    3    3    0    0  0.11852116392E+02  0.26449617659E+02 -0.11091414493E+02  0.31033440234E+02  0.00000000000E+00 0. -1.
</event>
<event>
 7    1  0.2797450E-013  0.7246161E+02  0.7816164E-02  0.1226708E+00
        -11   -1    0    0    0    0  0.00000000000E+00  0.00000000000E+00  0.45593999997E+02  0.45594000000E+02  0.51100000000E-03 0. -1.
         11   -1    0    0    0    0 -0.00000000000E+00 -0.00000000000E+00 -0.45593999997E+02  0.45594000000E+02  0.51100000000E-03 0.  1.
    9900012    2    1    2    0    0 -0.69227477224E+01 -0.15504567953E+01 -0.17330591576E+02  0.72461608017E+02  0.70000049141E+02 0.  0.
         12    1    1    2    0    0  0.69227477224E+01  0.15504567953E+01  0.17330591576E+02  0.18726391983E+02  0.00000000000E+00 0. -1.
         11    1    3    3    0    0  0.71906474282E+01 -0.83545481519E+01  0.21993098443E+02  0.24600818373E+02  0.51100000000E-03 0. -1.
        -11    1    3    3    0    0  0.80773172852E+00 -0.60521884134E+01 -0.36569885456E+01  0.71172312468E+01  0.51100000000E-03 0.  1.
        -12    1    3    3    0    0 -0.14921126879E+02  0.12856279770E+02 -0.35666701474E+02  0.40743558397E+02  0.00000000000E+00 0.  1.
</event>
<event>
 7    1  0.2797450E-013  0.7246162E+02  0.7816164E-02  0.1226708E+00
        -11   -1    0    0    0    0  0.00000000000E+00  0.00000000000E+00  0.45593999997E+02  0.45594000000E+02  0.51100000000E-03 0.  1.
         11   -1    0    0    0    0 -0.00000000000E+00 -0.00000000000E+00 -0.45593999997E+02  0.45594000000E+02  0.51100000000E-03 0. -1.
    9900012    2    1    2    0    0 -0.90432579966E+01  0.16306229706E+02 -0.17331365040E+01  0.72461617419E+02  0.70000061389E+02 0.  0.
         12    1    1    2    0    0  0.90432579966E+01 -0.16306229706E+02  0.17331365040E+01  0.18726382581E+02  0.00000000000E+00 0. -1.
         11    1    3    3    0    0  0.67199761965E+01  0.19714420184E+02  0.14227271377E+02  0.25223633647E+02  0.51100000000E-03 0. -1.
        -11    1    3    3    0    0  0.12763389372E+02  0.64082663528E+01 -0.46655852481E+01  0.15024568942E+02  0.51100000000E-03 0.  1.
        -12    1    3    3    0    0 -0.28526623565E+02 -0.98164568309E+01 -0.11294822633E+02  0.32213414830E+02  0.00000000000E+00 0.  1.
</event>
<event>
 7    1  0.2797450E-013  0.7246154E+02  0.7816164E-02  0.1226708E+00
        -11   -1    0    0    0    0  0.00000000000E+00  0.00000000000E+00  0.45593999997E+02  0.45594000000E+02  0.51100000000E-03 0.  1.
         11   -1    0    0    0    0 -0.00000000000E+00 -0.00000000000E+00 -0.45593999997E+02  0.45594000000E+02  0.51100000000E-03 0. -1.
    9900012    2    1    2    0    0 -0.19809194744E+01 -0.48775568430E+01  0.17971250232E+02  0.72461536436E+02  0.69999955893E+02 0.  0.
         12    1    1    2    0    0  0.19809194744E+01  0.48775568430E+01 -0.17971250232E+02  0.18726463564E+02  0.00000000000E+00 0. -1.
         11    1    3    3    0    0 -0.95100589913E+01  0.43026447583E+01 -0.20762214906E+02  0.23238406615E+02  0.51100000000E-03 0. -1.
        -11    1    3    3    0    0 -0.84996912477E+01 -0.56479592032E+01  0.42926160553E+01  0.11071167388E+02  0.51100000000E-03 0.  1.
        -12    1    3    3    0    0  0.16028830765E+02 -0.35322423981E+01  0.34440849082E+02  0.38151962434E+02  0.00000000000E+00 0.  1.
</event>
<event>
 7    1  0.2797450E-013  0.7246180E+02  0.7816164E-02  0.1226707E+00
        -11   -1    0    0    0    0  0.00000000000E+00  0.00000000000E+00  0.45593999997E+02  0.45594000000E+02  0.51100000000E-03 0.  1.
         11   -1    0    0    0    0 -0.00000000000E+00 -0.00000000000E+00 -0.45593999997E+02  0.45594000000E+02  0.51100000000E-03 0. -1.
    9900012    2    1    2    0    0 -0.32901304951E+01  0.12605838307E+02  0.13451333173E+02  0.72461802249E+02  0.70000302163E+02 0.  0.
         12    1    1    2    0    0  0.32901304951E+01 -0.12605838307E+02 -0.13451333173E+02  0.18726197751E+02  0.00000000000E+00 0. -1.
         11    1    3    3    0    0 -0.15895031843E+02  0.30770658693E+01 -0.11722205305E+02  0.19988258282E+02  0.51100000000E-03 0. -1.
        -11    1    3    3    0    0  0.50268468503E+00  0.16291140418E+02 -0.67718391105E+01  0.17649695556E+02  0.51100000000E-03 0.  1.
        -12    1    3    3    0    0  0.12102216663E+02 -0.67623679810E+01  0.31945377589E+02  0.34823848411E+02  0.00000000000E+00 0.  1.
</event>
<event>
 7    1  0.2797450E-013  0.7246183E+02  0.7816164E-02  0.1226707E+00
        -11   -1    0    0    0    0  0.00000000000E+00  0.00000000000E+00  0.45593999997E+02  0.45594000000E+02  0.51100000000E-03 0. -1.
         11   -1    0    0    0    0 -0.00000000000E+00 -0.00000000000E+00 -0.45593999997E+02  0.45594000000E+02  0.51100000000E-03 0.  1.
    9900012    2    1    2    0    0  0.18573135787E+02  0.16375307881E+01 -0.17396507483E+01  0.72461834755E+02  0.70000344509E+02 0.  0.
         12    1    1    2    0    0 -0.18573135787E+02 -0.16375307881E+01  0.17396507483E+01  0.18726165245E+02  0.00000000000E+00 0. -1.
         11    1    3    3    0    0  0.31133082219E+02  0.11657577030E+02  0.89103802388E+01  0.34417477928E+02  0.51100000000E-03 0. -1.
        -11    1    3    3    0    0  0.77169728432E+01  0.13375260800E+01 -0.12477116462E+02  0.14731567511E+02  0.51100000000E-03 0.  1.
        -12    1    3    3    0    0 -0.20276919276E+02 -0.11357572321E+02  0.18270854748E+01  0.23312789316E+02  0.00000000000E+00 0.  1.
</event>
<event>
 7    1  0.2797450E-013  0.7246153E+02  0.7816164E-02  0.1226708E+00
        -11   -1    0    0    0    0  0.00000000000E+00  0.00000000000E+00  0.45593999997E+02  0.45594000000E+02  0.51100000000E-03 0. -1.
         11   -1    0    0    0    0 -0.00000000000E+00 -0.00000000000E+00 -0.45593999997E+02  0.45594000000E+02  0.51100000000E-03 0.  1.
    9900012    2    1    2    0    0  0.49729687510E+01  0.49311054302E+01 -0.17367625610E+02  0.72461531078E+02  0.69999948914E+02 0.  0.
         12    1    1    2    0    0 -0.49729687510E+01 -0.49311054302E+01  0.17367625610E+02  0.18726468922E+02  0.00000000000E+00 0. -1.
         11    1    3    3    0    0  0.34012107435E+01  0.14939923905E+02 -0.66495448308E+01  0.16702874230E+02  0.51100000000E-03 0. -1.
        -11    1    3    3    0    0 -0.20156519160E+02  0.11914332774E+02 -0.81220735595E+01  0.24783152933E+02  0.51100000000E-03 0.  1.
        -12    1    3    3    0    0  0.21728277168E+02 -0.21923151249E+02 -0.25960072193E+01  0.30975503916E+02  0.00000000000E+00 0.  1.
</event>
<event>
 7    1  0.2797450E-013  0.7246160E+02  0.7816164E-02  0.1226708E+00
        -11   -1    0    0    0    0  0.00000000000E+00  0.00000000000E+00  0.45593999997E+02  0.45594000000E+02  0.51100000000E-03 0.  1.
         11   -1    0    0    0    0 -0.00000000000E+00 -0.00000000000E+00 -0.45593999997E+02  0.45594000000E+02  0.51100000000E-03 0. -1.
    9900012    2    1    2    0    0  0.13648895365E+02 -0.11869469235E+01  0.12766240161E+02  0.72461599504E+02  0.70000038051E+02 0.  0.
         12    1    1    2    0    0 -0.13648895365E+02  0.11869469235E+01 -0.12766240161E+02  0.18726400496E+02  0.00000000000E+00 0. -1.
         11    1    3    3    0    0 -0.10915970679E+02  0.15798571188E+02  0.17354596758E+02  0.25883108321E+02  0.51100000000E-03 0. -1.
        -11    1    3    3    0    0  0.18745662092E+02  0.61059240225E+01  0.58691235179E+01  0.20570093985E+02  0.51100000000E-03 0.  1.
         12    1    3    3    0    0  0.58192039525E+01 -0.23091442134E+02 -0.10457480114E+02  0.26008397198E+02  0.00000000000E+00 0. -1.
</event>
<event>
 7    1  0.2797450E-013  0.7246152E+02  0.7816164E-02  0.1226708E+00
        -11   -1    0    0    0    0  0.00000000000E+00  0.00000000000E+00  0.45593999997E+02  0.45594000000E+02  0.51100000000E-03 0. -1.
         11   -1    0    0    0    0 -0.00000000000E+00 -0.00000000000E+00 -0.45593999997E+02  0.45594000000E+02  0.51100000000E-03 0.  1.
    9900012    2    1    2    0    0 -0.48461241720E+01  0.18077217452E+02 -0.64053288813E+00  0.72461521616E+02  0.69999936587E+02 0.  0.
         12    1    1    2    0    0  0.48461241720E+01 -0.18077217452E+02  0.64053288813E+00  0.18726478384E+02  0.00000000000E+00 0. -1.
         11    1    3    3    0    0  0.30173299572E+01  0.70784119225E+01 -0.15177242603E+01  0.78429383911E+01  0.51100000000E-03 0. -1.
        -11    1    3    3    0    0  0.21073151275E+02 -0.85284835156E+01 -0.13970573618E+02  0.26683134434E+02  0.51100000000E-03 0.  1.
         12    1    3    3    0    0 -0.28936605404E+02  0.19527289045E+02  0.14847764990E+02  0.37935448791E+02  0.00000000000E+00 0. -1.
</event>
<event>
 7    1  0.2797450E-013  0.7246180E+02  0.7816164E-02  0.1226707E+00
        -11   -1    0    0    0    0  0.00000000000E+00  0.00000000000E+00  0.45593999997E+02  0.45594000000E+02  0.51100000000E-03 0.  1.
         11   -1    0    0    0    0 -0.00000000000E+00 -0.00000000000E+00 -0.45593999997E+02  0.45594000000E+02  0.51100000000E-03 0. -1.
    9900012    2    1    2    0    0 -0.40471792036E+01 -0.15808744482E+00  0.18282939804E+02  0.72461800732E+02  0.70000300187E+02 0.  0.
         12    1    1    2    0    0  0.40471792036E+01  0.15808744482E+00 -0.18282939804E+02  0.18726199268E+02  0.00000000000E+00 0. -1.
         11    1    3    3    0    0  0.68796802495E+01  0.62483641867E+01 -0.29642814701E+01  0.97549485001E+01  0.51100000000E-03 0. -1.
        -11    1    3    3    0    0  0.12193512748E+01  0.20684295678E+02  0.25344545395E+02  0.32736415302E+02  0.51100000000E-03 0.  1.
         12    1    3    3    0    0 -0.12146210728E+02 -0.27090747310E+02 -0.40973241213E+01  0.29970436930E+02  0.00000000000E+00 0. -1.
</event>
<event>
 7    1  0.2797450E-013  0.7246157E+02  0.7816164E-02  0.1226708E+00
        -11   -1    0    0    0    0  0.00000000000E+00  0.00000000000E+00  0.45593999997E+02  0.45594000000E+02  0.51100000000E-03 0.  1.
         11   -1    0    0    0    0 -0.00000000000E+00 -0.00000000000E+00 -0.45593999997E+02  0.45594000000E+02  0.51100000000E-03 0. -1.
    9900012    2    1    2    0    0  0.48392415451E+01 -0.18090185753E+02 -0.78778153010E-01  0.72461567203E+02  0.69999995973E+02 0.  0.
         12    1    1    2    0    0 -0.48392415451E+01  0.18090185753E+02  0.78778153010E-01  0.18726432797E+02  0.00000000000E+00 0. -1.
         11    1    3    3    0    0 -0.49126492927E+01 -0.54782160486E+01  0.16736644333E+02  0.18282785290E+02  0.51100000000E-03 0. -1.
        -11    1    3    3    0    0  0.72934533784E+01 -0.16812371724E+02  0.13949504877E+02  0.23031261184E+02  0.51100000000E-03 0.  1.
         12    1    3    3    0    0  0.24584374594E+01  0.42004020192E+01 -0.30764927364E+02  0.31147520729E+02  0.00000000000E+00 0. -1.
</event>
<event>
 7    1  0.2797450E-013  0.7246153E+02  0.7816164E-02  0.1226708E+00
        -11   -1    0    0    0    0  0.00000000000E+00  0.00000000000E+00  0.45593999997E+02  0.45594000000E+02  0.51100000000E-03 0.  1.
         11   -1    0    0    0    0 -0.00000000000E+00 -0.00000000000E+00 -0.45593999997E+02  0.45594000000E+02  0.51100000000E-03 0. -1.
    9900012    2    1    2    0    0  0.72453664851E+01 -0.13026344312E+02  0.11335765161E+02  0.72461533344E+02  0.69999951865E+02 0.  0.
         12    1    1    2    0    0 -0.72453664851E+01  0.13026344312E+02 -0.11335765161E+02  0.18726466656E+02  0.00000000000E+00 0. -1.
         11    1    3    3    0    0 -0.13725582863E+02  0.23637520760E+01  0.85992579782E+00  0.13954154272E+02  0.51100000000E-03 0. -1.
        -11    1    3    3    0    0  0.14276843397E+02  0.13363711439E+00  0.29671985283E+02  0.32928298273E+02  0.51100000000E-03 0.  1.
         12    1    3    3    0    0  0.66941059507E+01 -0.15523733503E+02 -0.19196145920E+02  0.25579080799E+02  0.00000000000E+00 0. -1.
</event>
<event>
 7    1  0.2797450E-013  0.7246157E+02  0.7816164E-02  0.1226708E+00
        -11   -1    0    0    0    0  0.00000000000E+00  0.00000000000E+00  0.45593999997E+02  0.45594000000E+02  0.51100000000E-03 0. -1.
         11   -1    0    0    0    0 -0.00000000000E+00 -0.00000000000E+00 -0.45593999997E+02  0.45594000000E+02  0.51100000000E-03 0.  1.
    9900012    2    1    2    0    0 -0.44104591137E+01 -0.14081702217E+02 -0.11529644249E+02  0.72461569923E+02  0.69999999517E+02 0.  0.
         12    1    1    2    0    0  0.44104591137E+01  0.14081702217E+02  0.11529644249E+02  0.18726430077E+02  0.00000000000E+00 0. -1.
         11    1    3    3    0    0  0.10999688757E+01 -0.13586708523E+02  0.19408631731E+01  0.13768643003E+02  0.51100000000E-03 0. -1.
        -11    1    3    3    0    0  0.86373612600E+01 -0.10368458997E+02 -0.31176336007E+02  0.33971648158E+02  0.51100000000E-03 0.  1.
        -12    1    3    3    0    0 -0.14147789249E+02  0.98734653038E+01  0.17705828585E+02  0.24721278762E+02  0.00000000000E+00 0.  1.
</event>
<event>
 7    1  0.2797450E-013  0.7246155E+02  0.7816164E-02  0.1226708E+00
        -11   -1    0    0    0    0  0.00000000000E+00  0.00000000000E+00  0.45593999997E+02  0.45594000000E+02  0.51100000000E-03 0. -1.
         11   -1    0    0    0    0 -0.00000000000E+00 -0.00000000000E+00 -0.45593999997E+02  0.45594000000E+02  0.51100000000E-03 0.  1.
    9900012    2    1    2    0    0 -0.84160035517E+01  0.16489886281E+02 -0.28168277363E+01  0.72461548552E+02  0.69999971677E+02 0.  0.
         12    1    1    2    0    0  0.84160035517E+01 -0.16489886281E+02  0.28168277363E+01  0.18726451448E+02  0.00000000000E+00 0. -1.
         11    1    3    3    0    0  0.15871327950E+02  0.76436019402E+01  0.35098437403E+01  0.17962257789E+02  0.51100000000E-03 0. -1.
        -11    1    3    3    0    0  0.13809375672E+02 -0.31987597346E+01 -0.17377664030E+01  0.14281132750E+02  0.51100000000E-03 0.  1.
        -12    1    3    3    0    0 -0.38096707174E+02  0.12045044075E+02 -0.45889050737E+01  0.40218158014E+02  0.00000000000E+00 0.  1.
</event>
<event>
 7    1  0.2797450E-013  0.7246144E+02  0.7816164E-02  0.1226708E+00
        -11   -1    0    0    0    0  0.00000000000E+00  0.00000000000E+00  0.45593999997E+02  0.45594000000E+02  0.51100000000E-03 0. -1.
         11   -1    0    0    0    0 -0.00000000000E+00 -0.00000000000E+00 -0.45593999997E+02  0.45594000000E+02  0.51100000000E-03 0.  1.
    9900012    2    1    2    0    0  0.14383116601E+02 -0.72227840663E+01 -0.95729591562E+01  0.72461435984E+02  0.69999825036E+02 0.  0.
         12    1    1    2    0    0 -0.14383116601E+02  0.72227840663E+01  0.95729591562E+01  0.18726564016E+02  0.00000000000E+00 0. -1.
         11    1    3    3    0    0  0.17534755055E+02  0.15675870927E+02  0.14389886296E+02  0.27572983010E+02  0.51100000000E-03 0. -1.
        -11    1    3    3    0    0  0.11589045061E+02 -0.10837592203E+02 -0.19834247054E+02  0.25399935564E+02  0.51100000000E-03 0.  1.
        -12    1    3    3    0    0 -0.14740683515E+02 -0.12061062790E+02 -0.41285983978E+01  0.19488517411E+02  0.00000000000E+00 0.  1.
</event>
<event>
 7    1  0.2797450E-013  0.7246167E+02  0.7816164E-02  0.1226708E+00
        -11   -1    0    0    0    0  0.00000000000E+00  0.00000000000E+00  0.45593999997E+02  0.45594000000E+02  0.51100000000E-03 0. -1.
         11   -1    0    0    0    0 -0.00000000000E+00 -0.00000000000E+00 -0.45593999997E+02  0.45594000000E+02  0.51100000000E-03 0.  1.
    9900012    2    1    2    0    0 -0.84572915081E+01  0.14684024218E+02 -0.79705217781E+01  0.72461666555E+02  0.70000125397E+02 0.  0.
         12    1    1    2    0    0  0.84572915081E+01 -0.14684024218E+02  0.79705217781E+01  0.18726333445E+02  0.00000000000E+00 0. -1.
         11    1    3    3    0    0  0.35235820498E+01 -0.67687694792E+01  0.14948523894E+01  0.77760179174E+01  0.51100000000E-03 0. -1.
        -11    1    3    3    0    0  0.17034102417E+02  0.22387919756E+02 -0.19208918104E+02  0.34064088585E+02  0.51100000000E-03 0.  1.
         12    1    3    3    0    0 -0.29014975975E+02 -0.93512605926E+00  0.97435439366E+01  0.30621560052E+02  0.00000000000E+00 0. -1.
</event>
<event>
 7    1  0.2797450E-013  0.7246168E+02  0.7816164E-02  0.1226708E+00
        -11   -1    0    0    0    0  0.00000000000E+00  0.00000000000E+00  0.45593999997E+02  0.45594000000E+02  0.51100000000E-03 0.  1.
         11   -1    0    0    0    0 -0.00000000000E+00 -0.00000000000E+00 -0.45593999997E+02  0.45594000000E+02  0.51100000000E-03 0. -1.
    9900012    2    1    2    0    0  0.85786641562E+01 -0.96340217189E+01  0.13574512391E+02  0.72461675218E+02  0.70000136682E+02 0.  0.
         12    1    1    2    0    0 -0.85786641562E+01  0.96340217189E+01 -0.13574512391E+02  0.18726324782E+02  0.00000000000E+00 0. -1.
         11    1    3    3    0    0 -0.73289424170E+01 -0.25462872515E+01  0.25761207215E+01  0.81751681298E+01  0.51100000000E-03 0. -1.
        -11    1    3    3    0    0 -0.78757704239E+01 -0.12806810012E+02  0.29837567377E+02  0.33411413764E+02  0.51100000000E-03 0.  1.
         12    1    3    3    0    0  0.23783376997E+02  0.57190755451E+01 -0.18839175707E+02  0.30875093324E+02  0.00000000000E+00 0. -1.
</event>
<event>
 7    1  0.2797450E-013  0.7246165E+02  0.7816164E-02  0.1226708E+00
        -11   -1    0    0    0    0  0.00000000000E+00  0.00000000000E+00  0.45593999997E+02  0.45594000000E+02  0.51100000000E-03 0. -1.
         11   -1    0    0    0    0 -0.00000000000E+00 -0.00000000000E+00 -0.45593999997E+02  0.45594000000E+02  0.51100000000E-03 0.  1.
    9900012    2    1    2    0    0  0.10074293775E+02 -0.60937521407E+01 -0.14561974809E+02  0.72461646362E+02  0.70000099093E+02 0.  0.
         12    1    1    2    0    0 -0.10074293775E+02  0.60937521407E+01  0.14561974809E+02  0.18726353638E+02  0.00000000000E+00 0. -1.
         11    1    3    3    0    0  0.18905030326E+02  0.31104077052E+01  0.10434524881E+02  0.21816372693E+02  0.51100000000E-03 0. -1.
        -11    1    3    3    0    0  0.16152595282E+02  0.99613542050E+00 -0.46168501756E+01  0.16828960929E+02  0.51100000000E-03 0.  1.
        -12    1    3    3    0    0 -0.24983331834E+02 -0.10200295266E+02 -0.20379649515E+02  0.33816312741E+02  0.00000000000E+00 0.  1.
</event>
<event>
 7    1  0.2797450E-013  0.7246157E+02  0.7816164E-02  0.1226708E+00
        -11   -1    0    0    0    0  0.00000000000E+00  0.00000000000E+00  0.45593999997E+02  0.45594000000E+02  0.51100000000E-03 0.  1.
         11   -1    0    0    0    0 -0.00000000000E+00 -0.00000000000E+00 -0.45593999997E+02  0.45594000000E+02  0.51100000000E-03 0. -1.
    9900012    2    1    2    0    0 -0.15639999092E+00  0.18677843948E+02 -0.13389764899E+01  0.72461570187E+02  0.69999999860E+02 0.  0.
         12    1    1    2    0    0  0.15639999092E+00 -0.18677843948E+02  0.13389764899E+01  0.18726429813E+02  0.00000000000E+00 0. -1.
         11    1    3    3    0    0 -0.58401298032E+01  0.25837565780E+02  0.12665748177E+02  0.29361677382E+02  0.51100000000E-03 0. -1.
        -11    1    3    3    0    0  0.17382955887E+02  0.42836942514E+01  0.44362081037E+01  0.18444433697E+02  0.51100000000E-03 0.  1.
         12    1    3    3    0    0 -0.11699226074E+02 -0.11443416084E+02 -0.18440932770E+02  0.24655459108E+02  0.00000000000E+00 0. -1.
</event>
<event>
 7    1  0.2797450E-013  0.7246159E+02  0.7816164E-02  0.1226708E+00
        -11   -1    0    0    0    0  0.00000000000E+00  0.00000000000E+00  0.45593999997E+02  0.45594000000E+02  0.51100000000E-03 0.  1.
         11   -1    0    0    0    0 -0.00000000000E+00 -0.00000000000E+00 -0.45593999997E+02  0.45594000000E+02  0.51100000000E-03 0. -1.
    9900012    2    1    2    0    0  0.71881434973E+01 -0.95572876394E+01  0.14410670501E+02  0.72461586081E+02  0.70000020565E+02 0.  0.
         12    1    1    2    0    0 -0.71881434973E+01  0.95572876394E+01 -0.14410670501E+02  0.18726413919E+02  0.00000000000E+00 0. -1.
         11    1    3    3    0    0  0.72594545194E+01 -0.16242570502E+01  0.12027932165E+02  0.14142455350E+02  0.51100000000E-03 0. -1.
        -11    1    3    3    0    0  0.22071127054E+02 -0.17458965568E+02  0.14146476757E+02  0.31497189288E+02  0.51100000000E-03 0.  1.
         12    1    3    3    0    0 -0.22142438076E+02  0.95259349793E+01 -0.11763738421E+02  0.26821941444E+02  0.00000000000E+00 0. -1.
</event>
<event>
 7    1  0.2797450E-013  0.7246161E+02  0.7816164E-02  0.1226708E+00
        -11   -1    0    0    0    0  0.00000000000E+00  0.00000000000E+00  0.45593999997E+02  0.45594000000E+02  0.51100000000E-03 0.  1.
         11   -1    0    0    0    0 -0.00000000000E+00 -0.00000000000E+00 -0.45593999997E+02  0.45594000000E+02  0.51100000000E-03 0. -1.
    9900012    2    1    2    0    0  0.37550725492E+01 -0.32811275691E+00  0.18343098782E+02  0.72461614850E+02  0.70000058042E+02 0.  0.
         12    1    1    2    0    0 -0.37550725492E+01  0.32811275691E+00 -0.18343098782E+02  0.18726385150E+02  0.00000000000E+00 0. -1.
         11    1    3    3    0    0 -0.55074894006E+00  0.12461471980E+02 -0.41061981131E+01  0.13132116034E+02  0.51100000000E-03 0. -1.
        -11    1    3    3    0    0 -0.16762847106E+02  0.95605142085E+01 -0.28880057836E+01  0.19512484535E+02  0.51100000000E-03 0.  1.
        -12    1    3    3    0    0  0.21068668596E+02 -0.22350098946E+02  0.25337302679E+02  0.39817014282E+02  0.00000000000E+00 0.  1.
</event>
<event>
 7    1  0.2797450E-013  0.7246166E+02  0.7816164E-02  0.1226708E+00
        -11   -1    0    0    0    0  0.00000000000E+00  0.00000000000E+00  0.45593999997E+02  0.45594000000E+02  0.51100000000E-03 0. -1.
         11   -1    0    0    0    0 -0.00000000000E+00 -0.00000000000E+00 -0.45593999997E+02  0.45594000000E+02  0.51100000000E-03 0.  1.
    9900012    2    1    2    0    0  0.14042420749E+02 -0.10871958487E+02  0.59402760773E+01  0.72461656478E+02  0.70000112270E+02 0.  0.
         12    1    1    2    0    0 -0.14042420749E+02  0.10871958487E+02 -0.59402760773E+01  0.18726343522E+02  0.00000000000E+00 0. -1.
         11    1    3    3    0    0  0.31668876185E+01  0.35899057415E+01 -0.10960323197E+01  0.49109965921E+01  0.51100000000E-03 0. -1.
        -11    1    3    3    0    0 -0.33293233189E+01  0.94594886110E+00 -0.27194738614E+02  0.27414102604E+02  0.51100000000E-03 0.  1.
         12    1    3    3    0    0  0.14204856449E+02 -0.15407813090E+02  0.34231047011E+02  0.40136557282E+02  0.00000000000E+00 0. -1.
</event>
<event>
 7    1  0.2797450E-013  0.7246158E+02  0.7816164E-02  0.1226708E+00
        -11   -1    0    0    0    0  0.00000000000E+00  0.00000000000E+00  0.45593999997E+02  0.45594000000E+02  0.51100000000E-03 0. -1.
         11   -1    0    0    0    0 -0.00000000000E+00 -0.00000000000E+00 -0.45593999997E+02  0.45594000000E+02  0.51100000000E-03 0.  1.
    9900012    2    1    2    0    0 -0.24774061336E+01  0.10585367299E+02 -0.15247661793E+02  0.72461581972E+02  0.70000015212E+02 0.  0.
         12    1    1    2    0    0  0.24774061336E+01 -0.10585367299E+02  0.15247661793E+02  0.18726418028E+02  0.00000000000E+00 0. -1.
         11    1    3    3    0    0  0.18258465728E+02 -0.13138825579E+02  0.82806805545E+01  0.23970189383E+02  0.51100000000E-03 0. -1.
        -11    1    3    3    0    0  0.59662488060E+01  0.10260645507E+02 -0.30736642457E+01  0.12260684450E+02  0.51100000000E-03 0.  1.
        -12    1    3    3    0    0 -0.26702120668E+02  0.13463547371E+02 -0.20454678102E+02  0.36230708139E+02  0.00000000000E+00 0.  1.
</event>
<event>
 7    1  0.2797450E-013  0.7246157E+02  0.7816164E-02  0.1226708E+00
        -11   -1    0    0    0    0  0.00000000000E+00  0.00000000000E+00  0.45593999997E+02  0.45594000000E+02  0.51100000000E-03 0. -1.
         11   -1    0    0    0    0 -0.00000000000E+00 -0.00000000000E+00 -0.45593999997E+02  0.45594000000E+02  0.51100000000E-03 0.  1.
    9900012    2    1    2    0    0  0.22516677541E+01  0.28999375730E+01 -0.18362998619E+02  0.72461565104E+02  0.69999993239E+02 0.  0.
         12    1    1    2    0    0 -0.22516677541E+01 -0.28999375730E+01  0.18362998619E+02  0.18726434896E+02  0.00000000000E+00 0. -1.
         11    1    3    3    0    0 -0.60258118210E+01  0.17146135645E+02 -0.16122187875E+02  0.24294553253E+02  0.51100000000E-03 0. -1.
        -11    1    3    3    0    0 -0.11487736548E+02 -0.22154539975E+02  0.54279145399E+01  0.25539263674E+02  0.51100000000E-03 0.  1.
         12    1    3    3    0    0  0.19765216123E+02  0.79083419035E+01 -0.76687252847E+01  0.22627748177E+02  0.00000000000E+00 0. -1.
</event>
<event>
 7    1  0.2797450E-013  0.7246158E+02  0.7816164E-02  0.1226708E+00
        -11   -1    0    0    0    0  0.00000000000E+00  0.00000000000E+00  0.45593999997E+02  0.45594000000E+02  0.51100000000E-03 0. -1.
         11   -1    0    0    0    0 -0.00000000000E+00 -0.00000000000E+00 -0.45593999997E+02  0.45594000000E+02  0.51100000000E-03 0.  1.
    9900012    2    1    2    0    0 -0.13897436754E+02  0.63636204854E+00 -0.12535355290E+02  0.72461579167E+02  0.70000011558E+02 0.  0.
         12    1    1    2    0    0  0.13897436754E+02 -0.63636204854E+00  0.12535355290E+02  0.18726420833E+02  0.00000000000E+00 0. -1.
         11    1    3    3    0    0 -0.75530010069E+01 -0.12036223523E+02  0.10124103817E+02  0.17447520719E+02  0.51100000000E-03 0. -1.
        -11    1    3    3    0    0  0.47657202027E+01 -0.23401812179E+01  0.13395279904E+02  0.14409096472E+02  0.51100000000E-03 0.  1.
        -12    1    3    3    0    0 -0.11110155949E+02  0.15012766789E+02 -0.36054739011E+02  0.40604961975E+02  0.00000000000E+00 0.  1.
</event>
<event>
 7    1  0.2797450E-013  0.7246157E+02  0.7816164E-02  0.1226708E+00
        -11   -1    0    0    0    0  0.00000000000E+00  0.00000000000E+00  0.45593999997E+02  0.45594000000E+02  0.51100000000E-03 0.  1.
         11   -1    0    0    0    0 -0.00000000000E+00 -0.00000000000E+00 -0.45593999997E+02  0.45594000000E+02  0.51100000000E-03 0. -1.
    9900012    2    1    2    0    0 -0.10990044026E+02 -0.11983411030E+02  0.92895605048E+01  0.72461571030E+02  0.70000000958E+02 0.  0.
         12    1    1    2    0    0  0.10990044026E+02  0.11983411030E+02 -0.92895605048E+01  0.18726428970E+02  0.00000000000E+00 0. -1.
         11    1    3    3    0    0 -0.13410033136E+01 -0.13866074919E+02 -0.19472890240E+02  0.23942843986E+02  0.51100000000E-03 0. -1.
        -11    1    3    3    0    0  0.12007496115E+02 -0.86463062025E+01  0.86171786181E+01  0.17122918603E+02  0.51100000000E-03 0.  1.
        -12    1    3    3    0    0 -0.21656536828E+02  0.10528970092E+02  0.20145272127E+02  0.31395808441E+02  0.00000000000E+00 0.  1.
</event>
<event>
 7    1  0.2797450E-013  0.7246165E+02  0.7816164E-02  0.1226708E+00
        -11   -1    0    0    0    0  0.00000000000E+00  0.00000000000E+00  0.45593999997E+02  0.45594000000E+02  0.51100000000E-03 0. -1.
         11   -1    0    0    0    0 -0.00000000000E+00 -0.00000000000E+00 -0.45593999997E+02  0.45594000000E+02  0.51100000000E-03 0.  1.
    9900012    2    1    2    0    0 -0.12383086629E+02 -0.14036707570E+02  0.55320385742E+00  0.72461654164E+02  0.70000109255E+02 0.  0.
         12    1    1    2    0    0  0.12383086629E+02  0.14036707570E+02 -0.55320385742E+00  0.18726345836E+02  0.00000000000E+00 0. -1.
         11    1    3    3    0    0 -0.54260038907E+01  0.10051854689E+02  0.21833740577E+02  0.24641297222E+02  0.51100000000E-03 0. -1.
        -11    1    3    3    0    0  0.10374682297E+02 -0.19452928683E+02 -0.30745627623E+01  0.22259905740E+02  0.51100000000E-03 0.  1.
        -12    1    3    3    0    0 -0.17331765036E+02 -0.46356335757E+01 -0.18205973957E+02  0.25560451202E+02  0.00000000000E+00 0.  1.
</event>
<event>
 7    1  0.2797450E-013  0.7246151E+02  0.7816164E-02  0.1226708E+00
        -11   -1    0    0    0    0  0.00000000000E+00  0.00000000000E+00  0.45593999997E+02  0.45594000000E+02  0.51100000000E-03 0.  1.
         11   -1    0    0    0    0 -0.00000000000E+00 -0.00000000000E+00 -0.45593999997E+02  0.45594000000E+02  0.51100000000E-03 0. -1.
    9900012    2    1    2    0    0  0.32099356656E+01 -0.11243853310E+02  0.14627146150E+02  0.72461512644E+02  0.69999924899E+02 0.  0.
         12    1    1    2    0    0 -0.32099356656E+01  0.11243853310E+02 -0.14627146150E+02  0.18726487356E+02  0.00000000000E+00 0. -1.
         11    1    3    3    0    0 -0.20348787173E+02  0.69818985920E+01  0.18988020495E+01  0.21596886276E+02  0.51100000000E-03 0. -1.
        -11    1    3    3    0    0 -0.71557557620E+01 -0.56781608223E+01  0.15049466584E+02  0.17604908281E+02  0.51100000000E-03 0.  1.
         12    1    3    3    0    0  0.30714478600E+02 -0.12547591079E+02 -0.23211224839E+01  0.33259718086E+02  0.00000000000E+00 0. -1.
</event>
<event>
 7    1  0.2797450E-013  0.7246158E+02  0.7816164E-02  0.1226708E+00
        -11   -1    0    0    0    0  0.00000000000E+00  0.00000000000E+00  0.45593999997E+02  0.45594000000E+02  0.51100000000E-03 0. -1.
         11   -1    0    0    0    0 -0.00000000000E+00 -0.00000000000E+00 -0.45593999997E+02  0.45594000000E+02  0.51100000000E-03 0.  1.
    9900012    2    1    2    0    0  0.30609574950E+01  0.72591706835E+01 -0.16988632426E+02  0.72461584125E+02  0.70000018017E+02 0.  0.
         12    1    1    2    0    0 -0.30609574950E+01 -0.72591706835E+01  0.16988632426E+02  0.18726415875E+02  0.00000000000E+00 0. -1.
         11    1    3    3    0    0  0.33544980739E+01  0.26695625803E+01  0.49740090008E+01  0.65665811119E+01  0.51100000000E-03 0. -1.
        -11    1    3    3    0    0  0.25879613100E+02 -0.26117625356E+00 -0.28487158160E+02  0.38488189974E+02  0.51100000000E-03 0.  1.
        -12    1    3    3    0    0 -0.26173153679E+02  0.48507843568E+01  0.65245167324E+01  0.27406813039E+02  0.00000000000E+00 0.  1.
</event>
<event>
 7    1  0.2797450E-013  0.7246153E+02  0.7816164E-02  0.1226708E+00
        -11   -1    0    0    0    0  0.00000000000E+00  0.00000000000E+00  0.45593999997E+02  0.45594000000E+02  0.51100000000E-03 0. -1.
         11   -1    0    0    0    0 -0.00000000000E+00 -0.00000000000E+00 -0.45593999997E+02  0.45594000000E+02  0.51100000000E-03 0.  1.
    9900012    2    1    2    0    0  0.17487411823E+02  0.48865040272E+01  0.45818131276E+01  0.72461534626E+02  0.69999953535E+02 0.  0.
         12    1    1    2    0    0 -0.17487411823E+02 -0.48865040272E+01 -0.45818131276E+01  0.18726465374E+02  0.00000000000E+00 0. -1.
         11    1    3    3    0    0  0.29677309105E+02  0.83945797566E+01 -0.56191953171E+01  0.31349433827E+02  0.51100000000E-03 0. -1.
        -11    1    3    3    0    0  0.12694532560E+01  0.96090003524E+01 -0.97187381255E+01  0.13725824943E+02  0.51100000000E-03 0.  1.
        -12    1    3    3    0    0 -0.13459350538E+02 -0.13117076082E+02  0.19919746570E+02  0.27386275856E+02  0.00000000000E+00 0.  1.
</event>
<event>
 7    1  0.3016913E-013  0.7246155E+02  0.7816164E-02  0.1226708E+00
        -11   -1    0    0    0    0  0.00000000000E+00  0.00000000000E+00  0.45593999997E+02  0.45594000000E+02  0.51100000000E-03 0. -1.
         11   -1    0    0    0    0 -0.00000000000E+00 -0.00000000000E+00 -0.45593999997E+02  0.45594000000E+02  0.51100000000E-03 0.  1.
    9900012    2    1    2    0    0 -0.46524555612E+01  0.21347010387E+01 -0.18013258410E+02  0.72461554266E+02  0.69999979120E+02 0.  0.
         12    1    1    2    0    0  0.46524555612E+01 -0.21347010387E+01  0.18013258410E+02  0.18726445734E+02  0.00000000000E+00 0. -1.
         11    1    3    3    0    0  0.65796039118E+01  0.26931246663E+01 -0.41525014004E+01  0.82333089487E+01  0.51100000000E-03 0. -1.
        -11    1    3    3    0    0 -0.13499425418E+02  0.26097047325E+01 -0.37670814532E+02  0.40101562478E+02  0.51100000000E-03 0.  1.
         12    1    3    3    0    0  0.22673659454E+01 -0.31681283601E+01  0.23810057522E+02  0.24126682840E+02  0.00000000000E+00 0. -1.
</event>
<event>
 7    1  0.2797450E-013  0.7246153E+02  0.7816164E-02  0.1226708E+00
        -11   -1    0    0    0    0  0.00000000000E+00  0.00000000000E+00  0.45593999997E+02  0.45594000000E+02  0.51100000000E-03 0.  1.
         11   -1    0    0    0    0 -0.00000000000E+00 -0.00000000000E+00 -0.45593999997E+02  0.45594000000E+02  0.51100000000E-03 0. -1.
    9900012    2    1    2    0    0  0.16645939346E+02  0.25268333090E+01  0.81980746918E+01  0.72461531781E+02  0.69999949830E+02 0.  0.
         12    1    1    2    0    0 -0.16645939346E+02 -0.25268333090E+01 -0.81980746918E+01  0.18726468219E+02  0.00000000000E+00 0. -1.
         11    1    3    3    0    0 -0.31630502811E+01  0.14526704458E+02 -0.12354476114E+02  0.19330367555E+02  0.51100000000E-03 0. -1.
        -11    1    3    3    0    0  0.92475335465E+01  0.11937548023E+02 -0.56308595700E+01  0.16116094727E+02  0.51100000000E-03 0.  1.
         12    1    3    3    0    0  0.10561456081E+02 -0.23937419172E+02  0.26183410375E+02  0.37015069500E+02  0.00000000000E+00 0. -1.
</event>
<event>
 7    1  0.2797450E-013  0.7246161E+02  0.7816164E-02  0.1226708E+00
        -11   -1    0    0    0    0  0.00000000000E+00  0.00000000000E+00  0.45593999997E+02  0.45594000000E+02  0.51100000000E-03 0. -1.
         11   -1    0    0    0    0 -0.00000000000E+00 -0.00000000000E+00 -0.45593999997E+02  0.45594000000E+02  0.51100000000E-03 0.  1.
    9900012    2    1    2    0    0  0.20420619102E+01 -0.34858133312E+01 -0.18285426930E+02  0.72461608211E+02  0.70000049393E+02 0.  0.
         12    1    1    2    0    0 -0.20420619102E+01  0.34858133312E+01  0.18285426930E+02  0.18726391789E+02  0.00000000000E+00 0. -1.
         11    1    3    3    0    0  0.97087787269E+01  0.84557597129E+01  0.17159973151E+02  0.21452853784E+02  0.51100000000E-03 0. -1.
        -11    1    3    3    0    0 -0.99882261093E+01  0.81643384338E+01 -0.38069630500E+01  0.13450429391E+02  0.51100000000E-03 0.  1.
        -12    1    3    3    0    0  0.23215092927E+01 -0.20105911478E+02 -0.31638437031E+02  0.37558325036E+02  0.00000000000E+00 0.  1.
</event>
<event>
 7    1  0.2797450E-013  0.7246158E+02  0.7816164E-02  0.1226708E+00
        -11   -1    0    0    0    0  0.00000000000E+00  0.00000000000E+00  0.45593999997E+02  0.45594000000E+02  0.51100000000E-03 0. -1.
         11   -1    0    0    0    0 -0.00000000000E+00 -0.00000000000E+00 -0.45593999997E+02  0.45594000000E+02  0.51100000000E-03 0.  1.
    9900012    2    1    2    0    0 -0.16668664167E+01 -0.16508115504E+02 -0.86823017875E+01  0.72461583219E+02  0.70000016837E+02 0.  0.
         12    1    1    2    0    0  0.16668664167E+01  0.16508115504E+02  0.86823017875E+01  0.18726416781E+02  0.00000000000E+00 0. -1.
         11    1    3    3    0    0  0.54789398752E+01 -0.27677812396E+02 -0.15561217214E+02  0.32221600870E+02  0.51100000000E-03 0. -1.
        -11    1    3    3    0    0  0.32888659498E+01  0.10868476230E+02 -0.13319878979E+02  0.17503130893E+02  0.51100000000E-03 0.  1.
        -12    1    3    3    0    0 -0.10434672242E+02  0.30122066270E+00  0.20198794405E+02  0.22736851456E+02  0.00000000000E+00 0.  1.
</event>
<event>
 7    1  0.2797450E-013  0.7246156E+02  0.7816164E-02  0.1226708E+00
        -11   -1    0    0    0    0  0.00000000000E+00  0.00000000000E+00  0.45593999997E+02  0.45594000000E+02  0.51100000000E-03 0. -1.
         11   -1    0    0    0    0 -0.00000000000E+00 -0.00000000000E+00 -0.45593999997E+02  0.45594000000E+02  0.51100000000E-03 0.  1.
    9900012    2    1    2    0    0 -0.15084500950E+02  0.10672790166E+02 -0.30379269257E+01  0.72461558298E+02  0.69999984372E+02 0.  0.
         12    1    1    2    0    0  0.15084500950E+02 -0.10672790166E+02  0.30379269257E+01  0.18726441702E+02  0.00000000000E+00 0. -1.
         11    1    3    3    0    0  0.56394502927E+01 -0.16036076823E+02  0.72890889002E+01  0.18495674541E+02  0.51100000000E-03 0. -1.
        -11    1    3    3    0    0 -0.86948950568E+01 -0.70743202630E+01  0.79245705665E+01  0.13727564466E+02  0.51100000000E-03 0.  1.
        -12    1    3    3    0    0 -0.12029056186E+02  0.33783187251E+02 -0.18251586392E+02  0.40238319291E+02  0.00000000000E+00 0.  1.
</event>
<event>
 7    1  0.2797450E-013  0.7246157E+02  0.7816164E-02  0.1226708E+00
        -11   -1    0    0    0    0  0.00000000000E+00  0.00000000000E+00  0.45593999997E+02  0.45594000000E+02  0.51100000000E-03 0. -1.
         11   -1    0    0    0    0 -0.00000000000E+00 -0.00000000000E+00 -0.45593999997E+02  0.45594000000E+02  0.51100000000E-03 0.  1.
    9900012    2    1    2    0    0 -0.85054761727E+01 -0.40717886983E+01 -0.16178887764E+02  0.72461574890E+02  0.70000005987E+02 0.  0.
         12    1    1    2    0    0  0.85054761727E+01  0.40717886983E+01  0.16178887764E+02  0.18726425110E+02  0.00000000000E+00 0. -1.
         11    1    3    3    0    0 -0.38966915274E+01  0.49060617493E+01  0.20207149935E+01  0.65830795297E+01  0.51100000000E-03 0. -1.
        -11    1    3    3    0    0 -0.10501353801E+02 -0.25184247144E+02  0.13004484353E+02  0.30226500780E+02  0.51100000000E-03 0.  1.
         12    1    3    3    0    0  0.58925691554E+01  0.16206396697E+02 -0.31204087110E+02  0.35651994580E+02  0.00000000000E+00 0. -1.
</event>
<event>
 7    1  0.2797450E-013  0.7246155E+02  0.7816164E-02  0.1226708E+00
        -11   -1    0    0    0    0  0.00000000000E+00  0.00000000000E+00  0.45593999997E+02  0.45594000000E+02  0.51100000000E-03 0. -1.
         11   -1    0    0    0    0 -0.00000000000E+00 -0.00000000000E+00 -0.45593999997E+02  0.45594000000E+02  0.51100000000E-03 0.  1.
    9900012    2    1    2    0    0 -0.26632319179E+01 -0.42897131861E+01 -0.18032896004E+02  0.72461553947E+02  0.69999978705E+02 0.  0.
         12    1    1    2    0    0  0.26632319179E+01  0.42897131861E+01  0.18032896004E+02  0.18726446053E+02  0.00000000000E+00 0. -1.
         11    1    3    3    0    0 -0.13954824550E+02  0.15367365448E+02 -0.35815320671E+02  0.41396017249E+02  0.51100000000E-03 0. -1.
        -11    1    3    3    0    0 -0.18074465085E+01 -0.47536525971E+01  0.12455058141E+01  0.52359679993E+01  0.51100000000E-03 0.  1.
        -12    1    3    3    0    0  0.13099039140E+02 -0.14903426037E+02  0.16536918852E+02  0.25829568699E+02  0.00000000000E+00 0.  1.
</event>
<event>
 7    1  0.2797450E-013  0.7246158E+02  0.7816164E-02  0.1226708E+00
        -11   -1    0    0    0    0  0.00000000000E+00  0.00000000000E+00  0.45593999997E+02  0.45594000000E+02  0.51100000000E-03 0.  1.
         11   -1    0    0    0    0 -0.00000000000E+00 -0.00000000000E+00 -0.45593999997E+02  0.45594000000E+02  0.51100000000E-03 0. -1.
    9900012    2    1    2    0    0 -0.67205276073E+01  0.13617760409E+02  0.10957646323E+02  0.72461577416E+02  0.70000009277E+02 0.  0.
         12    1    1    2    0    0  0.67205276073E+01 -0.13617760409E+02 -0.10957646323E+02  0.18726422584E+02  0.00000000000E+00 0. -1.
         11    1    3    3    0    0  0.37810365247E+01  0.17725265648E+02 -0.17217973492E+02  0.24998797789E+02  0.51100000000E-03 0. -1.
        -11    1    3    3    0    0 -0.98148648473E+01 -0.12690709235E+01 -0.70280514624E+01  0.12138188522E+02  0.51100000000E-03 0.  1.
        -12    1    3    3    0    0 -0.68669928476E+00 -0.28384343155E+01  0.35203671277E+02  0.35324591104E+02  0.00000000000E+00 0.  1.
</event>
<event>
 7    1  0.2797450E-013  0.7246158E+02  0.7816164E-02  0.1226708E+00
        -11   -1    0    0    0    0  0.00000000000E+00  0.00000000000E+00  0.45593999997E+02  0.45594000000E+02  0.51100000000E-03 0. -1.
         11   -1    0    0    0    0 -0.00000000000E+00 -0.00000000000E+00 -0.45593999997E+02  0.45594000000E+02  0.51100000000E-03 0.  1.
    9900012    2    1    2    0    0  0.98118651375E+01  0.74232132755E+01 -0.14117438203E+02  0.72461578713E+02  0.70000010966E+02 0.  0.
         12    1    1    2    0    0 -0.98118651375E+01 -0.74232132755E+01  0.14117438203E+02  0.18726421287E+02  0.00000000000E+00 0. -1.
         11    1    3    3    0    0 -0.11678535548E+02  0.13021867998E+02 -0.97104189340E+01  0.20006235899E+02  0.51100000000E-03 0. -1.
        -11    1    3    3    0    0 -0.93879821238E+01 -0.10759664862E+02 -0.13709968465E+02  0.19795651843E+02  0.51100000000E-03 0.  1.
         12    1    3    3    0    0  0.30878382809E+02  0.51610101388E+01  0.93029491962E+01  0.32659690971E+02  0.00000000000E+00 0. -1.
</event>
<event>
 7    1  0.2797450E-013  0.7246139E+02  0.7816164E-02  0.1226708E+00
        -11   -1    0    0    0    0  0.00000000000E+00  0.00000000000E+00  0.45593999997E+02  0.45594000000E+02  0.51100000000E-03 0.  1.
         11   -1    0    0    0    0 -0.00000000000E+00 -0.00000000000E+00 -0.45593999997E+02  0.45594000000E+02  0.51100000000E-03 0. -1.
    9900012    2    1    2    0    0 -0.67624762644E+01  0.17377473168E+02  0.17257251584E+01  0.72461393627E+02  0.69999769857E+02 0.  0.
         12    1    1    2    0    0  0.67624762644E+01 -0.17377473168E+02 -0.17257251584E+01  0.18726606373E+02  0.00000000000E+00 0. -1.
         11    1    3    3    0    0  0.15471181298E+02  0.16858699052E+02 -0.90756647021E+01  0.24615866317E+02  0.51100000000E-03 0. -1.
        -11    1    3    3    0    0 -0.12527980201E+02  0.19846998979E+02  0.11645977809E+02  0.26200810213E+02  0.51100000000E-03 0.  1.
        -12    1    3    3    0    0 -0.97056773611E+01 -0.19328224863E+02 -0.84458794888E+00  0.21644717097E+02  0.00000000000E+00 0.  1.
</event>
<event>
 7    1  0.2797450E-013  0.7246169E+02  0.7816164E-02  0.1226708E+00
        -11   -1    0    0    0    0  0.00000000000E+00  0.00000000000E+00  0.45593999997E+02  0.45594000000E+02  0.51100000000E-03 0.  1.
         11   -1    0    0    0    0 -0.00000000000E+00 -0.00000000000E+00 -0.45593999997E+02  0.45594000000E+02  0.51100000000E-03 0. -1.
    9900012    2    1    2    0    0 -0.18627250871E+02 -0.15777762471E+01 -0.11004254685E+01  0.72461687253E+02  0.70000152360E+02 0.  0.
         12    1    1    2    0    0  0.18627250871E+02  0.15777762471E+01  0.11004254685E+01  0.18726312747E+02  0.00000000000E+00 0. -1.
         11    1    3    3    0    0  0.86942233493E+01  0.12396699622E+02 -0.41268212041E+01  0.15693894822E+02  0.51100000000E-03 0.  1.
        -11    1    3    3    0    0 -0.63974193896E+01 -0.27897159600E+02  0.10596145786E+02  0.30519777103E+02  0.51100000000E-03 0. -1.
         12    1    3    3    0    0 -0.20924054831E+02  0.13922683731E+02 -0.75697500504E+01  0.26248015328E+02  0.00000000000E+00 0. -1.
</event>
<event>
 7    1  0.2797450E-013  0.7246152E+02  0.7816164E-02  0.1226708E+00
        -11   -1    0    0    0    0  0.00000000000E+00  0.00000000000E+00  0.45593999997E+02  0.45594000000E+02  0.51100000000E-03 0.  1.
         11   -1    0    0    0    0 -0.00000000000E+00 -0.00000000000E+00 -0.45593999997E+02  0.45594000000E+02  0.51100000000E-03 0. -1.
    9900012    2    1    2    0    0  0.12656135390E+02  0.13072169129E+02 -0.44296413117E+01  0.72461518993E+02  0.69999933170E+02 0.  0.
         12    1    1    2    0    0 -0.12656135390E+02 -0.13072169129E+02  0.44296413117E+01  0.18726481007E+02  0.00000000000E+00 0. -1.
         11    1    3    3    0    0  0.15530450710E+01 -0.10886692356E+02 -0.78984069324E-01  0.10997193196E+02  0.51100000000E-03 0. -1.
        -11    1    3    3    0    0 -0.56281673570E+01  0.13383505528E+02  0.23303688177E+02  0.27456444980E+02  0.51100000000E-03 0.  1.
         12    1    3    3    0    0  0.16731257676E+02  0.10575355957E+02 -0.27654345420E+02  0.34007880817E+02  0.00000000000E+00 0. -1.
</event>
<event>
 7    1  0.2797450E-013  0.7246174E+02  0.7816164E-02  0.1226708E+00
        -11   -1    0    0    0    0  0.00000000000E+00  0.00000000000E+00  0.45593999997E+02  0.45594000000E+02  0.51100000000E-03 0. -1.
         11   -1    0    0    0    0 -0.00000000000E+00 -0.00000000000E+00 -0.45593999997E+02  0.45594000000E+02  0.51100000000E-03 0.  1.
    9900012    2    1    2    0    0 -0.21930351847E+01  0.17939556014E+02  0.49026265911E+01  0.72461739808E+02  0.70000220822E+02 0.  0.
         12    1    1    2    0    0  0.21930351847E+01 -0.17939556014E+02 -0.49026265911E+01  0.18726260192E+02  0.00000000000E+00 0. -1.
         11    1    3    3    0    0  0.85179979295E+01 -0.12325716472E+02 -0.73689246458E+01  0.16696725007E+02  0.51100000000E-03 0. -1.
        -11    1    3    3    0    0 -0.11839655638E+01 -0.53888282508E+01 -0.10880187476E+02  0.12199168994E+02  0.51100000000E-03 0.  1.
         12    1    3    3    0    0 -0.95270675504E+01  0.35654100737E+02  0.23151738713E+02  0.43565845807E+02  0.00000000000E+00 0. -1.
</event>
<event>
 7    1  0.2797450E-013  0.7246161E+02  0.7816164E-02  0.1226708E+00
        -11   -1    0    0    0    0  0.00000000000E+00  0.00000000000E+00  0.45593999997E+02  0.45594000000E+02  0.51100000000E-03 0. -1.
         11   -1    0    0    0    0 -0.00000000000E+00 -0.00000000000E+00 -0.45593999997E+02  0.45594000000E+02  0.51100000000E-03 0.  1.
    9900012    2    1    2    0    0  0.16410185535E+02  0.19006287098E+01 -0.88187832553E+01  0.72461614420E+02  0.70000057481E+02 0.  0.
         12    1    1    2    0    0 -0.16410185535E+02 -0.19006287098E+01  0.88187832553E+01  0.18726385580E+02  0.00000000000E+00 0. -1.
         11    1    3    3    0    0  0.15608842756E+02 -0.15153482169E+02 -0.32586730588E+01  0.21997339485E+02  0.51100000000E-03 0. -1.
        -11    1    3    3    0    0 -0.57336380897E+01 -0.21634374390E+01 -0.22938479023E+02  0.23742975539E+02  0.51100000000E-03 0.  1.
         12    1    3    3    0    0  0.65349808689E+01  0.19217548318E+02  0.17378368827E+02  0.26721299396E+02  0.00000000000E+00 0. -1.
</event>
<event>
 7    1  0.2797450E-013  0.7246157E+02  0.7816164E-02  0.1226708E+00
        -11   -1    0    0    0    0  0.00000000000E+00  0.00000000000E+00  0.45593999997E+02  0.45594000000E+02  0.51100000000E-03 0.  1.
         11   -1    0    0    0    0 -0.00000000000E+00 -0.00000000000E+00 -0.45593999997E+02  0.45594000000E+02  0.51100000000E-03 0. -1.
    9900012    2    1    2    0    0  0.25418179026E+01  0.11810042946E+02  0.14308777042E+02  0.72461573403E+02  0.70000004050E+02 0.  0.
         12    1    1    2    0    0 -0.25418179026E+01 -0.11810042946E+02 -0.14308777042E+02  0.18726426597E+02  0.00000000000E+00 0. -1.
         11    1    3    3    0    0  0.17596385720E+01  0.48076078211E+00 -0.30979118872E+01  0.35950684494E+01  0.51100000000E-03 0. -1.
        -11    1    3    3    0    0 -0.21864771889E+02 -0.17209428079E+02 -0.14115003540E+01  0.27860814742E+02  0.51100000000E-03 0.  1.
        -12    1    3    3    0    0  0.22646951219E+02  0.28538710243E+02  0.18818189283E+02  0.41005690212E+02  0.00000000000E+00 0.  1.
</event>
<event>
 7    1  0.2797450E-013  0.7246158E+02  0.7816164E-02  0.1226708E+00
        -11   -1    0    0    0    0  0.00000000000E+00  0.00000000000E+00  0.45593999997E+02  0.45594000000E+02  0.51100000000E-03 0. -1.
         11   -1    0    0    0    0 -0.00000000000E+00 -0.00000000000E+00 -0.45593999997E+02  0.45594000000E+02  0.51100000000E-03 0.  1.
    9900012    2    1    2    0    0  0.90340663727E+01 -0.15298358411E+02 -0.59181578235E+01  0.72461582368E+02  0.70000015728E+02 0.  0.
         12    1    1    2    0    0 -0.90340663727E+01  0.15298358411E+02  0.59181578235E+01  0.18726417632E+02  0.00000000000E+00 0. -1.
         11    1    3    3    0    0 -0.57021662486E+01 -0.28850239653E+01 -0.72512301109E+00  0.64314747025E+01  0.51100000000E-03 0. -1.
        -11    1    3    3    0    0  0.23125927522E+01 -0.35526349677E+02 -0.14139388566E+02  0.38306551866E+02  0.51100000000E-03 0.  1.
         12    1    3    3    0    0  0.12423639869E+02  0.23113015231E+02  0.89463537540E+01  0.27723555799E+02  0.00000000000E+00 0. -1.
</event>
<event>
 7    1  0.2797450E-013  0.7246157E+02  0.7816164E-02  0.1226708E+00
        -11   -1    0    0    0    0  0.00000000000E+00  0.00000000000E+00  0.45593999997E+02  0.45594000000E+02  0.51100000000E-03 0.  1.
         11   -1    0    0    0    0 -0.00000000000E+00 -0.00000000000E+00 -0.45593999997E+02  0.45594000000E+02  0.51100000000E-03 0. -1.
    9900012    2    1    2    0    0 -0.18747604691E+01 -0.36699502126E+01  0.18267349062E+02  0.72461566727E+02  0.69999995353E+02 0.  0.
         12    1    1    2    0    0  0.18747604691E+01  0.36699502126E+01 -0.18267349062E+02  0.18726433273E+02  0.00000000000E+00 0. -1.
         11    1    3    3    0    0  0.18895525754E+02 -0.41015336321E+01 -0.15181151075E+01  0.19395054663E+02  0.51100000000E-03 0. -1.
        -11    1    3    3    0    0  0.58008259731E+01  0.12947531862E+02 -0.45755935308E+01  0.14907186848E+02  0.51100000000E-03 0.  1.
        -12    1    3    3    0    0 -0.26571112196E+02 -0.12515948443E+02  0.24361057700E+02  0.38159325217E+02  0.00000000000E+00 0.  1.
</event>
<event>
 7    1  0.2797450E-013  0.7246142E+02  0.7816164E-02  0.1226708E+00
        -11   -1    0    0    0    0  0.00000000000E+00  0.00000000000E+00  0.45593999997E+02  0.45594000000E+02  0.51100000000E-03 0. -1.
         11   -1    0    0    0    0 -0.00000000000E+00 -0.00000000000E+00 -0.45593999997E+02  0.45594000000E+02  0.51100000000E-03 0.  1.
    9900012    2    1    2    0    0  0.12828787347E+02  0.12756719522E+02 -0.48345777414E+01  0.72461419434E+02  0.69999803476E+02 0.  0.
         12    1    1    2    0    0 -0.12828787347E+02 -0.12756719522E+02  0.48345777414E+01  0.18726580566E+02  0.00000000000E+00 0. -1.
         11    1    3    3    0    0  0.26224731241E+02  0.74555830971E+01  0.86423100938E+01  0.28600905090E+02  0.51100000000E-03 0. -1.
        -11    1    3    3    0    0 -0.23423852074E+01 -0.14912420601E+02  0.31859375851E+01  0.15427807855E+02  0.51100000000E-03 0.  1.
        -12    1    3    3    0    0 -0.11053558686E+02  0.20213557026E+02 -0.16662825420E+02  0.28432706489E+02  0.00000000000E+00 0.  1.
</event>
<event>
 7    1  0.2797450E-013  0.7246180E+02  0.7816164E-02  0.1226707E+00
        -11   -1    0    0    0    0  0.00000000000E+00  0.00000000000E+00  0.45593999997E+02  0.45594000000E+02  0.51100000000E-03 0. -1.
         11   -1    0    0    0    0 -0.00000000000E+00 -0.00000000000E+00 -0.45593999997E+02  0.45594000000E+02  0.51100000000E-03 0.  1.
    9900012    2    1    2    0    0  0.13346739257E+02 -0.12266920914E+02 -0.46965849508E+01  0.72461796228E+02  0.70000294320E+02 0.  0.
         12    1    1    2    0    0 -0.13346739257E+02  0.12266920914E+02  0.46965849508E+01  0.18726203772E+02  0.00000000000E+00 0. -1.
         11    1    3    3    0    0  0.73490142248E+01 -0.11329844508E+02  0.21749376422E+02  0.25600952358E+02  0.51100000000E-03 0. -1.
        -11    1    3    3    0    0 -0.46878548164E+00  0.11572824699E+02  0.48389816211E+01  0.12552520652E+02  0.51100000000E-03 0.  1.
        -12    1    3    3    0    0  0.64665105137E+01 -0.12509901105E+02 -0.31284942994E+02  0.34308323218E+02  0.00000000000E+00 0.  1.
</event>
<event>
 7    1  0.2797450E-013  0.7246157E+02  0.7816164E-02  0.1226708E+00
        -11   -1    0    0    0    0  0.00000000000E+00  0.00000000000E+00  0.45593999997E+02  0.45594000000E+02  0.51100000000E-03 0.  1.
         11   -1    0    0    0    0 -0.00000000000E+00 -0.00000000000E+00 -0.45593999997E+02  0.45594000000E+02  0.51100000000E-03 0. -1.
    9900012    2    1    2    0    0 -0.21897835159E+01  0.15569201449E+02  0.10172711548E+02  0.72461568256E+02  0.69999997345E+02 0.  0.
         12    1    1    2    0    0  0.21897835159E+01 -0.15569201449E+02 -0.10172711548E+02  0.18726431744E+02  0.00000000000E+00 0. -1.
         11    1    3    3    0    0  0.83749751850E+01 -0.16513772057E+02  0.42010027386E+00  0.18520835872E+02  0.51100000000E-03 0. -1.
        -11    1    3    3    0    0  0.96299107828E+01 -0.16794903947E+01  0.10824281794E+02  0.14584956164E+02  0.51100000000E-03 0.  1.
        -12    1    3    3    0    0 -0.20194669484E+02  0.33762463901E+02 -0.10716705198E+01  0.39355776220E+02  0.00000000000E+00 0.  1.
</event>
<event>
 7    1  0.2797450E-013  0.7246150E+02  0.7816164E-02  0.1226708E+00
        -11   -1    0    0    0    0  0.00000000000E+00  0.00000000000E+00  0.45593999997E+02  0.45594000000E+02  0.51100000000E-03 0.  1.
         11   -1    0    0    0    0 -0.00000000000E+00 -0.00000000000E+00 -0.45593999997E+02  0.45594000000E+02  0.51100000000E-03 0. -1.
    9900012    2    1    2    0    0 -0.98621642773E+01  0.15778280403E+02 -0.21131765842E+01  0.72461496536E+02  0.69999903916E+02 0.  0.
         12    1    1    2    0    0  0.98621642773E+01 -0.15778280403E+02  0.21131765842E+01  0.18726503464E+02  0.00000000000E+00 0. -1.
         11    1    3    3    0    0 -0.18118721586E+02  0.42322831975E+01  0.33025568101E+01  0.18897279558E+02  0.51100000000E-03 0. -1.
        -11    1    3    3    0    0 -0.18024175863E+02  0.18584914054E+02 -0.49184391261E+01  0.26352627755E+02  0.51100000000E-03 0.  1.
         12    1    3    3    0    0  0.26280733171E+02 -0.70389168486E+01 -0.49729426817E+00  0.27211589222E+02  0.00000000000E+00 0. -1.
</event>
<event>
 7    1  0.2797450E-013  0.7246172E+02  0.7816164E-02  0.1226708E+00
        -11   -1    0    0    0    0  0.00000000000E+00  0.00000000000E+00  0.45593999997E+02  0.45594000000E+02  0.51100000000E-03 0. -1.
         11   -1    0    0    0    0 -0.00000000000E+00 -0.00000000000E+00 -0.45593999997E+02  0.45594000000E+02  0.51100000000E-03 0.  1.
    9900012    2    1    2    0    0 -0.26295804469E+00 -0.12552686909E+02 -0.13893685017E+02  0.72461719565E+02  0.70000194453E+02 0.  0.
         12    1    1    2    0    0  0.26295804469E+00  0.12552686909E+02  0.13893685017E+02  0.18726280435E+02  0.00000000000E+00 0. -1.
         11    1    3    3    0    0  0.99868939394E+01  0.56049254076E+01  0.11488427240E+02  0.16221504249E+02  0.51100000000E-03 0. -1.
        -11    1    3    3    0    0 -0.46370718427E+01  0.13835121830E+02 -0.17558159902E+02  0.22829849118E+02  0.51100000000E-03 0.  1.
         12    1    3    3    0    0 -0.56127801414E+01 -0.31992734146E+02 -0.78239523555E+01  0.33410366199E+02  0.00000000000E+00 0. -1.
</event>
<event>
 7    1  0.2797450E-013  0.7246158E+02  0.7816164E-02  0.1226708E+00
        -11   -1    0    0    0    0  0.00000000000E+00  0.00000000000E+00  0.45593999997E+02  0.45594000000E+02  0.51100000000E-03 0.  1.
         11   -1    0    0    0    0 -0.00000000000E+00 -0.00000000000E+00 -0.45593999997E+02  0.45594000000E+02  0.51100000000E-03 0. -1.
    9900012    2    1    2    0    0  0.97953603118E+01  0.24035432353E+01  0.15778236065E+02  0.72461579172E+02  0.70000011564E+02 0.  0.
         12    1    1    2    0    0 -0.97953603118E+01 -0.24035432353E+01 -0.15778236065E+02  0.18726420828E+02  0.00000000000E+00 0. -1.
         11    1    3    3    0    0 -0.16713334694E+02 -0.66488391218E+01 -0.14771624514E+02  0.23275384193E+02  0.51100000000E-03 0. -1.
        -11    1    3    3    0    0  0.15221783525E+02  0.53735301969E+01 -0.28513175961E+00  0.16144931739E+02  0.51100000000E-03 0.  1.
        -12    1    3    3    0    0  0.11286911481E+02  0.36788521602E+01  0.30834992338E+02  0.33041263240E+02  0.00000000000E+00 0.  1.
</event>
<event>
 7    1  0.2797450E-013  0.7246153E+02  0.7816164E-02  0.1226708E+00
        -11   -1    0    0    0    0  0.00000000000E+00  0.00000000000E+00  0.45593999997E+02  0.45594000000E+02  0.51100000000E-03 0.  1.
         11   -1    0    0    0    0 -0.00000000000E+00 -0.00000000000E+00 -0.45593999997E+02  0.45594000000E+02  0.51100000000E-03 0. -1.
    9900012    2    1    2    0    0 -0.49892611242E+01 -0.11410277617E+02  0.13985472795E+02  0.72461531802E+02  0.69999949857E+02 0.  0.
         12    1    1    2    0    0  0.49892611242E+01  0.11410277617E+02 -0.13985472795E+02  0.18726468198E+02  0.00000000000E+00 0. -1.
         11    1    3    3    0    0  0.72162397676E+01  0.77268443880E+01  0.23684965043E+02  0.25937536697E+02  0.51100000000E-03 0. -1.
        -11    1    3    3    0    0  0.38253307364E+01 -0.34673677126E+01  0.13384874649E+02  0.14346102737E+02  0.51100000000E-03 0.  1.
        -12    1    3    3    0    0 -0.16030831628E+02 -0.15669754292E+02 -0.23084366897E+02  0.32177892369E+02  0.00000000000E+00 0.  1.
</event>
<event>
 7    1  0.2797450E-013  0.7246152E+02  0.7816164E-02  0.1226708E+00
        -11   -1    0    0    0    0  0.00000000000E+00  0.00000000000E+00  0.45593999997E+02  0.45594000000E+02  0.51100000000E-03 0.  1.
         11   -1    0    0    0    0 -0.00000000000E+00 -0.00000000000E+00 -0.45593999997E+02  0.45594000000E+02  0.51100000000E-03 0. -1.
    9900012    2    1    2    0    0  0.14753875503E+02  0.23656540250E+01  0.11287503047E+02  0.72461524454E+02  0.69999940285E+02 0.  0.
         12    1    1    2    0    0 -0.14753875503E+02 -0.23656540250E+01 -0.11287503047E+02  0.18726475546E+02  0.00000000000E+00 0. -1.
         11    1    3    3    0    0  0.78590174237E+01  0.67164661295E+01 -0.16948967700E+00  0.10339429343E+02  0.51100000000E-03 0. -1.
        -11    1    3    3    0    0  0.18932286772E+02  0.19256587206E+02  0.20733655753E+02  0.34046029348E+02  0.51100000000E-03 0.  1.
         12    1    3    3    0    0 -0.12037428692E+02 -0.23607399311E+02 -0.92766630291E+01  0.28076065762E+02  0.00000000000E+00 0. -1.
</event>
<event>
 7    1  0.2797450E-013  0.7246155E+02  0.7816164E-02  0.1226708E+00
        -11   -1    0    0    0    0  0.00000000000E+00  0.00000000000E+00  0.45593999997E+02  0.45594000000E+02  0.51100000000E-03 0. -1.
         11   -1    0    0    0    0 -0.00000000000E+00 -0.00000000000E+00 -0.45593999997E+02  0.45594000000E+02  0.51100000000E-03 0.  1.
    9900012    2    1    2    0    0 -0.13920270127E+02  0.11321676753E+02  0.53596407816E+01  0.72461547207E+02  0.69999969924E+02 0.  0.
         12    1    1    2    0    0  0.13920270127E+02 -0.11321676753E+02 -0.53596407816E+01  0.18726452793E+02  0.00000000000E+00 0. -1.
         11    1    3    3    0    0  0.78410589772E+01 -0.49121950177E+01 -0.23648707167E+01  0.95501036405E+01  0.51100000000E-03 0. -1.
        -11    1    3    3    0    0 -0.69960852906E+01  0.42773556280E+01 -0.24315989993E+02  0.25661417540E+02  0.51100000000E-03 0.  1.
        -12    1    3    3    0    0 -0.14765243814E+02  0.11956516142E+02  0.32040501491E+02  0.37250026026E+02  0.00000000000E+00 0.  1.
</event>
<event>
 7    1  0.2797450E-013  0.7246152E+02  0.7816164E-02  0.1226708E+00
        -11   -1    0    0    0    0  0.00000000000E+00  0.00000000000E+00  0.45593999997E+02  0.45594000000E+02  0.51100000000E-03 0.  1.
         11   -1    0    0    0    0 -0.00000000000E+00 -0.00000000000E+00 -0.45593999997E+02  0.45594000000E+02  0.51100000000E-03 0. -1.
    9900012    2    1    2    0    0  0.12622678392E+02 -0.32149446805E+01  0.13454115083E+02  0.72461518970E+02  0.69999933141E+02 0.  0.
         12    1    1    2    0    0 -0.12622678392E+02  0.32149446805E+01 -0.13454115083E+02  0.18726481030E+02  0.00000000000E+00 0. -1.
         11    1    3    3    0    0 -0.11320980050E+02 -0.88362699214E+00 -0.14279080764E+02  0.18243835498E+02  0.51100000000E-03 0. -1.
        -11    1    3    3    0    0  0.58271710465E+01 -0.20131020667E+02  0.98570161394E+01  0.23159764311E+02  0.51100000000E-03 0.  1.
        -12    1    3    3    0    0  0.18116487396E+02  0.17799702979E+02  0.17876179707E+02  0.31057919161E+02  0.00000000000E+00 0.  1.
</event>
<event>
 7    1  0.2797450E-013  0.7246156E+02  0.7816164E-02  0.1226708E+00
        -11   -1    0    0    0    0  0.00000000000E+00  0.00000000000E+00  0.45593999997E+02  0.45594000000E+02  0.51100000000E-03 0.  1.
         11   -1    0    0    0    0 -0.00000000000E+00 -0.00000000000E+00 -0.45593999997E+02  0.45594000000E+02  0.51100000000E-03 0. -1.
    9900012    2    1    2    0    0 -0.70624441302E+01 -0.17039685532E+02  0.32327587851E+01  0.72461555343E+02  0.69999980524E+02 0.  0.
         12    1    1    2    0    0  0.70624441302E+01  0.17039685532E+02 -0.32327587851E+01  0.18726444657E+02  0.00000000000E+00 0. -1.
         11    1    3    3    0    0  0.14769597657E+02  0.85006853958E+01  0.19369785927E+02  0.25799055685E+02  0.51100000000E-03 0. -1.
        -11    1    3    3    0    0 -0.65097446675E+00  0.56205571057E+01 -0.44963870285E+01  0.72271658696E+01  0.51100000000E-03 0.  1.
        -12    1    3    3    0    0 -0.21181067321E+02 -0.31160928033E+02 -0.11640640113E+02  0.39435333788E+02  0.00000000000E+00 0.  1.
</event>
<event>
 7    1  0.2797450E-013  0.7246160E+02  0.7816164E-02  0.1226708E+00
        -11   -1    0    0    0    0  0.00000000000E+00  0.00000000000E+00  0.45593999997E+02  0.45594000000E+02  0.51100000000E-03 0. -1.
         11   -1    0    0    0    0 -0.00000000000E+00 -0.00000000000E+00 -0.45593999997E+02  0.45594000000E+02  0.51100000000E-03 0.  1.
    9900012    2    1    2    0    0  0.37306023664E+01  0.11179734498E+02 -0.14552457362E+02  0.72461604919E+02  0.70000045105E+02 0.  0.
         12    1    1    2    0    0 -0.37306023664E+01 -0.11179734498E+02  0.14552457362E+02  0.18726395081E+02  0.00000000000E+00 0. -1.
         11    1    3    3    0    0  0.11924548183E+01  0.14684069562E+02 -0.33145899805E+02  0.36272503657E+02  0.51100000000E-03 0.  1.
        -11    1    3    3    0    0  0.92872447871E+01  0.81351463508E+01 -0.10374919032E+01  0.12389911686E+02  0.51100000000E-03 0. -1.
         12    1    3    3    0    0 -0.67490972390E+01 -0.11639481414E+02  0.19630934346E+02  0.23799189576E+02  0.00000000000E+00 0. -1.
</event>
<event>
 7    1  0.2797450E-013  0.7246151E+02  0.7816164E-02  0.1226708E+00
        -11   -1    0    0    0    0  0.00000000000E+00  0.00000000000E+00  0.45593999997E+02  0.45594000000E+02  0.51100000000E-03 0.  1.
         11   -1    0    0    0    0 -0.00000000000E+00 -0.00000000000E+00 -0.45593999997E+02  0.45594000000E+02  0.51100000000E-03 0. -1.
    9900012    2    1    2    0    0 -0.46601005041E+01 -0.18867558012E+01  0.18038983764E+02  0.72461512892E+02  0.69999925223E+02 0.  0.
         12    1    1    2    0    0  0.46601005041E+01  0.18867558012E+01 -0.18038983764E+02  0.18726487108E+02  0.00000000000E+00 0. -1.
         11    1    3    3    0    0  0.14978611150E+02  0.41579670959E+01  0.21164664094E+02  0.26260055004E+02  0.51100000000E-03 0. -1.
        -11    1    3    3    0    0  0.43405545682E+01  0.45633487110E+01 -0.15850594189E+02  0.17055963820E+02  0.51100000000E-03 0.  1.
        -12    1    3    3    0    0 -0.23979266222E+02 -0.10608071608E+02  0.12724913859E+02  0.29145494069E+02  0.00000000000E+00 0.  1.
</event>
<event>
 7    1  0.2797450E-013  0.7246158E+02  0.7816164E-02  0.1226708E+00
        -11   -1    0    0    0    0  0.00000000000E+00  0.00000000000E+00  0.45593999997E+02  0.45594000000E+02  0.51100000000E-03 0.  1.
         11   -1    0    0    0    0 -0.00000000000E+00 -0.00000000000E+00 -0.45593999997E+02  0.45594000000E+02  0.51100000000E-03 0. -1.
    9900012    2    1    2    0    0 -0.12001391900E+00  0.87159383650E+01  0.16573975622E+02  0.72461584090E+02  0.70000017971E+02 0.  0.
         12    1    1    2    0    0  0.12001391900E+00 -0.87159383650E+01 -0.16573975622E+02  0.18726415910E+02  0.00000000000E+00 0. -1.
         11    1    3    3    0    0 -0.11389939939E+02 -0.74733095245E+00 -0.34088462537E+01  0.11912576061E+02  0.51100000000E-03 0. -1.
        -11    1    3    3    0    0 -0.15870133766E+02 -0.12857630115E+02  0.14346621467E+02  0.24960075034E+02  0.51100000000E-03 0.  1.
        -12    1    3    3    0    0  0.27140059786E+02  0.22320899433E+02  0.56362004092E+01  0.35588932995E+02  0.00000000000E+00 0.  1.
</event>
<event>
 7    1  0.2797450E-013  0.7246188E+02  0.7816164E-02  0.1226707E+00
        -11   -1    0    0    0    0  0.00000000000E+00  0.00000000000E+00  0.45593999997E+02  0.45594000000E+02  0.51100000000E-03 0.  1.
         11   -1    0    0    0    0 -0.00000000000E+00 -0.00000000000E+00 -0.45593999997E+02  0.45594000000E+02  0.51100000000E-03 0. -1.
    9900012    2    1    2    0    0  0.11216629595E+02  0.14830111561E+02 -0.22186969173E+01  0.72461879088E+02  0.70000402260E+02 0.  0.
         12    1    1    2    0    0 -0.11216629595E+02 -0.14830111561E+02  0.22186969173E+01  0.18726120912E+02  0.00000000000E+00 0. -1.
         11    1    3    3    0    0 -0.12069566962E+02  0.43305981344E+01 -0.11564848280E+02  0.17267722573E+02  0.51100000000E-03 0. -1.
        -11    1    3    3    0    0  0.72919400674E+01  0.22711863584E+02 -0.11272314820E+02  0.26383066900E+02  0.51100000000E-03 0.  1.
        -12    1    3    3    0    0  0.15994256490E+02 -0.12212350156E+02  0.20618466183E+02  0.28811089614E+02  0.00000000000E+00 0.  1.
</event>
<event>
 7    1  0.2797450E-013  0.7246155E+02  0.7816164E-02  0.1226708E+00
        -11   -1    0    0    0    0  0.00000000000E+00  0.00000000000E+00  0.45593999997E+02  0.45594000000E+02  0.51100000000E-03 0.  1.
         11   -1    0    0    0    0 -0.00000000000E+00 -0.00000000000E+00 -0.45593999997E+02  0.45594000000E+02  0.51100000000E-03 0. -1.
    9900012    2    1    2    0    0  0.22405923218E+01 -0.18581728227E+02 -0.61556811023E+00  0.72461553408E+02  0.69999978003E+02 0.  0.
         12    1    1    2    0    0 -0.22405923218E+01  0.18581728227E+02  0.61556811023E+00  0.18726446592E+02  0.00000000000E+00 0. -1.
         11    1    3    3    0    0  0.86975143707E+01 -0.10478476163E+00 -0.21909525179E+02  0.23572972446E+02  0.51100000000E-03 0. -1.
        -11    1    3    3    0    0  0.16530136101E+02 -0.68307498387E+01  0.11793632060E+02  0.21424152266E+02  0.51100000000E-03 0.  1.
        -12    1    3    3    0    0 -0.22987058150E+02 -0.11646193627E+02  0.95003250093E+01  0.27464428697E+02  0.00000000000E+00 0.  1.
</event>
<event>
 7    1  0.2797450E-013  0.7246160E+02  0.7816164E-02  0.1226708E+00
        -11   -1    0    0    0    0  0.00000000000E+00  0.00000000000E+00  0.45593999997E+02  0.45594000000E+02  0.51100000000E-03 0.  1.
         11   -1    0    0    0    0 -0.00000000000E+00 -0.00000000000E+00 -0.45593999997E+02  0.45594000000E+02  0.51100000000E-03 0. -1.
    9900012    2    1    2    0    0 -0.16888274361E+02 -0.29267257082E+01  0.75431050122E+01  0.72461602389E+02  0.70000041809E+02 0.  0.
         12    1    1    2    0    0  0.16888274361E+02  0.29267257082E+01 -0.75431050122E+01  0.18726397611E+02  0.00000000000E+00 0. -1.
         11    1    3    3    0    0  0.10760269795E+02 -0.40594489776E+01  0.91709464084E+01  0.14709479608E+02  0.51100000000E-03 0. -1.
        -11    1    3    3    0    0 -0.39313131015E+02 -0.10842232779E+02  0.11950388070E+01  0.40798338200E+02  0.51100000000E-03 0.  1.
         12    1    3    3    0    0  0.11664586860E+02  0.11974956048E+02 -0.28228802033E+01  0.16953784581E+02  0.00000000000E+00 0. -1.
</event>
<event>
 7    1  0.2797450E-013  0.7246154E+02  0.7816164E-02  0.1226708E+00
        -11   -1    0    0    0    0  0.00000000000E+00  0.00000000000E+00  0.45593999997E+02  0.45594000000E+02  0.51100000000E-03 0. -1.
         11   -1    0    0    0    0 -0.00000000000E+00 -0.00000000000E+00 -0.45593999997E+02  0.45594000000E+02  0.51100000000E-03 0.  1.
    9900012    2    1    2    0    0 -0.27290666129E+01  0.18325789330E+02  0.27198967341E+01  0.72461542850E+02  0.69999964249E+02 0.  0.
         12    1    1    2    0    0  0.27290666129E+01 -0.18325789330E+02 -0.27198967341E+01  0.18726457150E+02  0.00000000000E+00 0. -1.
         11    1    3    3    0    0  0.93108477640E+01  0.11791133873E+02  0.26922463879E+01  0.15263384781E+02  0.51100000000E-03 0. -1.
        -11    1    3    3    0    0 -0.24923523007E+02  0.15576622692E+02  0.17078982825E+02  0.33992717282E+02  0.51100000000E-03 0.  1.
         12    1    3    3    0    0  0.12883608630E+02 -0.90419672361E+01 -0.17051332479E+02  0.23205440788E+02  0.00000000000E+00 0. -1.
</event>
<event>
 7    1  0.2797450E-013  0.7246163E+02  0.7816164E-02  0.1226708E+00
        -11   -1    0    0    0    0  0.00000000000E+00  0.00000000000E+00  0.45593999997E+02  0.45594000000E+02  0.51100000000E-03 0. -1.
         11   -1    0    0    0    0 -0.00000000000E+00 -0.00000000000E+00 -0.45593999997E+02  0.45594000000E+02  0.51100000000E-03 0.  1.
    9900012    2    1    2    0    0 -0.12071416141E+02 -0.13768592727E+02 -0.39222137860E+01  0.72461628373E+02  0.70000075658E+02 0.  0.
         12    1    1    2    0    0  0.12071416141E+02  0.13768592727E+02  0.39222137860E+01  0.18726371627E+02  0.00000000000E+00 0. -1.
         11    1    3    3    0    0 -0.48690904073E+01  0.10592518793E+02  0.13505926059E+02  0.17841511560E+02  0.51100000000E-03 0. -1.
        -11    1    3    3    0    0 -0.10540606884E+02  0.91250278986E+01 -0.15594733039E+02  0.20918083718E+02  0.51100000000E-03 0.  1.
         12    1    3    3    0    0  0.33382811497E+01 -0.33486139419E+02 -0.18334068053E+01  0.33702033095E+02  0.00000000000E+00 0. -1.
</event>
<event>
 7    1  0.2797450E-013  0.7246165E+02  0.7816164E-02  0.1226708E+00
        -11   -1    0    0    0    0  0.00000000000E+00  0.00000000000E+00  0.45593999997E+02  0.45594000000E+02  0.51100000000E-03 0.  1.
         11   -1    0    0    0    0 -0.00000000000E+00 -0.00000000000E+00 -0.45593999997E+02  0.45594000000E+02  0.51100000000E-03 0. -1.
    9900012    2    1    2    0    0  0.89850443616E+01  0.98609903795E+01  0.13141766170E+02  0.72461650342E+02  0.70000104277E+02 0.  0.
         12    1    1    2    0    0 -0.89850443616E+01 -0.98609903795E+01 -0.13141766170E+02  0.18726349658E+02  0.00000000000E+00 0. -1.
         11    1    3    3    0    0 -0.10294962029E+02  0.24431328106E+01  0.19950204409E+02  0.22582422309E+02  0.51100000000E-03 0. -1.
        -11    1    3    3    0    0 -0.37844340946E+01  0.18050639388E+02  0.84114012024E+01  0.20270648588E+02  0.51100000000E-03 0.  1.
         12    1    3    3    0    0  0.23064440485E+02 -0.10632781819E+02 -0.15219839442E+02  0.29608579445E+02  0.00000000000E+00 0. -1.
</event>
<event>
 7    1  0.2797450E-013  0.7246167E+02  0.7816164E-02  0.1226708E+00
        -11   -1    0    0    0    0  0.00000000000E+00  0.00000000000E+00  0.45593999997E+02  0.45594000000E+02  0.51100000000E-03 0.  1.
         11   -1    0    0    0    0 -0.00000000000E+00 -0.00000000000E+00 -0.45593999997E+02  0.45594000000E+02  0.51100000000E-03 0. -1.
    9900012    2    1    2    0    0 -0.50069178769E+01  0.43941753088E+01  0.17501357125E+02  0.72461668152E+02  0.70000127477E+02 0.  0.
         12    1    1    2    0    0  0.50069178769E+01 -0.43941753088E+01 -0.17501357125E+02  0.18726331848E+02  0.00000000000E+00 0. -1.
         11    1    3    3    0    0 -0.21782360887E+02 -0.72345376411E+01 -0.83819031073E+01  0.24434935659E+02  0.51100000000E-03 0. -1.
        -11    1    3    3    0    0  0.62009932665E+00 -0.11816428786E+02  0.57536704619E+01  0.13157402346E+02  0.51100000000E-03 0.  1.
         12    1    3    3    0    0  0.16155343684E+02  0.23445141736E+02  0.20129589770E+02  0.34869330147E+02  0.00000000000E+00 0. -1.
</event>
<event>
 7    1  0.2797450E-013  0.7246149E+02  0.7816164E-02  0.1226708E+00
        -11   -1    0    0    0    0  0.00000000000E+00  0.00000000000E+00  0.45593999997E+02  0.45594000000E+02  0.51100000000E-03 0. -1.
         11   -1    0    0    0    0 -0.00000000000E+00 -0.00000000000E+00 -0.45593999997E+02  0.45594000000E+02  0.51100000000E-03 0.  1.
    9900012    2    1    2    0    0  0.43935391289E+00  0.15466018022E+02 -0.10549482177E+02  0.72461486189E+02  0.69999890437E+02 0.  0.
         12    1    1    2    0    0 -0.43935391289E+00 -0.15466018022E+02  0.10549482177E+02  0.18726513811E+02  0.00000000000E+00 0. -1.
         11    1    3    3    0    0 -0.18831917482E+02  0.11152140346E+02  0.87432095683E+01  0.23568094199E+02  0.51100000000E-03 0. -1.
        -11    1    3    3    0    0  0.37646059098E+01 -0.39164691618E+01 -0.28539243704E+02  0.29051668107E+02  0.51100000000E-03 0.  1.
        -12    1    3    3    0    0  0.15506665485E+02  0.82303468375E+01  0.92465519591E+01  0.19841723883E+02  0.00000000000E+00 0.  1.
</event>
<event>
 7    1  0.2797450E-013  0.7246161E+02  0.7816164E-02  0.1226708E+00
        -11   -1    0    0    0    0  0.00000000000E+00  0.00000000000E+00  0.45593999997E+02  0.45594000000E+02  0.51100000000E-03 0. -1.
         11   -1    0    0    0    0 -0.00000000000E+00 -0.00000000000E+00 -0.45593999997E+02  0.45594000000E+02  0.51100000000E-03 0.  1.
    9900012    2    1    2    0    0 -0.17997404182E+01 -0.18072464422E+02  0.45634045206E+01  0.72461609620E+02  0.70000051228E+02 0.  0.
         12    1    1    2    0    0  0.17997404182E+01  0.18072464422E+02 -0.45634045206E+01  0.18726390380E+02  0.00000000000E+00 0. -1.
         11    1    3    3    0    0 -0.19696455272E+01  0.71249596458E+00 -0.29646586186E+01  0.36299249287E+01  0.51100000000E-03 0. -1.
        -11    1    3    3    0    0 -0.20950165019E+02 -0.40765948801E+00 -0.20430533286E+02  0.29265718703E+02  0.51100000000E-03 0.  1.
         12    1    3    3    0    0  0.21120070128E+02 -0.18377300899E+02  0.27958596425E+02  0.39565965988E+02  0.00000000000E+00 0. -1.
</event>
<event>
 7    1  0.2797450E-013  0.7246157E+02  0.7816164E-02  0.1226708E+00
        -11   -1    0    0    0    0  0.00000000000E+00  0.00000000000E+00  0.45593999997E+02  0.45594000000E+02  0.51100000000E-03 0. -1.
         11   -1    0    0    0    0 -0.00000000000E+00 -0.00000000000E+00 -0.45593999997E+02  0.45594000000E+02  0.51100000000E-03 0.  1.
    9900012    2    1    2    0    0  0.59538808622E+01  0.10170349951E+02  0.14553157776E+02  0.72461571704E+02  0.70000001837E+02 0.  0.
         12    1    1    2    0    0 -0.59538808622E+01 -0.10170349951E+02 -0.14553157776E+02  0.18726428296E+02  0.00000000000E+00 0. -1.
         11    1    3    3    0    0 -0.65598782389E+01  0.86882807649E+01  0.13086409411E+02  0.17022700629E+02  0.51100000000E-03 0. -1.
        -11    1    3    3    0    0  0.21112323048E+02  0.23283204365E+02  0.47069528194E+01  0.31780390103E+02  0.51100000000E-03 0.  1.
         12    1    3    3    0    0 -0.85985639473E+01 -0.21801135178E+02 -0.32402044543E+01  0.23658480972E+02  0.00000000000E+00 0. -1.
</event>
<event>
 7    1  0.2797450E-013  0.7246159E+02  0.7816164E-02  0.1226708E+00
        -11   -1    0    0    0    0  0.00000000000E+00  0.00000000000E+00  0.45593999997E+02  0.45594000000E+02  0.51100000000E-03 0.  1.
         11   -1    0    0    0    0 -0.00000000000E+00 -0.00000000000E+00 -0.45593999997E+02  0.45594000000E+02  0.51100000000E-03 0. -1.
    9900012    2    1    2    0    0  0.13483226485E+02 -0.72619747295E+01  0.10777044014E+02  0.72461592146E+02  0.70000028466E+02 0.  0.
         12    1    1    2    0    0 -0.13483226485E+02  0.72619747295E+01 -0.10777044014E+02  0.18726407854E+02  0.00000000000E+00 0. -1.
         11    1    3    3    0    0 -0.20457716931E+01 -0.12779373082E+02 -0.18120972745E+02  0.22268076066E+02  0.51100000000E-03 0. -1.
        -11    1    3    3    0    0 -0.10033022417E+02  0.14944149890E+01 -0.15209841781E+01  0.10257105250E+02  0.51100000000E-03 0.  1.
        -12    1    3    3    0    0  0.25562020595E+02  0.40229833639E+01  0.30419000936E+02  0.39936410831E+02  0.00000000000E+00 0.  1.
</event>
<event>
 7    1  0.2797450E-013  0.7246158E+02  0.7816164E-02  0.1226708E+00
        -11   -1    0    0    0    0  0.00000000000E+00  0.00000000000E+00  0.45593999997E+02  0.45594000000E+02  0.51100000000E-03 0.  1.
         11   -1    0    0    0    0 -0.00000000000E+00 -0.00000000000E+00 -0.45593999997E+02  0.45594000000E+02  0.51100000000E-03 0. -1.
    9900012    2    1    2    0    0 -0.10277503146E+02 -0.14605338886E+02  0.56334628247E+01  0.72461577536E+02  0.70000009433E+02 0.  0.
         12    1    1    2    0    0  0.10277503146E+02  0.14605338886E+02 -0.56334628247E+01  0.18726422464E+02  0.00000000000E+00 0. -1.
         11    1    3    3    0    0  0.25166110088E+02 -0.63152687085E+01 -0.85492228393E+01  0.27318582087E+02  0.51100000000E-03 0. -1.
        -11    1    3    3    0    0 -0.30730040209E+01  0.35154488927E+01 -0.40315083149E+01  0.61688567972E+01  0.51100000000E-03 0.  1.
        -12    1    3    3    0    0 -0.32370609213E+02 -0.11805519071E+02  0.18214193979E+02  0.38974138652E+02  0.00000000000E+00 0.  1.
</event>
<event>
 7    1  0.2797450E-013  0.7246151E+02  0.7816164E-02  0.1226708E+00
        -11   -1    0    0    0    0  0.00000000000E+00  0.00000000000E+00  0.45593999997E+02  0.45594000000E+02  0.51100000000E-03 0. -1.
         11   -1    0    0    0    0 -0.00000000000E+00 -0.00000000000E+00 -0.45593999997E+02  0.45594000000E+02  0.51100000000E-03 0.  1.
    9900012    2    1    2    0    0 -0.17773714815E+02 -0.15725916706E+01  0.56836042085E+01  0.72461512350E+02  0.69999924517E+02 0.  0.
         12    1    1    2    0    0  0.17773714815E+02  0.15725916706E+01 -0.56836042085E+01  0.18726487650E+02  0.00000000000E+00 0. -1.
         11    1    3    3    0    0 -0.30568746353E+02  0.32785595730E+01  0.28354897004E+02  0.41823407212E+02  0.51100000000E-03 0. -1.
        -11    1    3    3    0    0 -0.10479487337E+01  0.11263224562E+01  0.15004313077E+01  0.21489749170E+01  0.51100000000E-03 0.  1.
        -12    1    3    3    0    0  0.13842980272E+02 -0.59774736998E+01 -0.24171724103E+02  0.28489130221E+02  0.00000000000E+00 0.  1.
</event>
<event>
 7    1  0.2797450E-013  0.7246181E+02  0.7816164E-02  0.1226707E+00
        -11   -1    0    0    0    0  0.00000000000E+00  0.00000000000E+00  0.45593999997E+02  0.45594000000E+02  0.51100000000E-03 0. -1.
         11   -1    0    0    0    0 -0.00000000000E+00 -0.00000000000E+00 -0.45593999997E+02  0.45594000000E+02  0.51100000000E-03 0.  1.
    9900012    2    1    2    0    0 -0.15541814520E+02 -0.68915640019E+01 -0.78503859774E+01  0.72461809438E+02  0.70000311529E+02 0.  0.
         12    1    1    2    0    0  0.15541814520E+02  0.68915640019E+01  0.78503859774E+01  0.18726190562E+02  0.00000000000E+00 0. -1.
         11    1    3    3    0    0 -0.93854836795E+01 -0.21164978049E+02  0.14121513869E+02  0.27119379674E+02  0.51100000000E-03 0. -1.
        -11    1    3    3    0    0 -0.11965907030E+02 -0.94008387703E+01 -0.97587766184E+01  0.18077400864E+02  0.51100000000E-03 0.  1.
        -12    1    3    3    0    0  0.58095761899E+01  0.23674252817E+02 -0.12213123228E+02  0.27265028900E+02  0.00000000000E+00 0.  1.
</event>
<event>
 7    1  0.2797450E-013  0.7246158E+02  0.7816164E-02  0.1226708E+00
        -11   -1    0    0    0    0  0.00000000000E+00  0.00000000000E+00  0.45593999997E+02  0.45594000000E+02  0.51100000000E-03 0.  1.
         11   -1    0    0    0    0 -0.00000000000E+00 -0.00000000000E+00 -0.45593999997E+02  0.45594000000E+02  0.51100000000E-03 0. -1.
    9900012    2    1    2    0    0  0.67131266253E+01 -0.11655158714E+02  0.13029583655E+02  0.72461578987E+02  0.70000011324E+02 0.  0.
         12    1    1    2    0    0 -0.67131266253E+01  0.11655158714E+02 -0.13029583655E+02  0.18726421013E+02  0.00000000000E+00 0. -1.
         11    1    3    3    0    0 -0.42712919658E+01  0.39062950619E+01  0.57404904352E+01  0.81520737770E+01  0.51100000000E-03 0. -1.
        -11    1    3    3    0    0 -0.28267114349E+01 -0.24825508118E+02  0.28144500218E+02  0.37635210158E+02  0.51100000000E-03 0.  1.
         12    1    3    3    0    0  0.13811130026E+02  0.92640543425E+01 -0.20855406999E+02  0.26674295052E+02  0.00000000000E+00 0. -1.
</event>
<event>
 7    1  0.2797450E-013  0.7246161E+02  0.7816164E-02  0.1226708E+00
        -11   -1    0    0    0    0  0.00000000000E+00  0.00000000000E+00  0.45593999997E+02  0.45594000000E+02  0.51100000000E-03 0.  1.
         11   -1    0    0    0    0 -0.00000000000E+00 -0.00000000000E+00 -0.45593999997E+02  0.45594000000E+02  0.51100000000E-03 0. -1.
    9900012    2    1    2    0    0 -0.19032352360E+01 -0.96396385097E+01  0.15941537782E+02  0.72461613221E+02  0.70000055920E+02 0.  0.
         12    1    1    2    0    0  0.19032352360E+01  0.96396385097E+01 -0.15941537782E+02  0.18726386779E+02  0.00000000000E+00 0. -1.
         11    1    3    3    0    0 -0.17868393577E+00 -0.62712106701E+01  0.41824042188E+01  0.75400607775E+01  0.51100000000E-03 0. -1.
        -11    1    3    3    0    0 -0.16657008257E+02 -0.90562864312E+01  0.33169435630E+02  0.38205807259E+02  0.51100000000E-03 0.  1.
         12    1    3    3    0    0  0.14932456957E+02  0.56878585916E+01 -0.21410302068E+02  0.26715745184E+02  0.00000000000E+00 0. -1.
</event>
<event>
 7    1  0.2797450E-013  0.7246158E+02  0.7816164E-02  0.1226708E+00
        -11   -1    0    0    0    0  0.00000000000E+00  0.00000000000E+00  0.45593999997E+02  0.45594000000E+02  0.51100000000E-03 0. -1.
         11   -1    0    0    0    0 -0.00000000000E+00 -0.00000000000E+00 -0.45593999997E+02  0.45594000000E+02  0.51100000000E-03 0.  1.
    9900012    2    1    2    0    0 -0.18601117276E+02  0.32427789613E-02  0.21626975503E+01  0.72461579223E+02  0.70000011631E+02 0.  0.
         12    1    1    2    0    0  0.18601117276E+02 -0.32427789613E-02 -0.21626975503E+01  0.18726420777E+02  0.00000000000E+00 0. -1.
         11    1    3    3    0    0 -0.65458454504E+01 -0.45936484284E+00 -0.72382475729E+01  0.97699200051E+01  0.51100000000E-03 0. -1.
        -11    1    3    3    0    0 -0.16086813085E+01 -0.24064890951E+02  0.22503281993E+02  0.32986429524E+02  0.51100000000E-03 0.  1.
         12    1    3    3    0    0 -0.10446590517E+02  0.24527498573E+02 -0.13102336870E+02  0.29705229693E+02  0.00000000000E+00 0. -1.
</event>
<event>
 7    1  0.2797450E-013  0.7246156E+02  0.7816164E-02  0.1226708E+00
        -11   -1    0    0    0    0  0.00000000000E+00  0.00000000000E+00  0.45593999997E+02  0.45594000000E+02  0.51100000000E-03 0. -1.
         11   -1    0    0    0    0 -0.00000000000E+00 -0.00000000000E+00 -0.45593999997E+02  0.45594000000E+02  0.51100000000E-03 0.  1.
    9900012    2    1    2    0    0  0.13219483936E+02 -0.82355593422E+01 -0.10397135280E+02  0.72461558393E+02  0.69999984497E+02 0.  0.
         12    1    1    2    0    0 -0.13219483936E+02  0.82355593422E+01  0.10397135280E+02  0.18726441607E+02  0.00000000000E+00 0. -1.
         11    1    3    3    0    0  0.92113256368E+01  0.21116053804E+01  0.24627537168E+01  0.97658872306E+01  0.51100000000E-03 0. -1.
        -11    1    3    3    0    0  0.31108874215E+02 -0.64008918269E+01 -0.15197930094E+02  0.35209523577E+02  0.51100000000E-03 0.  1.
         12    1    3    3    0    0 -0.27100715916E+02 -0.39462728957E+01  0.23380410971E+01  0.27486147586E+02  0.00000000000E+00 0. -1.
</event>
<event>
 7    1  0.2797450E-013  0.7246159E+02  0.7816164E-02  0.1226708E+00
        -11   -1    0    0    0    0  0.00000000000E+00  0.00000000000E+00  0.45593999997E+02  0.45594000000E+02  0.51100000000E-03 0.  1.
         11   -1    0    0    0    0 -0.00000000000E+00 -0.00000000000E+00 -0.45593999997E+02  0.45594000000E+02  0.51100000000E-03 0. -1.
    9900012    2    1    2    0    0 -0.12154844408E+02  0.10571097421E+02  0.95493404302E+01  0.72461594955E+02  0.70000032124E+02 0.  0.
         12    1    1    2    0    0  0.12154844408E+02 -0.10571097421E+02 -0.95493404302E+01  0.18726405045E+02  0.00000000000E+00 0. -1.
         11    1    3    3    0    0 -0.13171174433E+02  0.68264770768E+01  0.18506187846E+01  0.14950097504E+02  0.51100000000E-03 0. -1.
        -11    1    3    3    0    0 -0.95239711385E+01  0.16264522647E+02  0.26541945137E+02  0.32553272878E+02  0.51100000000E-03 0.  1.
         12    1    3    3    0    0  0.10540301164E+02 -0.12519902303E+02 -0.18843223491E+02  0.24958224573E+02  0.00000000000E+00 0. -1.
</event>
<event>
 7    1  0.2797450E-013  0.7246158E+02  0.7816164E-02  0.1226708E+00
        -11   -1    0    0    0    0  0.00000000000E+00  0.00000000000E+00  0.45593999997E+02  0.45594000000E+02  0.51100000000E-03 0.  1.
         11   -1    0    0    0    0 -0.00000000000E+00 -0.00000000000E+00 -0.45593999997E+02  0.45594000000E+02  0.51100000000E-03 0. -1.
    9900012    2    1    2    0    0  0.12744578244E+02 -0.52234482087E+01  0.12687393996E+02  0.72461584106E+02  0.70000017993E+02 0.  0.
         12    1    1    2    0    0 -0.12744578244E+02  0.52234482087E+01 -0.12687393996E+02  0.18726415894E+02  0.00000000000E+00 0. -1.
         11    1    3    3    0    0 -0.11599446964E+01  0.21127202090E+02 -0.48954034954E+01  0.21717944550E+02  0.51100000000E-03 0. -1.
        -11    1    3    3    0    0 -0.73465844579E+01  0.53623861111E+01  0.10980220723E+01  0.91615031918E+01  0.51100000000E-03 0.  1.
         12    1    3    3    0    0  0.21251107399E+02 -0.31713036410E+02  0.16484775419E+02  0.41582136364E+02  0.00000000000E+00 0. -1.
</event>
<event>
 7    1  0.2797450E-013  0.7246156E+02  0.7816164E-02  0.1226708E+00
        -11   -1    0    0    0    0  0.00000000000E+00  0.00000000000E+00  0.45593999997E+02  0.45594000000E+02  0.51100000000E-03 0. -1.
         11   -1    0    0    0    0 -0.00000000000E+00 -0.00000000000E+00 -0.45593999997E+02  0.45594000000E+02  0.51100000000E-03 0.  1.
    9900012    2    1    2    0    0  0.76252357825E+01  0.16636795528E+02 -0.39689394734E+01  0.72461557019E+02  0.69999982706E+02 0.  0.
         12    1    1    2    0    0 -0.76252357825E+01 -0.16636795528E+02  0.39689394734E+01  0.18726442981E+02  0.00000000000E+00 0. -1.
         11    1    3    3    0    0 -0.49405859161E+01  0.65456681297E+01  0.97866970843E+01  0.12768500325E+02  0.51100000000E-03 0. -1.
        -11    1    3    3    0    0  0.29967836949E+02  0.10411053145E+02  0.71196311465E+01  0.32513849771E+02  0.51100000000E-03 0.  1.
         12    1    3    3    0    0 -0.17402015250E+02 -0.31992574674E+00 -0.20875267704E+02  0.27179206923E+02  0.00000000000E+00 0. -1.
</event>
<event>
 7    1  0.2797450E-013  0.7246156E+02  0.7816164E-02  0.1226708E+00
        -11   -1    0    0    0    0  0.00000000000E+00  0.00000000000E+00  0.45593999997E+02  0.45594000000E+02  0.51100000000E-03 0.  1.
         11   -1    0    0    0    0 -0.00000000000E+00 -0.00000000000E+00 -0.45593999997E+02  0.45594000000E+02  0.51100000000E-03 0. -1.
    9900012    2    1    2    0    0  0.16297232542E+02  0.90613243701E+01 -0.17239753800E+01  0.72461562032E+02  0.69999989237E+02 0.  0.
         12    1    1    2    0    0 -0.16297232542E+02 -0.90613243701E+01  0.17239753800E+01  0.18726437968E+02  0.00000000000E+00 0. -1.
         11    1    3    3    0    0 -0.10464119329E+02 -0.15175433115E+02  0.48089629978E+01  0.19050398655E+02  0.51100000000E-03 0. -1.
        -11    1    3    3    0    0  0.11214522856E+02 -0.47820138951E+01  0.10727945607E+02  0.16239519604E+02  0.51100000000E-03 0.  1.
        -12    1    3    3    0    0  0.15546829015E+02  0.29018771380E+02 -0.17260883985E+02  0.37171643772E+02  0.00000000000E+00 0.  1.
</event>
<event>
 7    1  0.2797450E-013  0.7246158E+02  0.7816164E-02  0.1226708E+00
        -11   -1    0    0    0    0  0.00000000000E+00  0.00000000000E+00  0.45593999997E+02  0.45594000000E+02  0.51100000000E-03 0.  1.
         11   -1    0    0    0    0 -0.00000000000E+00 -0.00000000000E+00 -0.45593999997E+02  0.45594000000E+02  0.51100000000E-03 0. -1.
    9900012    2    1    2    0    0  0.28440178725E+01 -0.97931805774E+01  0.15706173914E+02  0.72461582230E+02  0.70000015548E+02 0.  0.
         12    1    1    2    0    0 -0.28440178725E+01  0.97931805774E+01 -0.15706173914E+02  0.18726417770E+02  0.00000000000E+00 0. -1.
         11    1    3    3    0    0  0.15961741923E+02 -0.14143146998E+02  0.24308279521E+02  0.32337258167E+02  0.51100000000E-03 0.  1.
        -11    1    3    3    0    0 -0.86009747112E+01  0.94070990354E+01  0.12564642687E+02  0.17898059234E+02  0.51100000000E-03 0. -1.
        -12    1    3    3    0    0 -0.45167493397E+01 -0.50571326144E+01 -0.21166748294E+02  0.22226264828E+02  0.00000000000E+00 0.  1.
</event>
<event>
 7    1  0.2797450E-013  0.7246157E+02  0.7816164E-02  0.1226708E+00
        -11   -1    0    0    0    0  0.00000000000E+00  0.00000000000E+00  0.45593999997E+02  0.45594000000E+02  0.51100000000E-03 0. -1.
         11   -1    0    0    0    0 -0.00000000000E+00 -0.00000000000E+00 -0.45593999997E+02  0.45594000000E+02  0.51100000000E-03 0.  1.
    9900012    2    1    2    0    0  0.13093348880E+02  0.84341269782E+01 -0.10397539066E+02  0.72461572113E+02  0.70000002369E+02 0.  0.
         12    1    1    2    0    0 -0.13093348880E+02 -0.84341269782E+01  0.10397539066E+02  0.18726427887E+02  0.00000000000E+00 0. -1.
         11    1    3    3    0    0 -0.94366927418E+01 -0.23104713911E+02 -0.16328708785E+02  0.29824582238E+02  0.51100000000E-03 0. -1.
        -11    1    3    3    0    0 -0.20418521144E+01  0.22728599485E+01 -0.19427179194E+01  0.36206636930E+01  0.51100000000E-03 0.  1.
        -12    1    3    3    0    0  0.24571893736E+02  0.29265980941E+02  0.78738876380E+01  0.39016326182E+02  0.00000000000E+00 0.  1.
</event>
<event>
 7    1  0.2797450E-013  0.7246158E+02  0.7816164E-02  0.1226708E+00
        -11   -1    0    0    0    0  0.00000000000E+00  0.00000000000E+00  0.45593999997E+02  0.45594000000E+02  0.51100000000E-03 0.  1.
         11   -1    0    0    0    0 -0.00000000000E+00 -0.00000000000E+00 -0.45593999997E+02  0.45594000000E+02  0.51100000000E-03 0. -1.
    9900012    2    1    2    0    0  0.18490660400E+01 -0.18299024345E+02 -0.35221318656E+01  0.72461581494E+02  0.70000014590E+02 0.  0.
         12    1    1    2    0    0 -0.18490660400E+01  0.18299024345E+02  0.35221318656E+01  0.18726418506E+02  0.00000000000E+00 0. -1.
         11    1    3    3    0    0 -0.21911406006E+02 -0.56950694880E+01  0.14384135054E+02  0.26822506802E+02  0.51100000000E-03 0. -1.
        -11    1    3    3    0    0 -0.62059397791E+01  0.38044262691E+01 -0.50127524671E+00  0.72964803099E+01  0.51100000000E-03 0.  1.
        -12    1    3    3    0    0  0.29966411825E+02 -0.16408381126E+02 -0.17404991673E+02  0.38342594382E+02  0.00000000000E+00 0.  1.
</event>
<event>
 7    1  0.2797450E-013  0.7246156E+02  0.7816164E-02  0.1226708E+00
        -11   -1    0    0    0    0  0.00000000000E+00  0.00000000000E+00  0.45593999997E+02  0.45594000000E+02  0.51100000000E-03 0.  1.
         11   -1    0    0    0    0 -0.00000000000E+00 -0.00000000000E+00 -0.45593999997E+02  0.45594000000E+02  0.51100000000E-03 0. -1.
    9900012    2    1    2    0    0 -0.75975519823E+01 -0.12558400377E+02  0.11629421289E+02  0.72461557314E+02  0.69999983091E+02 0.  0.
         12    1    1    2    0    0  0.75975519823E+01  0.12558400377E+02 -0.11629421289E+02  0.18726442686E+02  0.00000000000E+00 0. -1.
         11    1    3    3    0    0  0.52575082537E+01 -0.51793038410E+01 -0.38237100279E+01  0.83118794477E+01  0.51100000000E-03 0. -1.
        -11    1    3    3    0    0 -0.34082982731E+02  0.90319714674E+01  0.64272936126E+01  0.35840428623E+02  0.51100000000E-03 0.  1.
         12    1    3    3    0    0  0.21227922495E+02 -0.16411068004E+02  0.90258377041E+01  0.28309249244E+02  0.00000000000E+00 0. -1.
</event>
<event>
 7    1  0.2797450E-013  0.7246162E+02  0.7816164E-02  0.1226708E+00
        -11   -1    0    0    0    0  0.00000000000E+00  0.00000000000E+00  0.45593999997E+02  0.45594000000E+02  0.51100000000E-03 0.  1.
         11   -1    0    0    0    0 -0.00000000000E+00 -0.00000000000E+00 -0.45593999997E+02  0.45594000000E+02  0.51100000000E-03 0. -1.
    9900012    2    1    2    0    0  0.17568884957E+02  0.48009506586E+01  0.43545982949E+01  0.72461618284E+02  0.70000062515E+02 0.  0.
         12    1    1    2    0    0 -0.17568884957E+02 -0.48009506586E+01 -0.43545982949E+01  0.18726381716E+02  0.00000000000E+00 0. -1.
         11    1    3    3    0    0 -0.33778891159E+01 -0.57661650410E+01 -0.64941843384E+01  0.93184346669E+01  0.51100000000E-03 0. -1.
        -11    1    3    3    0    0 -0.18021763501E+02 -0.59878423699E+01 -0.14726133194E+01  0.19047488186E+02  0.51100000000E-03 0.  1.
         12    1    3    3    0    0  0.38968537574E+02  0.16554958069E+02  0.12321395953E+02  0.44095695431E+02  0.00000000000E+00 0. -1.
</event>
<event>
 7    1  0.2797450E-013  0.7246149E+02  0.7816164E-02  0.1226708E+00
        -11   -1    0    0    0    0  0.00000000000E+00  0.00000000000E+00  0.45593999997E+02  0.45594000000E+02  0.51100000000E-03 0.  1.
         11   -1    0    0    0    0 -0.00000000000E+00 -0.00000000000E+00 -0.45593999997E+02  0.45594000000E+02  0.51100000000E-03 0. -1.
    9900012    2    1    2    0    0 -0.12804217466E+02  0.95526960760E+01 -0.97713893395E+01  0.72461493736E+02  0.69999900269E+02 0.  0.
         12    1    1    2    0    0  0.12804217466E+02 -0.95526960760E+01  0.97713893395E+01  0.18726506264E+02  0.00000000000E+00 0. -1.
         11    1    3    3    0    0 -0.14702793949E+02 -0.13210725915E+02 -0.27624558215E+02  0.33967803078E+02  0.51100000000E-03 0. -1.
        -11    1    3    3    0    0 -0.34478817648E+01 -0.22665450395E+01  0.11363103542E+02  0.12089054448E+02  0.51100000000E-03 0.  1.
        -12    1    3    3    0    0  0.53464582482E+01  0.25029967030E+02  0.64900653339E+01  0.26404636210E+02  0.00000000000E+00 0.  1.
</event>
<event>
 7    1  0.2797450E-013  0.7246173E+02  0.7816164E-02  0.1226708E+00
        -11   -1    0    0    0    0  0.00000000000E+00  0.00000000000E+00  0.45593999997E+02  0.45594000000E+02  0.51100000000E-03 0.  1.
         11   -1    0    0    0    0 -0.00000000000E+00 -0.00000000000E+00 -0.45593999997E+02  0.45594000000E+02  0.51100000000E-03 0. -1.
    9900012    2    1    2    0    0  0.50800306681E+01 -0.14361150030E+02  0.10891456660E+02  0.72461730485E+02  0.70000208678E+02 0.  0.
         12    1    1    2    0    0 -0.50800306681E+01  0.14361150030E+02 -0.10891456660E+02  0.18726269515E+02  0.00000000000E+00 0. -1.
         11    1    3    3    0    0 -0.68826133533E+01 -0.62076485432E+00  0.24608584483E+01  0.73356349513E+01  0.51100000000E-03 0. -1.
        -11    1    3    3    0    0 -0.24175426971E+01  0.12291260318E+02 -0.20249155305E+02  0.23810667435E+02  0.51100000000E-03 0.  1.
        -12    1    3    3    0    0  0.14380186719E+02 -0.26031645493E+02  0.28679753517E+02  0.41315428098E+02  0.00000000000E+00 0.  1.
</event>
<event>
 7    1  0.2797450E-013  0.7246158E+02  0.7816164E-02  0.1226708E+00
        -11   -1    0    0    0    0  0.00000000000E+00  0.00000000000E+00  0.45593999997E+02  0.45594000000E+02  0.51100000000E-03 0.  1.
         11   -1    0    0    0    0 -0.00000000000E+00 -0.00000000000E+00 -0.45593999997E+02  0.45594000000E+02  0.51100000000E-03 0. -1.
    9900012    2    1    2    0    0 -0.17867274064E+02  0.23241253845E+01  0.51027210341E+01  0.72461580074E+02  0.70000012740E+02 0.  0.
         12    1    1    2    0    0  0.17867274064E+02 -0.23241253845E+01 -0.51027210341E+01  0.18726419926E+02  0.00000000000E+00 0. -1.
         11    1    3    3    0    0 -0.11713635038E+02 -0.29249409402E+02  0.31359577487E+01  0.31663408335E+02  0.51100000000E-03 0. -1.
        -11    1    3    3    0    0  0.92953411397E+01  0.74573105847E+01 -0.12289268729E+01  0.11980196559E+02  0.51100000000E-03 0.  1.
        -12    1    3    3    0    0 -0.15448980166E+02  0.24116224201E+02  0.31956901584E+01  0.28817975180E+02  0.00000000000E+00 0.  1.
</event>
<event>
 7    1  0.2797450E-013  0.7246168E+02  0.7816164E-02  0.1226708E+00
        -11   -1    0    0    0    0  0.00000000000E+00  0.00000000000E+00  0.45593999997E+02  0.45594000000E+02  0.51100000000E-03 0.  1.
         11   -1    0    0    0    0 -0.00000000000E+00 -0.00000000000E+00 -0.45593999997E+02  0.45594000000E+02  0.51100000000E-03 0. -1.
    9900012    2    1    2    0    0  0.69236063395E+01  0.10252099108E+02  0.14058201722E+02  0.72461684385E+02  0.70000148624E+02 0.  0.
         12    1    1    2    0    0 -0.69236063395E+01 -0.10252099108E+02 -0.14058201722E+02  0.18726315615E+02  0.00000000000E+00 0. -1.
         11    1    3    3    0    0  0.13796802600E+02  0.64695114107E+01 -0.10275655239E+02  0.18379211918E+02  0.51100000000E-03 0. -1.
        -11    1    3    3    0    0  0.16965224230E+02  0.14352528455E+02  0.11115411964E+02  0.24846856735E+02  0.51100000000E-03 0.  1.
        -12    1    3    3    0    0 -0.23838420490E+02 -0.10569940758E+02  0.13218444997E+02  0.29235615732E+02  0.00000000000E+00 0.  1.
</event>
<event>
 7    1  0.2797450E-013  0.7246157E+02  0.7816164E-02  0.1226708E+00
        -11   -1    0    0    0    0  0.00000000000E+00  0.00000000000E+00  0.45593999997E+02  0.45594000000E+02  0.51100000000E-03 0. -1.
         11   -1    0    0    0    0 -0.00000000000E+00 -0.00000000000E+00 -0.45593999997E+02  0.45594000000E+02  0.51100000000E-03 0.  1.
    9900012    2    1    2    0    0 -0.10027934026E+02  0.17592067698E+00 -0.15814190545E+02  0.72461573979E+02  0.70000004800E+02 0.  0.
         12    1    1    2    0    0  0.10027934026E+02 -0.17592067698E+00  0.15814190545E+02  0.18726426021E+02  0.00000000000E+00 0. -1.
         11    1    3    3    0    0  0.37626629881E+01  0.33816891502E+01  0.16650407981E+02  0.17401998175E+02  0.51100000000E-03 0. -1.
        -11    1    3    3    0    0 -0.57963537892E+01  0.22608568948E+01  0.98502522130E+01  0.11650607712E+02  0.51100000000E-03 0.  1.
        -12    1    3    3    0    0 -0.79942432248E+01 -0.54666253680E+01 -0.42314850740E+02  0.43408968092E+02  0.00000000000E+00 0.  1.
</event>
<event>
 7    1  0.2797450E-013  0.7246154E+02  0.7816164E-02  0.1226708E+00
        -11   -1    0    0    0    0  0.00000000000E+00  0.00000000000E+00  0.45593999997E+02  0.45594000000E+02  0.51100000000E-03 0. -1.
         11   -1    0    0    0    0 -0.00000000000E+00 -0.00000000000E+00 -0.45593999997E+02  0.45594000000E+02  0.51100000000E-03 0.  1.
    9900012    2    1    2    0    0  0.84176503785E+01  0.13228492633E+02  0.10238675695E+02  0.72461539170E+02  0.69999959454E+02 0.  0.
         12    1    1    2    0    0 -0.84176503785E+01 -0.13228492633E+02 -0.10238675695E+02  0.18726460830E+02  0.00000000000E+00 0. -1.
         11    1    3    3    0    0  0.18199877570E+02 -0.11728567384E+02 -0.21969855030E+01  0.21762848665E+02  0.51100000000E-03 0. -1.
        -11    1    3    3    0    0  0.21778037454E+01 -0.95807207385E+01 -0.40192945764E+01  0.10615449504E+02  0.51100000000E-03 0.  1.
         12    1    3    3    0    0 -0.11960030937E+02  0.34537780756E+02  0.16454955775E+02  0.40083241000E+02  0.00000000000E+00 0. -1.
</event>
<event>
 7    1  0.2797450E-013  0.7246153E+02  0.7816164E-02  0.1226708E+00
        -11   -1    0    0    0    0  0.00000000000E+00  0.00000000000E+00  0.45593999997E+02  0.45594000000E+02  0.51100000000E-03 0. -1.
         11   -1    0    0    0    0 -0.00000000000E+00 -0.00000000000E+00 -0.45593999997E+02  0.45594000000E+02  0.51100000000E-03 0.  1.
    9900012    2    1    2    0    0  0.15959641258E+02 -0.50826731902E+01 -0.83747874342E+01  0.72461527284E+02  0.69999943971E+02 0.  0.
         12    1    1    2    0    0 -0.15959641258E+02  0.50826731902E+01  0.83747874342E+01  0.18726472716E+02  0.00000000000E+00 0. -1.
         11    1    3    3    0    0  0.13729494876E+02 -0.15829444225E+02 -0.26749038636E+01  0.21124048972E+02  0.51100000000E-03 0. -1.
        -11    1    3    3    0    0 -0.98773400457E+01 -0.10318382894E+02 -0.18896867642E+02  0.23688023955E+02  0.51100000000E-03 0.  1.
         12    1    3    3    0    0  0.12107486428E+02  0.21065153929E+02  0.13196984072E+02  0.27649454357E+02  0.00000000000E+00 0. -1.
</event>
<event>
 7    1  0.2797450E-013  0.7246153E+02  0.7816164E-02  0.1226708E+00
        -11   -1    0    0    0    0  0.00000000000E+00  0.00000000000E+00  0.45593999997E+02  0.45594000000E+02  0.51100000000E-03 0. -1.
         11   -1    0    0    0    0 -0.00000000000E+00 -0.00000000000E+00 -0.45593999997E+02  0.45594000000E+02  0.51100000000E-03 0.  1.
    9900012    2    1    2    0    0 -0.21348058139E+01  0.12370956814E+02 -0.13895417501E+02  0.72461532210E+02  0.69999950388E+02 0.  0.
         12    1    1    2    0    0  0.21348058139E+01 -0.12370956814E+02  0.13895417501E+02  0.18726467790E+02  0.00000000000E+00 0. -1.
         11    1    3    3    0    0  0.28017302101E+01  0.16921275406E+02 -0.12505253776E+02  0.21226413399E+02  0.51100000000E-03 0. -1.
        -11    1    3    3    0    0 -0.75243156182E+01 -0.21079040999E+02 -0.17191833274E+02  0.28222339140E+02  0.51100000000E-03 0.  1.
         12    1    3    3    0    0  0.25877795942E+01  0.16528722407E+02  0.15801669549E+02  0.23012779671E+02  0.00000000000E+00 0. -1.
</event>
<event>
 7    1  0.2797450E-013  0.7246094E+02  0.7816164E-02  0.1226710E+00
        -11   -1    0    0    0    0  0.00000000000E+00  0.00000000000E+00  0.45593999997E+02  0.45594000000E+02  0.51100000000E-03 0.  1.
         11   -1    0    0    0    0 -0.00000000000E+00 -0.00000000000E+00 -0.45593999997E+02  0.45594000000E+02  0.51100000000E-03 0. -1.
    9900012    2    1    2    0    0  0.43119913293E+01  0.72851167558E+01  0.16704383667E+02  0.72460943930E+02  0.69999184039E+02 0.  0.
         12    1    1    2    0    0 -0.43119913293E+01 -0.72851167558E+01 -0.16704383667E+02  0.18727056070E+02  0.00000000000E+00 0. -1.
         11    1    3    3    0    0 -0.88750487576E+01  0.17009021290E+02  0.17966356229E+02  0.26284277660E+02  0.51100000000E-03 0. -1.
        -11    1    3    3    0    0 -0.10881355770E+02  0.29339811918E+01  0.11531093262E+02  0.16123841388E+02  0.51100000000E-03 0.  1.
         12    1    3    3    0    0  0.24068395856E+02 -0.12657885726E+02 -0.12793065825E+02  0.30052824882E+02  0.00000000000E+00 0. -1.
</event>
<event>
 7    1  0.2797450E-013  0.7246164E+02  0.7816164E-02  0.1226708E+00
        -11   -1    0    0    0    0  0.00000000000E+00  0.00000000000E+00  0.45593999997E+02  0.45594000000E+02  0.51100000000E-03 0.  1.
         11   -1    0    0    0    0 -0.00000000000E+00 -0.00000000000E+00 -0.45593999997E+02  0.45594000000E+02  0.51100000000E-03 0. -1.
    9900012    2    1    2    0    0  0.78086309193E+01  0.72578787791E+01  0.15395614691E+02  0.72461642294E+02  0.70000093793E+02 0.  0.
         12    1    1    2    0    0 -0.78086309193E+01 -0.72578787791E+01 -0.15395614691E+02  0.18726357706E+02  0.00000000000E+00 0. -1.
         11    1    3    3    0    0 -0.12278504508E+02  0.12098263937E+02 -0.14684890040E+02  0.22644550315E+02  0.51100000000E-03 0. -1.
        -11    1    3    3    0    0  0.50903446475E+01  0.24052149198E+00 -0.74825734527E+01  0.90530859354E+01  0.51100000000E-03 0.  1.
        -12    1    3    3    0    0  0.14996790779E+02 -0.50809066497E+01  0.37563078184E+02  0.40764006044E+02  0.00000000000E+00 0.  1.
</event>
<event>
 7    1  0.2797450E-013  0.7246156E+02  0.7816164E-02  0.1226708E+00
        -11   -1    0    0    0    0  0.00000000000E+00  0.00000000000E+00  0.45593999997E+02  0.45594000000E+02  0.51100000000E-03 0.  1.
         11   -1    0    0    0    0 -0.00000000000E+00 -0.00000000000E+00 -0.45593999997E+02  0.45594000000E+02  0.51100000000E-03 0. -1.
    9900012    2    1    2    0    0  0.83178377972E+01 -0.86523839769E+01  0.14374602805E+02  0.72461564677E+02  0.69999992683E+02 0.  0.
         12    1    1    2    0    0 -0.83178377972E+01  0.86523839769E+01 -0.14374602805E+02  0.18726435323E+02  0.00000000000E+00 0. -1.
         11    1    3    3    0    0 -0.13315135420E+02 -0.17714395357E+02  0.12329771593E+01  0.22194883804E+02  0.51100000000E-03 0. -1.
        -11    1    3    3    0    0 -0.43650058306E+01  0.13441951096E+01 -0.12275899221E+02  0.13098008946E+02  0.51100000000E-03 0.  1.
        -12    1    3    3    0    0  0.25997979048E+02  0.77178162702E+01  0.25417524866E+02  0.37168671928E+02  0.00000000000E+00 0.  1.
</event>
<event>
 7    1  0.2797450E-013  0.7246161E+02  0.7816164E-02  0.1226708E+00
        -11   -1    0    0    0    0  0.00000000000E+00  0.00000000000E+00  0.45593999997E+02  0.45594000000E+02  0.51100000000E-03 0. -1.
         11   -1    0    0    0    0 -0.00000000000E+00 -0.00000000000E+00 -0.45593999997E+02  0.45594000000E+02  0.51100000000E-03 0.  1.
    9900012    2    1    2    0    0  0.90159248182E+01 -0.31901515160E+01 -0.16100111075E+02  0.72461613705E+02  0.70000056551E+02 0.  0.
         12    1    1    2    0    0 -0.90159248182E+01  0.31901515160E+01  0.16100111075E+02  0.18726386295E+02  0.00000000000E+00 0. -1.
         11    1    3    3    0    0 -0.18193185925E+02  0.28458865032E+01 -0.67060441527E+01  0.19597502711E+02  0.51100000000E-03 0. -1.
        -11    1    3    3    0    0 -0.10279920171E+02 -0.12136549407E+00  0.60054070351E+01  0.11906149764E+02  0.51100000000E-03 0.  1.
         12    1    3    3    0    0  0.37489030914E+02 -0.59146725251E+01 -0.15399473958E+02  0.40957961230E+02  0.00000000000E+00 0. -1.
</event>
<event>
 7    1  0.2797450E-013  0.7246155E+02  0.7816164E-02  0.1226708E+00
        -11   -1    0    0    0    0  0.00000000000E+00  0.00000000000E+00  0.45593999997E+02  0.45594000000E+02  0.51100000000E-03 0. -1.
         11   -1    0    0    0    0 -0.00000000000E+00 -0.00000000000E+00 -0.45593999997E+02  0.45594000000E+02  0.51100000000E-03 0.  1.
    9900012    2    1    2    0    0 -0.81871693612E+01 -0.24684003316E+01 -0.16660045611E+02  0.72461551802E+02  0.69999975910E+02 0.  0.
         12    1    1    2    0    0  0.81871693612E+01  0.24684003316E+01  0.16660045611E+02  0.18726448198E+02  0.00000000000E+00 0. -1.
         11    1    3    3    0    0  0.12046970386E+01 -0.96313698888E+01  0.17196920191E+01  0.98575819444E+01  0.51100000000E-03 0. -1.
        -11    1    3    3    0    0  0.23323467306E+01 -0.22750107168E+02 -0.20075251862E+02  0.30430625281E+02  0.51100000000E-03 0.  1.
         12    1    3    3    0    0 -0.11724213130E+02  0.29913076725E+02  0.16955142318E+01  0.32173344576E+02  0.00000000000E+00 0. -1.
</event>
<event>
 7    1  0.2797450E-013  0.7246160E+02  0.7816164E-02  0.1226708E+00
        -11   -1    0    0    0    0  0.00000000000E+00  0.00000000000E+00  0.45593999997E+02  0.45594000000E+02  0.51100000000E-03 0. -1.
         11   -1    0    0    0    0 -0.00000000000E+00 -0.00000000000E+00 -0.45593999997E+02  0.45594000000E+02  0.51100000000E-03 0.  1.
    9900012    2    1    2    0    0  0.31765861676E+01  0.14955854965E+01 -0.18394306769E+02  0.72461601596E+02  0.70000040776E+02 0.  0.
         12    1    1    2    0    0 -0.31765861676E+01 -0.14955854965E+01  0.18394306769E+02  0.18726398404E+02  0.00000000000E+00 0. -1.
         11    1    3    3    0    0  0.16145019146E+02  0.71143883916E+01  0.51815452275E+00  0.17650627462E+02  0.51100000000E-03 0. -1.
        -11    1    3    3    0    0 -0.27317557496E+02  0.10147227001E+02 -0.16142476631E+02  0.33313581546E+02  0.51100000000E-03 0.  1.
         12    1    3    3    0    0  0.14349124517E+02 -0.15766029896E+02 -0.27699846610E+01  0.21497392589E+02  0.00000000000E+00 0. -1.
</event>
<event>
 7    1  0.2797450E-013  0.7246159E+02  0.7816164E-02  0.1226708E+00
        -11   -1    0    0    0    0  0.00000000000E+00  0.00000000000E+00  0.45593999997E+02  0.45594000000E+02  0.51100000000E-03 0.  1.
         11   -1    0    0    0    0 -0.00000000000E+00 -0.00000000000E+00 -0.45593999997E+02  0.45594000000E+02  0.51100000000E-03 0. -1.
    9900012    2    1    2    0    0 -0.12895868285E+02  0.28769934161E+01  0.13270192053E+02  0.72461587982E+02  0.70000023042E+02 0.  0.
         12    1    1    2    0    0  0.12895868285E+02 -0.28769934161E+01 -0.13270192053E+02  0.18726412018E+02  0.00000000000E+00 0. -1.
         11    1    3    3    0    0 -0.15157042490E+02  0.22017263956E+02  0.16376573323E+02  0.31347854842E+02  0.51100000000E-03 0. -1.
        -11    1    3    3    0    0  0.10978860472E+02  0.28066534869E+01  0.90973552561E+01  0.14531846200E+02  0.51100000000E-03 0.  1.
         12    1    3    3    0    0 -0.87176862676E+01 -0.21946924027E+02 -0.12203736526E+02  0.26581886940E+02  0.00000000000E+00 0. -1.
</event>
<event>
 7    1  0.2797450E-013  0.7246159E+02  0.7816164E-02  0.1226708E+00
        -11   -1    0    0    0    0  0.00000000000E+00  0.00000000000E+00  0.45593999997E+02  0.45594000000E+02  0.51100000000E-03 0.  1.
         11   -1    0    0    0    0 -0.00000000000E+00 -0.00000000000E+00 -0.45593999997E+02  0.45594000000E+02  0.51100000000E-03 0. -1.
    9900012    2    1    2    0    0  0.79757553189E+01  0.15181765714E+02 -0.75219443985E+01  0.72461592693E+02  0.70000029179E+02 0.  0.
         12    1    1    2    0    0 -0.79757553189E+01 -0.15181765714E+02  0.75219443985E+01  0.18726407307E+02  0.00000000000E+00 0. -1.
         11    1    3    3    0    0 -0.23348496719E+02  0.11240513935E+02 -0.10946065711E+02  0.28130371618E+02  0.51100000000E-03 0. -1.
        -11    1    3    3    0    0  0.18745560195E+02 -0.12552140960E+02 -0.26562310441E+01  0.22715805804E+02  0.51100000000E-03 0.  1.
        -12    1    3    3    0    0  0.12578691843E+02  0.16493392740E+02  0.60803523563E+01  0.21615415271E+02  0.00000000000E+00 0.  1.
</event>
<event>
 7    1  0.2797450E-013  0.7246153E+02  0.7816164E-02  0.1226708E+00
        -11   -1    0    0    0    0  0.00000000000E+00  0.00000000000E+00  0.45593999997E+02  0.45594000000E+02  0.51100000000E-03 0.  1.
         11   -1    0    0    0    0 -0.00000000000E+00 -0.00000000000E+00 -0.45593999997E+02  0.45594000000E+02  0.51100000000E-03 0. -1.
    9900012    2    1    2    0    0 -0.48317581744E+01  0.10734724748E+02  0.14563675273E+02  0.72461525695E+02  0.69999941901E+02 0.  0.
         12    1    1    2    0    0  0.48317581744E+01 -0.10734724748E+02 -0.14563675273E+02  0.18726474305E+02  0.00000000000E+00 0. -1.
         11    1    3    3    0    0 -0.67677737408E+01  0.10709358950E+02  0.31519873084E+01  0.13054813472E+02  0.51100000000E-03 0. -1.
        -11    1    3    3    0    0 -0.19331563348E+02  0.59790228228E+01  0.25994066837E+02  0.32941608436E+02  0.51100000000E-03 0.  1.
         12    1    3    3    0    0  0.21267578914E+02 -0.59536570257E+01 -0.14582378873E+02  0.26465103786E+02  0.00000000000E+00 0. -1.
</event>
<event>
 7    1  0.2797450E-013  0.7246201E+02  0.7816164E-02  0.1226707E+00
        -11   -1    0    0    0    0  0.00000000000E+00  0.00000000000E+00  0.45593999997E+02  0.45594000000E+02  0.51100000000E-03 0. -1.
         11   -1    0    0    0    0 -0.00000000000E+00 -0.00000000000E+00 -0.45593999997E+02  0.45594000000E+02  0.51100000000E-03 0.  1.
    9900012    2    1    2    0    0  0.67143747274E+01 -0.44451168537E+01 -0.16906236858E+02  0.72462009065E+02  0.70000571578E+02 0.  0.
         12    1    1    2    0    0 -0.67143747274E+01  0.44451168537E+01  0.16906236858E+02  0.18725990935E+02  0.00000000000E+00 0. -1.
         11    1    3    3    0    0  0.29831954672E+01 -0.25832100560E+01  0.18987947522E+02  0.19393673730E+02  0.51100000000E-03 0. -1.
        -11    1    3    3    0    0 -0.14378690510E+02 -0.32063445597E+01 -0.23417818974E+01  0.14916813632E+02  0.51100000000E-03 0.  1.
        -12    1    3    3    0    0  0.18109869770E+02  0.13444377619E+01 -0.33552402482E+02  0.38151521703E+02  0.00000000000E+00 0.  1.
</event>
<event>
 7    1  0.2797450E-013  0.7246154E+02  0.7816164E-02  0.1226708E+00
        -11   -1    0    0    0    0  0.00000000000E+00  0.00000000000E+00  0.45593999997E+02  0.45594000000E+02  0.51100000000E-03 0.  1.
         11   -1    0    0    0    0 -0.00000000000E+00 -0.00000000000E+00 -0.45593999997E+02  0.45594000000E+02  0.51100000000E-03 0. -1.
    9900012    2    1    2    0    0 -0.17743442252E+02  0.54011187757E+01  0.25842688080E+01  0.72461540851E+02  0.69999961645E+02 0.  0.
         12    1    1    2    0    0  0.17743442252E+02 -0.54011187757E+01 -0.25842688080E+01  0.18726459149E+02  0.00000000000E+00 0. -1.
         11    1    3    3    0    0 -0.56568129598E+01 -0.12126778332E+02  0.41572711173E+01  0.14012180022E+02  0.51100000000E-03 0. -1.
        -11    1    3    3    0    0 -0.23119745608E+02 -0.85913704313E+01  0.11515572436E+02  0.27220262520E+02  0.51100000000E-03 0.  1.
         12    1    3    3    0    0  0.11033116316E+02  0.26119267539E+02 -0.13088574745E+02  0.31229098310E+02  0.00000000000E+00 0. -1.
</event>
<event>
 7    1  0.2797450E-013  0.7246162E+02  0.7816164E-02  0.1226708E+00
        -11   -1    0    0    0    0  0.00000000000E+00  0.00000000000E+00  0.45593999997E+02  0.45594000000E+02  0.51100000000E-03 0. -1.
         11   -1    0    0    0    0 -0.00000000000E+00 -0.00000000000E+00 -0.45593999997E+02  0.45594000000E+02  0.51100000000E-03 0.  1.
    9900012    2    1    2    0    0 -0.30966693764E+01  0.13869934278E+02 -0.12194781362E+02  0.72461624735E+02  0.70000070919E+02 0.  0.
         12    1    1    2    0    0  0.30966693764E+01 -0.13869934278E+02  0.12194781362E+02  0.18726375265E+02  0.00000000000E+00 0. -1.
         11    1    3    3    0    0  0.10985448111E+02 -0.16530632704E+02  0.87376744581E+01  0.21686144033E+02  0.51100000000E-03 0. -1.
        -11    1    3    3    0    0 -0.80307103105E+01 -0.46488606829E+01  0.42302796419E+00  0.92888732718E+01  0.51100000000E-03 0.  1.
        -12    1    3    3    0    0 -0.60514071767E+01  0.35049427665E+02 -0.21355483784E+02  0.41486607431E+02  0.00000000000E+00 0.  1.
</event>
<event>
 7    1  0.2797450E-013  0.7246154E+02  0.7816164E-02  0.1226708E+00
        -11   -1    0    0    0    0  0.00000000000E+00  0.00000000000E+00  0.45593999997E+02  0.45594000000E+02  0.51100000000E-03 0. -1.
         11   -1    0    0    0    0 -0.00000000000E+00 -0.00000000000E+00 -0.45593999997E+02  0.45594000000E+02  0.51100000000E-03 0.  1.
    9900012    2    1    2    0    0  0.25737673797E+01  0.48035120083E+01 -0.17915973784E+02  0.72461544843E+02  0.69999966845E+02 0.  0.
         12    1    1    2    0    0 -0.25737673797E+01 -0.48035120083E+01  0.17915973784E+02  0.18726455157E+02  0.00000000000E+00 0. -1.
         11    1    3    3    0    0 -0.55433603994E+01  0.21235588793E+01  0.94934688518E+01  0.11196619933E+02  0.51100000000E-03 0. -1.
        -11    1    3    3    0    0 -0.16018952066E+02 -0.79634764542E+01  0.58438274917E+01  0.18819513877E+02  0.51100000000E-03 0.  1.
         12    1    3    3    0    0  0.24136079846E+02  0.10643429583E+02 -0.33253270127E+02  0.42445411033E+02  0.00000000000E+00 0. -1.
</event>
<event>
 7    1  0.2797450E-013  0.7246161E+02  0.7816164E-02  0.1226708E+00
        -11   -1    0    0    0    0  0.00000000000E+00  0.00000000000E+00  0.45593999997E+02  0.45594000000E+02  0.51100000000E-03 0.  1.
         11   -1    0    0    0    0 -0.00000000000E+00 -0.00000000000E+00 -0.45593999997E+02  0.45594000000E+02  0.51100000000E-03 0. -1.
    9900012    2    1    2    0    0  0.74165058585E+01  0.89722979134E+01  0.14668711796E+02  0.72461607001E+02  0.70000047817E+02 0.  0.
         12    1    1    2    0    0 -0.74165058585E+01 -0.89722979134E+01 -0.14668711796E+02  0.18726392999E+02  0.00000000000E+00 0. -1.
         11    1    3    3    0    0  0.30438643638E+01 -0.16531819122E+02 -0.61582228390E+01  0.17902230658E+02  0.51100000000E-03 0. -1.
        -11    1    3    3    0    0  0.73808049233E+01  0.27974579216E+02  0.31755136096E+02  0.42958608361E+02  0.51100000000E-03 0.  1.
         12    1    3    3    0    0 -0.30081634286E+01 -0.24704621802E+01 -0.10928201461E+02  0.11600767982E+02  0.00000000000E+00 0. -1.
</event>
<event>
 7    1  0.2797450E-013  0.7246149E+02  0.7816164E-02  0.1226708E+00
        -11   -1    0    0    0    0  0.00000000000E+00  0.00000000000E+00  0.45593999997E+02  0.45594000000E+02  0.51100000000E-03 0.  1.
         11   -1    0    0    0    0 -0.00000000000E+00 -0.00000000000E+00 -0.45593999997E+02  0.45594000000E+02  0.51100000000E-03 0. -1.
    9900012    2    1    2    0    0  0.10099278769E+02 -0.10591292132E+02  0.11683800353E+02  0.72461492280E+02  0.69999898372E+02 0.  0.
         12    1    1    2    0    0 -0.10099278769E+02  0.10591292132E+02 -0.11683800353E+02  0.18726507720E+02  0.00000000000E+00 0. -1.
         11    1    3    3    0    0 -0.34480045194E+01  0.55252334133E+01  0.12745769128E+02  0.14313335403E+02  0.51100000000E-03 0. -1.
        -11    1    3    3    0    0  0.16332357868E+02 -0.34276542254E+02  0.60491646148E+01  0.38447622231E+02  0.51100000000E-03 0.  1.
         12    1    3    3    0    0 -0.27850745796E+01  0.18160016708E+02 -0.71111333900E+01  0.19700534646E+02  0.00000000000E+00 0. -1.
</event>
<event>
 7    1  0.2797450E-013  0.7246157E+02  0.7816164E-02  0.1226708E+00
        -11   -1    0    0    0    0  0.00000000000E+00  0.00000000000E+00  0.45593999997E+02  0.45594000000E+02  0.51100000000E-03 0.  1.
         11   -1    0    0    0    0 -0.00000000000E+00 -0.00000000000E+00 -0.45593999997E+02  0.45594000000E+02  0.51100000000E-03 0. -1.
    9900012    2    1    2    0    0 -0.17906073768E+02 -0.53724153943E+01  0.10903599780E+01  0.72461569218E+02  0.69999998598E+02 0.  0.
         12    1    1    2    0    0  0.17906073768E+02  0.53724153943E+01 -0.10903599780E+01  0.18726430782E+02  0.00000000000E+00 0. -1.
         11    1    3    3    0    0  0.92590769385E+01 -0.82180243791E+01 -0.14346023393E+02  0.18949269587E+02  0.51100000000E-03 0. -1.
        -11    1    3    3    0    0 -0.24957341599E+02 -0.11466135441E+02 -0.55443804321E+01  0.28019302566E+02  0.51100000000E-03 0.  1.
         12    1    3    3    0    0 -0.22078091074E+01  0.14311744426E+02  0.20980763803E+02  0.25492997064E+02  0.00000000000E+00 0. -1.
</event>
<event>
 7    1  0.2797450E-013  0.7246170E+02  0.7816164E-02  0.1226708E+00
        -11   -1    0    0    0    0  0.00000000000E+00  0.00000000000E+00  0.45593999997E+02  0.45594000000E+02  0.51100000000E-03 0.  1.
         11   -1    0    0    0    0 -0.00000000000E+00 -0.00000000000E+00 -0.45593999997E+02  0.45594000000E+02  0.51100000000E-03 0. -1.
    9900012    2    1    2    0    0  0.13328692844E+02  0.13111768966E+02 -0.10496412931E+01  0.72461700708E+02  0.70000169888E+02 0.  0.
         12    1    1    2    0    0 -0.13328692844E+02 -0.13111768966E+02  0.10496412931E+01  0.18726299292E+02  0.00000000000E+00 0. -1.
         11    1    3    3    0    0 -0.47816299714E+01 -0.90265408686E+01  0.19108763634E+02  0.21667654998E+02  0.51100000000E-03 0. -1.
        -11    1    3    3    0    0  0.43848218368E+01 -0.75204967513E+01  0.45512021410E+01  0.98233382878E+01  0.51100000000E-03 0.  1.
        -12    1    3    3    0    0  0.13725500978E+02  0.29658806586E+02 -0.24709607068E+02  0.40970707422E+02  0.00000000000E+00 0.  1.
</event>
<event>
 7    1  0.2797450E-013  0.7246165E+02  0.7816164E-02  0.1226708E+00
        -11   -1    0    0    0    0  0.00000000000E+00  0.00000000000E+00  0.45593999997E+02  0.45594000000E+02  0.51100000000E-03 0. -1.
         11   -1    0    0    0    0 -0.00000000000E+00 -0.00000000000E+00 -0.45593999997E+02  0.45594000000E+02  0.51100000000E-03 0.  1.
    9900012    2    1    2    0    0  0.14060063180E+02 -0.30654106812E+01 -0.11983076131E+02  0.72461648704E+02  0.70000102143E+02 0.  0.
         12    1    1    2    0    0 -0.14060063180E+02  0.30654106812E+01  0.11983076131E+02  0.18726351296E+02  0.00000000000E+00 0. -1.
         11    1    3    3    0    0  0.15070066126E+02  0.10668586255E+02  0.56615740799E+00  0.18472849272E+02  0.51100000000E-03 0. -1.
        -11    1    3    3    0    0 -0.87069794383E+01  0.16688822647E+02  0.28408036783E+01  0.19036765957E+02  0.51100000000E-03 0.  1.
         12    1    3    3    0    0  0.76969764924E+01 -0.30422819584E+02 -0.15390037218E+02  0.34952033476E+02  0.00000000000E+00 0. -1.
</event>
<event>
 7    1  0.2797450E-013  0.7246151E+02  0.7816164E-02  0.1226708E+00
        -11   -1    0    0    0    0  0.00000000000E+00  0.00000000000E+00  0.45593999997E+02  0.45594000000E+02  0.51100000000E-03 0. -1.
         11   -1    0    0    0    0 -0.00000000000E+00 -0.00000000000E+00 -0.45593999997E+02  0.45594000000E+02  0.51100000000E-03 0.  1.
    9900012    2    1    2    0    0  0.17613041886E+02 -0.38130800120E+01  0.50914225891E+01  0.72461510536E+02  0.69999922154E+02 0.  0.
         12    1    1    2    0    0 -0.17613041886E+02  0.38130800120E+01 -0.50914225891E+01  0.18726489464E+02  0.00000000000E+00 0. -1.
         11    1    3    3    0    0 -0.13089523220E+02  0.52793425217E+00 -0.11141168867E+02  0.17197092100E+02  0.51100000000E-03 0. -1.
        -11    1    3    3    0    0  0.30623484284E+02 -0.97090813060E+01 -0.57495394245E+01  0.32636195448E+02  0.51100000000E-03 0.  1.
         12    1    3    3    0    0  0.79080822303E-01  0.53680670419E+01  0.21982130881E+02  0.22628222988E+02  0.00000000000E+00 0. -1.
</event>
<event>
 7    1  0.2797450E-013  0.7246156E+02  0.7816164E-02  0.1226708E+00
        -11   -1    0    0    0    0  0.00000000000E+00  0.00000000000E+00  0.45593999997E+02  0.45594000000E+02  0.51100000000E-03 0. -1.
         11   -1    0    0    0    0 -0.00000000000E+00 -0.00000000000E+00 -0.45593999997E+02  0.45594000000E+02  0.51100000000E-03 0.  1.
    9900012    2    1    2    0    0 -0.10465312517E+02  0.10890848335E+02 -0.11070061194E+02  0.72461558844E+02  0.69999985083E+02 0.  0.
         12    1    1    2    0    0  0.10465312517E+02 -0.10890848335E+02  0.11070061194E+02  0.18726441156E+02  0.00000000000E+00 0. -1.
         11    1    3    3    0    0  0.16441638397E+02 -0.56282168198E+01 -0.96641404630E+01  0.19884665169E+02  0.51100000000E-03 0. -1.
        -11    1    3    3    0    0  0.77766368263E+01  0.23142732506E+01 -0.11208037011E+02  0.13836619345E+02  0.51100000000E-03 0.  1.
        -12    1    3    3    0    0 -0.34683587740E+02  0.14204791904E+02  0.98021162796E+01  0.38740274330E+02  0.00000000000E+00 0.  1.
</event>
<event>
 7    1  0.2797450E-013  0.7246157E+02  0.7816164E-02  0.1226708E+00
        -11   -1    0    0    0    0  0.00000000000E+00  0.00000000000E+00  0.45593999997E+02  0.45594000000E+02  0.51100000000E-03 0.  1.
         11   -1    0    0    0    0 -0.00000000000E+00 -0.00000000000E+00 -0.45593999997E+02  0.45594000000E+02  0.51100000000E-03 0. -1.
    9900012    2    1    2    0    0 -0.79122763162E+01 -0.62097762506E+01  0.15796003310E+02  0.72461570598E+02  0.70000000396E+02 0.  0.
         12    1    1    2    0    0  0.79122763162E+01  0.62097762506E+01 -0.15796003310E+02  0.18726429402E+02  0.00000000000E+00 0. -1.
         11    1    3    3    0    0 -0.79238782966E+01  0.17810737901E+01 -0.12007365972E+02  0.14496099784E+02  0.51100000000E-03 0. -1.
        -11    1    3    3    0    0 -0.24418248143E+02 -0.21896052179E+00  0.84342901873E+01  0.25834783477E+02  0.51100000000E-03 0.  1.
         12    1    3    3    0    0  0.24429850124E+02 -0.77718895189E+01  0.19369079094E+02  0.32130687337E+02  0.00000000000E+00 0. -1.
</event>
<event>
 7    1  0.2797450E-013  0.7246184E+02  0.7816164E-02  0.1226707E+00
        -11   -1    0    0    0    0  0.00000000000E+00  0.00000000000E+00  0.45593999997E+02  0.45594000000E+02  0.51100000000E-03 0. -1.
         11   -1    0    0    0    0 -0.00000000000E+00 -0.00000000000E+00 -0.45593999997E+02  0.45594000000E+02  0.51100000000E-03 0.  1.
    9900012    2    1    2    0    0 -0.28220305302E+01 -0.16207540325E+02  0.89454447222E+01  0.72461836459E+02  0.70000346728E+02 0.  0.
         12    1    1    2    0    0  0.28220305302E+01  0.16207540325E+02 -0.89454447222E+01  0.18726163541E+02  0.00000000000E+00 0. -1.
         11    1    3    3    0    0  0.11426835247E+02 -0.18729200955E+02  0.15772098880E+02  0.27020633514E+02  0.51100000000E-03 0. -1.
        -11    1    3    3    0    0  0.28694229692E+01 -0.12744189118E+02 -0.16072187785E+02  0.20711425951E+02  0.51100000000E-03 0.  1.
        -12    1    3    3    0    0 -0.17118288746E+02  0.15265849748E+02  0.92455336270E+01  0.24729776994E+02  0.00000000000E+00 0.  1.
</event>
<event>
 7    1  0.2797450E-013  0.7246154E+02  0.7816164E-02  0.1226708E+00
        -11   -1    0    0    0    0  0.00000000000E+00  0.00000000000E+00  0.45593999997E+02  0.45594000000E+02  0.51100000000E-03 0.  1.
         11   -1    0    0    0    0 -0.00000000000E+00 -0.00000000000E+00 -0.45593999997E+02  0.45594000000E+02  0.51100000000E-03 0. -1.
    9900012    2    1    2    0    0  0.10538275437E+02 -0.10716618399E+02  0.11170466825E+02  0.72461535085E+02  0.69999954134E+02 0.  0.
         12    1    1    2    0    0 -0.10538275437E+02  0.10716618399E+02 -0.11170466825E+02  0.18726464915E+02  0.00000000000E+00 0. -1.
         11    1    3    3    0    0  0.46809438248E+01  0.60200789904E+01  0.12224235601E+02  0.14407793808E+02  0.51100000000E-03 0. -1.
        -11    1    3    3    0    0  0.11501039766E+02 -0.31204494731E+02  0.14313593905E+02  0.36205985387E+02  0.51100000000E-03 0.  1.
         12    1    3    3    0    0 -0.56437081538E+01  0.14467797342E+02 -0.15367362681E+02  0.21847755890E+02  0.00000000000E+00 0. -1.
</event>
<event>
 7    1  0.2797450E-013  0.7246157E+02  0.7816164E-02  0.1226708E+00
        -11   -1    0    0    0    0  0.00000000000E+00  0.00000000000E+00  0.45593999997E+02  0.45594000000E+02  0.51100000000E-03 0.  1.
         11   -1    0    0    0    0 -0.00000000000E+00 -0.00000000000E+00 -0.45593999997E+02  0.45594000000E+02  0.51100000000E-03 0. -1.
    9900012    2    1    2    0    0  0.13120355540E+02 -0.94189097072E+01 -0.94773106279E+01  0.72461574653E+02  0.70000005677E+02 0.  0.
         12    1    1    2    0    0 -0.13120355540E+02  0.94189097072E+01  0.94773106279E+01  0.18726425347E+02  0.00000000000E+00 0. -1.
         11    1    3    3    0    0  0.10256858424E+01 -0.30879029348E+01 -0.33697989831E+02  0.33854714515E+02  0.51100000000E-03 0. -1.
        -11    1    3    3    0    0  0.21665953128E+01  0.65421063674E+01 -0.24986916388E+01  0.73305355288E+01  0.51100000000E-03 0.  1.
        -12    1    3    3    0    0  0.99280743843E+01 -0.12873113140E+02  0.26719370842E+02  0.31276324609E+02  0.00000000000E+00 0.  1.
</event>
<event>
 7    1  0.2797450E-013  0.7246154E+02  0.7816164E-02  0.1226708E+00
        -11   -1    0    0    0    0  0.00000000000E+00  0.00000000000E+00  0.45593999997E+02  0.45594000000E+02  0.51100000000E-03 0. -1.
         11   -1    0    0    0    0 -0.00000000000E+00 -0.00000000000E+00 -0.45593999997E+02  0.45594000000E+02  0.51100000000E-03 0.  1.
    9900012    2    1    2    0    0  0.86060163276E+01 -0.16539616956E+02  0.17486628852E+01  0.72461540966E+02  0.69999961794E+02 0.  0.
         12    1    1    2    0    0 -0.86060163276E+01  0.16539616956E+02 -0.17486628852E+01  0.18726459034E+02  0.00000000000E+00 0. -1.
         11    1    3    3    0    0 -0.20423684669E+02 -0.67944007522E+01  0.34440298453E-01  0.21524218068E+02  0.51100000000E-03 0. -1.
        -11    1    3    3    0    0  0.58131793781E+01 -0.12134316264E+02 -0.16529881475E+02  0.21313649793E+02  0.51100000000E-03 0.  1.
        -12    1    3    3    0    0  0.23216521619E+02  0.23891000609E+01  0.18244104061E+02  0.29623673104E+02  0.00000000000E+00 0.  1.
</event>
<event>
 7    1  0.2797450E-013  0.7246157E+02  0.7816164E-02  0.1226708E+00
        -11   -1    0    0    0    0  0.00000000000E+00  0.00000000000E+00  0.45593999997E+02  0.45594000000E+02  0.51100000000E-03 0.  1.
         11   -1    0    0    0    0 -0.00000000000E+00 -0.00000000000E+00 -0.45593999997E+02  0.45594000000E+02  0.51100000000E-03 0. -1.
    9900012    2    1    2    0    0 -0.72482278917E+01 -0.33382030796E+01  0.16941035669E+02  0.72461572233E+02  0.70000002526E+02 0.  0.
         12    1    1    2    0    0  0.72482278917E+01  0.33382030796E+01 -0.16941035669E+02  0.18726427767E+02  0.00000000000E+00 0. -1.
         11    1    3    3    0    0  0.45654889309E+01  0.33429046115E+01  0.12396337070E+02  0.13626733778E+02  0.51100000000E-03 0. -1.
        -11    1    3    3    0    0  0.73178927246E+00 -0.90758773004E+01  0.29460897657E+02  0.30835880972E+02  0.51100000000E-03 0.  1.
        -12    1    3    3    0    0 -0.12545506095E+02  0.23947696094E+01 -0.24916199058E+02  0.27998957484E+02  0.00000000000E+00 0.  1.
</event>
<event>
 7    1  0.2797450E-013  0.7246180E+02  0.7816164E-02  0.1226707E+00
        -11   -1    0    0    0    0  0.00000000000E+00  0.00000000000E+00  0.45593999997E+02  0.45594000000E+02  0.51100000000E-03 0.  1.
         11   -1    0    0    0    0 -0.00000000000E+00 -0.00000000000E+00 -0.45593999997E+02  0.45594000000E+02  0.51100000000E-03 0. -1.
    9900012    2    1    2    0    0 -0.13285038314E+02  0.35919601096E+01  0.12699460805E+02  0.72461795762E+02  0.70000293713E+02 0.  0.
         12    1    1    2    0    0  0.13285038314E+02 -0.35919601096E+01 -0.12699460805E+02  0.18726204238E+02  0.00000000000E+00 0. -1.
         11    1    3    3    0    0  0.67076397270E+01 -0.43390707362E+01 -0.83589605549E+01  0.11562533779E+02  0.51100000000E-03 0. -1.
        -11    1    3    3    0    0 -0.27363201693E+02 -0.15157480672E+02  0.18945686982E+02  0.36570932210E+02  0.51100000000E-03 0.  1.
         12    1    3    3    0    0  0.73705236523E+01  0.23088511517E+02  0.21127343775E+01  0.24328329773E+02  0.00000000000E+00 0. -1.
</event>
<event>
 7    1  0.2797450E-013  0.7246163E+02  0.7816164E-02  0.1226708E+00
        -11   -1    0    0    0    0  0.00000000000E+00  0.00000000000E+00  0.45593999997E+02  0.45594000000E+02  0.51100000000E-03 0. -1.
         11   -1    0    0    0    0 -0.00000000000E+00 -0.00000000000E+00 -0.45593999997E+02  0.45594000000E+02  0.51100000000E-03 0.  1.
    9900012    2    1    2    0    0  0.60737735847E+01 -0.11876109982E+02 -0.13143212411E+02  0.72461634994E+02  0.70000084283E+02 0.  0.
         12    1    1    2    0    0 -0.60737735847E+01  0.11876109982E+02  0.13143212411E+02  0.18726365006E+02  0.00000000000E+00 0. -1.
         11    1    3    3    0    0 -0.18939603190E+01 -0.16305166581E+02 -0.87861821241E+01  0.18618338795E+02  0.51100000000E-03 0. -1.
        -11    1    3    3    0    0  0.10971532232E+01 -0.17347958775E+02  0.15720460444E+02  0.23436900300E+02  0.51100000000E-03 0.  1.
        -12    1    3    3    0    0  0.68705806805E+01  0.21777015374E+02 -0.20077490730E+02  0.30406395898E+02  0.00000000000E+00 0.  1.
</event>
<event>
 7    1  0.2797450E-013  0.7246169E+02  0.7816164E-02  0.1226708E+00
        -11   -1    0    0    0    0  0.00000000000E+00  0.00000000000E+00  0.45593999997E+02  0.45594000000E+02  0.51100000000E-03 0. -1.
         11   -1    0    0    0    0 -0.00000000000E+00 -0.00000000000E+00 -0.45593999997E+02  0.45594000000E+02  0.51100000000E-03 0.  1.
    9900012    2    1    2    0    0  0.90424968336E+01  0.44472443675E+01 -0.15783847392E+02  0.72461693105E+02  0.70000159983E+02 0.  0.
         12    1    1    2    0    0 -0.90424968336E+01 -0.44472443675E+01  0.15783847392E+02  0.18726306895E+02  0.00000000000E+00 0. -1.
         11    1    3    3    0    0 -0.10153080017E+02 -0.29435694267E+01  0.11265317931E+02  0.15448528187E+02  0.51100000000E-03 0. -1.
        -11    1    3    3    0    0  0.15684781909E+02  0.89581532419E+01  0.93996840325E+01  0.20362095993E+02  0.51100000000E-03 0.  1.
        -12    1    3    3    0    0  0.35107949408E+01 -0.15673394477E+01 -0.36448849355E+02  0.36651068925E+02  0.00000000000E+00 0.  1.
</event>
<event>
 7    1  0.2797450E-013  0.7246159E+02  0.7816164E-02  0.1226708E+00
        -11   -1    0    0    0    0  0.00000000000E+00  0.00000000000E+00  0.45593999997E+02  0.45594000000E+02  0.51100000000E-03 0. -1.
         11   -1    0    0    0    0 -0.00000000000E+00 -0.00000000000E+00 -0.45593999997E+02  0.45594000000E+02  0.51100000000E-03 0.  1.
    9900012    2    1    2    0    0  0.18241029588E+02 -0.28511970603E+01  0.31327267428E+01  0.72461589186E+02  0.70000024610E+02 0.  0.
         12    1    1    2    0    0 -0.18241029588E+02  0.28511970603E+01 -0.31327267428E+01  0.18726410814E+02  0.00000000000E+00 0. -1.
         11    1    3    3    0    0  0.28628119244E+02  0.21586630789E+02 -0.11464885741E+02  0.37642999955E+02  0.51100000000E-03 0.  1.
        -11    1    3    3    0    0  0.17851126834E+01 -0.31191841359E+01 -0.29446063075E+01  0.46461428662E+01  0.51100000000E-03 0. -1.
         12    1    3    3    0    0 -0.12172202339E+02 -0.21318643713E+02  0.17542218792E+02  0.30172446366E+02  0.00000000000E+00 0. -1.
</event>
<event>
 7    1  0.2797450E-013  0.7246158E+02  0.7816164E-02  0.1226708E+00
        -11   -1    0    0    0    0  0.00000000000E+00  0.00000000000E+00  0.45593999997E+02  0.45594000000E+02  0.51100000000E-03 0. -1.
         11   -1    0    0    0    0 -0.00000000000E+00 -0.00000000000E+00 -0.45593999997E+02  0.45594000000E+02  0.51100000000E-03 0.  1.
    9900012    2    1    2    0    0 -0.18571887513E+01  0.22429122349E+01 -0.18498617005E+02  0.72461584527E+02  0.70000018541E+02 0.  0.
         12    1    1    2    0    0  0.18571887513E+01 -0.22429122349E+01  0.18498617005E+02  0.18726415473E+02  0.00000000000E+00 0. -1.
         11    1    3    3    0    0 -0.21220621150E+02  0.21698150790E+02 -0.61246091722E+01  0.30961836953E+02  0.51100000000E-03 0. -1.
        -11    1    3    3    0    0 -0.68757552899E+01 -0.30434497697E+01  0.13583634858E+01  0.76409259209E+01  0.51100000000E-03 0.  1.
        -12    1    3    3    0    0  0.26239187689E+02 -0.16411788786E+02 -0.13732371319E+02  0.33858821653E+02  0.00000000000E+00 0.  1.
</event>
<event>
 7    1  0.2797450E-013  0.7246150E+02  0.7816164E-02  0.1226708E+00
        -11   -1    0    0    0    0  0.00000000000E+00  0.00000000000E+00  0.45593999997E+02  0.45594000000E+02  0.51100000000E-03 0.  1.
         11   -1    0    0    0    0 -0.00000000000E+00 -0.00000000000E+00 -0.45593999997E+02  0.45594000000E+02  0.51100000000E-03 0. -1.
    9900012    2    1    2    0    0 -0.63523870646E+01 -0.70310932140E+01  0.16152170621E+02  0.72461502490E+02  0.69999911672E+02 0.  0.
         12    1    1    2    0    0  0.63523870646E+01  0.70310932140E+01 -0.16152170621E+02  0.18726497510E+02  0.00000000000E+00 0. -1.
         11    1    3    3    0    0  0.93614765275E+01  0.27916828800E+01 -0.14744655964E+02  0.17687159632E+02  0.51100000000E-03 0. -1.
        -11    1    3    3    0    0  0.78612054988E+01  0.11167820489E+02  0.89346296394E+01  0.16320121734E+02  0.51100000000E-03 0.  1.
        -12    1    3    3    0    0 -0.23575069091E+02 -0.20990596583E+02  0.21962196947E+02  0.38454221124E+02  0.00000000000E+00 0.  1.
</event>
<event>
 7    1  0.2797450E-013  0.7246159E+02  0.7816164E-02  0.1226708E+00
        -11   -1    0    0    0    0  0.00000000000E+00  0.00000000000E+00  0.45593999997E+02  0.45594000000E+02  0.51100000000E-03 0. -1.
         11   -1    0    0    0    0 -0.00000000000E+00 -0.00000000000E+00 -0.45593999997E+02  0.45594000000E+02  0.51100000000E-03 0.  1.
    9900012    2    1    2    0    0 -0.42279923278E+01  0.91508362841E+01 -0.15781789132E+02  0.72461585713E+02  0.70000020086E+02 0.  0.
         12    1    1    2    0    0  0.42279923278E+01 -0.91508362841E+01  0.15781789132E+02  0.18726414287E+02  0.00000000000E+00 0. -1.
         11    1    3    3    0    0 -0.18285379156E+02  0.24308328094E+01  0.19368993955E+02  0.26747373070E+02  0.51100000000E-03 0. -1.
        -11    1    3    3    0    0  0.53656091336E+01  0.12312364147E+02 -0.58600194321E+01  0.14653460352E+02  0.51100000000E-03 0.  1.
        -12    1    3    3    0    0  0.86917776951E+01 -0.55923606727E+01 -0.29290763656E+02  0.31060752292E+02  0.00000000000E+00 0.  1.
</event>
<event>
 7    1  0.2797450E-013  0.7246157E+02  0.7816164E-02  0.1226708E+00
        -11   -1    0    0    0    0  0.00000000000E+00  0.00000000000E+00  0.45593999997E+02  0.45594000000E+02  0.51100000000E-03 0.  1.
         11   -1    0    0    0    0 -0.00000000000E+00 -0.00000000000E+00 -0.45593999997E+02  0.45594000000E+02  0.51100000000E-03 0. -1.
    9900012    2    1    2    0    0  0.80679865214E+01 -0.10632739622E+02  0.13135122522E+02  0.72461574766E+02  0.70000005825E+02 0.  0.
         12    1    1    2    0    0 -0.80679865214E+01  0.10632739622E+02 -0.13135122522E+02  0.18726425234E+02  0.00000000000E+00 0. -1.
         11    1    3    3    0    0 -0.16740496391E+01 -0.15858831663E+02  0.23190421626E+02  0.28144282534E+02  0.51100000000E-03 0. -1.
        -11    1    3    3    0    0  0.34220312956E+01 -0.14291021837E+02  0.82243371983E+01  0.16839932480E+02  0.51100000000E-03 0.  1.
         12    1    3    3    0    0  0.63200048649E+01  0.19517113877E+02 -0.18279636302E+02  0.27477359752E+02  0.00000000000E+00 0. -1.
</event>
<event>
 7    1  0.2797450E-013  0.7246165E+02  0.7816164E-02  0.1226708E+00
        -11   -1    0    0    0    0  0.00000000000E+00  0.00000000000E+00  0.45593999997E+02  0.45594000000E+02  0.51100000000E-03 0. -1.
         11   -1    0    0    0    0 -0.00000000000E+00 -0.00000000000E+00 -0.45593999997E+02  0.45594000000E+02  0.51100000000E-03 0.  1.
    9900012    2    1    2    0    0  0.96288479135E+01  0.11228033296E+02 -0.11484455382E+02  0.72461650670E+02  0.70000104703E+02 0.  0.
         12    1    1    2    0    0 -0.96288479135E+01 -0.11228033296E+02  0.11484455382E+02  0.18726349330E+02  0.00000000000E+00 0. -1.
         11    1    3    3    0    0 -0.35059171659E+01  0.31001766805E+01 -0.50551498006E+01  0.68889106826E+01  0.51100000000E-03 0. -1.
        -11    1    3    3    0    0  0.18708233621E+02  0.33095114497E+02 -0.11020970245E+02  0.39582147418E+02  0.51100000000E-03 0.  1.
         12    1    3    3    0    0 -0.55734685415E+01 -0.24967257882E+02  0.45916646644E+01  0.25990592569E+02  0.00000000000E+00 0. -1.
</event>
<event>
 7    1  0.2797450E-013  0.7246150E+02  0.7816164E-02  0.1226708E+00
        -11   -1    0    0    0    0  0.00000000000E+00  0.00000000000E+00  0.45593999997E+02  0.45594000000E+02  0.51100000000E-03 0. -1.
         11   -1    0    0    0    0 -0.00000000000E+00 -0.00000000000E+00 -0.45593999997E+02  0.45594000000E+02  0.51100000000E-03 0.  1.
    9900012    2    1    2    0    0  0.10140678177E+02  0.10185856552E+02 -0.12004038044E+02  0.72461495869E+02  0.69999903048E+02 0.  0.
         12    1    1    2    0    0 -0.10140678177E+02 -0.10185856552E+02  0.12004038044E+02  0.18726504131E+02  0.00000000000E+00 0. -1.
         11    1    3    3    0    0  0.80572178922E+01  0.49951534375E+01 -0.92450159098E+01  0.13241625182E+02  0.51100000000E-03 0. -1.
        -11    1    3    3    0    0 -0.12307409310E+02 -0.11778520971E+02 -0.23350281874E+02  0.28904005675E+02  0.51100000000E-03 0.  1.
         12    1    3    3    0    0  0.14390869595E+02  0.16969224086E+02  0.20591259740E+02  0.30315865012E+02  0.00000000000E+00 0. -1.
</event>
<event>
 7    1  0.3566148E-013  0.7246156E+02  0.7816164E-02  0.1226708E+00
        -11   -1    0    0    0    0  0.00000000000E+00  0.00000000000E+00  0.45593999997E+02  0.45594000000E+02  0.51100000000E-03 0.  1.
         11   -1    0    0    0    0 -0.00000000000E+00 -0.00000000000E+00 -0.45593999997E+02  0.45594000000E+02  0.51100000000E-03 0. -1.
    9900012    2    1    2    0    0  0.90363919886E+01 -0.97713242480E+01 -0.13173630648E+02  0.72461556072E+02  0.69999981473E+02 0.  0.
         12    1    1    2    0    0 -0.90363919886E+01  0.97713242480E+01  0.13173630648E+02  0.18726443928E+02  0.00000000000E+00 0. -1.
         11    1    3    3    0    0  0.63502683745E+00  0.19032666348E+02  0.13690353688E+02  0.23453601680E+02  0.51100000000E-03 0. -1.
        -11    1    3    3    0    0  0.32720641721E+01  0.10440648325E+01 -0.16719350782E+02  0.17068484588E+02  0.51100000000E-03 0.  1.
        -12    1    3    3    0    0  0.51293009791E+01 -0.29848055429E+02 -0.10144633554E+02  0.31939469804E+02  0.00000000000E+00 0.  1.
</event>
<event>
 7    1  0.2797450E-013  0.7246154E+02  0.7816164E-02  0.1226708E+00
        -11   -1    0    0    0    0  0.00000000000E+00  0.00000000000E+00  0.45593999997E+02  0.45594000000E+02  0.51100000000E-03 0. -1.
         11   -1    0    0    0    0 -0.00000000000E+00 -0.00000000000E+00 -0.45593999997E+02  0.45594000000E+02  0.51100000000E-03 0.  1.
    9900012    2    1    2    0    0 -0.18506779988E+02  0.24243013933E+01  0.15172595227E+01  0.72461542267E+02  0.69999963489E+02 0.  0.
         12    1    1    2    0    0  0.18506779988E+02 -0.24243013933E+01 -0.15172595227E+01  0.18726457733E+02  0.00000000000E+00 0. -1.
         11    1    3    3    0    0 -0.10653729100E+02 -0.21555027884E+01  0.94121225817E+01  0.14378323538E+02  0.51100000000E-03 0. -1.
        -11    1    3    3    0    0 -0.28678964209E+02  0.11824158255E+02 -0.15604218140E+02  0.34724419801E+02  0.51100000000E-03 0.  1.
         12    1    3    3    0    0  0.20825913321E+02 -0.72443540730E+01  0.77093550806E+01  0.23358798928E+02  0.00000000000E+00 0. -1.
</event>
<event>
 7    1  0.2797450E-013  0.7246128E+02  0.7816164E-02  0.1226709E+00
        -11   -1    0    0    0    0  0.00000000000E+00  0.00000000000E+00  0.45593999997E+02  0.45594000000E+02  0.51100000000E-03 0. -1.
         11   -1    0    0    0    0 -0.00000000000E+00 -0.00000000000E+00 -0.45593999997E+02  0.45594000000E+02  0.51100000000E-03 0.  1.
    9900012    2    1    2    0    0 -0.15996808094E+02 -0.95495947441E+01 -0.18966913020E+01  0.72461279335E+02  0.69999620970E+02 0.  0.
         12    1    1    2    0    0  0.15996808094E+02  0.95495947441E+01  0.18966913020E+01  0.18726720665E+02  0.00000000000E+00 0. -1.
         11    1    3    3    0    0 -0.16978833013E+02 -0.80433143517E+00  0.14772828339E+00  0.16998515919E+02  0.51100000000E-03 0. -1.
        -11    1    3    3    0    0  0.14701153784E+02 -0.18697252180E+01 -0.24280351292E+02  0.28445654397E+02  0.51100000000E-03 0.  1.
         12    1    3    3    0    0 -0.13719128865E+02 -0.68755380910E+01  0.22235931707E+02  0.27017109019E+02  0.00000000000E+00 0. -1.
</event>
<event>
 7    1  0.2797450E-013  0.7246185E+02  0.7816164E-02  0.1226707E+00
        -11   -1    0    0    0    0  0.00000000000E+00  0.00000000000E+00  0.45593999997E+02  0.45594000000E+02  0.51100000000E-03 0. -1.
         11   -1    0    0    0    0 -0.00000000000E+00 -0.00000000000E+00 -0.45593999997E+02  0.45594000000E+02  0.51100000000E-03 0.  1.
    9900012    2    1    2    0    0  0.80640542730E+00 -0.17356226503E+02  0.69842546545E+01  0.72461849803E+02  0.70000364110E+02 0.  0.
         12    1    1    2    0    0 -0.80640542730E+00  0.17356226503E+02 -0.69842546545E+01  0.18726150197E+02  0.00000000000E+00 0. -1.
         11    1    3    3    0    0 -0.14070636032E+02 -0.48718226141E+01 -0.57035204876E+01  0.15945143465E+02  0.51100000000E-03 0. -1.
        -11    1    3    3    0    0  0.70819840096E+01 -0.18009866133E+02 -0.16733026108E+02  0.25583274587E+02  0.51100000000E-03 0.  1.
         12    1    3    3    0    0  0.77950574494E+01  0.55254622438E+01  0.29420801250E+02  0.30933431750E+02  0.00000000000E+00 0. -1.
</event>
<event>
 7    1  0.2797450E-013  0.7246158E+02  0.7816164E-02  0.1226708E+00
        -11   -1    0    0    0    0  0.00000000000E+00  0.00000000000E+00  0.45593999997E+02  0.45594000000E+02  0.51100000000E-03 0. -1.
         11   -1    0    0    0    0 -0.00000000000E+00 -0.00000000000E+00 -0.45593999997E+02  0.45594000000E+02  0.51100000000E-03 0.  1.
    9900012    2    1    2    0    0  0.12242690305E+02  0.13123255390E+02 -0.53455979655E+01  0.72461582415E+02  0.70000015790E+02 0.  0.
         12    1    1    2    0    0 -0.12242690305E+02 -0.13123255390E+02  0.53455979655E+01  0.18726417585E+02  0.00000000000E+00 0. -1.
         11    1    3    3    0    0  0.14777140693E+02 -0.14415379300E+02 -0.10553258613E+02  0.23184872548E+02  0.51100000000E-03 0. -1.
        -11    1    3    3    0    0 -0.15573862357E+02 -0.28960127667E+01  0.64997819471E+00  0.15854165086E+02  0.51100000000E-03 0.  1.
        -12    1    3    3    0    0  0.13039411969E+02  0.30434647457E+02  0.45576824525E+01  0.33422544782E+02  0.00000000000E+00 0.  1.
</event>
<event>
 7    1  0.2797450E-013  0.7246157E+02  0.7816164E-02  0.1226708E+00
        -11   -1    0    0    0    0  0.00000000000E+00  0.00000000000E+00  0.45593999997E+02  0.45594000000E+02  0.51100000000E-03 0. -1.
         11   -1    0    0    0    0 -0.00000000000E+00 -0.00000000000E+00 -0.45593999997E+02  0.45594000000E+02  0.51100000000E-03 0.  1.
    9900012    2    1    2    0    0  0.47250187654E+01 -0.56604568483E+00 -0.18111685200E+02  0.72461565454E+02  0.69999993694E+02 0.  0.
         12    1    1    2    0    0 -0.47250187654E+01  0.56604568483E+00  0.18111685200E+02  0.18726434546E+02  0.00000000000E+00 0. -1.
         11    1    3    3    0    0 -0.16389733166E+02  0.79877505845E+01 -0.58093380146E+01  0.19135723688E+02  0.51100000000E-03 0. -1.
        -11    1    3    3    0    0 -0.10881027006E+02 -0.13548232066E+02  0.27883718678E+01  0.17599044257E+02  0.51100000000E-03 0.  1.
        -12    1    3    3    0    0  0.31995778937E+02  0.49944357964E+01 -0.15090719053E+02  0.35726797509E+02  0.00000000000E+00 0.  1.
</event>
<event>
 7    1  0.2797450E-013  0.7246157E+02  0.7816164E-02  0.1226708E+00
        -11   -1    0    0    0    0  0.00000000000E+00  0.00000000000E+00  0.45593999997E+02  0.45594000000E+02  0.51100000000E-03 0.  1.
         11   -1    0    0    0    0 -0.00000000000E+00 -0.00000000000E+00 -0.45593999997E+02  0.45594000000E+02  0.51100000000E-03 0. -1.
    9900012    2    1    2    0    0 -0.92871392883E+01  0.16261245762E+02  0.14549482759E-01  0.72461567302E+02  0.69999996102E+02 0.  0.
         12    1    1    2    0    0  0.92871392883E+01 -0.16261245762E+02 -0.14549482759E-01  0.18726432698E+02  0.00000000000E+00 0. -1.
         11    1    3    3    0    0 -0.89294435694E+01  0.58413252640E+00 -0.21724604480E+02  0.23495416858E+02  0.51100000000E-03 0. -1.
        -11    1    3    3    0    0 -0.20126817820E+02  0.11133497071E+02  0.15528675473E+02  0.27752176758E+02  0.51100000000E-03 0.  1.
         12    1    3    3    0    0  0.19769122101E+02  0.45436161645E+01  0.62104784902E+01  0.21213973686E+02  0.00000000000E+00 0. -1.
</event>
<event>
 7    1  0.2797450E-013  0.7246155E+02  0.7816164E-02  0.1226708E+00
        -11   -1    0    0    0    0  0.00000000000E+00  0.00000000000E+00  0.45593999997E+02  0.45594000000E+02  0.51100000000E-03 0. -1.
         11   -1    0    0    0    0 -0.00000000000E+00 -0.00000000000E+00 -0.45593999997E+02  0.45594000000E+02  0.51100000000E-03 0.  1.
    9900012    2    1    2    0    0  0.15588888305E+02 -0.52932061312E+01 -0.89246027678E+01  0.72461548006E+02  0.69999970965E+02 0.  0.
         12    1    1    2    0    0 -0.15588888305E+02  0.52932061312E+01  0.89246027678E+01  0.18726451994E+02  0.00000000000E+00 0. -1.
         11    1    3    3    0    0 -0.52913878591E+01 -0.22332719631E+01  0.69809577569E+01  0.90399148559E+01  0.51100000000E-03 0. -1.
        -11    1    3    3    0    0  0.11737651014E+02 -0.30350502648E+02 -0.99752242079E+01  0.34035724769E+02  0.51100000000E-03 0.  1.
         12    1    3    3    0    0  0.91426251501E+01  0.27290568480E+02 -0.59303363168E+01  0.29385908381E+02  0.00000000000E+00 0. -1.
</event>
<event>
 7    1  0.2797450E-013  0.7246161E+02  0.7816164E-02  0.1226708E+00
        -11   -1    0    0    0    0  0.00000000000E+00  0.00000000000E+00  0.45593999997E+02  0.45594000000E+02  0.51100000000E-03 0.  1.
         11   -1    0    0    0    0 -0.00000000000E+00 -0.00000000000E+00 -0.45593999997E+02  0.45594000000E+02  0.51100000000E-03 0. -1.
    9900012    2    1    2    0    0  0.13476540325E+02 -0.92263841643E+01  0.91615609637E+01  0.72461614787E+02  0.70000057959E+02 0.  0.
         12    1    1    2    0    0 -0.13476540325E+02  0.92263841643E+01 -0.91615609637E+01  0.18726385213E+02  0.00000000000E+00 0. -1.
         11    1    3    3    0    0 -0.14784275597E+01 -0.10205760288E+02 -0.35132814369E+01  0.10894330536E+02  0.51100000000E-03 0. -1.
        -11    1    3    3    0    0 -0.14523297088E+02  0.12284328942E+02  0.21577039157E+02  0.28764553098E+02  0.51100000000E-03 0.  1.
         12    1    3    3    0    0  0.29478264972E+02 -0.11304952818E+02 -0.89021967567E+01  0.32802731153E+02  0.00000000000E+00 0. -1.
</event>
<event>
 7    1  0.2797450E-013  0.7246158E+02  0.7816164E-02  0.1226708E+00
        -11   -1    0    0    0    0  0.00000000000E+00  0.00000000000E+00  0.45593999997E+02  0.45594000000E+02  0.51100000000E-03 0.  1.
         11   -1    0    0    0    0 -0.00000000000E+00 -0.00000000000E+00 -0.45593999997E+02  0.45594000000E+02  0.51100000000E-03 0. -1.
    9900012    2    1    2    0    0 -0.16035559413E+02 -0.90193367841E+01 -0.34915959815E+01  0.72461578980E+02  0.70000011314E+02 0.  0.
         12    1    1    2    0    0  0.16035559413E+02  0.90193367841E+01  0.34915959815E+01  0.18726421020E+02  0.00000000000E+00 0. -1.
         11    1    3    3    0    0  0.19644817185E+00 -0.21747915308E+01  0.51107172129E+01  0.55576740439E+01  0.51100000000E-03 0. -1.
        -11    1    3    3    0    0 -0.28063456516E+02  0.90784437087E+01  0.17364106777E+02  0.34227005949E+02  0.51100000000E-03 0.  1.
         12    1    3    3    0    0  0.11831448931E+02 -0.15922988962E+02 -0.25966419971E+02  0.32676898987E+02  0.00000000000E+00 0. -1.
</event>
<event>
 7    1  0.2797450E-013  0.7246161E+02  0.7816164E-02  0.1226708E+00
        -11   -1    0    0    0    0  0.00000000000E+00  0.00000000000E+00  0.45593999997E+02  0.45594000000E+02  0.51100000000E-03 0.  1.
         11   -1    0    0    0    0 -0.00000000000E+00 -0.00000000000E+00 -0.45593999997E+02  0.45594000000E+02  0.51100000000E-03 0. -1.
    9900012    2    1    2    0    0 -0.12670480594E+02 -0.10351954353E+02 -0.91089912749E+01  0.72461607943E+02  0.70000049045E+02 0.  0.
         12    1    1    2    0    0  0.12670480594E+02  0.10351954353E+02  0.91089912749E+01  0.18726392057E+02  0.00000000000E+00 0. -1.
         11    1    3    3    0    0  0.15380227182E+01 -0.29050801862E+01  0.21064642475E+02  0.21319572407E+02  0.51100000000E-03 0. -1.
        -11    1    3    3    0    0 -0.11513155136E+02  0.55424457126E+01  0.48677523005E+01  0.13673567873E+02  0.51100000000E-03 0.  1.
        -12    1    3    3    0    0 -0.26953481766E+01 -0.12989319879E+02 -0.35041386050E+02  0.37468467663E+02  0.00000000000E+00 0.  1.
</event>
<event>
 7    1  0.2797450E-013  0.7246160E+02  0.7816164E-02  0.1226708E+00
        -11   -1    0    0    0    0  0.00000000000E+00  0.00000000000E+00  0.45593999997E+02  0.45594000000E+02  0.51100000000E-03 0. -1.
         11   -1    0    0    0    0 -0.00000000000E+00 -0.00000000000E+00 -0.45593999997E+02  0.45594000000E+02  0.51100000000E-03 0.  1.
    9900012    2    1    2    0    0  0.17156372727E+02 -0.56098078999E+01 -0.49866995312E+01  0.72461595059E+02  0.70000032260E+02 0.  0.
         12    1    1    2    0    0 -0.17156372727E+02  0.56098078999E+01  0.49866995312E+01  0.18726404941E+02  0.00000000000E+00 0. -1.
         11    1    3    3    0    0  0.18165950044E+02 -0.13068546940E+01 -0.10855028881E+02  0.21202388132E+02  0.51100000000E-03 0. -1.
        -11    1    3    3    0    0  0.58671681489E+01  0.14306628445E+01 -0.21568729600E+02  0.22398226606E+02  0.51100000000E-03 0.  1.
         12    1    3    3    0    0 -0.68767454665E+01 -0.57336160504E+01  0.27437058951E+02  0.28860980321E+02  0.00000000000E+00 0. -1.
</event>
<event>
 7    1  0.2797450E-013  0.7246152E+02  0.7816164E-02  0.1226708E+00
        -11   -1    0    0    0    0  0.00000000000E+00  0.00000000000E+00  0.45593999997E+02  0.45594000000E+02  0.51100000000E-03 0.  1.
         11   -1    0    0    0    0 -0.00000000000E+00 -0.00000000000E+00 -0.45593999997E+02  0.45594000000E+02  0.51100000000E-03 0. -1.
    9900012    2    1    2    0    0  0.15617844729E+02 -0.39436366913E+01  0.95504796633E+01  0.72461521256E+02  0.69999936119E+02 0.  0.
         12    1    1    2    0    0 -0.15617844729E+02  0.39436366913E+01 -0.95504796633E+01  0.18726478744E+02  0.00000000000E+00 0. -1.
         11    1    3    3    0    0  0.47342560548E+01 -0.31381895966E+01  0.73396142681E+01  0.92806978295E+01  0.51100000000E-03 0. -1.
        -11    1    3    3    0    0  0.10102137598E+01  0.10987814637E+01  0.31848714829E+02  0.31883671198E+02  0.51100000000E-03 0.  1.
         12    1    3    3    0    0  0.98733749148E+01 -0.19042285584E+01 -0.29637849433E+02  0.31297152229E+02  0.00000000000E+00 0. -1.
</event>
<event>
 7    1  0.2797450E-013  0.7246158E+02  0.7816164E-02  0.1226708E+00
        -11   -1    0    0    0    0  0.00000000000E+00  0.00000000000E+00  0.45593999997E+02  0.45594000000E+02  0.51100000000E-03 0.  1.
         11   -1    0    0    0    0 -0.00000000000E+00 -0.00000000000E+00 -0.45593999997E+02  0.45594000000E+02  0.51100000000E-03 0. -1.
    9900012    2    1    2    0    0 -0.13416375717E+01  0.16377143213E+02  0.89815329334E+01  0.72461581628E+02  0.70000014765E+02 0.  0.
         12    1    1    2    0    0  0.13416375717E+01 -0.16377143213E+02 -0.89815329334E+01  0.18726418372E+02  0.00000000000E+00 0. -1.
         11    1    3    3    0    0  0.75959683875E+01 -0.13205713964E+02 -0.70963352269E+01  0.16806177167E+02  0.51100000000E-03 0. -1.
        -11    1    3    3    0    0 -0.34895431182E+01 -0.11333553982E+02  0.53312677434E+01  0.13001875752E+02  0.51100000000E-03 0.  1.
        -12    1    3    3    0    0 -0.54480628410E+01  0.40916411160E+02  0.10746600417E+02  0.42653528710E+02  0.00000000000E+00 0.  1.
</event>
<event>
 7    1  0.2797450E-013  0.7246152E+02  0.7816164E-02  0.1226708E+00
        -11   -1    0    0    0    0  0.00000000000E+00  0.00000000000E+00  0.45593999997E+02  0.45594000000E+02  0.51100000000E-03 0. -1.
         11   -1    0    0    0    0 -0.00000000000E+00 -0.00000000000E+00 -0.45593999997E+02  0.45594000000E+02  0.51100000000E-03 0.  1.
    9900012    2    1    2    0    0  0.11991032026E+01 -0.10707278056E+01 -0.18657348558E+02  0.72461522442E+02  0.69999937663E+02 0.  0.
         12    1    1    2    0    0 -0.11991032026E+01  0.10707278056E+01  0.18657348558E+02  0.18726477558E+02  0.00000000000E+00 0. -1.
         11    1    3    3    0    0 -0.65815694641E+00  0.25366426495E+02 -0.32142349939E+02  0.40951427613E+02  0.51100000000E-03 0. -1.
        -11    1    3    3    0    0  0.24442334920E+01 -0.24172378154E+01 -0.83733310823E+00  0.35381411807E+01  0.51100000000E-03 0.  1.
        -12    1    3    3    0    0 -0.58697334300E+00 -0.24019916486E+02  0.14322334489E+02  0.27971953648E+02  0.00000000000E+00 0.  1.
</event>
<event>
 7    1  0.2797450E-013  0.7246168E+02  0.7816164E-02  0.1226708E+00
        -11   -1    0    0    0    0  0.00000000000E+00  0.00000000000E+00  0.45593999997E+02  0.45594000000E+02  0.51100000000E-03 0. -1.
         11   -1    0    0    0    0 -0.00000000000E+00 -0.00000000000E+00 -0.45593999997E+02  0.45594000000E+02  0.51100000000E-03 0.  1.
    9900012    2    1    2    0    0  0.13345403203E+02  0.11884274318E+02 -0.55981487295E+01  0.72461680770E+02  0.70000143915E+02 0.  0.
         12    1    1    2    0    0 -0.13345403203E+02 -0.11884274318E+02  0.55981487295E+01  0.18726319230E+02  0.00000000000E+00 0. -1.
         11    1    3    3    0    0 -0.98148607875E+01  0.25573461791E+02  0.82334610191E+01  0.28602855118E+02  0.51100000000E-03 0. -1.
        -11    1    3    3    0    0  0.22462744176E+02  0.49226123734E+01 -0.76709087428E+01  0.24241489841E+02  0.51100000000E-03 0.  1.
        -12    1    3    3    0    0  0.69751981443E+00 -0.18611799847E+02 -0.61607010057E+01  0.19617335811E+02  0.00000000000E+00 0.  1.
</event>
<event>
 7    1  0.2797450E-013  0.7246216E+02  0.7816164E-02  0.1226706E+00
        -11   -1    0    0    0    0  0.00000000000E+00  0.00000000000E+00  0.45593999997E+02  0.45594000000E+02  0.51100000000E-03 0.  1.
         11   -1    0    0    0    0 -0.00000000000E+00 -0.00000000000E+00 -0.45593999997E+02  0.45594000000E+02  0.51100000000E-03 0. -1.
    9900012    2    1    2    0    0 -0.83786076998E+01 -0.10320562151E+02  0.13188711413E+02  0.72462157460E+02  0.70000764888E+02 0.  0.
         12    1    1    2    0    0  0.83786076998E+01  0.10320562151E+02 -0.13188711413E+02  0.18725842540E+02  0.00000000000E+00 0. -1.
         11    1    3    3    0    0 -0.21886118773E+02  0.53488650903E+01  0.22462130531E+02  0.31814459935E+02  0.51100000000E-03 0.  1.
        -11    1    3    3    0    0 -0.60569268955E+01 -0.20911400753E+00 -0.14011325189E+02  0.15265887655E+02  0.51100000000E-03 0. -1.
        -12    1    3    3    0    0  0.19564437969E+02 -0.15460313233E+02  0.47379060716E+01  0.25381809870E+02  0.00000000000E+00 0.  1.
</event>
<event>
 7    1  0.2797450E-013  0.7246152E+02  0.7816164E-02  0.1226708E+00
        -11   -1    0    0    0    0  0.00000000000E+00  0.00000000000E+00  0.45593999997E+02  0.45594000000E+02  0.51100000000E-03 0.  1.
         11   -1    0    0    0    0 -0.00000000000E+00 -0.00000000000E+00 -0.45593999997E+02  0.45594000000E+02  0.51100000000E-03 0. -1.
    9900012    2    1    2    0    0 -0.11970741028E+02  0.13943652708E+02  0.35995690908E+01  0.72461521707E+02  0.69999936706E+02 0.  0.
         12    1    1    2    0    0  0.11970741028E+02 -0.13943652708E+02 -0.35995690908E+01  0.18726478293E+02  0.00000000000E+00 0. -1.
         11    1    3    3    0    0  0.69409467128E+01 -0.23332127541E+01 -0.35006281792E+01  0.81163428301E+01  0.51100000000E-03 0. -1.
        -11    1    3    3    0    0  0.22765748211E+01 -0.17483949322E+02 -0.10773141713E+02  0.20662329477E+02  0.51100000000E-03 0.  1.
        -12    1    3    3    0    0 -0.21188262562E+02  0.33760814784E+02  0.17873338983E+02  0.43682849400E+02  0.00000000000E+00 0.  1.
</event>
<event>
 7    1  0.2797450E-013  0.7246155E+02  0.7816164E-02  0.1226708E+00
        -11   -1    0    0    0    0  0.00000000000E+00  0.00000000000E+00  0.45593999997E+02  0.45594000000E+02  0.51100000000E-03 0.  1.
         11   -1    0    0    0    0 -0.00000000000E+00 -0.00000000000E+00 -0.45593999997E+02  0.45594000000E+02  0.51100000000E-03 0. -1.
    9900012    2    1    2    0    0 -0.90433200017E+01 -0.12421726060E+02  0.10705086117E+02  0.72461553895E+02  0.69999978637E+02 0.  0.
         12    1    1    2    0    0  0.90433200017E+01  0.12421726060E+02 -0.10705086117E+02  0.18726446105E+02  0.00000000000E+00 0. -1.
         11    1    3    3    0    0 -0.33204288416E+02 -0.92438776146E+01  0.32580388626E+01  0.34620642109E+02  0.51100000000E-03 0. -1.
        -11    1    3    3    0    0 -0.37858778202E+01 -0.70248729951E+01 -0.17489885365E+01  0.81694964734E+01  0.51100000000E-03 0.  1.
        -12    1    3    3    0    0  0.27946846235E+02  0.38470245500E+01  0.91960357911E+01  0.29671415312E+02  0.00000000000E+00 0.  1.
</event>
<event>
 7    1  0.2797450E-013  0.7246154E+02  0.7816164E-02  0.1226708E+00
        -11   -1    0    0    0    0  0.00000000000E+00  0.00000000000E+00  0.45593999997E+02  0.45594000000E+02  0.51100000000E-03 0. -1.
         11   -1    0    0    0    0 -0.00000000000E+00 -0.00000000000E+00 -0.45593999997E+02  0.45594000000E+02  0.51100000000E-03 0.  1.
    9900012    2    1    2    0    0  0.44648350499E+01  0.13524949120E+02 -0.12158172572E+02  0.72461543821E+02  0.69999965514E+02 0.  0.
         12    1    1    2    0    0 -0.44648350499E+01 -0.13524949120E+02  0.12158172572E+02  0.18726456179E+02  0.00000000000E+00 0. -1.
         11    1    3    3    0    0 -0.18473064346E+01  0.25827420869E+02  0.12590682280E+02  0.28792247053E+02  0.51100000000E-03 0. -1.
        -11    1    3    3    0    0  0.12980554493E+02 -0.13942903850E+02 -0.11422549807E+01  0.19084132400E+02  0.51100000000E-03 0.  1.
        -12    1    3    3    0    0 -0.66684130090E+01  0.16404321013E+01 -0.23606599872E+02  0.24585164369E+02  0.00000000000E+00 0.  1.
</event>
<event>
 7    1  0.2797450E-013  0.7246154E+02  0.7816164E-02  0.1226708E+00
        -11   -1    0    0    0    0  0.00000000000E+00  0.00000000000E+00  0.45593999997E+02  0.45594000000E+02  0.51100000000E-03 0.  1.
         11   -1    0    0    0    0 -0.00000000000E+00 -0.00000000000E+00 -0.45593999997E+02  0.45594000000E+02  0.51100000000E-03 0. -1.
    9900012    2    1    2    0    0 -0.13179403651E+02  0.12966618476E+02  0.29749673367E+01  0.72461539952E+02  0.69999960473E+02 0.  0.
         12    1    1    2    0    0  0.13179403651E+02 -0.12966618476E+02 -0.29749673367E+01  0.18726460048E+02  0.00000000000E+00 0. -1.
         11    1    3    3    0    0  0.20564358027E+02 -0.95009877512E+01  0.29037784693E+01  0.22838421989E+02  0.51100000000E-03 0. -1.
        -11    1    3    3    0    0 -0.90032050055E+01 -0.43973197386E+01 -0.72595490615E+01  0.12373163463E+02  0.51100000000E-03 0.  1.
        -12    1    3    3    0    0 -0.24740556672E+02  0.26864925966E+02  0.73307379288E+01  0.37249954499E+02  0.00000000000E+00 0.  1.
</event>
<event>
 7    1  0.2797450E-013  0.7246152E+02  0.7816164E-02  0.1226708E+00
        -11   -1    0    0    0    0  0.00000000000E+00  0.00000000000E+00  0.45593999997E+02  0.45594000000E+02  0.51100000000E-03 0. -1.
         11   -1    0    0    0    0 -0.00000000000E+00 -0.00000000000E+00 -0.45593999997E+02  0.45594000000E+02  0.51100000000E-03 0.  1.
    9900012    2    1    2    0    0 -0.72975427209E+01  0.16927671688E+02 -0.32986160548E+01  0.72461519647E+02  0.69999934022E+02 0.  0.
         12    1    1    2    0    0  0.72975427209E+01 -0.16927671688E+02  0.32986160548E+01  0.18726480353E+02  0.00000000000E+00 0. -1.
         11    1    3    3    0    0 -0.91676614193E+01  0.69472952089E+01 -0.78862620136E+01  0.13946471074E+02  0.51100000000E-03 0. -1.
        -11    1    3    3    0    0 -0.72680994782E+01 -0.17024144355E+02 -0.15083742974E+02  0.23878150335E+02  0.51100000000E-03 0.  1.
        -12    1    3    3    0    0  0.91382181767E+01  0.27004520835E+02  0.19671388933E+02  0.34636898237E+02  0.00000000000E+00 0.  1.
</event>
<event>
 7    1  0.2797450E-013  0.7246159E+02  0.7816164E-02  0.1226708E+00
        -11   -1    0    0    0    0  0.00000000000E+00  0.00000000000E+00  0.45593999997E+02  0.45594000000E+02  0.51100000000E-03 0.  1.
         11   -1    0    0    0    0 -0.00000000000E+00 -0.00000000000E+00 -0.45593999997E+02  0.45594000000E+02  0.51100000000E-03 0. -1.
    9900012    2    1    2    0    0  0.17214482426E+01  0.82533766667E+01  0.16721144241E+02  0.72461594173E+02  0.70000031107E+02 0.  0.
         12    1    1    2    0    0 -0.17214482426E+01 -0.82533766667E+01 -0.16721144241E+02  0.18726405827E+02  0.00000000000E+00 0. -1.
         11    1    3    3    0    0 -0.27737070188E+02 -0.66892108388E+01 -0.35284341030E+01  0.28749616549E+02  0.51100000000E-03 0. -1.
        -11    1    3    3    0    0  0.88848010075E+01 -0.35662113111E+01  0.26688311375E+00  0.95775142347E+01  0.51100000000E-03 0.  1.
        -12    1    3    3    0    0  0.20573717423E+02  0.18508798817E+02  0.19982695230E+02  0.34134463390E+02  0.00000000000E+00 0.  1.
</event>
<event>
 7    1  0.2797450E-013  0.7246154E+02  0.7816164E-02  0.1226708E+00
        -11   -1    0    0    0    0  0.00000000000E+00  0.00000000000E+00  0.45593999997E+02  0.45594000000E+02  0.51100000000E-03 0.  1.
         11   -1    0    0    0    0 -0.00000000000E+00 -0.00000000000E+00 -0.45593999997E+02  0.45594000000E+02  0.51100000000E-03 0. -1.
    9900012    2    1    2    0    0 -0.11854689195E+02  0.10571186143E+02  0.99195121140E+01  0.72461538697E+02  0.69999958838E+02 0.  0.
         12    1    1    2    0    0  0.11854689195E+02 -0.10571186143E+02 -0.99195121140E+01  0.18726461303E+02  0.00000000000E+00 0. -1.
         11    1    3    3    0    0 -0.13341498356E+02 -0.54151922094E+01 -0.70123604358E+01  0.16015401468E+02  0.51100000000E-03 0. -1.
        -11    1    3    3    0    0  0.30298165780E+01 -0.18423506735E+02  0.10452121543E+02  0.21397481952E+02  0.51100000000E-03 0.  1.
         12    1    3    3    0    0 -0.15430074171E+01  0.34409885087E+02  0.64797510072E+01  0.35048655276E+02  0.00000000000E+00 0. -1.
</event>
<event>
 7    1  0.2797450E-013  0.7246166E+02  0.7816164E-02  0.1226708E+00
        -11   -1    0    0    0    0  0.00000000000E+00  0.00000000000E+00  0.45593999997E+02  0.45594000000E+02  0.51100000000E-03 0.  1.
         11   -1    0    0    0    0 -0.00000000000E+00 -0.00000000000E+00 -0.45593999997E+02  0.45594000000E+02  0.51100000000E-03 0. -1.
    9900012    2    1    2    0    0  0.16247930446E+02  0.53408146427E+01  0.76260227252E+01  0.72461661131E+02  0.70000118331E+02 0.  0.
         12    1    1    2    0    0 -0.16247930446E+02 -0.53408146427E+01 -0.76260227252E+01  0.18726338869E+02  0.00000000000E+00 0. -1.
         11    1    3    3    0    0 -0.41984052708E+01  0.21647120983E+02  0.23405252647E+02  0.32156341605E+02  0.51100000000E-03 0. -1.
        -11    1    3    3    0    0 -0.25117119913E+01  0.43015899509E+01 -0.62998991643E+01  0.80312578700E+01  0.51100000000E-03 0.  1.
        -12    1    3    3    0    0  0.22958047708E+02 -0.20607896291E+02 -0.94793307579E+01  0.32274061656E+02  0.00000000000E+00 0.  1.
</event>
<event>
 7    1  0.2797450E-013  0.7246147E+02  0.7816164E-02  0.1226708E+00
        -11   -1    0    0    0    0  0.00000000000E+00  0.00000000000E+00  0.45593999997E+02  0.45594000000E+02  0.51100000000E-03 0. -1.
         11   -1    0    0    0    0 -0.00000000000E+00 -0.00000000000E+00 -0.45593999997E+02  0.45594000000E+02  0.51100000000E-03 0.  1.
    9900012    2    1    2    0    0  0.53981610669E+01  0.11934150252E+02 -0.13383535431E+02  0.72461465196E+02  0.69999863090E+02 0.  0.
         12    1    1    2    0    0 -0.53981610669E+01 -0.11934150252E+02  0.13383535431E+02  0.18726534804E+02  0.00000000000E+00 0. -1.
         11    1    3    3    0    0 -0.43465463768E+01 -0.41583852654E+01  0.11791984958E+02  0.13237656248E+02  0.51100000000E-03 0. -1.
        -11    1    3    3    0    0  0.73588072816E+00 -0.18137953790E+02 -0.72451727457E+01  0.19545316996E+02  0.51100000000E-03 0.  1.
        -12    1    3    3    0    0  0.90088267155E+01  0.34230489307E+02 -0.17930347643E+02  0.39678491952E+02  0.00000000000E+00 0.  1.
</event>
<event>
 7    1  0.3041091E-013  0.7246155E+02  0.7816164E-02  0.1226708E+00
        -11   -1    0    0    0    0  0.00000000000E+00  0.00000000000E+00  0.45593999997E+02  0.45594000000E+02  0.51100000000E-03 0. -1.
         11   -1    0    0    0    0 -0.00000000000E+00 -0.00000000000E+00 -0.45593999997E+02  0.45594000000E+02  0.51100000000E-03 0.  1.
    9900012    2    1    2    0    0  0.10452081369E+00  0.12082408066E+02 -0.14306802827E+02  0.72461545012E+02  0.69999967065E+02 0.  0.
         12    1    1    2    0    0 -0.10452081369E+00 -0.12082408066E+02  0.14306802827E+02  0.18726454988E+02  0.00000000000E+00 0. -1.
         11    1    3    3    0    0  0.24620110361E+02 -0.50596635353E+00  0.40547211879E+01  0.24956894845E+02  0.51100000000E-03 0. -1.
        -11    1    3    3    0    0 -0.24162362607E+01  0.18362582386E+02 -0.53194339036E+00  0.18528507592E+02  0.51100000000E-03 0.  1.
        -12    1    3    3    0    0 -0.22099353286E+02 -0.57742079662E+01 -0.17829580625E+02  0.28976142575E+02  0.00000000000E+00 0.  1.
</event>
<event>
 7    1  0.2797450E-013  0.7246155E+02  0.7816164E-02  0.1226708E+00
        -11   -1    0    0    0    0  0.00000000000E+00  0.00000000000E+00  0.45593999997E+02  0.45594000000E+02  0.51100000000E-03 0. -1.
         11   -1    0    0    0    0 -0.00000000000E+00 -0.00000000000E+00 -0.45593999997E+02  0.45594000000E+02  0.51100000000E-03 0.  1.
    9900012    2    1    2    0    0  0.12455775438E+02 -0.13953005059E+02 -0.92037726550E+00  0.72461553828E+02  0.69999978549E+02 0.  0.
         12    1    1    2    0    0 -0.12455775438E+02  0.13953005059E+02  0.92037726550E+00  0.18726446172E+02  0.00000000000E+00 0. -1.
         11    1    3    3    0    0  0.73121260479E+01  0.17464986751E+02 -0.17281669596E+02  0.25634918643E+02  0.51100000000E-03 0. -1.
        -11    1    3    3    0    0  0.13146964199E+02 -0.39991063555E+01  0.11359342229E+02  0.17828914029E+02  0.51100000000E-03 0.  1.
         12    1    3    3    0    0 -0.80033148096E+01 -0.27418885454E+02  0.50019501014E+01  0.28997721157E+02  0.00000000000E+00 0. -1.
</event>
<event>
 7    1  0.2797450E-013  0.7246159E+02  0.7816164E-02  0.1226708E+00
        -11   -1    0    0    0    0  0.00000000000E+00  0.00000000000E+00  0.45593999997E+02  0.45594000000E+02  0.51100000000E-03 0. -1.
         11   -1    0    0    0    0 -0.00000000000E+00 -0.00000000000E+00 -0.45593999997E+02  0.45594000000E+02  0.51100000000E-03 0.  1.
    9900012    2    1    2    0    0 -0.18321350175E+02 -0.28956940612E+01 -0.25732137608E+01  0.72461592299E+02  0.70000028665E+02 0.  0.
         12    1    1    2    0    0  0.18321350175E+02  0.28956940612E+01  0.25732137608E+01  0.18726407701E+02  0.00000000000E+00 0. -1.
         11    1    3    3    0    0 -0.12088240471E+02 -0.19754291452E+02  0.10599701993E+02  0.25469810974E+02  0.51100000000E-03 0. -1.
        -11    1    3    3    0    0 -0.16560917104E+01  0.19994983387E+01  0.14779693984E+02  0.15005998396E+02  0.51100000000E-03 0.  1.
        -12    1    3    3    0    0 -0.45770179940E+01  0.14859099052E+02 -0.27952609738E+02  0.31985782928E+02  0.00000000000E+00 0.  1.
</event>
<event>
 7    1  0.2797450E-013  0.7246126E+02  0.7816164E-02  0.1226709E+00
        -11   -1    0    0    0    0  0.00000000000E+00  0.00000000000E+00  0.45593999997E+02  0.45594000000E+02  0.51100000000E-03 0. -1.
         11   -1    0    0    0    0 -0.00000000000E+00 -0.00000000000E+00 -0.45593999997E+02  0.45594000000E+02  0.51100000000E-03 0.  1.
    9900012    2    1    2    0    0 -0.69201177627E+01 -0.17363948828E+02 -0.11383704967E+01  0.72461264135E+02  0.69999601170E+02 0.  0.
         12    1    1    2    0    0  0.69201177627E+01  0.17363948828E+02  0.11383704967E+01  0.18726735865E+02  0.00000000000E+00 0. -1.
         11    1    3    3    0    0  0.22982638021E+01 -0.24653785053E+02  0.22176449022E+01  0.24859788477E+02  0.51100000000E-03 0. -1.
        -11    1    3    3    0    0 -0.80328044342E+01 -0.46455722224E+01  0.19608537543E+02  0.21693363805E+02  0.51100000000E-03 0.  1.
         12    1    3    3    0    0 -0.11855771307E+01  0.11935408447E+02 -0.22964552942E+02  0.25908111852E+02  0.00000000000E+00 0. -1.
</event>
<event>
 7    1  0.2797450E-013  0.7246155E+02  0.7816164E-02  0.1226708E+00
        -11   -1    0    0    0    0  0.00000000000E+00  0.00000000000E+00  0.45593999997E+02  0.45594000000E+02  0.51100000000E-03 0.  1.
         11   -1    0    0    0    0 -0.00000000000E+00 -0.00000000000E+00 -0.45593999997E+02  0.45594000000E+02  0.51100000000E-03 0. -1.
    9900012    2    1    2    0    0  0.12014462655E+02  0.85577466808E+01  0.11536794707E+02  0.72461548835E+02  0.69999972045E+02 0.  0.
         12    1    1    2    0    0 -0.12014462655E+02 -0.85577466808E+01 -0.11536794707E+02  0.18726451165E+02  0.00000000000E+00 0. -1.
         11    1    3    3    0    0 -0.19695808832E+02 -0.75096142507E+00 -0.26150414011E+01  0.19882838590E+02  0.51100000000E-03 0. -1.
        -11    1    3    3    0    0 -0.32088991131E+01 -0.21680491205E+01  0.15321427555E+02  0.15803278555E+02  0.51100000000E-03 0.  1.
        -12    1    3    3    0    0  0.34919170600E+02  0.11476757226E+02 -0.11695914465E+01  0.36775431690E+02  0.00000000000E+00 0.  1.
</event>
<event>
 7    1  0.2797450E-013  0.7246162E+02  0.7816164E-02  0.1226708E+00
        -11   -1    0    0    0    0  0.00000000000E+00  0.00000000000E+00  0.45593999997E+02  0.45594000000E+02  0.51100000000E-03 0.  1.
         11   -1    0    0    0    0 -0.00000000000E+00 -0.00000000000E+00 -0.45593999997E+02  0.45594000000E+02  0.51100000000E-03 0. -1.
    9900012    2    1    2    0    0 -0.15387999536E+02 -0.70529805343E+01 -0.80088762457E+01  0.72461623873E+02  0.70000069796E+02 0.  0.
         12    1    1    2    0    0  0.15387999536E+02  0.70529805343E+01  0.80088762457E+01  0.18726376127E+02  0.00000000000E+00 0. -1.
         11    1    3    3    0    0  0.16359916810E+02  0.72137270039E+01 -0.59188668234E+01  0.18833951260E+02  0.51100000000E-03 0. -1.
        -11    1    3    3    0    0 -0.22142507313E+02  0.11691467372E+02  0.38091286734E+01  0.25327662761E+02  0.51100000000E-03 0.  1.
        -12    1    3    3    0    0 -0.96054090323E+01 -0.25958174910E+02 -0.58991380956E+01  0.28300009852E+02  0.00000000000E+00 0.  1.
</event>
<event>
 7    1  0.2797450E-013  0.7246165E+02  0.7816164E-02  0.1226708E+00
        -11   -1    0    0    0    0  0.00000000000E+00  0.00000000000E+00  0.45593999997E+02  0.45594000000E+02  0.51100000000E-03 0.  1.
         11   -1    0    0    0    0 -0.00000000000E+00 -0.00000000000E+00 -0.45593999997E+02  0.45594000000E+02  0.51100000000E-03 0. -1.
    9900012    2    1    2    0    0 -0.17258973702E+02  0.63451904841E+00  0.72388698435E+01  0.72461654273E+02  0.70000109398E+02 0.  0.
         12    1    1    2    0    0  0.17258973702E+02 -0.63451904841E+00 -0.72388698435E+01  0.18726345727E+02  0.00000000000E+00 0. -1.
         11    1    3    3    0    0  0.21180708955E+02  0.97409407141E+01  0.21299562045E+01  0.23410362482E+02  0.51100000000E-03 0. -1.
        -11    1    3    3    0    0  0.34005909880E+01  0.29030426276E+01  0.31652993820E+01  0.54782110222E+01  0.51100000000E-03 0.  1.
        -12    1    3    3    0    0 -0.41840273645E+02 -0.12009464293E+02  0.19436142569E+01  0.43573080769E+02  0.00000000000E+00 0.  1.
</event>
<event>
 7    1  0.2797450E-013  0.7246156E+02  0.7816164E-02  0.1226708E+00
        -11   -1    0    0    0    0  0.00000000000E+00  0.00000000000E+00  0.45593999997E+02  0.45594000000E+02  0.51100000000E-03 0.  1.
         11   -1    0    0    0    0 -0.00000000000E+00 -0.00000000000E+00 -0.45593999997E+02  0.45594000000E+02  0.51100000000E-03 0. -1.
    9900012    2    1    2    0    0  0.45464691760E+01 -0.38560396924E+01  0.17752184528E+02  0.72461562016E+02  0.69999989215E+02 0.  0.
         12    1    1    2    0    0 -0.45464691760E+01  0.38560396924E+01 -0.17752184528E+02  0.18726437984E+02  0.00000000000E+00 0. -1.
         11    1    3    3    0    0 -0.50884597822E+01  0.99777500066E+01  0.10294771571E+02  0.15212831430E+02  0.51100000000E-03 0. -1.
        -11    1    3    3    0    0 -0.18326665467E+02  0.14020529495E+01  0.15902554493E+02  0.24304807328E+02  0.51100000000E-03 0.  1.
         12    1    3    3    0    0  0.27961594425E+02 -0.15235842648E+02 -0.84451415361E+01  0.32943923257E+02  0.00000000000E+00 0. -1.
</event>
<event>
 7    1  0.2797450E-013  0.7246158E+02  0.7816164E-02  0.1226708E+00
        -11   -1    0    0    0    0  0.00000000000E+00  0.00000000000E+00  0.45593999997E+02  0.45594000000E+02  0.51100000000E-03 0. -1.
         11   -1    0    0    0    0 -0.00000000000E+00 -0.00000000000E+00 -0.45593999997E+02  0.45594000000E+02  0.51100000000E-03 0.  1.
    9900012    2    1    2    0    0 -0.95482687306E+01  0.54941006456E+01 -0.15143455174E+02  0.72461579833E+02  0.70000012426E+02 0.  0.
         12    1    1    2    0    0  0.95482687306E+01 -0.54941006456E+01  0.15143455174E+02  0.18726420167E+02  0.00000000000E+00 0. -1.
         11    1    3    3    0    0 -0.82389001532E+00 -0.40124741161E+01 -0.31733097198E+01  0.51815671499E+01  0.51100000000E-03 0. -1.
        -11    1    3    3    0    0 -0.16805240869E+02  0.32832106887E+02 -0.19167837636E+02  0.41566445159E+02  0.51100000000E-03 0.  1.
         12    1    3    3    0    0  0.80808621533E+01 -0.23325532125E+02  0.71976921819E+01  0.25713567524E+02  0.00000000000E+00 0. -1.
</event>
<event>
 7    1  0.2797450E-013  0.7246157E+02  0.7816164E-02  0.1226708E+00
        -11   -1    0    0    0    0  0.00000000000E+00  0.00000000000E+00  0.45593999997E+02  0.45594000000E+02  0.51100000000E-03 0.  1.
         11   -1    0    0    0    0 -0.00000000000E+00 -0.00000000000E+00 -0.45593999997E+02  0.45594000000E+02  0.51100000000E-03 0. -1.
    9900012    2    1    2    0    0 -0.54893811982E+01 -0.13540068709E+02 -0.11713769328E+02  0.72461570590E+02  0.70000000385E+02 0.  0.
         12    1    1    2    0    0  0.54893811982E+01  0.13540068709E+02  0.11713769328E+02  0.18726429410E+02  0.00000000000E+00 0. -1.
         11    1    3    3    0    0 -0.13694212748E+02  0.19776919636E+02 -0.15039060871E+01  0.24102276798E+02  0.51100000000E-03 0. -1.
        -11    1    3    3    0    0  0.17749193978E+01 -0.14058382267E+02 -0.21025438170E+02  0.25354634711E+02  0.51100000000E-03 0.  1.
        -12    1    3    3    0    0  0.64299121522E+01 -0.19258606078E+02  0.10815574929E+02  0.23004659081E+02  0.00000000000E+00 0.  1.
</event>
<event>
 7    1  0.2797450E-013  0.7246156E+02  0.7816164E-02  0.1226708E+00
        -11   -1    0    0    0    0  0.00000000000E+00  0.00000000000E+00  0.45593999997E+02  0.45594000000E+02  0.51100000000E-03 0. -1.
         11   -1    0    0    0    0 -0.00000000000E+00 -0.00000000000E+00 -0.45593999997E+02  0.45594000000E+02  0.51100000000E-03 0.  1.
    9900012    2    1    2    0    0  0.15266409865E+02  0.10235599595E+02 -0.35845183647E+01  0.72461560372E+02  0.69999987075E+02 0.  0.
         12    1    1    2    0    0 -0.15266409865E+02 -0.10235599595E+02  0.35845183647E+01  0.18726439628E+02  0.00000000000E+00 0. -1.
         11    1    3    3    0    0 -0.14259586065E+01  0.97373937357E-02 -0.89108739323E+01  0.90242521720E+01  0.51100000000E-03 0. -1.
        -11    1    3    3    0    0  0.25918996588E+02  0.63876113986E+01 -0.21840603643E+02  0.34490693400E+02  0.51100000000E-03 0.  1.
         12    1    3    3    0    0 -0.92266281167E+01  0.38382508028E+01  0.27166959210E+02  0.28946614800E+02  0.00000000000E+00 0. -1.
</event>
<event>
 7    1  0.2797450E-013  0.7246156E+02  0.7816164E-02  0.1226708E+00
        -11   -1    0    0    0    0  0.00000000000E+00  0.00000000000E+00  0.45593999997E+02  0.45594000000E+02  0.51100000000E-03 0.  1.
         11   -1    0    0    0    0 -0.00000000000E+00 -0.00000000000E+00 -0.45593999997E+02  0.45594000000E+02  0.51100000000E-03 0. -1.
    9900012    2    1    2    0    0  0.16849138904E+02  0.77247848123E+01  0.26671644566E+01  0.72461560177E+02  0.69999986821E+02 0.  0.
         12    1    1    2    0    0 -0.16849138904E+02 -0.77247848123E+01 -0.26671644566E+01  0.18726439823E+02  0.00000000000E+00 0. -1.
         11    1    3    3    0    0  0.20186671939E+02 -0.19495589008E+02 -0.98554765024E+01  0.29744077261E+02  0.51100000000E-03 0. -1.
        -11    1    3    3    0    0  0.86566064715E+01 -0.87155249152E+00  0.80373211547E+01  0.11844617805E+02  0.51100000000E-03 0.  1.
        -12    1    3    3    0    0 -0.11994139507E+02  0.28091926312E+02  0.44853198044E+01  0.30872865111E+02  0.00000000000E+00 0.  1.
</event>
<event>
 7    1  0.2797450E-013  0.7246167E+02  0.7816164E-02  0.1226708E+00
        -11   -1    0    0    0    0  0.00000000000E+00  0.00000000000E+00  0.45593999997E+02  0.45594000000E+02  0.51100000000E-03 0.  1.
         11   -1    0    0    0    0 -0.00000000000E+00 -0.00000000000E+00 -0.45593999997E+02  0.45594000000E+02  0.51100000000E-03 0. -1.
    9900012    2    1    2    0    0 -0.57923328122E+01 -0.87582305556E+01  0.15505404652E+02  0.72461673737E+02  0.70000134753E+02 0.  0.
         12    1    1    2    0    0  0.57923328122E+01  0.87582305556E+01 -0.15505404652E+02  0.18726326263E+02  0.00000000000E+00 0. -1.
         11    1    3    3    0    0  0.93076384276E+01  0.19038830793E+01  0.16160045306E+01  0.96368238949E+01  0.51100000000E-03 0. -1.
        -11    1    3    3    0    0 -0.21302688977E+02  0.16514454161E+02  0.20869115392E+02  0.34088879879E+02  0.51100000000E-03 0.  1.
        -12    1    3    3    0    0  0.62027177371E+01 -0.27176567796E+02 -0.69797152699E+01  0.28735969964E+02  0.00000000000E+00 0.  1.
</event>
<event>
 7    1  0.2797450E-013  0.7246156E+02  0.7816164E-02  0.1226708E+00
        -11   -1    0    0    0    0  0.00000000000E+00  0.00000000000E+00  0.45593999997E+02  0.45594000000E+02  0.51100000000E-03 0.  1.
         11   -1    0    0    0    0 -0.00000000000E+00 -0.00000000000E+00 -0.45593999997E+02  0.45594000000E+02  0.51100000000E-03 0. -1.
    9900012    2    1    2    0    0  0.16905633331E+02  0.16803751461E+01 -0.78775344605E+01  0.72461557515E+02  0.69999983353E+02 0.  0.
         12    1    1    2    0    0 -0.16905633331E+02 -0.16803751461E+01  0.78775344605E+01  0.18726442485E+02  0.00000000000E+00 0. -1.
         11    1    3    3    0    0 -0.16219210994E+02  0.11416330980E+02 -0.25871576087E+01  0.20002219953E+02  0.51100000000E-03 0. -1.
        -11    1    3    3    0    0  0.11214349388E+02 -0.49487418384E+01  0.16921197877E+02  0.20894463760E+02  0.51100000000E-03 0.  1.
         12    1    3    3    0    0  0.21910494937E+02 -0.47872139954E+01 -0.22211574729E+02  0.31564873802E+02  0.00000000000E+00 0. -1.
</event>
<event>
 7    1  0.2797450E-013  0.7246157E+02  0.7816164E-02  0.1226708E+00
        -11   -1    0    0    0    0  0.00000000000E+00  0.00000000000E+00  0.45593999997E+02  0.45594000000E+02  0.51100000000E-03 0.  1.
         11   -1    0    0    0    0 -0.00000000000E+00 -0.00000000000E+00 -0.45593999997E+02  0.45594000000E+02  0.51100000000E-03 0. -1.
    9900012    2    1    2    0    0  0.11671045163E+02  0.22213997430E+01  0.14475201050E+02  0.72461565277E+02  0.69999993464E+02 0.  0.
         12    1    1    2    0    0 -0.11671045163E+02 -0.22213997430E+01 -0.14475201050E+02  0.18726434723E+02  0.00000000000E+00 0. -1.
         11    1    3    3    0    0  0.18966999718E+02 -0.25944995438E+02 -0.33965935315E+01  0.32317591409E+02  0.51100000000E-03 0. -1.
        -11    1    3    3    0    0 -0.79159888020E+00  0.10700967795E+02  0.18621311285E+02  0.21491639649E+02  0.51100000000E-03 0.  1.
        -12    1    3    3    0    0 -0.65043556752E+01  0.17465427386E+02 -0.74951670376E+00  0.18652334219E+02  0.00000000000E+00 0.  1.
</event>
<event>
 7    1  0.2797450E-013  0.7246158E+02  0.7816164E-02  0.1226708E+00
        -11   -1    0    0    0    0  0.00000000000E+00  0.00000000000E+00  0.45593999997E+02  0.45594000000E+02  0.51100000000E-03 0. -1.
         11   -1    0    0    0    0 -0.00000000000E+00 -0.00000000000E+00 -0.45593999997E+02  0.45594000000E+02  0.51100000000E-03 0.  1.
    9900012    2    1    2    0    0 -0.13988015551E+02  0.94387695586E+01 -0.81193516069E+01  0.72461579617E+02  0.70000012145E+02 0.  0.
         12    1    1    2    0    0  0.13988015551E+02 -0.94387695586E+01  0.81193516069E+01  0.18726420383E+02  0.00000000000E+00 0. -1.
         11    1    3    3    0    0 -0.15262564798E+02 -0.88253989233E+00  0.61438318070E+00  0.15300399597E+02  0.51100000000E-03 0. -1.
        -11    1    3    3    0    0  0.74070987083E+01  0.30030893273E+02 -0.16560929840E+02  0.35085382419E+02  0.51100000000E-03 0.  1.
         12    1    3    3    0    0 -0.61325494611E+01 -0.19709583822E+02  0.78271950526E+01  0.22075797601E+02  0.00000000000E+00 0. -1.
</event>
<event>
 7    1  0.2797450E-013  0.7246181E+02  0.7816164E-02  0.1226707E+00
        -11   -1    0    0    0    0  0.00000000000E+00  0.00000000000E+00  0.45593999997E+02  0.45594000000E+02  0.51100000000E-03 0. -1.
         11   -1    0    0    0    0 -0.00000000000E+00 -0.00000000000E+00 -0.45593999997E+02  0.45594000000E+02  0.51100000000E-03 0.  1.
    9900012    2    1    2    0    0  0.10492929301E+02  0.99603102458E+01 -0.11889518882E+02  0.72461814997E+02  0.70000318770E+02 0.  0.
         12    1    1    2    0    0 -0.10492929301E+02 -0.99603102458E+01  0.11889518882E+02  0.18726185003E+02  0.00000000000E+00 0. -1.
         11    1    3    3    0    0 -0.45196175033E+01 -0.96188778816E+01 -0.14759554160E+02  0.18187748440E+02  0.51100000000E-03 0. -1.
        -11    1    3    3    0    0 -0.14566551325E+02  0.13462054393E+02 -0.90505003814E+01  0.21801900912E+02  0.51100000000E-03 0.  1.
        -12    1    3    3    0    0  0.29579098129E+02  0.61171337348E+01  0.11920535659E+02  0.32472165645E+02  0.00000000000E+00 0.  1.
</event>
<event>
 7    1  0.2797450E-013  0.7246161E+02  0.7816164E-02  0.1226708E+00
        -11   -1    0    0    0    0  0.00000000000E+00  0.00000000000E+00  0.45593999997E+02  0.45594000000E+02  0.51100000000E-03 0. -1.
         11   -1    0    0    0    0 -0.00000000000E+00 -0.00000000000E+00 -0.45593999997E+02  0.45594000000E+02  0.51100000000E-03 0.  1.
    9900012    2    1    2    0    0  0.11701747108E+02  0.14580575587E+02  0.10740256652E+01  0.72461612176E+02  0.70000054558E+02 0.  0.
         12    1    1    2    0    0 -0.11701747108E+02 -0.14580575587E+02 -0.10740256652E+01  0.18726387824E+02  0.00000000000E+00 0. -1.
         11    1    3    3    0    0 -0.16496238265E+02  0.18881743679E+02  0.25326039304E+00  0.25074095444E+02  0.51100000000E-03 0. -1.
        -11    1    3    3    0    0  0.26251681139E+00  0.58287481866E+01 -0.13273301088E+02  0.14499094542E+02  0.51100000000E-03 0.  1.
         12    1    3    3    0    0  0.27935468561E+02 -0.10129916278E+02  0.14094066360E+02  0.32888422189E+02  0.00000000000E+00 0. -1.
</event>
<event>
 7    1  0.2797450E-013  0.7246153E+02  0.7816164E-02  0.1226708E+00
        -11   -1    0    0    0    0  0.00000000000E+00  0.00000000000E+00  0.45593999997E+02  0.45594000000E+02  0.51100000000E-03 0.  1.
         11   -1    0    0    0    0 -0.00000000000E+00 -0.00000000000E+00 -0.45593999997E+02  0.45594000000E+02  0.51100000000E-03 0. -1.
    9900012    2    1    2    0    0 -0.40074944778E+00 -0.45556384528E+01  0.18159468962E+02  0.72461527967E+02  0.69999944860E+02 0.  0.
         12    1    1    2    0    0  0.40074944778E+00  0.45556384528E+01 -0.18159468962E+02  0.18726472033E+02  0.00000000000E+00 0. -1.
         11    1    3    3    0    0  0.13624518992E+02 -0.15472011655E+02  0.39518127526E+01  0.20991128762E+02  0.51100000000E-03 0. -1.
        -11    1    3    3    0    0  0.16761509254E+02  0.15699449178E+01  0.15873851139E+01  0.16909544976E+02  0.51100000000E-03 0.  1.
        -12    1    3    3    0    0 -0.30786777694E+02  0.93464282844E+01  0.12620271096E+02  0.34560854228E+02  0.00000000000E+00 0.  1.
</event>
<event>
 7    1  0.2797450E-013  0.7246159E+02  0.7816164E-02  0.1226708E+00
        -11   -1    0    0    0    0  0.00000000000E+00  0.00000000000E+00  0.45593999997E+02  0.45594000000E+02  0.51100000000E-03 0.  1.
         11   -1    0    0    0    0 -0.00000000000E+00 -0.00000000000E+00 -0.45593999997E+02  0.45594000000E+02  0.51100000000E-03 0. -1.
    9900012    2    1    2    0    0  0.13517586520E+02 -0.97792247942E+01  0.85041207879E+01  0.72461589418E+02  0.70000024913E+02 0.  0.
         12    1    1    2    0    0 -0.13517586520E+02  0.97792247942E+01 -0.85041207879E+01  0.18726410582E+02  0.00000000000E+00 0. -1.
         11    1    3    3    0    0  0.23364083171E+02  0.24428055681E+00  0.36842518101E+01  0.23654043355E+02  0.51100000000E-03 0. -1.
        -11    1    3    3    0    0 -0.12807222807E+01 -0.25022284316E+02  0.14559705816E+02  0.28978267644E+02  0.51100000000E-03 0.  1.
         12    1    3    3    0    0 -0.85657743700E+01  0.14998778965E+02 -0.97398368383E+01  0.19829278419E+02  0.00000000000E+00 0. -1.
</event>
<event>
 7    1  0.2797450E-013  0.7246156E+02  0.7816164E-02  0.1226708E+00
        -11   -1    0    0    0    0  0.00000000000E+00  0.00000000000E+00  0.45593999997E+02  0.45594000000E+02  0.51100000000E-03 0.  1.
         11   -1    0    0    0    0 -0.00000000000E+00 -0.00000000000E+00 -0.45593999997E+02  0.45594000000E+02  0.51100000000E-03 0. -1.
    9900012    2    1    2    0    0 -0.14251784709E+02  0.72794566273E+01 -0.97250091316E+01  0.72461557231E+02  0.69999982983E+02 0.  0.
         12    1    1    2    0    0  0.14251784709E+02 -0.72794566273E+01  0.97250091316E+01  0.18726442769E+02  0.00000000000E+00 0. -1.
         11    1    3    3    0    0 -0.63895074337E+01  0.11391407734E+02 -0.13960947247E+01  0.13135412295E+02  0.51100000000E-03 0. -1.
        -11    1    3    3    0    0  0.19557187061E+02 -0.10973073350E+02  0.11105593842E+02  0.25024510372E+02  0.51100000000E-03 0.  1.
         12    1    3    3    0    0 -0.27419464336E+02  0.68611222429E+01 -0.19434508249E+02  0.34301634565E+02  0.00000000000E+00 0. -1.
</event>
<event>
 7    1  0.2797450E-013  0.7246158E+02  0.7816164E-02  0.1226708E+00
        -11   -1    0    0    0    0  0.00000000000E+00  0.00000000000E+00  0.45593999997E+02  0.45594000000E+02  0.51100000000E-03 0.  1.
         11   -1    0    0    0    0 -0.00000000000E+00 -0.00000000000E+00 -0.45593999997E+02  0.45594000000E+02  0.51100000000E-03 0. -1.
    9900012    2    1    2    0    0  0.12773043798E+02 -0.46661751583E+01  0.12874587801E+02  0.72461578839E+02  0.70000011131E+02 0.  0.
         12    1    1    2    0    0 -0.12773043798E+02  0.46661751583E+01 -0.12874587801E+02  0.18726421161E+02  0.00000000000E+00 0. -1.
         11    1    3    3    0    0  0.26187023158E+02 -0.89825989865E+01 -0.10459454041E+02  0.29594719892E+02  0.51100000000E-03 0. -1.
        -11    1    3    3    0    0 -0.42106292684E+01 -0.13257351422E+02  0.25623214121E+01  0.14143983062E+02  0.51100000000E-03 0.  1.
        -12    1    3    3    0    0 -0.92033500918E+01  0.17573775250E+02  0.20771720430E+02  0.28722875885E+02  0.00000000000E+00 0.  1.
</event>
<event>
 7    1  0.2797450E-013  0.7246155E+02  0.7816164E-02  0.1226708E+00
        -11   -1    0    0    0    0  0.00000000000E+00  0.00000000000E+00  0.45593999997E+02  0.45594000000E+02  0.51100000000E-03 0. -1.
         11   -1    0    0    0    0 -0.00000000000E+00 -0.00000000000E+00 -0.45593999997E+02  0.45594000000E+02  0.51100000000E-03 0.  1.
    9900012    2    1    2    0    0 -0.45811920040E+01 -0.13621946466E+02 -0.12005635777E+02  0.72461547156E+02  0.69999969858E+02 0.  0.
         12    1    1    2    0    0  0.45811920040E+01  0.13621946466E+02  0.12005635777E+02  0.18726452844E+02  0.00000000000E+00 0. -1.
         11    1    3    3    0    0 -0.71050489411E+01  0.41883034959E+01 -0.85039198996E+00  0.82913674039E+01  0.51100000000E-03 0. -1.
        -11    1    3    3    0    0 -0.25253326477E+02 -0.57085750494E+01 -0.19877329220E+02  0.32640872299E+02  0.51100000000E-03 0.  1.
        -12    1    3    3    0    0  0.27777183414E+02 -0.12101674913E+02  0.87220854328E+01  0.31529307452E+02  0.00000000000E+00 0.  1.
</event>
<event>
 7    1  0.2797450E-013  0.7246163E+02  0.7816164E-02  0.1226708E+00
        -11   -1    0    0    0    0  0.00000000000E+00  0.00000000000E+00  0.45593999997E+02  0.45594000000E+02  0.51100000000E-03 0.  1.
         11   -1    0    0    0    0 -0.00000000000E+00 -0.00000000000E+00 -0.45593999997E+02  0.45594000000E+02  0.51100000000E-03 0. -1.
    9900012    2    1    2    0    0 -0.29459540829E+01 -0.16811040232E+02  0.77063044942E+01  0.72461632277E+02  0.70000080743E+02 0.  0.
         12    1    1    2    0    0  0.29459540829E+01  0.16811040232E+02 -0.77063044942E+01  0.18726367723E+02  0.00000000000E+00 0. -1.
         11    1    3    3    0    0 -0.15517450694E+01 -0.57051426637E+01 -0.73131777418E+01  0.94042083408E+01  0.51100000000E-03 0. -1.
        -11    1    3    3    0    0  0.22194980879E+02  0.24274203136E+01 -0.11462942461E+02  0.25097979913E+02  0.51100000000E-03 0.  1.
         12    1    3    3    0    0 -0.23589189892E+02 -0.13533317882E+02  0.26482424697E+02  0.37959444023E+02  0.00000000000E+00 0. -1.
</event>
<event>
 7    1  0.2797450E-013  0.7246158E+02  0.7816164E-02  0.1226708E+00
        -11   -1    0    0    0    0  0.00000000000E+00  0.00000000000E+00  0.45593999997E+02  0.45594000000E+02  0.51100000000E-03 0.  1.
         11   -1    0    0    0    0 -0.00000000000E+00 -0.00000000000E+00 -0.45593999997E+02  0.45594000000E+02  0.51100000000E-03 0. -1.
    9900012    2    1    2    0    0  0.98028546099E+01  0.14679120757E+02 -0.62534873405E+01  0.72461584203E+02  0.70000018118E+02 0.  0.
         12    1    1    2    0    0 -0.98028546099E+01 -0.14679120757E+02  0.62534873405E+01  0.18726415797E+02  0.00000000000E+00 0. -1.
         11    1    3    3    0    0  0.62262101892E+01  0.66390416980E+01 -0.90477258995E+01  0.12833702202E+02  0.51100000000E-03 0. -1.
        -11    1    3    3    0    0 -0.15285828504E+02  0.22438745508E+02 -0.14008360726E+02  0.30551399698E+02  0.51100000000E-03 0.  1.
        -12    1    3    3    0    0  0.18862472925E+02 -0.14398666450E+02  0.16802599285E+02  0.29076482303E+02  0.00000000000E+00 0.  1.
</event>
<event>
 7    1  0.2797450E-013  0.7246153E+02  0.7816164E-02  0.1226708E+00
        -11   -1    0    0    0    0  0.00000000000E+00  0.00000000000E+00  0.45593999997E+02  0.45594000000E+02  0.51100000000E-03 0.  1.
         11   -1    0    0    0    0 -0.00000000000E+00 -0.00000000000E+00 -0.45593999997E+02  0.45594000000E+02  0.51100000000E-03 0. -1.
    9900012    2    1    2    0    0 -0.16356957872E+02  0.87338459400E+01  0.26173739308E+01  0.72461527240E+02  0.69999943914E+02 0.  0.
         12    1    1    2    0    0  0.16356957872E+02 -0.87338459400E+01 -0.26173739308E+01  0.18726472760E+02  0.00000000000E+00 0. -1.
         11    1    3    3    0    0  0.64580935557E+01 -0.21479822778E+01 -0.82691583178E+01  0.10709798307E+02  0.51100000000E-03 0. -1.
        -11    1    3    3    0    0  0.62991660502E+01  0.18880784122E+02 -0.12550003147E+02  0.23530110099E+02  0.51100000000E-03 0.  1.
        -12    1    3    3    0    0 -0.29114217478E+02 -0.79989559046E+01  0.23436535396E+02  0.38221618834E+02  0.00000000000E+00 0.  1.
</event>
<event>
 7    1  0.2797450E-013  0.7246159E+02  0.7816164E-02  0.1226708E+00
        -11   -1    0    0    0    0  0.00000000000E+00  0.00000000000E+00  0.45593999997E+02  0.45594000000E+02  0.51100000000E-03 0. -1.
         11   -1    0    0    0    0 -0.00000000000E+00 -0.00000000000E+00 -0.45593999997E+02  0.45594000000E+02  0.51100000000E-03 0.  1.
    9900012    2    1    2    0    0  0.13901087699E+02 -0.71963537563E+01  0.10278659581E+02  0.72461585784E+02  0.70000020179E+02 0.  0.
         12    1    1    2    0    0 -0.13901087699E+02  0.71963537563E+01 -0.10278659581E+02  0.18726414216E+02  0.00000000000E+00 0. -1.
         11    1    3    3    0    0  0.34865343321E+01  0.17249021454E+02  0.90482057459E+01  0.19787740908E+02  0.51100000000E-03 0. -1.
        -11    1    3    3    0    0  0.71794359146E+01 -0.18400431316E+02 -0.21344296775E+02  0.29080907444E+02  0.51100000000E-03 0.  1.
         12    1    3    3    0    0  0.32351174522E+01 -0.60449438940E+01  0.22574750610E+02  0.23592937433E+02  0.00000000000E+00 0. -1.
</event>
<event>
 7    1  0.2797450E-013  0.7246149E+02  0.7816164E-02  0.1226708E+00
        -11   -1    0    0    0    0  0.00000000000E+00  0.00000000000E+00  0.45593999997E+02  0.45594000000E+02  0.51100000000E-03 0.  1.
         11   -1    0    0    0    0 -0.00000000000E+00 -0.00000000000E+00 -0.45593999997E+02  0.45594000000E+02  0.51100000000E-03 0. -1.
    9900012    2    1    2    0    0  0.36124328374E+01 -0.16347017095E+02  0.83909282584E+01  0.72461486284E+02  0.69999890561E+02 0.  0.
         12    1    1    2    0    0 -0.36124328374E+01  0.16347017095E+02 -0.83909282584E+01  0.18726513716E+02  0.00000000000E+00 0. -1.
         11    1    3    3    0    0 -0.23500338902E+02  0.15064642544E+01 -0.13377911248E+02  0.27083276624E+02  0.51100000000E-03 0. -1.
        -11    1    3    3    0    0  0.89326080674E+01 -0.31655365309E+01 -0.42648861873E+01  0.10392370416E+02  0.51100000000E-03 0.  1.
        -12    1    3    3    0    0  0.18180163672E+02 -0.14687944818E+02  0.26033725694E+02  0.34985839244E+02  0.00000000000E+00 0.  1.
</event>
<event>
 7    1  0.2797450E-013  0.7246119E+02  0.7816164E-02  0.1226709E+00
        -11   -1    0    0    0    0  0.00000000000E+00  0.00000000000E+00  0.45593999997E+02  0.45594000000E+02  0.51100000000E-03 0.  1.
         11   -1    0    0    0    0 -0.00000000000E+00 -0.00000000000E+00 -0.45593999997E+02  0.45594000000E+02  0.51100000000E-03 0. -1.
    9900012    2    1    2    0    0  0.92882578464E+01  0.14294383782E+02  0.77519084146E+01  0.72461194997E+02  0.69999511104E+02 0.  0.
         12    1    1    2    0    0 -0.92882578464E+01 -0.14294383782E+02 -0.77519084146E+01  0.18726805003E+02  0.00000000000E+00 0. -1.
         11    1    3    3    0    0  0.20035477230E+01  0.44380331735E+01 -0.15985329293E+02  0.16710508514E+02  0.51100000000E-03 0. -1.
        -11    1    3    3    0    0  0.22099170691E+02 -0.10919310177E+02  0.14591052177E+02  0.28644431988E+02  0.51100000000E-03 0.  1.
        -12    1    3    3    0    0 -0.14814460568E+02  0.20775660786E+02  0.91461855306E+01  0.27106254495E+02  0.00000000000E+00 0.  1.
</event>
<event>
 7    1  0.2797450E-013  0.7246160E+02  0.7816164E-02  0.1226708E+00
        -11   -1    0    0    0    0  0.00000000000E+00  0.00000000000E+00  0.45593999997E+02  0.45594000000E+02  0.51100000000E-03 0.  1.
         11   -1    0    0    0    0 -0.00000000000E+00 -0.00000000000E+00 -0.45593999997E+02  0.45594000000E+02  0.51100000000E-03 0. -1.
    9900012    2    1    2    0    0  0.18635372336E+02  0.15334891651E+01  0.10244551777E+01  0.72461596193E+02  0.70000033738E+02 0.  0.
         12    1    1    2    0    0 -0.18635372336E+02 -0.15334891651E+01 -0.10244551777E+01  0.18726403807E+02  0.00000000000E+00 0. -1.
         11    1    3    3    0    0  0.36801352854E+02 -0.78444340670E+01 -0.58867775870E+01  0.38085809278E+02  0.51100000000E-03 0. -1.
        -11    1    3    3    0    0 -0.58111251769E+01 -0.33024986283E+01 -0.85625979315E+01  0.10862493112E+02  0.51100000000E-03 0.  1.
        -12    1    3    3    0    0 -0.12354855341E+02  0.12680421860E+02  0.15473830696E+02  0.23513293803E+02  0.00000000000E+00 0.  1.
</event>
<event>
 7    1  0.2797450E-013  0.7246153E+02  0.7816164E-02  0.1226708E+00
        -11   -1    0    0    0    0  0.00000000000E+00  0.00000000000E+00  0.45593999997E+02  0.45594000000E+02  0.51100000000E-03 0.  1.
         11   -1    0    0    0    0 -0.00000000000E+00 -0.00000000000E+00 -0.45593999997E+02  0.45594000000E+02  0.51100000000E-03 0. -1.
    9900012    2    1    2    0    0 -0.55638358139E+00 -0.77781625602E+01  0.17025609439E+02  0.72461528035E+02  0.69999944949E+02 0.  0.
         12    1    1    2    0    0  0.55638358139E+00  0.77781625602E+01 -0.17025609439E+02  0.18726471965E+02  0.00000000000E+00 0. -1.
         11    1    3    3    0    0 -0.95112815928E+01 -0.10161043046E+02  0.12895209965E+02  0.18973605710E+02  0.51100000000E-03 0. -1.
        -11    1    3    3    0    0 -0.12956922027E+02  0.66403932478E+01  0.20968597922E+02  0.25527607604E+02  0.51100000000E-03 0.  1.
         12    1    3    3    0    0  0.21911820039E+02 -0.42575127620E+01 -0.16838198448E+02  0.27960314721E+02  0.00000000000E+00 0. -1.
</event>
<event>
 7    1  0.2797450E-013  0.7246158E+02  0.7816164E-02  0.1226708E+00
        -11   -1    0    0    0    0  0.00000000000E+00  0.00000000000E+00  0.45593999997E+02  0.45594000000E+02  0.51100000000E-03 0.  1.
         11   -1    0    0    0    0 -0.00000000000E+00 -0.00000000000E+00 -0.45593999997E+02  0.45594000000E+02  0.51100000000E-03 0. -1.
    9900012    2    1    2    0    0  0.18480512156E+02 -0.10129437862E+01 -0.28501333276E+01  0.72461584309E+02  0.70000018256E+02 0.  0.
         12    1    1    2    0    0 -0.18480512156E+02  0.10129437862E+01  0.28501333276E+01  0.18726415691E+02  0.00000000000E+00 0. -1.
         11    1    3    3    0    0 -0.16556575012E+02  0.22161773240E+01 -0.38228206556E+01  0.17136089872E+02  0.51100000000E-03 0. -1.
        -11    1    3    3    0    0  0.48216543551E+01 -0.18977459305E+02  0.68601766235E+01  0.20747393474E+02  0.51100000000E-03 0.  1.
         12    1    3    3    0    0  0.30215432813E+02  0.15748338195E+02 -0.58874892955E+01  0.34578100963E+02  0.00000000000E+00 0. -1.
</event>
<event>
 7    1  0.2797450E-013  0.7246132E+02  0.7816164E-02  0.1226709E+00
        -11   -1    0    0    0    0  0.00000000000E+00  0.00000000000E+00  0.45593999997E+02  0.45594000000E+02  0.51100000000E-03 0. -1.
         11   -1    0    0    0    0 -0.00000000000E+00 -0.00000000000E+00 -0.45593999997E+02  0.45594000000E+02  0.51100000000E-03 0.  1.
    9900012    2    1    2    0    0  0.54177056549E+01 -0.16572408328E+01 -0.17849108187E+02  0.72461317304E+02  0.69999670432E+02 0.  0.
         12    1    1    2    0    0 -0.54177056549E+01  0.16572408328E+01  0.17849108187E+02  0.18726682696E+02  0.00000000000E+00 0. -1.
         11    1    3    3    0    0 -0.98845852467E+01 -0.95099891678E+01 -0.57192682827E+01  0.14861189368E+02  0.51100000000E-03 0. -1.
        -11    1    3    3    0    0  0.94127892276E+01 -0.40009567279E+01 -0.32072968675E+02  0.33664277442E+02  0.51100000000E-03 0.  1.
         12    1    3    3    0    0  0.58895016740E+01  0.11853705063E+02  0.19943128772E+02  0.23935850494E+02  0.00000000000E+00 0. -1.
</event>
<event>
 7    1  0.2797450E-013  0.7246158E+02  0.7816164E-02  0.1226708E+00
        -11   -1    0    0    0    0  0.00000000000E+00  0.00000000000E+00  0.45593999997E+02  0.45594000000E+02  0.51100000000E-03 0. -1.
         11   -1    0    0    0    0 -0.00000000000E+00 -0.00000000000E+00 -0.45593999997E+02  0.45594000000E+02  0.51100000000E-03 0.  1.
    9900012    2    1    2    0    0 -0.13583679729E+02 -0.39835552131E+01 -0.12259438462E+02  0.72461577531E+02  0.70000009427E+02 0.  0.
         12    1    1    2    0    0  0.13583679729E+02  0.39835552131E+01  0.12259438462E+02  0.18726422469E+02  0.00000000000E+00 0. -1.
         11    1    3    3    0    0 -0.90737950525E+01 -0.67188267351E+01 -0.15864953249E+01  0.11401462934E+02  0.51100000000E-03 0. -1.
        -11    1    3    3    0    0 -0.28958133345E+02  0.97674343250E+01  0.53064901817E+01  0.31018302637E+02  0.51100000000E-03 0.  1.
         12    1    3    3    0    0  0.24448248669E+02 -0.70321628030E+01 -0.15979433319E+02  0.30041811960E+02  0.00000000000E+00 0. -1.
</event>
<event>
 7    1  0.2797450E-013  0.7246158E+02  0.7816164E-02  0.1226708E+00
        -11   -1    0    0    0    0  0.00000000000E+00  0.00000000000E+00  0.45593999997E+02  0.45594000000E+02  0.51100000000E-03 0.  1.
         11   -1    0    0    0    0 -0.00000000000E+00 -0.00000000000E+00 -0.45593999997E+02  0.45594000000E+02  0.51100000000E-03 0. -1.
    9900012    2    1    2    0    0  0.52514180208E+01 -0.32715743093E+01  0.17674785635E+02  0.72461584514E+02  0.70000018524E+02 0.  0.
         12    1    1    2    0    0 -0.52514180208E+01  0.32715743093E+01 -0.17674785635E+02  0.18726415486E+02  0.00000000000E+00 0. -1.
         11    1    3    3    0    0  0.17540673196E+02 -0.23158383940E+02  0.70610210521E+01  0.29897223641E+02  0.51100000000E-03 0. -1.
        -11    1    3    3    0    0  0.11401725546E+02  0.24266502416E+01  0.14859315576E+01  0.11751424155E+02  0.51100000000E-03 0.  1.
        -12    1    3    3    0    0 -0.23690980721E+02  0.17460159389E+02  0.91278330255E+01  0.30812936718E+02  0.00000000000E+00 0.  1.
</event>
<event>
 7    1  0.2797450E-013  0.7246147E+02  0.7816164E-02  0.1226708E+00
        -11   -1    0    0    0    0  0.00000000000E+00  0.00000000000E+00  0.45593999997E+02  0.45594000000E+02  0.51100000000E-03 0. -1.
         11   -1    0    0    0    0 -0.00000000000E+00 -0.00000000000E+00 -0.45593999997E+02  0.45594000000E+02  0.51100000000E-03 0.  1.
    9900012    2    1    2    0    0 -0.88905185981E+01  0.64261334236E+01 -0.15177171300E+02  0.72461466941E+02  0.69999865363E+02 0.  0.
         12    1    1    2    0    0  0.88905185981E+01 -0.64261334236E+01  0.15177171300E+02  0.18726533059E+02  0.00000000000E+00 0. -1.
         11    1    3    3    0    0  0.45369851042E+01 -0.68633895060E+01 -0.19816584638E+01  0.84627016889E+01  0.51100000000E-03 0. -1.
        -11    1    3    3    0    0 -0.11304069572E+02  0.14277279181E+02 -0.36386903875E+02  0.40689426926E+02  0.51100000000E-03 0.  1.
         12    1    3    3    0    0 -0.21234341299E+01 -0.98775625183E+00  0.23191391038E+02  0.23309338326E+02  0.00000000000E+00 0. -1.
</event>
<event>
 7    1  0.2797450E-013  0.7246157E+02  0.7816164E-02  0.1226708E+00
        -11   -1    0    0    0    0  0.00000000000E+00  0.00000000000E+00  0.45593999997E+02  0.45594000000E+02  0.51100000000E-03 0. -1.
         11   -1    0    0    0    0 -0.00000000000E+00 -0.00000000000E+00 -0.45593999997E+02  0.45594000000E+02  0.51100000000E-03 0.  1.
    9900012    2    1    2    0    0  0.99517933838E+01  0.69800141800E+01 -0.14245006830E+02  0.72461574578E+02  0.70000005580E+02 0.  0.
         12    1    1    2    0    0 -0.99517933838E+01 -0.69800141800E+01  0.14245006830E+02  0.18726425422E+02  0.00000000000E+00 0. -1.
         11    1    3    3    0    0 -0.24918477179E+02  0.21972294480E+01 -0.30563903716E+01  0.25201187363E+02  0.51100000000E-03 0. -1.
        -11    1    3    3    0    0  0.36279389446E+00 -0.88017471107E+01 -0.15677003331E+01  0.89476285242E+01  0.51100000000E-03 0.  1.
        -12    1    3    3    0    0  0.34507476668E+02  0.13584531843E+02 -0.96209161251E+01  0.38312758690E+02  0.00000000000E+00 0.  1.
</event>
<event>
 7    1  0.2797450E-013  0.7246159E+02  0.7816164E-02  0.1226708E+00
        -11   -1    0    0    0    0  0.00000000000E+00  0.00000000000E+00  0.45593999997E+02  0.45594000000E+02  0.51100000000E-03 0.  1.
         11   -1    0    0    0    0 -0.00000000000E+00 -0.00000000000E+00 -0.45593999997E+02  0.45594000000E+02  0.51100000000E-03 0. -1.
    9900012    2    1    2    0    0 -0.13198850247E+02  0.37926335585E+01  0.12731251490E+02  0.72461588661E+02  0.70000023926E+02 0.  0.
         12    1    1    2    0    0  0.13198850247E+02 -0.37926335585E+01 -0.12731251490E+02  0.18726411339E+02  0.00000000000E+00 0. -1.
         11    1    3    3    0    0 -0.12916381504E+02  0.59737968836E+01  0.56998877577E+01  0.15329966767E+02  0.51100000000E-03 0. -1.
        -11    1    3    3    0    0 -0.22070928152E+02  0.14217817958E+02  0.12877026809E+02  0.29241922589E+02  0.51100000000E-03 0.  1.
         12    1    3    3    0    0  0.21788459409E+02 -0.16398981283E+02 -0.58456630764E+01  0.27889699306E+02  0.00000000000E+00 0. -1.
</event>
<event>
 7    1  0.2797450E-013  0.7246159E+02  0.7816164E-02  0.1226708E+00
        -11   -1    0    0    0    0  0.00000000000E+00  0.00000000000E+00  0.45593999997E+02  0.45594000000E+02  0.51100000000E-03 0. -1.
         11   -1    0    0    0    0 -0.00000000000E+00 -0.00000000000E+00 -0.45593999997E+02  0.45594000000E+02  0.51100000000E-03 0.  1.
    9900012    2    1    2    0    0  0.21694231494E+01  0.14427996713E+02 -0.11739042922E+02  0.72461585109E+02  0.70000019298E+02 0.  0.
         12    1    1    2    0    0 -0.21694231494E+01 -0.14427996713E+02  0.11739042922E+02  0.18726414891E+02  0.00000000000E+00 0. -1.
         11    1    3    3    0    0 -0.26658825492E+02  0.13457193190E+02  0.79523410903E+01  0.30903539510E+02  0.51100000000E-03 0. -1.
        -11    1    3    3    0    0 -0.25056438317E+01  0.24496382468E-01 -0.75258417250E+01  0.79320328425E+01  0.51100000000E-03 0.  1.
         12    1    3    3    0    0  0.31333892473E+02  0.94630714087E+00 -0.12165542287E+02  0.33626012756E+02  0.00000000000E+00 0. -1.
</event>
<event>
 7    1  0.2797450E-013  0.7246158E+02  0.7816164E-02  0.1226708E+00
        -11   -1    0    0    0    0  0.00000000000E+00  0.00000000000E+00  0.45593999997E+02  0.45594000000E+02  0.51100000000E-03 0.  1.
         11   -1    0    0    0    0 -0.00000000000E+00 -0.00000000000E+00 -0.45593999997E+02  0.45594000000E+02  0.51100000000E-03 0. -1.
    9900012    2    1    2    0    0 -0.14489044584E+02  0.24296115155E+01  0.11612202410E+02  0.72461583634E+02  0.70000017378E+02 0.  0.
         12    1    1    2    0    0  0.14489044584E+02 -0.24296115155E+01 -0.11612202410E+02  0.18726416366E+02  0.00000000000E+00 0. -1.
         11    1    3    3    0    0 -0.12507553408E+02 -0.18829591392E+02  0.12731523895E+02  0.25943864500E+02  0.51100000000E-03 0. -1.
        -11    1    3    3    0    0  0.73065791934E+01 -0.67586238844E+01 -0.11517724941E+02  0.15222453298E+02  0.51100000000E-03 0.  1.
         12    1    3    3    0    0 -0.92880703690E+01  0.28017826792E+02  0.10398403457E+02  0.31295265837E+02  0.00000000000E+00 0. -1.
</event>
<event>
 7    1  0.2797450E-013  0.7246160E+02  0.7816164E-02  0.1226708E+00
        -11   -1    0    0    0    0  0.00000000000E+00  0.00000000000E+00  0.45593999997E+02  0.45594000000E+02  0.51100000000E-03 0.  1.
         11   -1    0    0    0    0 -0.00000000000E+00 -0.00000000000E+00 -0.45593999997E+02  0.45594000000E+02  0.51100000000E-03 0. -1.
    9900012    2    1    2    0    0 -0.15392967567E+02 -0.10661947791E+02  0.23938092309E+00  0.72461604606E+02  0.70000044698E+02 0.  0.
         12    1    1    2    0    0  0.15392967567E+02  0.10661947791E+02 -0.23938092309E+00  0.18726395394E+02  0.00000000000E+00 0. -1.
         11    1    3    3    0    0  0.12550932225E+02 -0.70770155183E+01 -0.12007032928E+02  0.18755769469E+02  0.51100000000E-03 0. -1.
        -11    1    3    3    0    0 -0.23326183329E+02 -0.13191598187E+02 -0.10345621264E+02  0.28725615242E+02  0.51100000000E-03 0.  1.
        -12    1    3    3    0    0 -0.46177164635E+01  0.96066659147E+01  0.22592035116E+02  0.24980219895E+02  0.00000000000E+00 0.  1.
</event>
<event>
 7    1  0.2797450E-013  0.7246156E+02  0.7816164E-02  0.1226708E+00
        -11   -1    0    0    0    0  0.00000000000E+00  0.00000000000E+00  0.45593999997E+02  0.45594000000E+02  0.51100000000E-03 0. -1.
         11   -1    0    0    0    0 -0.00000000000E+00 -0.00000000000E+00 -0.45593999997E+02  0.45594000000E+02  0.51100000000E-03 0.  1.
    9900012    2    1    2    0    0 -0.70337247300E+00 -0.12397275639E+02 -0.14017574654E+02  0.72461559460E+02  0.69999985886E+02 0.  0.
         12    1    1    2    0    0  0.70337247300E+00  0.12397275639E+02  0.14017574654E+02  0.18726440540E+02  0.00000000000E+00 0. -1.
         11    1    3    3    0    0  0.13460346554E+02 -0.83109051925E+01  0.16422226970E+02  0.22802228255E+02  0.51100000000E-03 0. -1.
        -11    1    3    3    0    0 -0.86455161988E+01  0.15869388054E+02 -0.10428920639E+02  0.20864918248E+02  0.51100000000E-03 0.  1.
        -12    1    3    3    0    0 -0.55182028282E+01 -0.19955758500E+02 -0.20010880985E+02  0.28794412957E+02  0.00000000000E+00 0.  1.
</event>
<event>
 7    1  0.2797450E-013  0.7246156E+02  0.7816164E-02  0.1226708E+00
        -11   -1    0    0    0    0  0.00000000000E+00  0.00000000000E+00  0.45593999997E+02  0.45594000000E+02  0.51100000000E-03 0.  1.
         11   -1    0    0    0    0 -0.00000000000E+00 -0.00000000000E+00 -0.45593999997E+02  0.45594000000E+02  0.51100000000E-03 0. -1.
    9900012    2    1    2    0    0  0.23874703108E+01 -0.42693480134E+01  0.18076287504E+02  0.72461561020E+02  0.69999987918E+02 0.  0.
         12    1    1    2    0    0 -0.23874703108E+01  0.42693480134E+01 -0.18076287504E+02  0.18726438980E+02  0.00000000000E+00 0. -1.
         11    1    3    3    0    0  0.74232027256E+00 -0.36475032677E+01  0.12032775864E+02  0.12595356872E+02  0.51100000000E-03 0. -1.
        -11    1    3    3    0    0 -0.78512668185E+01  0.22340509606E+02  0.20324474908E+02  0.31206169913E+02  0.51100000000E-03 0.  1.
         12    1    3    3    0    0  0.94964168567E+01 -0.22962354352E+02 -0.14280963268E+02  0.28660034235E+02  0.00000000000E+00 0. -1.
</event>
<event>
 7    1  0.2797450E-013  0.7246156E+02  0.7816164E-02  0.1226708E+00
        -11   -1    0    0    0    0  0.00000000000E+00  0.00000000000E+00  0.45593999997E+02  0.45594000000E+02  0.51100000000E-03 0.  1.
         11   -1    0    0    0    0 -0.00000000000E+00 -0.00000000000E+00 -0.45593999997E+02  0.45594000000E+02  0.51100000000E-03 0. -1.
    9900012    2    1    2    0    0 -0.21655382446E+01 -0.10108907997E+02  0.15614094894E+02  0.72461560506E+02  0.69999987248E+02 0.  0.
         12    1    1    2    0    0  0.21655382446E+01  0.10108907997E+02 -0.15614094894E+02  0.18726439494E+02  0.00000000000E+00 0. -1.
         11    1    3    3    0    0  0.43338318043E+01 -0.23589168769E+01  0.53660921504E+01  0.72898238777E+01  0.51100000000E-03 0. -1.
        -11    1    3    3    0    0 -0.11884120007E+02  0.72073877270E+01  0.33920006481E+02  0.36657135542E+02  0.51100000000E-03 0.  1.
         12    1    3    3    0    0  0.53847499582E+01 -0.14957378848E+02 -0.23672003738E+02  0.28514601086E+02  0.00000000000E+00 0. -1.
</event>
<event>
 7    1  0.2797450E-013  0.7246149E+02  0.7816164E-02  0.1226708E+00
        -11   -1    0    0    0    0  0.00000000000E+00  0.00000000000E+00  0.45593999997E+02  0.45594000000E+02  0.51100000000E-03 0.  1.
         11   -1    0    0    0    0 -0.00000000000E+00 -0.00000000000E+00 -0.45593999997E+02  0.45594000000E+02  0.51100000000E-03 0. -1.
    9900012    2    1    2    0    0  0.10516524836E+01 -0.64896755500E+01  0.17534546855E+02  0.72461489511E+02  0.69999894764E+02 0.  0.
         12    1    1    2    0    0 -0.10516524836E+01  0.64896755500E+01 -0.17534546855E+02  0.18726510489E+02  0.00000000000E+00 0. -1.
         11    1    3    3    0    0 -0.49531099924E+01 -0.72699308314E+01 -0.12088462020E+02  0.14950455082E+02  0.51100000000E-03 0. -1.
        -11    1    3    3    0    0  0.40901422412E+00 -0.11908725373E+02 -0.99844579383E+01  0.15545881552E+02  0.51100000000E-03 0.  1.
         12    1    3    3    0    0  0.55957482519E+01  0.12688980654E+02  0.39607466814E+02  0.41965152876E+02  0.00000000000E+00 0. -1.
</event>
<event>
 7    1  0.2797450E-013  0.7246160E+02  0.7816164E-02  0.1226708E+00
        -11   -1    0    0    0    0  0.00000000000E+00  0.00000000000E+00  0.45593999997E+02  0.45594000000E+02  0.51100000000E-03 0.  1.
         11   -1    0    0    0    0 -0.00000000000E+00 -0.00000000000E+00 -0.45593999997E+02  0.45594000000E+02  0.51100000000E-03 0. -1.
    9900012    2    1    2    0    0  0.17097604795E+02  0.54084588425E+01  0.53942911316E+01  0.72461604362E+02  0.70000044380E+02 0.  0.
         12    1    1    2    0    0 -0.17097604795E+02 -0.54084588425E+01 -0.53942911316E+01  0.18726395638E+02  0.00000000000E+00 0. -1.
         11    1    3    3    0    0 -0.18069925210E+01 -0.10988504511E+02 -0.17481190313E+02  0.20726902045E+02  0.51100000000E-03 0. -1.
        -11    1    3    3    0    0  0.87181899493E+01 -0.10684835781E+02  0.17541204889E+02  0.22312920492E+02  0.51100000000E-03 0.  1.
        -12    1    3    3    0    0  0.10186407366E+02  0.27081799134E+02  0.53342765560E+01  0.29421781825E+02  0.00000000000E+00 0.  1.
</event>
<event>
 7    1  0.2797450E-013  0.7246153E+02  0.7816164E-02  0.1226708E+00
        -11   -1    0    0    0    0  0.00000000000E+00  0.00000000000E+00  0.45593999997E+02  0.45594000000E+02  0.51100000000E-03 0.  1.
         11   -1    0    0    0    0 -0.00000000000E+00 -0.00000000000E+00 -0.45593999997E+02  0.45594000000E+02  0.51100000000E-03 0. -1.
    9900012    2    1    2    0    0 -0.14724723218E+02  0.54867526608E+01  0.10186194858E+02  0.72461534922E+02  0.69999953922E+02 0.  0.
         12    1    1    2    0    0  0.14724723218E+02 -0.54867526608E+01 -0.10186194858E+02  0.18726465078E+02  0.00000000000E+00 0. -1.
         11    1    3    3    0    0  0.16461697588E+02 -0.18356478400E+02  0.73021591642E+01  0.25715157309E+02  0.51100000000E-03 0. -1.
        -11    1    3    3    0    0  0.42241996470E+01  0.18803222090E+01 -0.14674480215E+01  0.48510698020E+01  0.51100000000E-03 0.  1.
        -12    1    3    3    0    0 -0.35410620453E+02  0.21962908851E+02  0.43514837151E+01  0.41895307811E+02  0.00000000000E+00 0.  1.
</event>
<event>
 7    1  0.2797450E-013  0.7246156E+02  0.7816164E-02  0.1226708E+00
        -11   -1    0    0    0    0  0.00000000000E+00  0.00000000000E+00  0.45593999997E+02  0.45594000000E+02  0.51100000000E-03 0. -1.
         11   -1    0    0    0    0 -0.00000000000E+00 -0.00000000000E+00 -0.45593999997E+02  0.45594000000E+02  0.51100000000E-03 0.  1.
    9900012    2    1    2    0    0 -0.84506116733E+01 -0.12130523633E+02 -0.11494221559E+02  0.72461559588E+02  0.69999986053E+02 0.  0.
         12    1    1    2    0    0  0.84506116733E+01  0.12130523633E+02  0.11494221559E+02  0.18726440412E+02  0.00000000000E+00 0. -1.
         11    1    3    3    0    0 -0.12926039747E+02 -0.19066974184E+00 -0.25866060539E+02  0.28916637885E+02  0.51100000000E-03 0.  1.
        -11    1    3    3    0    0  0.39533001168E+01  0.11682583896E+02 -0.46811716492E+01  0.13191842804E+02  0.51100000000E-03 0. -1.
        -12    1    3    3    0    0  0.52212795702E+00 -0.23622437787E+02  0.19053010629E+02  0.30353078899E+02  0.00000000000E+00 0.  1.
</event>
<event>
 7    1  0.2797450E-013  0.7246158E+02  0.7816164E-02  0.1226708E+00
        -11   -1    0    0    0    0  0.00000000000E+00  0.00000000000E+00  0.45593999997E+02  0.45594000000E+02  0.51100000000E-03 0.  1.
         11   -1    0    0    0    0 -0.00000000000E+00 -0.00000000000E+00 -0.45593999997E+02  0.45594000000E+02  0.51100000000E-03 0. -1.
    9900012    2    1    2    0    0  0.17336317239E+01 -0.14262595485E+02  0.12010488178E+02  0.72461576550E+02  0.70000008150E+02 0.  0.
         12    1    1    2    0    0 -0.17336317239E+01  0.14262595485E+02 -0.12010488178E+02  0.18726423450E+02  0.00000000000E+00 0. -1.
         11    1    3    3    0    0  0.94544653148E+00 -0.69437629980E+01  0.78680292801E+01  0.10536394010E+02  0.51100000000E-03 0. -1.
        -11    1    3    3    0    0 -0.22309935933E+02  0.48611362837E+01  0.20853515510E+02  0.30923017264E+02  0.51100000000E-03 0.  1.
         12    1    3    3    0    0  0.23098121125E+02 -0.12179968771E+02 -0.16711056612E+02  0.31002165277E+02  0.00000000000E+00 0. -1.
</event>
<event>
 7    1  0.2797450E-013  0.7246162E+02  0.7816164E-02  0.1226708E+00
        -11   -1    0    0    0    0  0.00000000000E+00  0.00000000000E+00  0.45593999997E+02  0.45594000000E+02  0.51100000000E-03 0.  1.
         11   -1    0    0    0    0 -0.00000000000E+00 -0.00000000000E+00 -0.45593999997E+02  0.45594000000E+02  0.51100000000E-03 0. -1.
    9900012    2    1    2    0    0 -0.13040647814E+02 -0.11068667138E+01  0.13393786042E+02  0.72461624113E+02  0.70000070109E+02 0.  0.
         12    1    1    2    0    0  0.13040647814E+02  0.11068667138E+01 -0.13393786042E+02  0.18726375887E+02  0.00000000000E+00 0. -1.
         11    1    3    3    0    0  0.18421565922E+02  0.96906122975E+01 -0.56177616236E+01  0.21559714832E+02  0.51100000000E-03 0. -1.
        -11    1    3    3    0    0  0.63968537286E+01  0.25613280080E+00  0.74072999149E+01  0.97904766956E+01  0.51100000000E-03 0.  1.
        -12    1    3    3    0    0 -0.37859067464E+02 -0.11053611812E+02  0.11604247750E+02  0.41111432585E+02  0.00000000000E+00 0.  1.
</event>
<event>
 7    1  0.2797450E-013  0.7246157E+02  0.7816164E-02  0.1226708E+00
        -11   -1    0    0    0    0  0.00000000000E+00  0.00000000000E+00  0.45593999997E+02  0.45594000000E+02  0.51100000000E-03 0.  1.
         11   -1    0    0    0    0 -0.00000000000E+00 -0.00000000000E+00 -0.45593999997E+02  0.45594000000E+02  0.51100000000E-03 0. -1.
    9900012    2    1    2    0    0 -0.16610903138E+02 -0.23492473267E+01  0.83209355232E+01  0.72461573912E+02  0.70000004713E+02 0.  0.
         12    1    1    2    0    0  0.16610903138E+02  0.23492473267E+01 -0.83209355232E+01  0.18726426088E+02  0.00000000000E+00 0. -1.
         11    1    3    3    0    0 -0.39545828057E+02  0.10310724938E+02  0.79405433944E+01  0.41632148577E+02  0.51100000000E-03 0. -1.
        -11    1    3    3    0    0  0.37140849379E+01  0.39494686270E+00  0.58672626472E+01  0.69552268965E+01  0.51100000000E-03 0.  1.
        -12    1    3    3    0    0  0.19220839981E+02 -0.13054919127E+02 -0.54868705184E+01  0.23874198439E+02  0.00000000000E+00 0.  1.
</event>
<event>
 7    1  0.2797450E-013  0.7246152E+02  0.7816164E-02  0.1226708E+00
        -11   -1    0    0    0    0  0.00000000000E+00  0.00000000000E+00  0.45593999997E+02  0.45594000000E+02  0.51100000000E-03 0.  1.
         11   -1    0    0    0    0 -0.00000000000E+00 -0.00000000000E+00 -0.45593999997E+02  0.45594000000E+02  0.51100000000E-03 0. -1.
    9900012    2    1    2    0    0 -0.84092784232E+01 -0.86487804024E+01  0.14323536548E+02  0.72461519677E+02  0.69999934061E+02 0.  0.
         12    1    1    2    0    0  0.84092784232E+01  0.86487804024E+01 -0.14323536548E+02  0.18726480323E+02  0.00000000000E+00 0. -1.
         11    1    3    3    0    0 -0.47240738063E+01 -0.10341331805E+02 -0.10140659022E+01  0.11414392088E+02  0.51100000000E-03 0. -1.
        -11    1    3    3    0    0 -0.10915583371E+02  0.23151309562E+02  0.25586880299E+02  0.36191456705E+02  0.51100000000E-03 0.  1.
         12    1    3    3    0    0  0.72303787538E+01 -0.21458758160E+02 -0.10249277848E+02  0.24855670884E+02  0.00000000000E+00 0. -1.
</event>
<event>
 7    1  0.2797450E-013  0.7246161E+02  0.7816164E-02  0.1226708E+00
        -11   -1    0    0    0    0  0.00000000000E+00  0.00000000000E+00  0.45593999997E+02  0.45594000000E+02  0.51100000000E-03 0.  1.
         11   -1    0    0    0    0 -0.00000000000E+00 -0.00000000000E+00 -0.45593999997E+02  0.45594000000E+02  0.51100000000E-03 0. -1.
    9900012    2    1    2    0    0 -0.15194012046E+02  0.63934201072E+01  0.88850394817E+01  0.72461608214E+02  0.70000049397E+02 0.  0.
         12    1    1    2    0    0  0.15194012046E+02 -0.63934201072E+01 -0.88850394817E+01  0.18726391786E+02  0.00000000000E+00 0. -1.
         11    1    3    3    0    0  0.11846880845E+02  0.51439970055E+01  0.41877488635E+01  0.13577427288E+02  0.51100000000E-03 0. -1.
        -11    1    3    3    0    0 -0.32449587812E+02  0.19749352799E+02  0.92122093650E+01  0.39088073460E+02  0.51100000000E-03 0.  1.
         12    1    3    3    0    0  0.54086949209E+01 -0.18499929697E+02 -0.45149187467E+01  0.19796107466E+02  0.00000000000E+00 0. -1.
</event>
<event>
 7    1  0.2797450E-013  0.7246166E+02  0.7816164E-02  0.1226708E+00
        -11   -1    0    0    0    0  0.00000000000E+00  0.00000000000E+00  0.45593999997E+02  0.45594000000E+02  0.51100000000E-03 0.  1.
         11   -1    0    0    0    0 -0.00000000000E+00 -0.00000000000E+00 -0.45593999997E+02  0.45594000000E+02  0.51100000000E-03 0. -1.
    9900012    2    1    2    0    0 -0.25731349162E+01 -0.69257149739E+01  0.17207242816E+02  0.72461661423E+02  0.70000118711E+02 0.  0.
         12    1    1    2    0    0  0.25731349162E+01  0.69257149739E+01 -0.17207242816E+02  0.18726338577E+02  0.00000000000E+00 0. -1.
         11    1    3    3    0    0 -0.22180374067E+01  0.44275865543E+01 -0.83365783624E+01  0.96964814076E+01  0.51100000000E-03 0. -1.
        -11    1    3    3    0    0 -0.79201666759E+01 -0.25587840196E+02 -0.59022277023E+01  0.27428140626E+02  0.51100000000E-03 0.  1.
        -12    1    3    3    0    0  0.75650691664E+01  0.14234538668E+02  0.31446048881E+02  0.35337039389E+02  0.00000000000E+00 0.  1.
</event>
<event>
 7    1  0.2797450E-013  0.7246157E+02  0.7816164E-02  0.1226708E+00
        -11   -1    0    0    0    0  0.00000000000E+00  0.00000000000E+00  0.45593999997E+02  0.45594000000E+02  0.51100000000E-03 0.  1.
         11   -1    0    0    0    0 -0.00000000000E+00 -0.00000000000E+00 -0.45593999997E+02  0.45594000000E+02  0.51100000000E-03 0. -1.
    9900012    2    1    2    0    0  0.91501957055E+01  0.78505338272E+01  0.14329074810E+02  0.72461565536E+02  0.69999993802E+02 0.  0.
         12    1    1    2    0    0 -0.91501957055E+01 -0.78505338272E+01 -0.14329074810E+02  0.18726434464E+02  0.00000000000E+00 0. -1.
         11    1    3    3    0    0 -0.70447878334E+01 -0.24357639246E+02  0.75868948916E+01  0.26466669598E+02  0.51100000000E-03 0. -1.
        -11    1    3    3    0    0  0.34128228621E+01  0.62570445710E+01 -0.10220484384E+02  0.12460187317E+02  0.51100000000E-03 0.  1.
        -12    1    3    3    0    0  0.12782160677E+02  0.25951128502E+02  0.16962664303E+02  0.33534708622E+02  0.00000000000E+00 0.  1.
</event>
<event>
 7    1  0.2797450E-013  0.7246086E+02  0.7816164E-02  0.1226710E+00
        -11   -1    0    0    0    0  0.00000000000E+00  0.00000000000E+00  0.45593999997E+02  0.45594000000E+02  0.51100000000E-03 0. -1.
         11   -1    0    0    0    0 -0.00000000000E+00 -0.00000000000E+00 -0.45593999997E+02  0.45594000000E+02  0.51100000000E-03 0.  1.
    9900012    2    1    2    0    0  0.10956286062E+02  0.14778453348E+02 -0.35018371724E+01  0.72460860570E+02  0.69999075447E+02 0.  0.
         12    1    1    2    0    0 -0.10956286062E+02 -0.14778453348E+02  0.35018371724E+01  0.18727139430E+02  0.00000000000E+00 0. -1.
         11    1    3    3    0    0 -0.98931704032E+01 -0.20862317933E+01 -0.78662458273E+01  0.12810347669E+02  0.51100000000E-03 0. -1.
        -11    1    3    3    0    0  0.24010453176E+02  0.34025952295E+02 -0.75387958437E-01  0.41644603191E+02  0.51100000000E-03 0.  1.
         12    1    3    3    0    0 -0.31609967113E+01 -0.17161267154E+02  0.44397966134E+01  0.18005909710E+02  0.00000000000E+00 0. -1.
</event>
<event>
 7    1  0.2797450E-013  0.7246155E+02  0.7816164E-02  0.1226708E+00
        -11   -1    0    0    0    0  0.00000000000E+00  0.00000000000E+00  0.45593999997E+02  0.45594000000E+02  0.51100000000E-03 0. -1.
         11   -1    0    0    0    0 -0.00000000000E+00 -0.00000000000E+00 -0.45593999997E+02  0.45594000000E+02  0.51100000000E-03 0.  1.
    9900012    2    1    2    0    0  0.18233094863E+02 -0.41869316165E+01  0.83885211049E+00  0.72461552993E+02  0.69999977462E+02 0.  0.
         12    1    1    2    0    0 -0.18233094863E+02  0.41869316165E+01 -0.83885211049E+00  0.18726447007E+02  0.00000000000E+00 0. -1.
         11    1    3    3    0    0  0.14300840637E+02 -0.11580983798E+02  0.46686823007E+01  0.18984989422E+02  0.51100000000E-03 0. -1.
        -11    1    3    3    0    0  0.22166343261E+02 -0.12029661094E+02 -0.81131297667E+01  0.26493063138E+02  0.51100000000E-03 0.  1.
         12    1    3    3    0    0 -0.18234089035E+02  0.19423713276E+02  0.42832995765E+01  0.26983500433E+02  0.00000000000E+00 0. -1.
</event>
<event>
 7    1  0.2797450E-013  0.7246156E+02  0.7816164E-02  0.1226708E+00
        -11   -1    0    0    0    0  0.00000000000E+00  0.00000000000E+00  0.45593999997E+02  0.45594000000E+02  0.51100000000E-03 0. -1.
         11   -1    0    0    0    0 -0.00000000000E+00 -0.00000000000E+00 -0.45593999997E+02  0.45594000000E+02  0.51100000000E-03 0.  1.
    9900012    2    1    2    0    0  0.14856050953E+01  0.70011517455E+01 -0.17304811909E+02  0.72461557106E+02  0.69999982820E+02 0.  0.
         12    1    1    2    0    0 -0.14856050953E+01 -0.70011517455E+01  0.17304811909E+02  0.18726442894E+02  0.00000000000E+00 0. -1.
         11    1    3    3    0    0 -0.14327334472E+02 -0.43079931934E+01  0.14605226376E+02  0.20907987856E+02  0.51100000000E-03 0. -1.
        -11    1    3    3    0    0  0.13531480475E+02  0.18334678714E+02 -0.45801555287E+01  0.23243046967E+02  0.51100000000E-03 0.  1.
         12    1    3    3    0    0  0.22814590920E+01 -0.70255337750E+01 -0.27329882757E+02  0.28310522282E+02  0.00000000000E+00 0. -1.
</event>
<event>
 7    1  0.2797450E-013  0.7246134E+02  0.7816164E-02  0.1226709E+00
        -11   -1    0    0    0    0  0.00000000000E+00  0.00000000000E+00  0.45593999997E+02  0.45594000000E+02  0.51100000000E-03 0. -1.
         11   -1    0    0    0    0 -0.00000000000E+00 -0.00000000000E+00 -0.45593999997E+02  0.45594000000E+02  0.51100000000E-03 0.  1.
    9900012    2    1    2    0    0 -0.48170400535E+01 -0.10403372716E+02 -0.14807221923E+02  0.72461338262E+02  0.69999697734E+02 0.  0.
         12    1    1    2    0    0  0.48170400535E+01  0.10403372716E+02  0.14807221923E+02  0.18726661738E+02  0.00000000000E+00 0. -1.
         11    1    3    3    0    0 -0.95461384041E+01 -0.28500463862E+02  0.20947385363E+01  0.30129605517E+02  0.51100000000E-03 0. -1.
        -11    1    3    3    0    0 -0.80948037988E+00  0.31130865652E+01 -0.24451934880E+02  0.24662596904E+02  0.51100000000E-03 0.  1.
         12    1    3    3    0    0  0.55385787304E+01  0.14984004581E+02  0.75499744199E+01  0.17669135841E+02  0.00000000000E+00 0. -1.
</event>
<event>
 7    1  0.2797450E-013  0.7246156E+02  0.7816164E-02  0.1226708E+00
        -11   -1    0    0    0    0  0.00000000000E+00  0.00000000000E+00  0.45593999997E+02  0.45594000000E+02  0.51100000000E-03 0. -1.
         11   -1    0    0    0    0 -0.00000000000E+00 -0.00000000000E+00 -0.45593999997E+02  0.45594000000E+02  0.51100000000E-03 0.  1.
    9900012    2    1    2    0    0  0.54820312629E+01  0.11342622683E+02 -0.13855391177E+02  0.72461558246E+02  0.69999984304E+02 0.  0.
         12    1    1    2    0    0 -0.54820312629E+01 -0.11342622683E+02  0.13855391177E+02  0.18726441754E+02  0.00000000000E+00 0. -1.
         11    1    3    3    0    0  0.11174537141E+02  0.74459208764E+01 -0.15120724636E+01  0.13512896855E+02  0.51100000000E-03 0. -1.
        -11    1    3    3    0    0  0.24525768157E+02  0.34852971728E+01 -0.14407407954E+02  0.28657180676E+02  0.51100000000E-03 0.  1.
         12    1    3    3    0    0 -0.30218274036E+02  0.41140463409E+00  0.20640892405E+01  0.30291480714E+02  0.00000000000E+00 0. -1.
</event>
<event>
 7    1  0.2797450E-013  0.7246149E+02  0.7816164E-02  0.1226708E+00
        -11   -1    0    0    0    0  0.00000000000E+00  0.00000000000E+00  0.45593999997E+02  0.45594000000E+02  0.51100000000E-03 0. -1.
         11   -1    0    0    0    0 -0.00000000000E+00 -0.00000000000E+00 -0.45593999997E+02  0.45594000000E+02  0.51100000000E-03 0.  1.
    9900012    2    1    2    0    0 -0.82342927650E+01 -0.12943925502E+02 -0.10739339762E+02  0.72461489293E+02  0.69999894480E+02 0.  0.
         12    1    1    2    0    0  0.82342927650E+01  0.12943925502E+02  0.10739339762E+02  0.18726510707E+02  0.00000000000E+00 0. -1.
         11    1    3    3    0    0  0.12098756654E+02 -0.11784174045E+00 -0.76430505833E+01  0.14311185197E+02  0.51100000000E-03 0. -1.
        -11    1    3    3    0    0  0.39430918392E+01 -0.27594256725E+02 -0.86735280607E+01  0.29192825604E+02  0.51100000000E-03 0.  1.
         12    1    3    3    0    0 -0.24276141259E+02  0.14768172963E+02  0.55772388821E+01  0.28957478492E+02  0.00000000000E+00 0. -1.
</event>
<event>
 7    1  0.2797450E-013  0.7246161E+02  0.7816164E-02  0.1226708E+00
        -11   -1    0    0    0    0  0.00000000000E+00  0.00000000000E+00  0.45593999997E+02  0.45594000000E+02  0.51100000000E-03 0.  1.
         11   -1    0    0    0    0 -0.00000000000E+00 -0.00000000000E+00 -0.45593999997E+02  0.45594000000E+02  0.51100000000E-03 0. -1.
    9900012    2    1    2    0    0  0.16749782694E+02 -0.79252264579E+01  0.27042846628E+01  0.72461612462E+02  0.70000054931E+02 0.  0.
         12    1    1    2    0    0 -0.16749782694E+02  0.79252264579E+01 -0.27042846628E+01  0.18726387538E+02  0.00000000000E+00 0. -1.
         11    1    3    3    0    0  0.35342268887E+01 -0.12148651905E+02 -0.11561400562E+02  0.17139033988E+02  0.51100000000E-03 0. -1.
        -11    1    3    3    0    0  0.28779491354E+02  0.94645516572E+01 -0.42281610065E+01  0.30589445997E+02  0.51100000000E-03 0.  1.
        -12    1    3    3    0    0 -0.15563935549E+02 -0.52411262101E+01  0.18493846231E+02  0.24733132477E+02  0.00000000000E+00 0.  1.
</event>
<event>
 7    1  0.2797450E-013  0.7246156E+02  0.7816164E-02  0.1226708E+00
        -11   -1    0    0    0    0  0.00000000000E+00  0.00000000000E+00  0.45593999997E+02  0.45594000000E+02  0.51100000000E-03 0. -1.
         11   -1    0    0    0    0 -0.00000000000E+00 -0.00000000000E+00 -0.45593999997E+02  0.45594000000E+02  0.51100000000E-03 0.  1.
    9900012    2    1    2    0    0 -0.55166657715E+01  0.15923471572E+02 -0.81663379343E+01  0.72461558176E+02  0.69999984213E+02 0.  0.
         12    1    1    2    0    0  0.55166657715E+01 -0.15923471572E+02  0.81663379343E+01  0.18726441824E+02  0.00000000000E+00 0. -1.
         11    1    3    3    0    0 -0.23229989598E+02  0.20761544481E+02 -0.28436911936E+01  0.31285151843E+02  0.51100000000E-03 0. -1.
        -11    1    3    3    0    0  0.23243666118E+01  0.13934353082E+02  0.47378825270E+01  0.14900215000E+02  0.51100000000E-03 0.  1.
        -12    1    3    3    0    0  0.15388957215E+02 -0.18772425991E+02 -0.10060529268E+02  0.26276191332E+02  0.00000000000E+00 0.  1.
</event>
<event>
 7    1  0.2797450E-013  0.7246156E+02  0.7816164E-02  0.1226708E+00
        -11   -1    0    0    0    0  0.00000000000E+00  0.00000000000E+00  0.45593999997E+02  0.45594000000E+02  0.51100000000E-03 0.  1.
         11   -1    0    0    0    0 -0.00000000000E+00 -0.00000000000E+00 -0.45593999997E+02  0.45594000000E+02  0.51100000000E-03 0. -1.
    9900012    2    1    2    0    0 -0.99472432089E+01 -0.96164027632E+01  0.12619700641E+02  0.72461556295E+02  0.69999981763E+02 0.  0.
         12    1    1    2    0    0  0.99472432089E+01  0.96164027632E+01 -0.12619700641E+02  0.18726443705E+02  0.00000000000E+00 0. -1.
         11    1    3    3    0    0 -0.20562972259E+02 -0.21011591420E+02 -0.17530839929E+02  0.34229419379E+02  0.51100000000E-03 0. -1.
        -11    1    3    3    0    0  0.21064197740E+01  0.10083404805E+01 -0.21983192071E+01  0.32072359418E+01  0.51100000000E-03 0.  1.
        -12    1    3    3    0    0  0.85093092761E+01  0.10386848177E+02  0.32348859777E+02  0.35024900975E+02  0.00000000000E+00 0.  1.
</event>
<event>
 7    1  0.2797450E-013  0.7246126E+02  0.7816164E-02  0.1226709E+00
        -11   -1    0    0    0    0  0.00000000000E+00  0.00000000000E+00  0.45593999997E+02  0.45594000000E+02  0.51100000000E-03 0.  1.
         11   -1    0    0    0    0 -0.00000000000E+00 -0.00000000000E+00 -0.45593999997E+02  0.45594000000E+02  0.51100000000E-03 0. -1.
    9900012    2    1    2    0    0 -0.54471602095E+01  0.72009416316E+01  0.16406270466E+02  0.72461259084E+02  0.69999594590E+02 0.  0.
         12    1    1    2    0    0  0.54471602095E+01 -0.72009416316E+01 -0.16406270466E+02  0.18726740916E+02  0.00000000000E+00 0. -1.
         11    1    3    3    0    0 -0.15366719363E+02 -0.18477182879E+02 -0.96532208031E+00  0.24051490559E+02  0.51100000000E-03 0. -1.
        -11    1    3    3    0    0 -0.74810909197E+01 -0.18265902946E-01  0.15629015854E+02  0.17327238436E+02  0.51100000000E-03 0.  1.
         12    1    3    3    0    0  0.17400650073E+02  0.25696390413E+02  0.17425766920E+01  0.31082530090E+02  0.00000000000E+00 0. -1.
</event>
<event>
 7    1  0.2797450E-013  0.7246151E+02  0.7816164E-02  0.1226708E+00
        -11   -1    0    0    0    0  0.00000000000E+00  0.00000000000E+00  0.45593999997E+02  0.45594000000E+02  0.51100000000E-03 0. -1.
         11   -1    0    0    0    0 -0.00000000000E+00 -0.00000000000E+00 -0.45593999997E+02  0.45594000000E+02  0.51100000000E-03 0.  1.
    9900012    2    1    2    0    0 -0.34335914758E+01 -0.17590751507E+02  0.54274508689E+01  0.72461513091E+02  0.69999925482E+02 0.  0.
         12    1    1    2    0    0  0.34335914758E+01  0.17590751507E+02 -0.54274508689E+01  0.18726486909E+02  0.00000000000E+00 0. -1.
         11    1    3    3    0    0 -0.87359042108E+01 -0.27678907915E+01 -0.64374564825E+01  0.11199021745E+02  0.51100000000E-03 0. -1.
        -11    1    3    3    0    0 -0.20946707312E+02 -0.83924140983E+01  0.22827784657E+02  0.32098363108E+02  0.51100000000E-03 0.  1.
         12    1    3    3    0    0  0.26249020047E+02 -0.64304466173E+01 -0.10962877305E+02  0.29164128239E+02  0.00000000000E+00 0. -1.
</event>
<event>
 7    1  0.2797450E-013  0.7246158E+02  0.7816164E-02  0.1226708E+00
        -11   -1    0    0    0    0  0.00000000000E+00  0.00000000000E+00  0.45593999997E+02  0.45594000000E+02  0.51100000000E-03 0.  1.
         11   -1    0    0    0    0 -0.00000000000E+00 -0.00000000000E+00 -0.45593999997E+02  0.45594000000E+02  0.51100000000E-03 0. -1.
    9900012    2    1    2    0    0 -0.92940788477E+01  0.28807299840E+01  0.16000014221E+02  0.72461575836E+02  0.70000007220E+02 0.  0.
         12    1    1    2    0    0  0.92940788477E+01 -0.28807299840E+01 -0.16000014221E+02  0.18726424164E+02  0.00000000000E+00 0. -1.
         11    1    3    3    0    0 -0.76282594316E+01 -0.60298039657E+01  0.49558192590E+01  0.10913708014E+02  0.51100000000E-03 0. -1.
        -11    1    3    3    0    0 -0.27338484110E+02 -0.83176710263E+01 -0.40446155461E+00  0.28578662567E+02  0.51100000000E-03 0.  1.
         12    1    3    3    0    0  0.25672664693E+02  0.17228204976E+02  0.11448656517E+02  0.32969205256E+02  0.00000000000E+00 0. -1.
</event>
<event>
 7    1  0.2797450E-013  0.7246160E+02  0.7816164E-02  0.1226708E+00
        -11   -1    0    0    0    0  0.00000000000E+00  0.00000000000E+00  0.45593999997E+02  0.45594000000E+02  0.51100000000E-03 0.  1.
         11   -1    0    0    0    0 -0.00000000000E+00 -0.00000000000E+00 -0.45593999997E+02  0.45594000000E+02  0.51100000000E-03 0. -1.
    9900012    2    1    2    0    0  0.60617666867E+01  0.45994137361E+01 -0.17110771041E+02  0.72461598646E+02  0.70000036933E+02 0.  0.
         12    1    1    2    0    0 -0.60617666867E+01 -0.45994137361E+01  0.17110771041E+02  0.18726401354E+02  0.00000000000E+00 0. -1.
         11    1    3    3    0    0  0.54524270029E+01 -0.18218288179E+02  0.54730164897E+00  0.19024576835E+02  0.51100000000E-03 0. -1.
        -11    1    3    3    0    0 -0.13517523235E+02  0.29305320009E+02 -0.35910509417E+01  0.32471847227E+02  0.51100000000E-03 0.  1.
         12    1    3    3    0    0  0.14126862919E+02 -0.64876180938E+01 -0.14067021748E+02  0.20965174584E+02  0.00000000000E+00 0. -1.
</event>
<event>
 7    1  0.2797450E-013  0.7246176E+02  0.7816164E-02  0.1226708E+00
        -11   -1    0    0    0    0  0.00000000000E+00  0.00000000000E+00  0.45593999997E+02  0.45594000000E+02  0.51100000000E-03 0. -1.
         11   -1    0    0    0    0 -0.00000000000E+00 -0.00000000000E+00 -0.45593999997E+02  0.45594000000E+02  0.51100000000E-03 0.  1.
    9900012    2    1    2    0    0 -0.10092602231E+01 -0.13136113738E+02 -0.13307736440E+02  0.72461763339E+02  0.70000251476E+02 0.  0.
         12    1    1    2    0    0  0.10092602231E+01  0.13136113738E+02  0.13307736440E+02  0.18726236661E+02  0.00000000000E+00 0. -1.
         11    1    3    3    0    0 -0.97037279527E+00 -0.17266780782E+01  0.12576787742E+02  0.12731796052E+02  0.51100000000E-03 0. -1.
        -11    1    3    3    0    0  0.19521752527E+02  0.64628957304E+01  0.27160971904E+01  0.20742348641E+02  0.51100000000E-03 0.  1.
        -12    1    3    3    0    0 -0.19560639955E+02 -0.17872331390E+02 -0.28600621372E+02  0.38987618645E+02  0.00000000000E+00 0.  1.
</event>
<event>
 7    1  0.2797450E-013  0.7246157E+02  0.7816164E-02  0.1226708E+00
        -11   -1    0    0    0    0  0.00000000000E+00  0.00000000000E+00  0.45593999997E+02  0.45594000000E+02  0.51100000000E-03 0. -1.
         11   -1    0    0    0    0 -0.00000000000E+00 -0.00000000000E+00 -0.45593999997E+02  0.45594000000E+02  0.51100000000E-03 0.  1.
    9900012    2    1    2    0    0  0.62681423797E+01 -0.10257593450E+02 -0.14358665978E+02  0.72461571591E+02  0.70000001689E+02 0.  0.
         12    1    1    2    0    0 -0.62681423797E+01  0.10257593450E+02  0.14358665978E+02  0.18726428409E+02  0.00000000000E+00 0. -1.
         11    1    3    3    0    0  0.24667322430E+01 -0.10811539437E+02  0.15818140067E+02  0.19318066891E+02  0.51100000000E-03 0. -1.
        -11    1    3    3    0    0 -0.18637870149E+02 -0.65683075575E+01 -0.17545807737E+02  0.26426657701E+02  0.51100000000E-03 0.  1.
        -12    1    3    3    0    0  0.22439280286E+02  0.71222535444E+01 -0.12630998309E+02  0.26716846999E+02  0.00000000000E+00 0.  1.
</event>
<event>
 7    1  0.2797450E-013  0.7246153E+02  0.7816164E-02  0.1226708E+00
        -11   -1    0    0    0    0  0.00000000000E+00  0.00000000000E+00  0.45593999997E+02  0.45594000000E+02  0.51100000000E-03 0. -1.
         11   -1    0    0    0    0 -0.00000000000E+00 -0.00000000000E+00 -0.45593999997E+02  0.45594000000E+02  0.51100000000E-03 0.  1.
    9900012    2    1    2    0    0  0.69472851676E+01 -0.17367173567E+02 -0.89281116167E+00  0.72461532082E+02  0.69999950221E+02 0.  0.
         12    1    1    2    0    0 -0.69472851676E+01  0.17367173567E+02  0.89281116167E+00  0.18726467918E+02  0.00000000000E+00 0. -1.
         11    1    3    3    0    0  0.59106117516E+01  0.65360462507E+01 -0.57333852677E+01  0.10513179289E+02  0.51100000000E-03 0. -1.
        -11    1    3    3    0    0  0.12373595683E+02  0.70902565330E+01 -0.17139628111E+02  0.22296736530E+02  0.51100000000E-03 0.  1.
         12    1    3    3    0    0 -0.11336922267E+02 -0.30993476351E+02  0.21980202217E+02  0.39651616263E+02  0.00000000000E+00 0. -1.
</event>
<event>
 7    1  0.2797450E-013  0.7246139E+02  0.7816164E-02  0.1226708E+00
        -11   -1    0    0    0    0  0.00000000000E+00  0.00000000000E+00  0.45593999997E+02  0.45594000000E+02  0.51100000000E-03 0.  1.
         11   -1    0    0    0    0 -0.00000000000E+00 -0.00000000000E+00 -0.45593999997E+02  0.45594000000E+02  0.51100000000E-03 0. -1.
    9900012    2    1    2    0    0 -0.17812166361E+02  0.46309155045E+01  0.34593687469E+01  0.72461391097E+02  0.69999766562E+02 0.  0.
         12    1    1    2    0    0  0.17812166361E+02 -0.46309155045E+01 -0.34593687469E+01  0.18726608903E+02  0.00000000000E+00 0. -1.
         11    1    3    3    0    0  0.11974176522E+02 -0.13510914621E+02 -0.12581589366E+02  0.22005047342E+02  0.51100000000E-03 0. -1.
        -11    1    3    3    0    0 -0.11754058845E+02 -0.77656400662E+01 -0.17933418373E+01  0.14201378108E+02  0.51100000000E-03 0.  1.
         12    1    3    3    0    0 -0.18032284038E+02  0.25907470192E+02  0.17834299950E+02  0.36254965647E+02  0.00000000000E+00 0. -1.
</event>
<event>
 7    1  0.2797450E-013  0.7246156E+02  0.7816164E-02  0.1226708E+00
        -11   -1    0    0    0    0  0.00000000000E+00  0.00000000000E+00  0.45593999997E+02  0.45594000000E+02  0.51100000000E-03 0.  1.
         11   -1    0    0    0    0 -0.00000000000E+00 -0.00000000000E+00 -0.45593999997E+02  0.45594000000E+02  0.51100000000E-03 0. -1.
    9900012    2    1    2    0    0 -0.68776647839E+01  0.16886536072E+02  0.42687284006E+01  0.72461563725E+02  0.69999991442E+02 0.  0.
         12    1    1    2    0    0  0.68776647839E+01 -0.16886536072E+02 -0.42687284006E+01  0.18726436275E+02  0.00000000000E+00 0. -1.
         11    1    3    3    0    0 -0.42040351432E+01  0.14394796412E+02  0.58519613428E+01  0.16097500646E+02  0.51100000000E-03 0. -1.
        -11    1    3    3    0    0 -0.93052838110E+01 -0.12454829283E+02  0.22442632150E+02  0.27301699899E+02  0.51100000000E-03 0.  1.
         12    1    3    3    0    0  0.66316541703E+01  0.14946568943E+02 -0.24025865092E+02  0.29062363181E+02  0.00000000000E+00 0. -1.
</event>
<event>
 7    1  0.2797450E-013  0.7246158E+02  0.7816164E-02  0.1226708E+00
        -11   -1    0    0    0    0  0.00000000000E+00  0.00000000000E+00  0.45593999997E+02  0.45594000000E+02  0.51100000000E-03 0. -1.
         11   -1    0    0    0    0 -0.00000000000E+00 -0.00000000000E+00 -0.45593999997E+02  0.45594000000E+02  0.51100000000E-03 0.  1.
    9900012    2    1    2    0    0 -0.10876125396E+02 -0.21462011008E+01 -0.15092460546E+02  0.72461584215E+02  0.70000018135E+02 0.  0.
         12    1    1    2    0    0  0.10876125396E+02  0.21462011008E+01  0.15092460546E+02  0.18726415785E+02  0.00000000000E+00 0. -1.
         11    1    3    3    0    0  0.17113495260E+02  0.66043630627E+00 -0.17811540541E+01  0.17218606394E+02  0.51100000000E-03 0. -1.
        -11    1    3    3    0    0  0.11653381271E+02 -0.62629664498E+01 -0.69505248914E+01  0.14944425058E+02  0.51100000000E-03 0.  1.
         12    1    3    3    0    0 -0.39643001927E+02  0.34563290428E+01 -0.63607816005E+01  0.40298552763E+02  0.00000000000E+00 0. -1.
</event>
<event>
 7    1  0.2797450E-013  0.7246153E+02  0.7816164E-02  0.1226708E+00
        -11   -1    0    0    0    0  0.00000000000E+00  0.00000000000E+00  0.45593999997E+02  0.45594000000E+02  0.51100000000E-03 0. -1.
         11   -1    0    0    0    0 -0.00000000000E+00 -0.00000000000E+00 -0.45593999997E+02  0.45594000000E+02  0.51100000000E-03 0.  1.
    9900012    2    1    2    0    0 -0.15420517656E+02 -0.64335628703E+01 -0.84556172506E+01  0.72461533193E+02  0.69999951668E+02 0.  0.
         12    1    1    2    0    0  0.15420517656E+02  0.64335628703E+01  0.84556172506E+01  0.18726466807E+02  0.00000000000E+00 0. -1.
         11    1    3    3    0    0 -0.61969692151E+00 -0.60947130337E+01 -0.25483358850E+01  0.66350257936E+01  0.51100000000E-03 0. -1.
        -11    1    3    3    0    0 -0.22233472765E+02 -0.27473264820E+02  0.49149443149E+01  0.35682828769E+02  0.51100000000E-03 0.  1.
        -12    1    3    3    0    0  0.74326520300E+01  0.27134414984E+02 -0.10822225680E+02  0.30143678631E+02  0.00000000000E+00 0.  1.
</event>
<event>
 7    1  0.2797450E-013  0.7246155E+02  0.7816164E-02  0.1226708E+00
        -11   -1    0    0    0    0  0.00000000000E+00  0.00000000000E+00  0.45593999997E+02  0.45594000000E+02  0.51100000000E-03 0.  1.
         11   -1    0    0    0    0 -0.00000000000E+00 -0.00000000000E+00 -0.45593999997E+02  0.45594000000E+02  0.51100000000E-03 0. -1.
    9900012    2    1    2    0    0 -0.67671208869E+01  0.13560235383E+02  0.11000265798E+02  0.72461554625E+02  0.69999979588E+02 0.  0.
         12    1    1    2    0    0  0.67671208869E+01 -0.13560235383E+02 -0.11000265798E+02  0.18726445375E+02  0.00000000000E+00 0. -1.
         11    1    3    3    0    0  0.18361397556E+01 -0.89596620801E+01  0.18658156869E+01  0.93342499554E+01  0.51100000000E-03 0. -1.
        -11    1    3    3    0    0  0.13423330879E+02  0.17396008296E+02  0.26637360617E+02  0.34530506765E+02  0.51100000000E-03 0.  1.
        -12    1    3    3    0    0 -0.22026591522E+02  0.51238891671E+01 -0.17502910506E+02  0.28596797905E+02  0.00000000000E+00 0.  1.
</event>
<event>
 7    1  0.2797450E-013  0.7246144E+02  0.7816164E-02  0.1226708E+00
        -11   -1    0    0    0    0  0.00000000000E+00  0.00000000000E+00  0.45593999997E+02  0.45594000000E+02  0.51100000000E-03 0.  1.
         11   -1    0    0    0    0 -0.00000000000E+00 -0.00000000000E+00 -0.45593999997E+02  0.45594000000E+02  0.51100000000E-03 0. -1.
    9900012    2    1    2    0    0  0.10712579206E+02  0.59706406672E+01  0.14151895781E+02  0.72461439787E+02  0.69999829989E+02 0.  0.
         12    1    1    2    0    0 -0.10712579206E+02 -0.59706406672E+01 -0.14151895781E+02  0.18726560213E+02  0.00000000000E+00 0. -1.
         11    1    3    3    0    0 -0.17073954178E+02 -0.33018911182E+00 -0.78398449375E+01  0.18790745197E+02  0.51100000000E-03 0. -1.
        -11    1    3    3    0    0 -0.12961827101E+00 -0.91102065105E+01  0.19695292258E+02  0.21700626741E+02  0.51100000000E-03 0.  1.
         12    1    3    3    0    0  0.27916151655E+02  0.15411036290E+02  0.22964484613E+01  0.31970067849E+02  0.00000000000E+00 0. -1.
</event>
<event>
 7    1  0.2797450E-013  0.7246156E+02  0.7816164E-02  0.1226708E+00
        -11   -1    0    0    0    0  0.00000000000E+00  0.00000000000E+00  0.45593999997E+02  0.45594000000E+02  0.51100000000E-03 0. -1.
         11   -1    0    0    0    0 -0.00000000000E+00 -0.00000000000E+00 -0.45593999997E+02  0.45594000000E+02  0.51100000000E-03 0.  1.
    9900012    2    1    2    0    0  0.13520628412E+02 -0.87934769629E+01  0.95156051683E+01  0.72461564902E+02  0.69999992976E+02 0.  0.
         12    1    1    2    0    0 -0.13520628412E+02  0.87934769629E+01 -0.95156051683E+01  0.18726435098E+02  0.00000000000E+00 0. -1.
         11    1    3    3    0    0 -0.39664704402E+01 -0.77489208217E+00  0.25672175836E+01  0.47878963935E+01  0.51100000000E-03 0. -1.
        -11    1    3    3    0    0  0.73548409052E+01  0.20755526888E+02  0.24125778070E+02  0.32664028363E+02  0.51100000000E-03 0.  1.
        -12    1    3    3    0    0  0.10132257947E+02 -0.28774111769E+02 -0.17177390486E+02  0.35009640145E+02  0.00000000000E+00 0.  1.
</event>
<event>
 7    1  0.2797450E-013  0.7246152E+02  0.7816164E-02  0.1226708E+00
        -11   -1    0    0    0    0  0.00000000000E+00  0.00000000000E+00  0.45593999997E+02  0.45594000000E+02  0.51100000000E-03 0. -1.
         11   -1    0    0    0    0 -0.00000000000E+00 -0.00000000000E+00 -0.45593999997E+02  0.45594000000E+02  0.51100000000E-03 0.  1.
    9900012    2    1    2    0    0  0.81332078741E+01  0.16818357682E+02  0.12940860689E+01  0.72461524512E+02  0.69999940360E+02 0.  0.
         12    1    1    2    0    0 -0.81332078741E+01 -0.16818357682E+02 -0.12940860689E+01  0.18726475488E+02  0.00000000000E+00 0. -1.
         11    1    3    3    0    0  0.28786117238E+02  0.15385732371E+02  0.14885884996E+02  0.35874097600E+02  0.51100000000E-03 0. -1.
        -11    1    3    3    0    0 -0.97550445342E+01 -0.96816613213E+01  0.27526107363E+01  0.14016858633E+02  0.51100000000E-03 0.  1.
        -12    1    3    3    0    0 -0.10897864830E+02  0.11114286632E+02 -0.16344409664E+02  0.22570568279E+02  0.00000000000E+00 0.  1.
</event>
<event>
 7    1  0.2797450E-013  0.7246159E+02  0.7816164E-02  0.1226708E+00
        -11   -1    0    0    0    0  0.00000000000E+00  0.00000000000E+00  0.45593999997E+02  0.45594000000E+02  0.51100000000E-03 0.  1.
         11   -1    0    0    0    0 -0.00000000000E+00 -0.00000000000E+00 -0.45593999997E+02  0.45594000000E+02  0.51100000000E-03 0. -1.
    9900012    2    1    2    0    0  0.10996117129E+02 -0.15034190593E+02  0.19330758755E+01  0.72461594551E+02  0.70000031599E+02 0.  0.
         12    1    1    2    0    0 -0.10996117129E+02  0.15034190593E+02 -0.19330758755E+01  0.18726405449E+02  0.00000000000E+00 0. -1.
         11    1    3    3    0    0  0.15493810387E+02  0.20764408856E+02  0.82739418154E+01  0.27197002571E+02  0.51100000000E-03 0. -1.
        -11    1    3    3    0    0  0.60358587203E+01 -0.79878719860E+01  0.74541362329E+01  0.12482060591E+02  0.51100000000E-03 0.  1.
        -12    1    3    3    0    0 -0.10533551979E+02 -0.27810727463E+02 -0.13795002173E+02  0.32782531389E+02  0.00000000000E+00 0.  1.
</event>
<event>
 7    1  0.2797450E-013  0.7246174E+02  0.7816164E-02  0.1226708E+00
        -11   -1    0    0    0    0  0.00000000000E+00  0.00000000000E+00  0.45593999997E+02  0.45594000000E+02  0.51100000000E-03 0.  1.
         11   -1    0    0    0    0 -0.00000000000E+00 -0.00000000000E+00 -0.45593999997E+02  0.45594000000E+02  0.51100000000E-03 0. -1.
    9900012    2    1    2    0    0 -0.43992770760E+00  0.47823096092E+01  0.18099968091E+02  0.72461738587E+02  0.70000219232E+02 0.  0.
         12    1    1    2    0    0  0.43992770760E+00 -0.47823096092E+01 -0.18099968091E+02  0.18726261413E+02  0.00000000000E+00 0. -1.
         11    1    3    3    0    0 -0.62622983568E+01 -0.13977198688E+02 -0.19593327872E+02  0.24869197036E+02  0.51100000000E-03 0. -1.
        -11    1    3    3    0    0 -0.56419714862E+01 -0.14460351031E+01  0.74365055218E+01  0.94458707596E+01  0.51100000000E-03 0.  1.
        -12    1    3    3    0    0  0.11464342135E+02  0.20205543400E+02  0.30256790441E+02  0.38146670792E+02  0.00000000000E+00 0.  1.
</event>
<event>
 7    1  0.2797450E-013  0.7246192E+02  0.7816164E-02  0.1226707E+00
        -11   -1    0    0    0    0  0.00000000000E+00  0.00000000000E+00  0.45593999997E+02  0.45594000000E+02  0.51100000000E-03 0. -1.
         11   -1    0    0    0    0 -0.00000000000E+00 -0.00000000000E+00 -0.45593999997E+02  0.45594000000E+02  0.51100000000E-03 0.  1.
    9900012    2    1    2    0    0  0.13636505336E+02 -0.12824092446E+02  0.50458422727E+00  0.72461915784E+02  0.70000450063E+02 0.  0.
         12    1    1    2    0    0 -0.13636505336E+02  0.12824092446E+02 -0.50458422727E+00  0.18726084216E+02  0.00000000000E+00 0. -1.
         11    1    3    3    0    0  0.51664249680E+01  0.13533513602E+02  0.13756682488E+02  0.19977343434E+02  0.51100000000E-03 0. -1.
        -11    1    3    3    0    0  0.17309175134E+02 -0.16652513867E+02  0.98124641267E+01  0.25946063563E+02  0.51100000000E-03 0.  1.
        -12    1    3    3    0    0 -0.88390947663E+01 -0.97050921804E+01 -0.23064562387E+02  0.26538508787E+02  0.00000000000E+00 0.  1.
</event>
<event>
 7    1  0.2797450E-013  0.7246160E+02  0.7816164E-02  0.1226708E+00
        -11   -1    0    0    0    0  0.00000000000E+00  0.00000000000E+00  0.45593999997E+02  0.45594000000E+02  0.51100000000E-03 0. -1.
         11   -1    0    0    0    0 -0.00000000000E+00 -0.00000000000E+00 -0.45593999997E+02  0.45594000000E+02  0.51100000000E-03 0.  1.
    9900012    2    1    2    0    0  0.10330779477E+02 -0.15615270082E+02 -0.34125314610E+00  0.72461598369E+02  0.70000036573E+02 0.  0.
         12    1    1    2    0    0 -0.10330779477E+02  0.15615270082E+02  0.34125314610E+00  0.18726401631E+02  0.00000000000E+00 0. -1.
         11    1    3    3    0    0  0.93722068164E+01  0.78113184905E+01  0.18671115141E+02  0.22303934586E+02  0.51100000000E-03 0. -1.
        -11    1    3    3    0    0  0.42691991254E+01  0.71387437212E+01 -0.17500200101E+02  0.19376396128E+02  0.51100000000E-03 0.  1.
        -12    1    3    3    0    0 -0.33106264647E+01 -0.30565332293E+02 -0.15121681862E+01  0.30781267654E+02  0.00000000000E+00 0.  1.
</event>
<event>
 7    1  0.2797450E-013  0.7246158E+02  0.7816164E-02  0.1226708E+00
        -11   -1    0    0    0    0  0.00000000000E+00  0.00000000000E+00  0.45593999997E+02  0.45594000000E+02  0.51100000000E-03 0.  1.
         11   -1    0    0    0    0 -0.00000000000E+00 -0.00000000000E+00 -0.45593999997E+02  0.45594000000E+02  0.51100000000E-03 0. -1.
    9900012    2    1    2    0    0 -0.45256093021E+01  0.65216519766E+01  0.16960708325E+02  0.72461582539E+02  0.70000015951E+02 0.  0.
         12    1    1    2    0    0  0.45256093021E+01 -0.65216519766E+01 -0.16960708325E+02  0.18726417461E+02  0.00000000000E+00 0. -1.
         11    1    3    3    0    0 -0.39107826681E+00  0.78591096738E+01 -0.31831571297E+01  0.84882882048E+01  0.51100000000E-03 0. -1.
        -11    1    3    3    0    0  0.17706315790E+02 -0.23523069428E+02  0.11996326685E+02  0.31792456155E+02  0.51100000000E-03 0.  1.
         12    1    3    3    0    0 -0.21840846825E+02  0.22185611731E+02  0.81475387691E+01  0.32180838179E+02  0.00000000000E+00 0. -1.
</event>
<event>
 7    1  0.2797450E-013  0.7246160E+02  0.7816164E-02  0.1226708E+00
        -11   -1    0    0    0    0  0.00000000000E+00  0.00000000000E+00  0.45593999997E+02  0.45594000000E+02  0.51100000000E-03 0. -1.
         11   -1    0    0    0    0 -0.00000000000E+00 -0.00000000000E+00 -0.45593999997E+02  0.45594000000E+02  0.51100000000E-03 0.  1.
    9900012    2    1    2    0    0 -0.15218711655E+02  0.79202534726E+01 -0.75058946071E+01  0.72461600096E+02  0.70000038822E+02 0.  0.
         12    1    1    2    0    0  0.15218711655E+02 -0.79202534726E+01  0.75058946071E+01  0.18726399904E+02  0.00000000000E+00 0. -1.
         11    1    3    3    0    0 -0.23439417902E+00 -0.18307022533E+01 -0.72262396050E+01  0.74582136240E+01  0.51100000000E-03 0. -1.
        -11    1    3    3    0    0 -0.18382933226E+02  0.13648197372E+02 -0.28361343356E+02  0.36449572326E+02  0.51100000000E-03 0.  1.
         12    1    3    3    0    0  0.33986157504E+01 -0.38972416462E+01  0.28081688354E+02  0.28553814146E+02  0.00000000000E+00 0. -1.
</event>
<event>
 7    1  0.2797450E-013  0.7246153E+02  0.7816164E-02  0.1226708E+00
        -11   -1    0    0    0    0  0.00000000000E+00  0.00000000000E+00  0.45593999997E+02  0.45594000000E+02  0.51100000000E-03 0.  1.
         11   -1    0    0    0    0 -0.00000000000E+00 -0.00000000000E+00 -0.45593999997E+02  0.45594000000E+02  0.51100000000E-03 0. -1.
    9900012    2    1    2    0    0  0.60899697496E+01  0.10103330633E+02  0.14543581407E+02  0.72461527252E+02  0.69999943929E+02 0.  0.
         12    1    1    2    0    0 -0.60899697496E+01 -0.10103330633E+02 -0.14543581407E+02  0.18726472748E+02  0.00000000000E+00 0. -1.
         11    1    3    3    0    0 -0.24101146116E+02 -0.89373850668E+01  0.21545191312E+02  0.33540085940E+02  0.51100000000E-03 0. -1.
        -11    1    3    3    0    0 -0.90008955104E+00  0.25371535712E+01  0.91312119165E+00  0.28427275662E+01  0.51100000000E-03 0.  1.
        -12    1    3    3    0    0  0.31091205417E+02  0.16503562128E+02 -0.79147310961E+01  0.36078713746E+02  0.00000000000E+00 0.  1.
</event>
<event>
 7    1  0.2797450E-013  0.7246120E+02  0.7816164E-02  0.1226709E+00
        -11   -1    0    0    0    0  0.00000000000E+00  0.00000000000E+00  0.45593999997E+02  0.45594000000E+02  0.51100000000E-03 0. -1.
         11   -1    0    0    0    0 -0.00000000000E+00 -0.00000000000E+00 -0.45593999997E+02  0.45594000000E+02  0.51100000000E-03 0.  1.
    9900012    2    1    2    0    0  0.12400444800E+02 -0.81043709134E+01  0.11456046210E+02  0.72461204921E+02  0.69999524032E+02 0.  0.
         12    1    1    2    0    0 -0.12400444800E+02  0.81043709134E+01 -0.11456046210E+02  0.18726795079E+02  0.00000000000E+00 0. -1.
         11    1    3    3    0    0  0.13109136830E+02 -0.28326478048E+02  0.20609936956E+02  0.37403319755E+02  0.51100000000E-03 0. -1.
        -11    1    3    3    0    0 -0.66602828312E+01  0.33767837879E+01 -0.14584434642E+02  0.16384986122E+02  0.51100000000E-03 0.  1.
        -12    1    3    3    0    0  0.59515908007E+01  0.16845323347E+02  0.54305438960E+01  0.18672899045E+02  0.00000000000E+00 0.  1.
</event>
<event>
 7    1  0.2797450E-013  0.7246157E+02  0.7816164E-02  0.1226708E+00
        -11   -1    0    0    0    0  0.00000000000E+00  0.00000000000E+00  0.45593999997E+02  0.45594000000E+02  0.51100000000E-03 0.  1.
         11   -1    0    0    0    0 -0.00000000000E+00 -0.00000000000E+00 -0.45593999997E+02  0.45594000000E+02  0.51100000000E-03 0. -1.
    9900012    2    1    2    0    0  0.69435411790E+01 -0.27619099322E+01  0.17170850693E+02  0.72461574177E+02  0.70000005058E+02 0.  0.
         12    1    1    2    0    0 -0.69435411790E+01  0.27619099322E+01 -0.17170850693E+02  0.18726425823E+02  0.00000000000E+00 0. -1.
         11    1    3    3    0    0  0.12625986708E+02  0.17133183233E+01  0.10338929035E+02  0.16408670083E+02  0.51100000000E-03 0. -1.
        -11    1    3    3    0    0 -0.23356859102E+01 -0.27489236744E+02  0.15002061552E+02  0.31403430012E+02  0.51100000000E-03 0.  1.
         12    1    3    3    0    0 -0.33467596189E+01  0.23014008488E+02 -0.81701398938E+01  0.24649474082E+02  0.00000000000E+00 0. -1.
</event>
<event>
 7    1  0.2797450E-013  0.7246158E+02  0.7816164E-02  0.1226708E+00
        -11   -1    0    0    0    0  0.00000000000E+00  0.00000000000E+00  0.45593999997E+02  0.45594000000E+02  0.51100000000E-03 0.  1.
         11   -1    0    0    0    0 -0.00000000000E+00 -0.00000000000E+00 -0.45593999997E+02  0.45594000000E+02  0.51100000000E-03 0. -1.
    9900012    2    1    2    0    0  0.16859491686E+02 -0.50390668769E+01  0.64065695501E+01  0.72461580473E+02  0.70000013260E+02 0.  0.
         12    1    1    2    0    0 -0.16859491686E+02  0.50390668769E+01 -0.64065695501E+01  0.18726419527E+02  0.00000000000E+00 0. -1.
         11    1    3    3    0    0  0.30625582560E+02 -0.44338868151E+00 -0.11834009819E+02  0.32835448669E+02  0.51100000000E-03 0. -1.
        -11    1    3    3    0    0  0.96721299927E+01 -0.65148493786E+01  0.60516661213E+01  0.13138341757E+02  0.51100000000E-03 0.  1.
        -12    1    3    3    0    0 -0.23438220866E+02  0.19191711832E+01  0.12188913248E+02  0.26487790047E+02  0.00000000000E+00 0.  1.
</event>
<event>
 7    1  0.3600923E-013  0.7246158E+02  0.7816164E-02  0.1226708E+00
        -11   -1    0    0    0    0  0.00000000000E+00  0.00000000000E+00  0.45593999997E+02  0.45594000000E+02  0.51100000000E-03 0.  1.
         11   -1    0    0    0    0 -0.00000000000E+00 -0.00000000000E+00 -0.45593999997E+02  0.45594000000E+02  0.51100000000E-03 0. -1.
    9900012    2    1    2    0    0 -0.84342714126E+01 -0.14879856803E+02  0.76244233552E+01  0.72461577378E+02  0.70000009228E+02 0.  0.
         12    1    1    2    0    0  0.84342714126E+01  0.14879856803E+02 -0.76244233552E+01  0.18726422622E+02  0.00000000000E+00 0. -1.
         11    1    3    3    0    0  0.42822400321E+01 -0.81621017608E+01 -0.25231642034E+02  0.26862487689E+02  0.51100000000E-03 0. -1.
        -11    1    3    3    0    0 -0.91953524747E+01  0.62574295538E+01  0.11762873833E+01  0.11184524309E+02  0.51100000000E-03 0.  1.
        -12    1    3    3    0    0 -0.35211589699E+01 -0.12975184596E+02  0.31679778006E+02  0.34414565380E+02  0.00000000000E+00 0.  1.
</event>
<event>
 7    1  0.2797450E-013  0.7246164E+02  0.7816164E-02  0.1226708E+00
        -11   -1    0    0    0    0  0.00000000000E+00  0.00000000000E+00  0.45593999997E+02  0.45594000000E+02  0.51100000000E-03 0.  1.
         11   -1    0    0    0    0 -0.00000000000E+00 -0.00000000000E+00 -0.45593999997E+02  0.45594000000E+02  0.51100000000E-03 0. -1.
    9900012    2    1    2    0    0  0.76684489741E+01 -0.45212859843E+01  0.16475115237E+02  0.72461640005E+02  0.70000090810E+02 0.  0.
         12    1    1    2    0    0 -0.76684489741E+01  0.45212859843E+01 -0.16475115237E+02  0.18726359995E+02  0.00000000000E+00 0. -1.
         11    1    3    3    0    0  0.15575771901E+02 -0.15450099192E+02  0.15361083799E+02  0.26781955327E+02  0.51100000000E-03 0. -1.
        -11    1    3    3    0    0  0.95284941905E+01 -0.78075289787E+00  0.16892509789E+02  0.19410272122E+02  0.51100000000E-03 0.  1.
         12    1    3    3    0    0 -0.17435817118E+02  0.11709566106E+02 -0.15778478351E+02  0.26269412556E+02  0.00000000000E+00 0. -1.
</event>
<event>
 7    1  0.2797450E-013  0.7246144E+02  0.7816164E-02  0.1226708E+00
        -11   -1    0    0    0    0  0.00000000000E+00  0.00000000000E+00  0.45593999997E+02  0.45594000000E+02  0.51100000000E-03 0.  1.
         11   -1    0    0    0    0 -0.00000000000E+00 -0.00000000000E+00 -0.45593999997E+02  0.45594000000E+02  0.51100000000E-03 0. -1.
    9900012    2    1    2    0    0  0.13550040287E+02  0.65316376856E+01  0.11154281359E+02  0.72461444650E+02  0.69999836324E+02 0.  0.
         12    1    1    2    0    0 -0.13550040287E+02 -0.65316376856E+01 -0.11154281359E+02  0.18726555350E+02  0.00000000000E+00 0. -1.
         11    1    3    3    0    0 -0.98688870101E+01 -0.26516915042E+01 -0.95596451477E+01  0.13993327491E+02  0.51100000000E-03 0. -1.
        -11    1    3    3    0    0  0.27397476815E+02 -0.26338855132E+01 -0.67210637872E+01  0.28332521727E+02  0.51100000000E-03 0.  1.
        -12    1    3    3    0    0 -0.39785495175E+01  0.11817214703E+02  0.27434990294E+02  0.30135595432E+02  0.00000000000E+00 0.  1.
</event>
<event>
 7    1  0.2797450E-013  0.7246155E+02  0.7816164E-02  0.1226708E+00
        -11   -1    0    0    0    0  0.00000000000E+00  0.00000000000E+00  0.45593999997E+02  0.45594000000E+02  0.51100000000E-03 0.  1.
         11   -1    0    0    0    0 -0.00000000000E+00 -0.00000000000E+00 -0.45593999997E+02  0.45594000000E+02  0.51100000000E-03 0. -1.
    9900012    2    1    2    0    0  0.90115264587E+01  0.13925346652E+02  0.86923529827E+01  0.72461551087E+02  0.69999974979E+02 0.  0.
         12    1    1    2    0    0 -0.90115264587E+01 -0.13925346652E+02 -0.86923529827E+01  0.18726448913E+02  0.00000000000E+00 0. -1.
         11    1    3    3    0    0  0.88868902545E+01  0.53389303589E+01 -0.14049663990E+02  0.17460643008E+02  0.51100000000E-03 0. -1.
        -11    1    3    3    0    0 -0.21292380617E+02  0.13569302150E+02  0.21181179858E+02  0.32956544321E+02  0.51100000000E-03 0.  1.
         12    1    3    3    0    0  0.21417016821E+02 -0.49828858566E+01  0.15608371148E+01  0.22044363758E+02  0.00000000000E+00 0. -1.
</event>
<event>
 7    1  0.2797450E-013  0.7246156E+02  0.7816164E-02  0.1226708E+00
        -11   -1    0    0    0    0  0.00000000000E+00  0.00000000000E+00  0.45593999997E+02  0.45594000000E+02  0.51100000000E-03 0. -1.
         11   -1    0    0    0    0 -0.00000000000E+00 -0.00000000000E+00 -0.45593999997E+02  0.45594000000E+02  0.51100000000E-03 0.  1.
    9900012    2    1    2    0    0 -0.93419666331E+01 -0.27740301194E+01 -0.15990991462E+02  0.72461564365E+02  0.69999992276E+02 0.  0.
         12    1    1    2    0    0  0.93419666331E+01  0.27740301194E+01  0.15990991462E+02  0.18726435635E+02  0.00000000000E+00 0. -1.
         11    1    3    3    0    0 -0.23290014555E+01  0.85285042602E+01 -0.59274881057E+01  0.10644000573E+02  0.51100000000E-03 0. -1.
        -11    1    3    3    0    0  0.70182272138E+01  0.11485246743E+02 -0.26984882145E+02  0.30155435175E+02  0.51100000000E-03 0.  1.
         12    1    3    3    0    0 -0.14031192391E+02 -0.22787781123E+02  0.16921378789E+02  0.31662128616E+02  0.00000000000E+00 0. -1.
</event>
<event>
 7    1  0.2797450E-013  0.7246156E+02  0.7816164E-02  0.1226708E+00
        -11   -1    0    0    0    0  0.00000000000E+00  0.00000000000E+00  0.45593999997E+02  0.45594000000E+02  0.51100000000E-03 0. -1.
         11   -1    0    0    0    0 -0.00000000000E+00 -0.00000000000E+00 -0.45593999997E+02  0.45594000000E+02  0.51100000000E-03 0.  1.
    9900012    2    1    2    0    0  0.48943881059E+01  0.18075338276E+02  0.80628558110E-01  0.72461564416E+02  0.69999992342E+02 0.  0.
         12    1    1    2    0    0 -0.48943881059E+01 -0.18075338276E+02 -0.80628558110E-01  0.18726435584E+02  0.00000000000E+00 0. -1.
         11    1    3    3    0    0 -0.61413099571E+01  0.11033247947E+02  0.12166933579E+02  0.17535179532E+02  0.51100000000E-03 0. -1.
        -11    1    3    3    0    0 -0.16102571698E+02 -0.72118761774E+01  0.68142867163E+01  0.18913975706E+02  0.51100000000E-03 0.  1.
         12    1    3    3    0    0  0.27138269761E+02  0.14253966506E+02 -0.18900591737E+02  0.36012409178E+02  0.00000000000E+00 0. -1.
</event>
<event>
 7    1  0.2797450E-013  0.7246161E+02  0.7816164E-02  0.1226708E+00
        -11   -1    0    0    0    0  0.00000000000E+00  0.00000000000E+00  0.45593999997E+02  0.45594000000E+02  0.51100000000E-03 0. -1.
         11   -1    0    0    0    0 -0.00000000000E+00 -0.00000000000E+00 -0.45593999997E+02  0.45594000000E+02  0.51100000000E-03 0.  1.
    9900012    2    1    2    0    0  0.12985920739E+01  0.12653155628E+02 -0.13743695650E+02  0.72461605290E+02  0.70000045588E+02 0.  0.
         12    1    1    2    0    0 -0.12985920739E+01 -0.12653155628E+02  0.13743695650E+02  0.18726394710E+02  0.00000000000E+00 0. -1.
         11    1    3    3    0    0 -0.39988260512E+00 -0.17211230969E+02 -0.88577872667E+01  0.19360960025E+02  0.51100000000E-03 0. -1.
        -11    1    3    3    0    0 -0.14290184394E+02  0.31060545777E+01 -0.14386130548E+02  0.20513841607E+02  0.51100000000E-03 0.  1.
         12    1    3    3    0    0  0.15988659073E+02  0.26758332020E+02  0.95002221647E+01  0.32586803658E+02  0.00000000000E+00 0. -1.
</event>
<event>
 7    1  0.2797450E-013  0.7246157E+02  0.7816164E-02  0.1226708E+00
        -11   -1    0    0    0    0  0.00000000000E+00  0.00000000000E+00  0.45593999997E+02  0.45594000000E+02  0.51100000000E-03 0.  1.
         11   -1    0    0    0    0 -0.00000000000E+00 -0.00000000000E+00 -0.45593999997E+02  0.45594000000E+02  0.51100000000E-03 0. -1.
    9900012    2    1    2    0    0  0.10502675886E+02 -0.15498003797E+02 -0.42983632006E+00  0.72461572639E+02  0.70000003054E+02 0.  0.
         12    1    1    2    0    0 -0.10502675886E+02  0.15498003797E+02  0.42983632006E+00  0.18726427361E+02  0.00000000000E+00 0. -1.
         11    1    3    3    0    0 -0.98241975047E+01 -0.16448408849E+02 -0.12427077656E+02  0.22836314711E+02  0.51100000000E-03 0. -1.
        -11    1    3    3    0    0 -0.10539155655E+02 -0.13140605200E+01 -0.75403833326E+01  0.13025280727E+02  0.51100000000E-03 0.  1.
         12    1    3    3    0    0  0.30866029046E+02  0.22644655720E+01  0.19537624668E+02  0.36599977200E+02  0.00000000000E+00 0. -1.
</event>
<event>
 7    1  0.2797450E-013  0.7246157E+02  0.7816164E-02  0.1226708E+00
        -11   -1    0    0    0    0  0.00000000000E+00  0.00000000000E+00  0.45593999997E+02  0.45594000000E+02  0.51100000000E-03 0. -1.
         11   -1    0    0    0    0 -0.00000000000E+00 -0.00000000000E+00 -0.45593999997E+02  0.45594000000E+02  0.51100000000E-03 0.  1.
    9900012    2    1    2    0    0 -0.11994630057E+02 -0.12204813344E+02 -0.76059498059E+01  0.72461572380E+02  0.70000002717E+02 0.  0.
         12    1    1    2    0    0  0.11994630057E+02  0.12204813344E+02  0.76059498059E+01  0.18726427620E+02  0.00000000000E+00 0. -1.
         11    1    3    3    0    0 -0.21813284119E+02 -0.40070383396E+01 -0.14563386629E+02  0.26532394364E+02  0.51100000000E-03 0. -1.
        -11    1    3    3    0    0  0.20525144636E+02 -0.15576586644E+02 -0.71532301681E+01  0.26740985694E+02  0.51100000000E-03 0.  1.
         12    1    3    3    0    0 -0.10706490574E+02  0.73788116398E+01  0.14110666992E+02  0.19188192322E+02  0.00000000000E+00 0. -1.
</event>
<event>
 7    1  0.2797450E-013  0.7246153E+02  0.7816164E-02  0.1226708E+00
        -11   -1    0    0    0    0  0.00000000000E+00  0.00000000000E+00  0.45593999997E+02  0.45594000000E+02  0.51100000000E-03 0.  1.
         11   -1    0    0    0    0 -0.00000000000E+00 -0.00000000000E+00 -0.45593999997E+02  0.45594000000E+02  0.51100000000E-03 0. -1.
    9900012    2    1    2    0    0  0.11006220469E+02 -0.15108034154E+02  0.11362989478E+01  0.72461527820E+02  0.69999944669E+02 0.  0.
         12    1    1    2    0    0 -0.11006220469E+02  0.15108034154E+02 -0.11362989478E+01  0.18726472180E+02  0.00000000000E+00 0. -1.
         11    1    3    3    0    0 -0.61435451525E+01 -0.11277442577E+02  0.13592209636E+02  0.18699519276E+02  0.51100000000E-03 0. -1.
        -11    1    3    3    0    0 -0.98075168243E+01  0.15771909872E+02 -0.76498395616E+01  0.20086328008E+02  0.51100000000E-03 0.  1.
        -12    1    3    3    0    0  0.26957282445E+02 -0.19602501449E+02 -0.48060711264E+01  0.33675680536E+02  0.00000000000E+00 0.  1.
</event>
<event>
 7    1  0.2797450E-013  0.7246144E+02  0.7816164E-02  0.1226708E+00
        -11   -1    0    0    0    0  0.00000000000E+00  0.00000000000E+00  0.45593999997E+02  0.45594000000E+02  0.51100000000E-03 0. -1.
         11   -1    0    0    0    0 -0.00000000000E+00 -0.00000000000E+00 -0.45593999997E+02  0.45594000000E+02  0.51100000000E-03 0.  1.
    9900012    2    1    2    0    0  0.65723904809E+01 -0.17400354198E+02 -0.21714759129E+01  0.72461442642E+02  0.69999833708E+02 0.  0.
         12    1    1    2    0    0 -0.65723904809E+01  0.17400354198E+02  0.21714759129E+01  0.18726557358E+02  0.00000000000E+00 0. -1.
         11    1    3    3    0    0 -0.81342267988E+01 -0.28029257484E+02 -0.11018351244E+02  0.31196297619E+02  0.51100000000E-03 0. -1.
        -11    1    3    3    0    0 -0.85506908353E+00 -0.12432873012E+02  0.33737965078E+01  0.12910847284E+02  0.51100000000E-03 0.  1.
        -12    1    3    3    0    0  0.15561686363E+02  0.23061776297E+02  0.54730788235E+01  0.28354297739E+02  0.00000000000E+00 0.  1.
</event>
<event>
 7    1  0.2797450E-013  0.7246158E+02  0.7816164E-02  0.1226708E+00
        -11   -1    0    0    0    0  0.00000000000E+00  0.00000000000E+00  0.45593999997E+02  0.45594000000E+02  0.51100000000E-03 0. -1.
         11   -1    0    0    0    0 -0.00000000000E+00 -0.00000000000E+00 -0.45593999997E+02  0.45594000000E+02  0.51100000000E-03 0.  1.
    9900012    2    1    2    0    0 -0.16890672007E+02  0.76596471835E+01 -0.25910923307E+01  0.72461581355E+02  0.70000014408E+02 0.  0.
         12    1    1    2    0    0  0.16890672007E+02 -0.76596471835E+01  0.25910923307E+01  0.18726418645E+02  0.00000000000E+00 0. -1.
         11    1    3    3    0    0 -0.25267262354E+02 -0.23802339509E+02  0.21853643697E+01  0.34781629212E+02  0.51100000000E-03 0. -1.
        -11    1    3    3    0    0  0.60616943565E+01  0.38417297925E+01 -0.68033938228E+01  0.98888418958E+01  0.51100000000E-03 0.  1.
        -12    1    3    3    0    0  0.23148959903E+01  0.27620256900E+02  0.20269371224E+01  0.27791110247E+02  0.00000000000E+00 0.  1.
</event>
<event>
 7    1  0.2797450E-013  0.7246113E+02  0.7816164E-02  0.1226709E+00
        -11   -1    0    0    0    0  0.00000000000E+00  0.00000000000E+00  0.45593999997E+02  0.45594000000E+02  0.51100000000E-03 0. -1.
         11   -1    0    0    0    0 -0.00000000000E+00 -0.00000000000E+00 -0.45593999997E+02  0.45594000000E+02  0.51100000000E-03 0.  1.
    9900012    2    1    2    0    0  0.15141388401E+02  0.94651295159E+01 -0.56431567220E+01  0.72461133277E+02  0.69999430701E+02 0.  0.
         12    1    1    2    0    0 -0.15141388401E+02 -0.94651295159E+01  0.56431567220E+01  0.18726866723E+02  0.00000000000E+00 0. -1.
         11    1    3    3    0    0 -0.61899642631E+01  0.38386509823E+01 -0.11929197724E+02  0.13977004598E+02  0.51100000000E-03 0. -1.
        -11    1    3    3    0    0 -0.14893876829E+02  0.10263839446E+02 -0.73174089771E+01  0.19512007625E+02  0.51100000000E-03 0.  1.
         12    1    3    3    0    0  0.36225229493E+02 -0.46373609124E+01  0.13603449979E+02  0.38972121054E+02  0.00000000000E+00 0. -1.
</event>
<event>
 7    1  0.2797450E-013  0.7246159E+02  0.7816164E-02  0.1226708E+00
        -11   -1    0    0    0    0  0.00000000000E+00  0.00000000000E+00  0.45593999997E+02  0.45594000000E+02  0.51100000000E-03 0.  1.
         11   -1    0    0    0    0 -0.00000000000E+00 -0.00000000000E+00 -0.45593999997E+02  0.45594000000E+02  0.51100000000E-03 0. -1.
    9900012    2    1    2    0    0 -0.95211579269E+01 -0.12695390814E+02  0.99424953510E+01  0.72461585234E+02  0.70000019462E+02 0.  0.
         12    1    1    2    0    0  0.95211579269E+01  0.12695390814E+02 -0.99424953510E+01  0.18726414766E+02  0.00000000000E+00 0. -1.
         11    1    3    3    0    0  0.13044298400E+02 -0.17185607391E+02  0.75979952384E+01  0.22874185320E+02  0.51100000000E-03 0. -1.
        -11    1    3    3    0    0  0.29188277991E+01 -0.12483712015E+02  0.11919732947E+02  0.17505503568E+02  0.51100000000E-03 0.  1.
         12    1    3    3    0    0 -0.25484284126E+02  0.16973928592E+02 -0.95752328345E+01  0.32081896345E+02  0.00000000000E+00 0. -1.
</event>
<event>
 7    1  0.2797450E-013  0.7246156E+02  0.7816164E-02  0.1226708E+00
        -11   -1    0    0    0    0  0.00000000000E+00  0.00000000000E+00  0.45593999997E+02  0.45594000000E+02  0.51100000000E-03 0.  1.
         11   -1    0    0    0    0 -0.00000000000E+00 -0.00000000000E+00 -0.45593999997E+02  0.45594000000E+02  0.51100000000E-03 0. -1.
    9900012    2    1    2    0    0 -0.16156604760E+02 -0.19266316297E+01  0.92699411343E+01  0.72461558922E+02  0.69999985185E+02 0.  0.
         12    1    1    2    0    0  0.16156604760E+02  0.19266316297E+01 -0.92699411343E+01  0.18726441078E+02  0.00000000000E+00 0. -1.
         11    1    3    3    0    0 -0.97845573666E+01  0.97638316016E+01  0.17153447130E+01  0.13928832620E+02  0.51100000000E-03 0. -1.
        -11    1    3    3    0    0 -0.17738998712E+02 -0.18913193586E+02  0.25318365292E+02  0.36240869032E+02  0.51100000000E-03 0.  1.
         12    1    3    3    0    0  0.11366951318E+02  0.72227303542E+01 -0.17763768871E+02  0.22291857270E+02  0.00000000000E+00 0. -1.
</event>
<event>
 7    1  0.2797450E-013  0.7246170E+02  0.7816164E-02  0.1226708E+00
        -11   -1    0    0    0    0  0.00000000000E+00  0.00000000000E+00  0.45593999997E+02  0.45594000000E+02  0.51100000000E-03 0.  1.
         11   -1    0    0    0    0 -0.00000000000E+00 -0.00000000000E+00 -0.45593999997E+02  0.45594000000E+02  0.51100000000E-03 0. -1.
    9900012    2    1    2    0    0 -0.86048532703E+01  0.21393974249E+01  0.16494054230E+02  0.72461699082E+02  0.70000167770E+02 0.  0.
         12    1    1    2    0    0  0.86048532703E+01 -0.21393974249E+01 -0.16494054230E+02  0.18726300918E+02  0.00000000000E+00 0. -1.
         11    1    3    3    0    0 -0.15668389559E+02 -0.32024704778E+01  0.57628391700E+01  0.16998957735E+02  0.51100000000E-03 0. -1.
        -11    1    3    3    0    0  0.19683531284E+02 -0.15364594072E+02  0.17254158823E+02  0.30351575771E+02  0.51100000000E-03 0.  1.
         12    1    3    3    0    0 -0.12619994996E+02  0.20706461975E+02 -0.65229437636E+01  0.25111165576E+02  0.00000000000E+00 0. -1.
</event>
<event>
 7    1  0.2797450E-013  0.7246161E+02  0.7816164E-02  0.1226708E+00
        -11   -1    0    0    0    0  0.00000000000E+00  0.00000000000E+00  0.45593999997E+02  0.45594000000E+02  0.51100000000E-03 0.  1.
         11   -1    0    0    0    0 -0.00000000000E+00 -0.00000000000E+00 -0.45593999997E+02  0.45594000000E+02  0.51100000000E-03 0. -1.
    9900012    2    1    2    0    0 -0.10816155264E+02  0.14147226842E+02  0.57917486410E+01  0.72461612352E+02  0.70000054788E+02 0.  0.
         12    1    1    2    0    0  0.10816155264E+02 -0.14147226842E+02 -0.57917486410E+01  0.18726387648E+02  0.00000000000E+00 0. -1.
         11    1    3    3    0    0 -0.16199147737E+02  0.79323286966E+01 -0.24528740510E+02  0.30446565278E+02  0.51100000000E-03 0. -1.
        -11    1    3    3    0    0  0.37965988434E+01  0.11523618349E+02  0.99825534776E+00  0.12173925276E+02  0.51100000000E-03 0.  1.
        -12    1    3    3    0    0  0.15863936298E+01 -0.53087202031E+01  0.29322233804E+02  0.29841121798E+02  0.00000000000E+00 0.  1.
</event>
<event>
 7    1  0.2797450E-013  0.7246159E+02  0.7816164E-02  0.1226708E+00
        -11   -1    0    0    0    0  0.00000000000E+00  0.00000000000E+00  0.45593999997E+02  0.45594000000E+02  0.51100000000E-03 0.  1.
         11   -1    0    0    0    0 -0.00000000000E+00 -0.00000000000E+00 -0.45593999997E+02  0.45594000000E+02  0.51100000000E-03 0. -1.
    9900012    2    1    2    0    0  0.47584317164E+01 -0.17806190562E+02 -0.33129053821E+01  0.72461589858E+02  0.70000025485E+02 0.  0.
         12    1    1    2    0    0 -0.47584317164E+01  0.17806190562E+02  0.33129053821E+01  0.18726410142E+02  0.00000000000E+00 0. -1.
         11    1    3    3    0    0 -0.15343083122E+02  0.10182400876E+01  0.43763987986E+01  0.15987491338E+02  0.51100000000E-03 0. -1.
        -11    1    3    3    0    0  0.24114229825E+02 -0.25612485473E+02  0.10447991362E+02  0.36696812067E+02  0.51100000000E-03 0.  1.
         12    1    3    3    0    0 -0.40127149862E+01  0.67880548235E+01 -0.18137295543E+02  0.19777286453E+02  0.00000000000E+00 0. -1.
</event>
<event>
 7    1  0.2797450E-013  0.7246159E+02  0.7816164E-02  0.1226708E+00
        -11   -1    0    0    0    0  0.00000000000E+00  0.00000000000E+00  0.45593999997E+02  0.45594000000E+02  0.51100000000E-03 0.  1.
         11   -1    0    0    0    0 -0.00000000000E+00 -0.00000000000E+00 -0.45593999997E+02  0.45594000000E+02  0.51100000000E-03 0. -1.
    9900012    2    1    2    0    0  0.16170003394E+02  0.84740899716E+01  0.41712482634E+01  0.72461587565E+02  0.70000022498E+02 0.  0.
         12    1    1    2    0    0 -0.16170003394E+02 -0.84740899716E+01 -0.41712482634E+01  0.18726412435E+02  0.00000000000E+00 0. -1.
         11    1    3    3    0    0 -0.10999678015E+02 -0.99077252330E+01  0.32533471056E+01  0.15157183227E+02  0.51100000000E-03 0. -1.
        -11    1    3    3    0    0 -0.39598020768E+01  0.10809423287E+02  0.17718025093E+02  0.21129412621E+02  0.51100000000E-03 0.  1.
         12    1    3    3    0    0  0.31129483486E+02  0.75723919180E+01 -0.16800123935E+02  0.36174991717E+02  0.00000000000E+00 0. -1.
</event>
<event>
 7    1  0.2797450E-013  0.7246160E+02  0.7816164E-02  0.1226708E+00
        -11   -1    0    0    0    0  0.00000000000E+00  0.00000000000E+00  0.45593999997E+02  0.45594000000E+02  0.51100000000E-03 0. -1.
         11   -1    0    0    0    0 -0.00000000000E+00 -0.00000000000E+00 -0.45593999997E+02  0.45594000000E+02  0.51100000000E-03 0.  1.
    9900012    2    1    2    0    0  0.56541152818E+01  0.17339763145E+02 -0.42475684034E+01  0.72461595036E+02  0.70000032230E+02 0.  0.
         12    1    1    2    0    0 -0.56541152818E+01 -0.17339763145E+02  0.42475684034E+01  0.18726404964E+02  0.00000000000E+00 0. -1.
         11    1    3    3    0    0  0.42646682318E+01 -0.44267174233E+01  0.11896292749E+02  0.13390481833E+02  0.51100000000E-03 0. -1.
        -11    1    3    3    0    0  0.26183339891E+02  0.17371065853E+02 -0.11536681196E+02  0.33472619109E+02  0.51100000000E-03 0.  1.
         12    1    3    3    0    0 -0.24793892841E+02  0.43954147152E+01 -0.46071799566E+01  0.25598494094E+02  0.00000000000E+00 0. -1.
</event>
<event>
 7    1  0.2797450E-013  0.7246156E+02  0.7816164E-02  0.1226708E+00
        -11   -1    0    0    0    0  0.00000000000E+00  0.00000000000E+00  0.45593999997E+02  0.45594000000E+02  0.51100000000E-03 0. -1.
         11   -1    0    0    0    0 -0.00000000000E+00 -0.00000000000E+00 -0.45593999997E+02  0.45594000000E+02  0.51100000000E-03 0.  1.
    9900012    2    1    2    0    0  0.30575136843E+01  0.57735417766E+01 -0.17549852081E+02  0.72461561934E+02  0.69999989110E+02 0.  0.
         12    1    1    2    0    0 -0.30575136843E+01 -0.57735417766E+01  0.17549852081E+02  0.18726438066E+02  0.00000000000E+00 0. -1.
         11    1    3    3    0    0 -0.69024964115E+01 -0.26872969796E+02  0.32264231348E+01  0.27932253201E+02  0.51100000000E-03 0. -1.
        -11    1    3    3    0    0 -0.41304981351E+01  0.34607683037E+00 -0.22432039156E+01  0.47130402168E+01  0.51100000000E-03 0.  1.
        -12    1    3    3    0    0  0.14090508231E+02  0.32300434743E+02 -0.18533071300E+02  0.39816268516E+02  0.00000000000E+00 0.  1.
</event>
<event>
 7    1  0.2797450E-013  0.7246155E+02  0.7816164E-02  0.1226708E+00
        -11   -1    0    0    0    0  0.00000000000E+00  0.00000000000E+00  0.45593999997E+02  0.45594000000E+02  0.51100000000E-03 0. -1.
         11   -1    0    0    0    0 -0.00000000000E+00 -0.00000000000E+00 -0.45593999997E+02  0.45594000000E+02  0.51100000000E-03 0.  1.
    9900012    2    1    2    0    0 -0.14586999434E+02  0.48630562647E+01 -0.10688779783E+02  0.72461551271E+02  0.69999975219E+02 0.  0.
         12    1    1    2    0    0  0.14586999434E+02 -0.48630562647E+01  0.10688779783E+02  0.18726448729E+02  0.00000000000E+00 0. -1.
         11    1    3    3    0    0  0.41650776236E+01 -0.60838402966E+01 -0.92873417186E+01  0.11858149131E+02  0.51100000000E-03 0. -1.
        -11    1    3    3    0    0 -0.22740657573E+02  0.28511749886E+02 -0.13518662381E+02  0.38894879114E+02  0.51100000000E-03 0.  1.
         12    1    3    3    0    0  0.39885805151E+01 -0.17564853325E+02  0.12117224316E+02  0.21708523026E+02  0.00000000000E+00 0. -1.
</event>
<event>
 7    1  0.2797450E-013  0.7246166E+02  0.7816164E-02  0.1226708E+00
        -11   -1    0    0    0    0  0.00000000000E+00  0.00000000000E+00  0.45593999997E+02  0.45594000000E+02  0.51100000000E-03 0.  1.
         11   -1    0    0    0    0 -0.00000000000E+00 -0.00000000000E+00 -0.45593999997E+02  0.45594000000E+02  0.51100000000E-03 0. -1.
    9900012    2    1    2    0    0 -0.65937498076E+01  0.13644354846E+02  0.11001359640E+02  0.72461658403E+02  0.70000114777E+02 0.  0.
         12    1    1    2    0    0  0.65937498076E+01 -0.13644354846E+02 -0.11001359640E+02  0.18726341597E+02  0.00000000000E+00 0. -1.
         11    1    3    3    0    0  0.22396454292E+02  0.97239300012E+01  0.19343546216E+01  0.24492809304E+02  0.51100000000E-03 0. -1.
        -11    1    3    3    0    0  0.69507612425E+01 -0.35314365630E+01 -0.43020703829E+01  0.89046019501E+01  0.51100000000E-03 0.  1.
        -12    1    3    3    0    0 -0.35940965342E+02  0.74518614081E+01  0.13369075401E+02  0.39064247149E+02  0.00000000000E+00 0.  1.
</event>
<event>
 7    1  0.2797450E-013  0.7246157E+02  0.7816164E-02  0.1226708E+00
        -11   -1    0    0    0    0  0.00000000000E+00  0.00000000000E+00  0.45593999997E+02  0.45594000000E+02  0.51100000000E-03 0.  1.
         11   -1    0    0    0    0 -0.00000000000E+00 -0.00000000000E+00 -0.45593999997E+02  0.45594000000E+02  0.51100000000E-03 0. -1.
    9900012    2    1    2    0    0 -0.15805363741E+02  0.67472903309E+01  0.74393246225E+01  0.72461574803E+02  0.70000005874E+02 0.  0.
         12    1    1    2    0    0  0.15805363741E+02 -0.67472903309E+01 -0.74393246225E+01  0.18726425197E+02  0.00000000000E+00 0. -1.
         11    1    3    3    0    0 -0.24141194661E+02  0.18977434148E+02 -0.88863685666E+01  0.31967293177E+02  0.51100000000E-03 0. -1.
        -11    1    3    3    0    0 -0.56297685069E+01  0.86616006590E+01  0.10434609992E+02  0.14683279789E+02  0.51100000000E-03 0.  1.
         12    1    3    3    0    0  0.13965599426E+02 -0.20891744476E+02  0.58910831971E+01  0.25811001837E+02  0.00000000000E+00 0. -1.
</event>
<event>
 7    1  0.2797450E-013  0.7246158E+02  0.7816164E-02  0.1226708E+00
        -11   -1    0    0    0    0  0.00000000000E+00  0.00000000000E+00  0.45593999997E+02  0.45594000000E+02  0.51100000000E-03 0.  1.
         11   -1    0    0    0    0 -0.00000000000E+00 -0.00000000000E+00 -0.45593999997E+02  0.45594000000E+02  0.51100000000E-03 0. -1.
    9900012    2    1    2    0    0  0.17717904471E+01 -0.33977566621E+01  0.18330164637E+02  0.72461576761E+02  0.70000008424E+02 0.  0.
         12    1    1    2    0    0 -0.17717904471E+01  0.33977566621E+01 -0.18330164637E+02  0.18726423239E+02  0.00000000000E+00 0. -1.
         11    1    3    3    0    0 -0.14859691871E+02  0.23164838252E+01 -0.13482671738E+02  0.20197994387E+02  0.51100000000E-03 0.  1.
        -11    1    3    3    0    0  0.27767086657E+02 -0.69550775871E+00  0.15258683107E+02  0.31691043575E+02  0.51100000000E-03 0. -1.
         12    1    3    3    0    0 -0.11135604339E+02 -0.50187327285E+01  0.16554153267E+02  0.20572538798E+02  0.00000000000E+00 0. -1.
</event>
<event>
 7    1  0.2797450E-013  0.7246156E+02  0.7816164E-02  0.1226708E+00
        -11   -1    0    0    0    0  0.00000000000E+00  0.00000000000E+00  0.45593999997E+02  0.45594000000E+02  0.51100000000E-03 0. -1.
         11   -1    0    0    0    0 -0.00000000000E+00 -0.00000000000E+00 -0.45593999997E+02  0.45594000000E+02  0.51100000000E-03 0.  1.
    9900012    2    1    2    0    0 -0.15268319672E+02  0.11624701642E+01 -0.10779924569E+02  0.72461556232E+02  0.69999981682E+02 0.  0.
         12    1    1    2    0    0  0.15268319672E+02 -0.11624701642E+01  0.10779924569E+02  0.18726443768E+02  0.00000000000E+00 0. -1.
         11    1    3    3    0    0  0.13289756316E+02  0.16431801292E+02 -0.74603057252E+00  0.21146590233E+02  0.51100000000E-03 0. -1.
        -11    1    3    3    0    0  0.48391441575E+01  0.13254024588E+00 -0.13531549964E+02  0.14371420521E+02  0.51100000000E-03 0.  1.
         12    1    3    3    0    0 -0.33397220145E+02 -0.15401871373E+02  0.34976559684E+01  0.36943545478E+02  0.00000000000E+00 0. -1.
</event>
<event>
 7    1  0.2797450E-013  0.7246148E+02  0.7816164E-02  0.1226708E+00
        -11   -1    0    0    0    0  0.00000000000E+00  0.00000000000E+00  0.45593999997E+02  0.45594000000E+02  0.51100000000E-03 0. -1.
         11   -1    0    0    0    0 -0.00000000000E+00 -0.00000000000E+00 -0.45593999997E+02  0.45594000000E+02  0.51100000000E-03 0.  1.
    9900012    2    1    2    0    0 -0.14848864425E+02  0.52084350163E+01 -0.10152149845E+02  0.72461475589E+02  0.69999876629E+02 0.  0.
         12    1    1    2    0    0  0.14848864425E+02 -0.52084350163E+01  0.10152149845E+02  0.18726524411E+02  0.00000000000E+00 0. -1.
         11    1    3    3    0    0  0.15519729300E+02  0.74100043453E+01  0.85009677144E+01  0.19184280395E+02  0.51100000000E-03 0.  1.
        -11    1    3    3    0    0  0.65707269070E+01  0.13661668856E+01 -0.14445292587E+02  0.15928193314E+02  0.51100000000E-03 0. -1.
        -12    1    3    3    0    0 -0.36939320632E+02 -0.35677362146E+01 -0.42078249720E+01  0.37349001880E+02  0.00000000000E+00 0.  1.
</event>
<event>
 7    1  0.2797450E-013  0.7246153E+02  0.7816164E-02  0.1226708E+00
        -11   -1    0    0    0    0  0.00000000000E+00  0.00000000000E+00  0.45593999997E+02  0.45594000000E+02  0.51100000000E-03 0.  1.
         11   -1    0    0    0    0 -0.00000000000E+00 -0.00000000000E+00 -0.45593999997E+02  0.45594000000E+02  0.51100000000E-03 0. -1.
    9900012    2    1    2    0    0  0.10694569983E+02  0.11106040727E+02  0.10628390996E+02  0.72461530420E+02  0.69999948057E+02 0.  0.
         12    1    1    2    0    0 -0.10694569983E+02 -0.11106040727E+02 -0.10628390996E+02  0.18726469580E+02  0.00000000000E+00 0. -1.
         11    1    3    3    0    0 -0.14624838860E+02  0.38802948029E+01 -0.44474893681E+01  0.15770946750E+02  0.51100000000E-03 0. -1.
        -11    1    3    3    0    0  0.19053484385E+02 -0.14129584413E+02 -0.76090227023E+01  0.24911395980E+02  0.51100000000E-03 0.  1.
         12    1    3    3    0    0  0.62659244578E+01  0.21355330337E+02  0.22684903067E+02  0.31779187691E+02  0.00000000000E+00 0. -1.
</event>
<event>
 7    1  0.2797450E-013  0.7246159E+02  0.7816164E-02  0.1226708E+00
        -11   -1    0    0    0    0  0.00000000000E+00  0.00000000000E+00  0.45593999997E+02  0.45594000000E+02  0.51100000000E-03 0.  1.
         11   -1    0    0    0    0 -0.00000000000E+00 -0.00000000000E+00 -0.45593999997E+02  0.45594000000E+02  0.51100000000E-03 0. -1.
    9900012    2    1    2    0    0 -0.92783034441E+01  0.89660410215E-01  0.16266026140E+02  0.72461586564E+02  0.70000021194E+02 0.  0.
         12    1    1    2    0    0  0.92783034441E+01 -0.89660410215E-01 -0.16266026140E+02  0.18726413436E+02  0.00000000000E+00 0. -1.
         11    1    3    3    0    0 -0.10852330363E+02  0.58214052083E+01 -0.12532489848E+02  0.17570575829E+02  0.51100000000E-03 0. -1.
        -11    1    3    3    0    0  0.33232725402E+01  0.13583680996E+02 -0.58699908093E+01  0.15166321971E+02  0.51100000000E-03 0.  1.
        -12    1    3    3    0    0 -0.17492456211E+01 -0.19315425794E+02  0.34668506797E+02  0.39724688764E+02  0.00000000000E+00 0.  1.
</event>
<event>
 7    1  0.2797450E-013  0.7246157E+02  0.7816164E-02  0.1226708E+00
        -11   -1    0    0    0    0  0.00000000000E+00  0.00000000000E+00  0.45593999997E+02  0.45594000000E+02  0.51100000000E-03 0.  1.
         11   -1    0    0    0    0 -0.00000000000E+00 -0.00000000000E+00 -0.45593999997E+02  0.45594000000E+02  0.51100000000E-03 0. -1.
    9900012    2    1    2    0    0  0.31226019686E+00  0.95309359296E+01  0.16116537517E+02  0.72461574082E+02  0.70000004934E+02 0.  0.
         12    1    1    2    0    0 -0.31226019686E+00 -0.95309359296E+01 -0.16116537517E+02  0.18726425918E+02  0.00000000000E+00 0. -1.
         11    1    3    3    0    0 -0.63952904574E+01 -0.88879187282E+01 -0.15066874340E+02  0.18625400452E+02  0.51100000000E-03 0. -1.
        -11    1    3    3    0    0  0.17747238961E+02  0.37490624278E+00  0.21019404656E+01  0.17875211871E+02  0.51100000000E-03 0.  1.
        -12    1    3    3    0    0 -0.11039688307E+02  0.18043948415E+02  0.29081471392E+02  0.35960961759E+02  0.00000000000E+00 0.  1.
</event>
<event>
 7    1  0.2797450E-013  0.7246154E+02  0.7816164E-02  0.1226708E+00
        -11   -1    0    0    0    0  0.00000000000E+00  0.00000000000E+00  0.45593999997E+02  0.45594000000E+02  0.51100000000E-03 0. -1.
         11   -1    0    0    0    0 -0.00000000000E+00 -0.00000000000E+00 -0.45593999997E+02  0.45594000000E+02  0.51100000000E-03 0.  1.
    9900012    2    1    2    0    0 -0.49839381419E+01 -0.17656240423E+02 -0.37547181137E+01  0.72461538151E+02  0.69999958127E+02 0.  0.
         12    1    1    2    0    0  0.49839381419E+01  0.17656240423E+02  0.37547181137E+01  0.18726461849E+02  0.00000000000E+00 0. -1.
         11    1    3    3    0    0 -0.23150550336E+01  0.88955744753E+01 -0.60451862571E+01  0.11001590894E+02  0.51100000000E-03 0. -1.
        -11    1    3    3    0    0 -0.17117234298E+02  0.77635321450E+01 -0.11175120819E+02  0.21866766267E+02  0.51100000000E-03 0.  1.
         12    1    3    3    0    0  0.14448351190E+02 -0.34315347043E+02  0.13465588962E+02  0.39593180990E+02  0.00000000000E+00 0. -1.
</event>
<event>
 7    1  0.2797450E-013  0.7246159E+02  0.7816164E-02  0.1226708E+00
        -11   -1    0    0    0    0  0.00000000000E+00  0.00000000000E+00  0.45593999997E+02  0.45594000000E+02  0.51100000000E-03 0. -1.
         11   -1    0    0    0    0 -0.00000000000E+00 -0.00000000000E+00 -0.45593999997E+02  0.45594000000E+02  0.51100000000E-03 0.  1.
    9900012    2    1    2    0    0 -0.33378399839E+01 -0.17656773252E+02 -0.52702546930E+01  0.72461590789E+02  0.70000026698E+02 0.  0.
         12    1    1    2    0    0  0.33378399839E+01  0.17656773252E+02  0.52702546930E+01  0.18726409211E+02  0.00000000000E+00 0. -1.
         11    1    3    3    0    0  0.68689387042E+01  0.16443884589E+02  0.54854445482E+01  0.18646011945E+02  0.51100000000E-03 0. -1.
        -11    1    3    3    0    0  0.11202684823E+01 -0.16004993040E+01  0.12258043659E+02  0.12412744825E+02  0.51100000000E-03 0.  1.
        -12    1    3    3    0    0 -0.11327047170E+02 -0.32500158537E+02 -0.23013742900E+02  0.41402834019E+02  0.00000000000E+00 0.  1.
</event>
<event>
 7    1  0.2797450E-013  0.7246155E+02  0.7816164E-02  0.1226708E+00
        -11   -1    0    0    0    0  0.00000000000E+00  0.00000000000E+00  0.45593999997E+02  0.45594000000E+02  0.51100000000E-03 0. -1.
         11   -1    0    0    0    0 -0.00000000000E+00 -0.00000000000E+00 -0.45593999997E+02  0.45594000000E+02  0.51100000000E-03 0.  1.
    9900012    2    1    2    0    0 -0.15448852240E+02  0.53158294654E+01 -0.91517662197E+01  0.72461550700E+02  0.69999974475E+02 0.  0.
         12    1    1    2    0    0  0.15448852240E+02 -0.53158294654E+01  0.91517662197E+01  0.18726449300E+02  0.00000000000E+00 0. -1.
         11    1    3    3    0    0 -0.10860391115E+02  0.20383378938E+02 -0.11318750293E+02  0.25720504283E+02  0.51100000000E-03 0. -1.
        -11    1    3    3    0    0 -0.18004017123E+02  0.45670935658E+01 -0.88004691585E+01  0.20553618511E+02  0.51100000000E-03 0.  1.
        -12    1    3    3    0    0  0.13415555998E+02 -0.19634643038E+02  0.10967453232E+02  0.26187427907E+02  0.00000000000E+00 0.  1.
</event>
<event>
 7    1  0.2797450E-013  0.7246155E+02  0.7816164E-02  0.1226708E+00
        -11   -1    0    0    0    0  0.00000000000E+00  0.00000000000E+00  0.45593999997E+02  0.45594000000E+02  0.51100000000E-03 0.  1.
         11   -1    0    0    0    0 -0.00000000000E+00 -0.00000000000E+00 -0.45593999997E+02  0.45594000000E+02  0.51100000000E-03 0. -1.
    9900012    2    1    2    0    0 -0.14866204405E+02 -0.37297886452E+01  0.10759395518E+02  0.72461549491E+02  0.69999972900E+02 0.  0.
         12    1    1    2    0    0  0.14866204405E+02  0.37297886452E+01 -0.10759395518E+02  0.18726450509E+02  0.00000000000E+00 0. -1.
         11    1    3    3    0    0 -0.11210434208E+02  0.18217198465E+02  0.85204086159E+01  0.23024715379E+02  0.51100000000E-03 0. -1.
        -11    1    3    3    0    0  0.26961436270E+01  0.12993823045E+02  0.40569156763E+01  0.13876858177E+02  0.51100000000E-03 0.  1.
         12    1    3    3    0    0 -0.63519138240E+01 -0.34940810155E+02 -0.18179287746E+01  0.35559975936E+02  0.00000000000E+00 0. -1.
</event>
<event>
 7    1  0.2797450E-013  0.7246179E+02  0.7816164E-02  0.1226707E+00
        -11   -1    0    0    0    0  0.00000000000E+00  0.00000000000E+00  0.45593999997E+02  0.45594000000E+02  0.51100000000E-03 0. -1.
         11   -1    0    0    0    0 -0.00000000000E+00 -0.00000000000E+00 -0.45593999997E+02  0.45594000000E+02  0.51100000000E-03 0.  1.
    9900012    2    1    2    0    0 -0.45486831209E+01  0.16004327581E+01 -0.18094725719E+02  0.72461788371E+02  0.70000284084E+02 0.  0.
         12    1    1    2    0    0  0.45486831209E+01 -0.16004327581E+01  0.18094725719E+02  0.18726211629E+02  0.00000000000E+00 0. -1.
         11    1    3    3    0    0  0.47192727793E+01  0.13374595702E+02  0.12396408764E+01  0.14236855535E+02  0.51100000000E-03 0. -1.
        -11    1    3    3    0    0 -0.21381096701E+02  0.98299888334E+00  0.10307192007E+02  0.23756173730E+02  0.51100000000E-03 0.  1.
        -12    1    3    3    0    0  0.12113140801E+02 -0.12757161827E+02 -0.29641558602E+02  0.34468759106E+02  0.00000000000E+00 0.  1.
</event>
<event>
 7    1  0.2797450E-013  0.7246157E+02  0.7816164E-02  0.1226708E+00
        -11   -1    0    0    0    0  0.00000000000E+00  0.00000000000E+00  0.45593999997E+02  0.45594000000E+02  0.51100000000E-03 0. -1.
         11   -1    0    0    0    0 -0.00000000000E+00 -0.00000000000E+00 -0.45593999997E+02  0.45594000000E+02  0.51100000000E-03 0.  1.
    9900012    2    1    2    0    0 -0.11596391841E+02 -0.29227782555E+01 -0.14410426638E+02  0.72461565947E+02  0.69999994336E+02 0.  0.
         12    1    1    2    0    0  0.11596391841E+02  0.29227782555E+01  0.14410426638E+02  0.18726434053E+02  0.00000000000E+00 0. -1.
         11    1    3    3    0    0  0.62537017852E+01  0.16979099432E+02 -0.48627390738E+01  0.18736190517E+02  0.51100000000E-03 0. -1.
        -11    1    3    3    0    0  0.13629679395E+01  0.26111706957E+01 -0.21577089038E+02  0.21777205184E+02  0.51100000000E-03 0.  1.
        -12    1    3    3    0    0 -0.19213061565E+02 -0.22513048383E+02  0.12029401474E+02  0.31948170245E+02  0.00000000000E+00 0.  1.
</event>
<event>
 7    1  0.2797450E-013  0.7246161E+02  0.7816164E-02  0.1226708E+00
        -11   -1    0    0    0    0  0.00000000000E+00  0.00000000000E+00  0.45593999997E+02  0.45594000000E+02  0.51100000000E-03 0.  1.
         11   -1    0    0    0    0 -0.00000000000E+00 -0.00000000000E+00 -0.45593999997E+02  0.45594000000E+02  0.51100000000E-03 0. -1.
    9900012    2    1    2    0    0  0.11683903237E+02  0.12882241028E+02  0.69434825816E+01  0.72461610089E+02  0.70000051839E+02 0.  0.
         12    1    1    2    0    0 -0.11683903237E+02 -0.12882241028E+02 -0.69434825816E+01  0.18726389911E+02  0.00000000000E+00 0. -1.
         11    1    3    3    0    0 -0.20855671812E+02 -0.27948675432E+01 -0.13518343386E+02  0.25010316661E+02  0.51100000000E-03 0. -1.
        -11    1    3    3    0    0 -0.17453186374E+01  0.73153723162E+01  0.34078496707E+01  0.82567698836E+01  0.51100000000E-03 0.  1.
        -12    1    3    3    0    0  0.34284893687E+02  0.83617362548E+01  0.17053976297E+02  0.39194523544E+02  0.00000000000E+00 0.  1.
</event>
<event>
 7    1  0.2797450E-013  0.7246152E+02  0.7816164E-02  0.1226708E+00
        -11   -1    0    0    0    0  0.00000000000E+00  0.00000000000E+00  0.45593999997E+02  0.45594000000E+02  0.51100000000E-03 0. -1.
         11   -1    0    0    0    0 -0.00000000000E+00 -0.00000000000E+00 -0.45593999997E+02  0.45594000000E+02  0.51100000000E-03 0.  1.
    9900012    2    1    2    0    0 -0.38101433137E+01  0.15684335630E+02 -0.94955590426E+01  0.72461515606E+02  0.69999928758E+02 0.  0.
         12    1    1    2    0    0  0.38101433137E+01 -0.15684335630E+02  0.94955590426E+01  0.18726484394E+02  0.00000000000E+00 0. -1.
         11    1    3    3    0    0 -0.48730299708E+01  0.36866202444E+01 -0.13527103453E+02  0.14843184227E+02  0.51100000000E-03 0. -1.
        -11    1    3    3    0    0 -0.15796220049E+00  0.26100340335E+02 -0.17804761595E+02  0.31595288468E+02  0.51100000000E-03 0.  1.
         12    1    3    3    0    0  0.12208488576E+01 -0.14102624949E+02  0.21836306005E+02  0.26023042911E+02  0.00000000000E+00 0. -1.
</event>
<event>
 7    1  0.2797450E-013  0.7246154E+02  0.7816164E-02  0.1226708E+00
        -11   -1    0    0    0    0  0.00000000000E+00  0.00000000000E+00  0.45593999997E+02  0.45594000000E+02  0.51100000000E-03 0.  1.
         11   -1    0    0    0    0 -0.00000000000E+00 -0.00000000000E+00 -0.45593999997E+02  0.45594000000E+02  0.51100000000E-03 0. -1.
    9900012    2    1    2    0    0 -0.37597442289E+01 -0.24300127193E+01  0.18183504205E+02  0.72461535741E+02  0.69999954987E+02 0.  0.
         12    1    1    2    0    0  0.37597442289E+01  0.24300127193E+01 -0.18183504205E+02  0.18726464259E+02  0.00000000000E+00 0. -1.
         11    1    3    3    0    0  0.36347929231E+01 -0.50392614800E+01  0.61472321762E-01  0.62136667891E+01  0.51100000000E-03 0. -1.
        -11    1    3    3    0    0  0.90110387013E+01  0.33224055285E+01  0.38726879527E+02  0.39899979889E+02  0.51100000000E-03 0.  1.
         12    1    3    3    0    0 -0.16405575853E+02 -0.71315676781E+00 -0.20604847643E+02  0.26347889063E+02  0.00000000000E+00 0. -1.
</event>
<event>
 7    1  0.2797450E-013  0.7246150E+02  0.7816164E-02  0.1226708E+00
        -11   -1    0    0    0    0  0.00000000000E+00  0.00000000000E+00  0.45593999997E+02  0.45594000000E+02  0.51100000000E-03 0. -1.
         11   -1    0    0    0    0 -0.00000000000E+00 -0.00000000000E+00 -0.45593999997E+02  0.45594000000E+02  0.51100000000E-03 0.  1.
    9900012    2    1    2    0    0 -0.57697313931E+01 -0.54778621826E+01 -0.16952435778E+02  0.72461498638E+02  0.69999906654E+02 0.  0.
         12    1    1    2    0    0  0.57697313931E+01  0.54778621826E+01  0.16952435778E+02  0.18726501362E+02  0.00000000000E+00 0. -1.
         11    1    3    3    0    0 -0.22059453676E+02 -0.14228229278E+02 -0.12853068268E+01  0.26281438674E+02  0.51100000000E-03 0. -1.
        -11    1    3    3    0    0  0.12239235962E+02  0.87249945693E+01  0.11366490023E+02  0.18844668288E+02  0.51100000000E-03 0.  1.
        -12    1    3    3    0    0  0.40504863210E+01  0.25372525661E-01 -0.27033618975E+02  0.27335391676E+02  0.00000000000E+00 0.  1.
</event>
<event>
 7    1  0.2797450E-013  0.7246180E+02  0.7816164E-02  0.1226707E+00
        -11   -1    0    0    0    0  0.00000000000E+00  0.00000000000E+00  0.45593999997E+02  0.45594000000E+02  0.51100000000E-03 0. -1.
         11   -1    0    0    0    0 -0.00000000000E+00 -0.00000000000E+00 -0.45593999997E+02  0.45594000000E+02  0.51100000000E-03 0.  1.
    9900012    2    1    2    0    0  0.66448423461E+01 -0.15675512908E+02  0.77971037782E+01  0.72461802787E+02  0.70000302864E+02 0.  0.
         12    1    1    2    0    0 -0.66448423461E+01  0.15675512908E+02 -0.77971037782E+01  0.18726197213E+02  0.00000000000E+00 0. -1.
         11    1    3    3    0    0  0.12832554333E+02 -0.14955526940E+02  0.15955479485E+02  0.25355858546E+02  0.51100000000E-03 0. -1.
        -11    1    3    3    0    0  0.10639624981E+01  0.14097124903E+02  0.13723367305E+02  0.19702582500E+02  0.51100000000E-03 0.  1.
        -12    1    3    3    0    0 -0.72516744848E+01 -0.14817110871E+02 -0.21881743012E+02  0.27403361740E+02  0.00000000000E+00 0.  1.
</event>
<event>
 7    1  0.2797450E-013  0.7246156E+02  0.7816164E-02  0.1226708E+00
        -11   -1    0    0    0    0  0.00000000000E+00  0.00000000000E+00  0.45593999997E+02  0.45594000000E+02  0.51100000000E-03 0.  1.
         11   -1    0    0    0    0 -0.00000000000E+00 -0.00000000000E+00 -0.45593999997E+02  0.45594000000E+02  0.51100000000E-03 0. -1.
    9900012    2    1    2    0    0 -0.16343201324E+02  0.89181518958E+01 -0.20113991308E+01  0.72461564429E+02  0.69999992359E+02 0.  0.
         12    1    1    2    0    0  0.16343201324E+02 -0.89181518958E+01  0.20113991308E+01  0.18726435571E+02  0.00000000000E+00 0. -1.
         11    1    3    3    0    0 -0.14234142789E+02  0.17231049522E+02  0.52711261923E+01  0.22963115210E+02  0.51100000000E-03 0. -1.
        -11    1    3    3    0    0  0.72309710495E+01  0.13068316705E+02  0.12055741540E+02  0.19193976872E+02  0.51100000000E-03 0.  1.
         12    1    3    3    0    0 -0.93400295838E+01 -0.21381214331E+02 -0.19338266863E+02  0.30304472346E+02  0.00000000000E+00 0. -1.
</event>
<event>
 7    1  0.2797450E-013  0.7246157E+02  0.7816164E-02  0.1226708E+00
        -11   -1    0    0    0    0  0.00000000000E+00  0.00000000000E+00  0.45593999997E+02  0.45594000000E+02  0.51100000000E-03 0.  1.
         11   -1    0    0    0    0 -0.00000000000E+00 -0.00000000000E+00 -0.45593999997E+02  0.45594000000E+02  0.51100000000E-03 0. -1.
    9900012    2    1    2    0    0  0.82359746349E+01 -0.16610397305E+02  0.26348527744E+01  0.72461574128E+02  0.70000004993E+02 0.  0.
         12    1    1    2    0    0 -0.82359746349E+01  0.16610397305E+02 -0.26348527744E+01  0.18726425872E+02  0.00000000000E+00 0. -1.
         11    1    3    3    0    0  0.17199118424E+02 -0.11958842140E+01 -0.22922973022E+02  0.28682791113E+02  0.51100000000E-03 0. -1.
        -11    1    3    3    0    0  0.84329767290E+01 -0.22606929406E+01 -0.16743332251E+01  0.88898380802E+01  0.51100000000E-03 0.  1.
        -12    1    3    3    0    0 -0.17396120518E+02 -0.13153820150E+02  0.27232159022E+02  0.34888944934E+02  0.00000000000E+00 0.  1.
</event>
<event>
 7    1  0.2797450E-013  0.7246158E+02  0.7816164E-02  0.1226708E+00
        -11   -1    0    0    0    0  0.00000000000E+00  0.00000000000E+00  0.45593999997E+02  0.45594000000E+02  0.51100000000E-03 0. -1.
         11   -1    0    0    0    0 -0.00000000000E+00 -0.00000000000E+00 -0.45593999997E+02  0.45594000000E+02  0.51100000000E-03 0.  1.
    9900012    2    1    2    0    0  0.42666354298E+01  0.15553454892E+02 -0.95165392450E+01  0.72461584001E+02  0.70000017856E+02 0.  0.
         12    1    1    2    0    0 -0.42666354298E+01 -0.15553454892E+02  0.95165392450E+01  0.18726415999E+02  0.00000000000E+00 0. -1.
         11    1    3    3    0    0 -0.99842626133E+01  0.42375477454E+01  0.12876692727E+02  0.16836018730E+02  0.51100000000E-03 0. -1.
        -11    1    3    3    0    0 -0.67555956001E+01 -0.14071280391E+02  0.30713021143E+00  0.15611961216E+02  0.51100000000E-03 0.  1.
        -12    1    3    3    0    0  0.21006493643E+02  0.25387187538E+02 -0.22700362184E+02  0.40013604056E+02  0.00000000000E+00 0.  1.
</event>
<event>
 7    1  0.2797450E-013  0.7246160E+02  0.7816164E-02  0.1226708E+00
        -11   -1    0    0    0    0  0.00000000000E+00  0.00000000000E+00  0.45593999997E+02  0.45594000000E+02  0.51100000000E-03 0.  1.
         11   -1    0    0    0    0 -0.00000000000E+00 -0.00000000000E+00 -0.45593999997E+02  0.45594000000E+02  0.51100000000E-03 0. -1.
    9900012    2    1    2    0    0 -0.12165388564E+02 -0.22346717833E+01  0.14060148147E+02  0.72461596106E+02  0.70000033624E+02 0.  0.
         12    1    1    2    0    0  0.12165388564E+02  0.22346717833E+01 -0.14060148147E+02  0.18726403894E+02  0.00000000000E+00 0. -1.
         11    1    3    3    0    0 -0.72928246193E+01 -0.26154365498E+02  0.14298550559E+02  0.30686881136E+02  0.51100000000E-03 0. -1.
        -11    1    3    3    0    0 -0.84248653321E+00  0.21257107085E+01 -0.14981883890E+02  0.15155371151E+02  0.51100000000E-03 0.  1.
        -12    1    3    3    0    0 -0.40300774114E+01  0.21793983006E+02  0.14743481478E+02  0.26619343818E+02  0.00000000000E+00 0.  1.
</event>
<event>
 7    1  0.2797450E-013  0.7246157E+02  0.7816164E-02  0.1226708E+00
        -11   -1    0    0    0    0  0.00000000000E+00  0.00000000000E+00  0.45593999997E+02  0.45594000000E+02  0.51100000000E-03 0.  1.
         11   -1    0    0    0    0 -0.00000000000E+00 -0.00000000000E+00 -0.45593999997E+02  0.45594000000E+02  0.51100000000E-03 0. -1.
    9900012    2    1    2    0    0 -0.14562826069E+02 -0.22101916733E+00 -0.11770919631E+02  0.72461566769E+02  0.69999995408E+02 0.  0.
         12    1    1    2    0    0  0.14562826069E+02  0.22101916733E+00  0.11770919631E+02  0.18726433231E+02  0.00000000000E+00 0. -1.
         11    1    3    3    0    0 -0.17395801875E+02  0.76099220337E+01 -0.33904409087E+01  0.19287818074E+02  0.51100000000E-03 0. -1.
        -11    1    3    3    0    0 -0.17627610649E+02 -0.13334096919E+02  0.10794254182E+02  0.24597697483E+02  0.51100000000E-03 0.  1.
        -12    1    3    3    0    0  0.20460586456E+02  0.55031557176E+01 -0.19174732904E+02  0.28576051213E+02  0.00000000000E+00 0.  1.
</event>
<event>
 7    1  0.2797450E-013  0.7246141E+02  0.7816164E-02  0.1226708E+00
        -11   -1    0    0    0    0  0.00000000000E+00  0.00000000000E+00  0.45593999997E+02  0.45594000000E+02  0.51100000000E-03 0. -1.
         11   -1    0    0    0    0 -0.00000000000E+00 -0.00000000000E+00 -0.45593999997E+02  0.45594000000E+02  0.51100000000E-03 0.  1.
    9900012    2    1    2    0    0  0.42625491236E+01 -0.93708180165E+01 -0.15643002710E+02  0.72461412241E+02  0.69999794105E+02 0.  0.
         12    1    1    2    0    0 -0.42625491236E+01  0.93708180165E+01  0.15643002710E+02  0.18726587759E+02  0.00000000000E+00 0. -1.
         11    1    3    3    0    0 -0.11312962815E+01 -0.28538889989E+02 -0.47792730799E+01  0.28958410255E+02  0.51100000000E-03 0. -1.
        -11    1    3    3    0    0  0.11723043141E+02 -0.61140584666E+01 -0.11366468780E+02  0.17435827029E+02  0.51100000000E-03 0.  1.
         12    1    3    3    0    0 -0.63291977355E+01  0.25282130439E+02  0.50273915018E+00  0.26067174956E+02  0.00000000000E+00 0. -1.
</event>
<event>
 7    1  0.2797450E-013  0.7246154E+02  0.7816164E-02  0.1226708E+00
        -11   -1    0    0    0    0  0.00000000000E+00  0.00000000000E+00  0.45593999997E+02  0.45594000000E+02  0.51100000000E-03 0. -1.
         11   -1    0    0    0    0 -0.00000000000E+00 -0.00000000000E+00 -0.45593999997E+02  0.45594000000E+02  0.51100000000E-03 0.  1.
    9900012    2    1    2    0    0  0.82692274926E+01 -0.15995067055E+02 -0.51437261128E+01  0.72461542467E+02  0.69999963750E+02 0.  0.
         12    1    1    2    0    0 -0.82692274926E+01  0.15995067055E+02  0.51437261128E+01  0.18726457533E+02  0.00000000000E+00 0. -1.
         11    1    3    3    0    0  0.77364237730E+01  0.32426104306E+00 -0.94214694669E+01  0.12195141869E+02  0.51100000000E-03 0. -1.
        -11    1    3    3    0    0 -0.22712065108E+00  0.68250305677E+01 -0.23285863902E+02  0.24266521876E+02  0.51100000000E-03 0.  1.
         12    1    3    3    0    0  0.75992437071E+00 -0.23144358665E+02  0.27563607256E+02  0.35999878723E+02  0.00000000000E+00 0. -1.
</event>
<event>
 7    1  0.2797450E-013  0.7246162E+02  0.7816164E-02  0.1226708E+00
        -11   -1    0    0    0    0  0.00000000000E+00  0.00000000000E+00  0.45593999997E+02  0.45594000000E+02  0.51100000000E-03 0. -1.
         11   -1    0    0    0    0 -0.00000000000E+00 -0.00000000000E+00 -0.45593999997E+02  0.45594000000E+02  0.51100000000E-03 0.  1.
    9900012    2    1    2    0    0 -0.68726886654E+01 -0.10792349507E+02 -0.13673646320E+02  0.72461621251E+02  0.70000066381E+02 0.  0.
         12    1    1    2    0    0  0.68726886654E+01  0.10792349507E+02  0.13673646320E+02  0.18726378749E+02  0.00000000000E+00 0. -1.
         11    1    3    3    0    0 -0.58366050421E+00  0.33014872417E+01 -0.14990770998E+02  0.15361109757E+02  0.51100000000E-03 0. -1.
        -11    1    3    3    0    0  0.86043101061E+01  0.39597843401E+01 -0.22068515176E+02  0.24015274447E+02  0.51100000000E-03 0.  1.
         12    1    3    3    0    0 -0.14893338267E+02 -0.18053621088E+02  0.23385639854E+02  0.33085237048E+02  0.00000000000E+00 0. -1.
</event>
<event>
 7    1  0.2797450E-013  0.7246176E+02  0.7816164E-02  0.1226708E+00
        -11   -1    0    0    0    0  0.00000000000E+00  0.00000000000E+00  0.45593999997E+02  0.45594000000E+02  0.51100000000E-03 0. -1.
         11   -1    0    0    0    0 -0.00000000000E+00 -0.00000000000E+00 -0.45593999997E+02  0.45594000000E+02  0.51100000000E-03 0.  1.
    9900012    2    1    2    0    0  0.47990405349E+01 -0.18046428627E+02  0.14027808313E+01  0.72461757176E+02  0.70000243448E+02 0.  0.
         12    1    1    2    0    0 -0.47990405349E+01  0.18046428627E+02 -0.14027808313E+01  0.18726242824E+02  0.00000000000E+00 0. -1.
         11    1    3    3    0    0 -0.17217348359E+01 -0.11800609158E+02 -0.14595399658E+02  0.18847929297E+02  0.51100000000E-03 0. -1.
        -11    1    3    3    0    0  0.97819961367E+01 -0.24312742031E+02 -0.39505770898E+01  0.26502904238E+02  0.51100000000E-03 0.  1.
         12    1    3    3    0    0 -0.32612207658E+01  0.18066922561E+02  0.19948757579E+02  0.27110923641E+02  0.00000000000E+00 0. -1.
</event>
<event>
 7    1  0.2797450E-013  0.7246118E+02  0.7816164E-02  0.1226709E+00
        -11   -1    0    0    0    0  0.00000000000E+00  0.00000000000E+00  0.45593999997E+02  0.45594000000E+02  0.51100000000E-03 0.  1.
         11   -1    0    0    0    0 -0.00000000000E+00 -0.00000000000E+00 -0.45593999997E+02  0.45594000000E+02  0.51100000000E-03 0. -1.
    9900012    2    1    2    0    0  0.69201313191E+00  0.11843267916E+02  0.14489720667E+02  0.72461177469E+02  0.69999488270E+02 0.  0.
         12    1    1    2    0    0 -0.69201313191E+00 -0.11843267916E+02 -0.14489720667E+02  0.18726822531E+02  0.00000000000E+00 0. -1.
         11    1    3    3    0    0  0.18229552016E+02 -0.16981596314E+02 -0.76768258184E+01  0.26069615167E+02  0.51100000000E-03 0. -1.
        -11    1    3    3    0    0 -0.96315840857E+01  0.19292364359E+02  0.65874185601E+00  0.21573054389E+02  0.51100000000E-03 0.  1.
        -12    1    3    3    0    0 -0.79059547979E+01  0.95324998711E+01  0.21507804629E+02  0.24818507913E+02  0.00000000000E+00 0.  1.
</event>
<event>
 7    1  0.2797450E-013  0.7246166E+02  0.7816164E-02  0.1226708E+00
        -11   -1    0    0    0    0  0.00000000000E+00  0.00000000000E+00  0.45593999997E+02  0.45594000000E+02  0.51100000000E-03 0. -1.
         11   -1    0    0    0    0 -0.00000000000E+00 -0.00000000000E+00 -0.45593999997E+02  0.45594000000E+02  0.51100000000E-03 0.  1.
    9900012    2    1    2    0    0 -0.15605913316E+02  0.11516847515E+01  0.10286149787E+02  0.72461660645E+02  0.70000117699E+02 0.  0.
         12    1    1    2    0    0  0.15605913316E+02 -0.11516847515E+01 -0.10286149787E+02  0.18726339355E+02  0.00000000000E+00 0. -1.
         11    1    3    3    0    0 -0.13854760709E+02 -0.10948379684E+02 -0.68307145935E+01  0.18933570031E+02  0.51100000000E-03 0. -1.
        -11    1    3    3    0    0  0.12595815439E+02 -0.15282286827E+02  0.67552046136E+01  0.20924522620E+02  0.51100000000E-03 0.  1.
         12    1    3    3    0    0 -0.14346968046E+02  0.27382351263E+02  0.10361659767E+02  0.32603567994E+02  0.00000000000E+00 0. -1.
</event>
<event>
 7    1  0.2797450E-013  0.7246153E+02  0.7816164E-02  0.1226708E+00
        -11   -1    0    0    0    0  0.00000000000E+00  0.00000000000E+00  0.45593999997E+02  0.45594000000E+02  0.51100000000E-03 0.  1.
         11   -1    0    0    0    0 -0.00000000000E+00 -0.00000000000E+00 -0.45593999997E+02  0.45594000000E+02  0.51100000000E-03 0. -1.
    9900012    2    1    2    0    0 -0.15698615012E+02 -0.10186726152E+02  0.68180139543E+00  0.72461527931E+02  0.69999944814E+02 0.  0.
         12    1    1    2    0    0  0.15698615012E+02  0.10186726152E+02 -0.68180139543E+00  0.18726472069E+02  0.00000000000E+00 0. -1.
         11    1    3    3    0    0  0.24144738686E+01  0.10052389740E+02 -0.96691078260E+01  0.14155277107E+02  0.51100000000E-03 0. -1.
        -11    1    3    3    0    0  0.40615293987E+01  0.11502767292E+01 -0.16749916925E+02  0.17273646832E+02  0.51100000000E-03 0.  1.
        -12    1    3    3    0    0 -0.22174618279E+02 -0.21389392622E+02  0.27100826147E+02  0.41032603993E+02  0.00000000000E+00 0.  1.
</event>
<event>
 7    1  0.2797450E-013  0.7246145E+02  0.7816164E-02  0.1226708E+00
        -11   -1    0    0    0    0  0.00000000000E+00  0.00000000000E+00  0.45593999997E+02  0.45594000000E+02  0.51100000000E-03 0. -1.
         11   -1    0    0    0    0 -0.00000000000E+00 -0.00000000000E+00 -0.45593999997E+02  0.45594000000E+02  0.51100000000E-03 0.  1.
    9900012    2    1    2    0    0  0.11647319713E+02  0.66513474000E+01 -0.13068400294E+02  0.72461452935E+02  0.69999847118E+02 0.  0.
         12    1    1    2    0    0 -0.11647319713E+02 -0.66513474000E+01  0.13068400294E+02  0.18726547065E+02  0.00000000000E+00 0. -1.
         11    1    3    3    0    0  0.83057956680E+01  0.55152902726E+01  0.41560995141E+01  0.10801751335E+02  0.51100000000E-03 0. -1.
        -11    1    3    3    0    0 -0.32970299022E+01  0.82092247776E+01 -0.37848304598E+02  0.38868443998E+02  0.51100000000E-03 0.  1.
         12    1    3    3    0    0  0.66385539471E+01 -0.70731676501E+01  0.20623804790E+02  0.22791257603E+02  0.00000000000E+00 0. -1.
</event>
<event>
 7    1  0.2797450E-013  0.7246229E+02  0.7816164E-02  0.1226706E+00
        -11   -1    0    0    0    0  0.00000000000E+00  0.00000000000E+00  0.45593999997E+02  0.45594000000E+02  0.51100000000E-03 0. -1.
         11   -1    0    0    0    0 -0.00000000000E+00 -0.00000000000E+00 -0.45593999997E+02  0.45594000000E+02  0.51100000000E-03 0.  1.
    9900012    2    1    2    0    0  0.43033312226E+01 -0.72749068898E+01 -0.16709561189E+02  0.72462285995E+02  0.70000932327E+02 0.  0.
         12    1    1    2    0    0 -0.43033312226E+01  0.72749068898E+01  0.16709561189E+02  0.18725714005E+02  0.00000000000E+00 0. -1.
         11    1    3    3    0    0  0.29983359185E+02 -0.63566665360E+01 -0.89100119746E+01  0.31918605094E+02  0.51100000000E-03 0. -1.
        -11    1    3    3    0    0 -0.14877698720E+02 -0.95453296321E+01  0.81259750570E+01  0.19454837647E+02  0.51100000000E-03 0.  1.
        -12    1    3    3    0    0 -0.10802329242E+02  0.86270892783E+01 -0.15925524271E+02  0.21088843254E+02  0.00000000000E+00 0.  1.
</event>
<event>
 7    1  0.2797450E-013  0.7246163E+02  0.7816164E-02  0.1226708E+00
        -11   -1    0    0    0    0  0.00000000000E+00  0.00000000000E+00  0.45593999997E+02  0.45594000000E+02  0.51100000000E-03 0. -1.
         11   -1    0    0    0    0 -0.00000000000E+00 -0.00000000000E+00 -0.45593999997E+02  0.45594000000E+02  0.51100000000E-03 0.  1.
    9900012    2    1    2    0    0  0.13080263926E+02  0.13026077909E+02  0.31472012657E+01  0.72461631269E+02  0.70000079431E+02 0.  0.
         12    1    1    2    0    0 -0.13080263926E+02 -0.13026077909E+02 -0.31472012657E+01  0.18726368731E+02  0.00000000000E+00 0. -1.
         11    1    3    3    0    0  0.17054278016E+02 -0.15223367614E+02  0.81370433817E+01  0.24265423867E+02  0.51100000000E-03 0. -1.
        -11    1    3    3    0    0  0.13329855061E+02  0.73122806937E+01 -0.12863872150E+02  0.19915664485E+02  0.51100000000E-03 0.  1.
         12    1    3    3    0    0 -0.17303869152E+02  0.20937164829E+02  0.78740300345E+01  0.28280542917E+02  0.00000000000E+00 0. -1.
</event>
<event>
 7    1  0.2797450E-013  0.7246159E+02  0.7816164E-02  0.1226708E+00
        -11   -1    0    0    0    0  0.00000000000E+00  0.00000000000E+00  0.45593999997E+02  0.45594000000E+02  0.51100000000E-03 0.  1.
         11   -1    0    0    0    0 -0.00000000000E+00 -0.00000000000E+00 -0.45593999997E+02  0.45594000000E+02  0.51100000000E-03 0. -1.
    9900012    2    1    2    0    0  0.11532586711E+02  0.20462469317E+01 -0.14611328601E+02  0.72461585334E+02  0.70000019592E+02 0.  0.
         12    1    1    2    0    0 -0.11532586711E+02 -0.20462469317E+01  0.14611328601E+02  0.18726414666E+02  0.00000000000E+00 0. -1.
         11    1    3    3    0    0 -0.17621113201E+02  0.57752061226E+01 -0.68156399238E+01  0.19756254302E+02  0.51100000000E-03 0. -1.
        -11    1    3    3    0    0  0.10634984637E+02  0.15665216029E+02  0.91035279459E+01  0.21008953158E+02  0.51100000000E-03 0.  1.
        -12    1    3    3    0    0  0.18518715275E+02 -0.19394175220E+02 -0.16899216623E+02  0.31696377875E+02  0.00000000000E+00 0.  1.
</event>
<event>
 7    1  0.2797450E-013  0.7246165E+02  0.7816164E-02  0.1226708E+00
        -11   -1    0    0    0    0  0.00000000000E+00  0.00000000000E+00  0.45593999997E+02  0.45594000000E+02  0.51100000000E-03 0.  1.
         11   -1    0    0    0    0 -0.00000000000E+00 -0.00000000000E+00 -0.45593999997E+02  0.45594000000E+02  0.51100000000E-03 0. -1.
    9900012    2    1    2    0    0 -0.12183153144E+02 -0.16994071715E+01  0.14119459951E+02  0.72461645454E+02  0.70000097910E+02 0.  0.
         12    1    1    2    0    0  0.12183153144E+02  0.16994071715E+01 -0.14119459951E+02  0.18726354546E+02  0.00000000000E+00 0. -1.
         11    1    3    3    0    0  0.13981014288E+00  0.30454037240E+01 -0.24975822230E+00  0.30588249621E+01  0.51100000000E-03 0. -1.
        -11    1    3    3    0    0  0.22697205020E+02 -0.24685877518E+01  0.23884883256E+02  0.33041560036E+02  0.51100000000E-03 0.  1.
         12    1    3    3    0    0 -0.35020168307E+02 -0.22762231437E+01 -0.95156650825E+01  0.36361260457E+02  0.00000000000E+00 0. -1.
</event>
<event>
 7    1  0.2797450E-013  0.7246158E+02  0.7816164E-02  0.1226708E+00
        -11   -1    0    0    0    0  0.00000000000E+00  0.00000000000E+00  0.45593999997E+02  0.45594000000E+02  0.51100000000E-03 0.  1.
         11   -1    0    0    0    0 -0.00000000000E+00 -0.00000000000E+00 -0.45593999997E+02  0.45594000000E+02  0.51100000000E-03 0. -1.
    9900012    2    1    2    0    0 -0.11804704254E+02  0.14515289537E+02 -0.79632566477E+00  0.72461579962E+02  0.70000012594E+02 0.  0.
         12    1    1    2    0    0  0.11804704254E+02 -0.14515289537E+02  0.79632566477E+00  0.18726420038E+02  0.00000000000E+00 0. -1.
         11    1    3    3    0    0 -0.10240815684E+02 -0.14925955139E+02 -0.16905432915E+02  0.24767965297E+02  0.51100000000E-03 0. -1.
        -11    1    3    3    0    0 -0.13838390779E+02  0.19905061675E+02 -0.13967570507E+01  0.24282987258E+02  0.51100000000E-03 0.  1.
        -12    1    3    3    0    0  0.12274502209E+02  0.95361830000E+01  0.17505864301E+02  0.23410627407E+02  0.00000000000E+00 0.  1.
</event>
<event>
 7    1  0.2797450E-013  0.7246156E+02  0.7816164E-02  0.1226708E+00
        -11   -1    0    0    0    0  0.00000000000E+00  0.00000000000E+00  0.45593999997E+02  0.45594000000E+02  0.51100000000E-03 0.  1.
         11   -1    0    0    0    0 -0.00000000000E+00 -0.00000000000E+00 -0.45593999997E+02  0.45594000000E+02  0.51100000000E-03 0. -1.
    9900012    2    1    2    0    0 -0.92934572135E+01 -0.11285472493E+02  0.11702537777E+02  0.72461558085E+02  0.69999984095E+02 0.  0.
         12    1    1    2    0    0  0.92934572135E+01  0.11285472493E+02 -0.11702537777E+02  0.18726441915E+02  0.00000000000E+00 0. -1.
         11    1    3    3    0    0  0.26115728012E+01 -0.19040292559E+02 -0.15345004904E+02  0.24593133777E+02  0.51100000000E-03 0. -1.
        -11    1    3    3    0    0  0.73886416594E+00  0.17754883747E+02  0.17299428632E+01  0.17854257747E+02  0.51100000000E-03 0.  1.
        -12    1    3    3    0    0 -0.12643894181E+02 -0.10000063682E+02  0.25317599819E+02  0.30014166560E+02  0.00000000000E+00 0.  1.
</event>
<event>
 7    1  0.2797450E-013  0.7246150E+02  0.7816164E-02  0.1226708E+00
        -11   -1    0    0    0    0  0.00000000000E+00  0.00000000000E+00  0.45593999997E+02  0.45594000000E+02  0.51100000000E-03 0.  1.
         11   -1    0    0    0    0 -0.00000000000E+00 -0.00000000000E+00 -0.45593999997E+02  0.45594000000E+02  0.51100000000E-03 0. -1.
    9900012    2    1    2    0    0  0.79488773999E-02 -0.12169510849E+02  0.14233230556E+02  0.72461497135E+02  0.69999904696E+02 0.  0.
         12    1    1    2    0    0 -0.79488773999E-02  0.12169510849E+02 -0.14233230556E+02  0.18726502865E+02  0.00000000000E+00 0. -1.
         11    1    3    3    0    0 -0.20447158553E+02 -0.39412904733E+01 -0.83308259894E+01  0.22428168125E+02  0.51100000000E-03 0. -1.
        -11    1    3    3    0    0 -0.71356156379E+01 -0.88611073025E+01  0.19082493261E+02  0.22216610508E+02  0.51100000000E-03 0.  1.
         12    1    3    3    0    0  0.27590723069E+02  0.63288692633E+00  0.34815632838E+01  0.27816718502E+02  0.00000000000E+00 0. -1.
</event>
<event>
 7    1  0.2797450E-013  0.7246158E+02  0.7816164E-02  0.1226708E+00
        -11   -1    0    0    0    0  0.00000000000E+00  0.00000000000E+00  0.45593999997E+02  0.45594000000E+02  0.51100000000E-03 0. -1.
         11   -1    0    0    0    0 -0.00000000000E+00 -0.00000000000E+00 -0.45593999997E+02  0.45594000000E+02  0.51100000000E-03 0.  1.
    9900012    2    1    2    0    0  0.14725721894E+02 -0.44128349768E+01 -0.10693876248E+02  0.72461575167E+02  0.70000006347E+02 0.  0.
         12    1    1    2    0    0 -0.14725721894E+02  0.44128349768E+01  0.10693876248E+02  0.18726424833E+02  0.00000000000E+00 0. -1.
         11    1    3    3    0    0 -0.19017759772E+02  0.15099308108E+02 -0.17816365154E+01  0.24348275525E+02  0.51100000000E-03 0. -1.
        -11    1    3    3    0    0 -0.43329274779E+01 -0.46543146149E+01 -0.19556636945E+01  0.66529336244E+01  0.51100000000E-03 0.  1.
         12    1    3    3    0    0  0.38076409144E+02 -0.14857828470E+02 -0.69565760376E+01  0.41460366018E+02  0.00000000000E+00 0. -1.
</event>
<event>
 7    1  0.2797450E-013  0.7246082E+02  0.7816164E-02  0.1226710E+00
        -11   -1    0    0    0    0  0.00000000000E+00  0.00000000000E+00  0.45593999997E+02  0.45594000000E+02  0.51100000000E-03 0.  1.
         11   -1    0    0    0    0 -0.00000000000E+00 -0.00000000000E+00 -0.45593999997E+02  0.45594000000E+02  0.51100000000E-03 0. -1.
    9900012    2    1    2    0    0 -0.15346285033E+02  0.16765235878E+01  0.10601323729E+02  0.72460820274E+02  0.69999022953E+02 0.  0.
         12    1    1    2    0    0  0.15346285033E+02 -0.16765235878E+01 -0.10601323729E+02  0.18727179726E+02  0.00000000000E+00 0. -1.
         11    1    3    3    0    0 -0.32803469260E+01 -0.34090572087E+01  0.16209892067E+02  0.16886176242E+02  0.51100000000E-03 0. -1.
        -11    1    3    3    0    0 -0.19752324651E+02 -0.18464495621E+02  0.67816363285E+01  0.27876199870E+02  0.51100000000E-03 0.  1.
         12    1    3    3    0    0  0.76863865436E+01  0.23550076417E+02 -0.12390204666E+02  0.27698444162E+02  0.00000000000E+00 0. -1.
</event>
<event>
 7    1  0.2797450E-013  0.7246141E+02  0.7816164E-02  0.1226708E+00
        -11   -1    0    0    0    0  0.00000000000E+00  0.00000000000E+00  0.45593999997E+02  0.45594000000E+02  0.51100000000E-03 0. -1.
         11   -1    0    0    0    0 -0.00000000000E+00 -0.00000000000E+00 -0.45593999997E+02  0.45594000000E+02  0.51100000000E-03 0.  1.
    9900012    2    1    2    0    0 -0.35571016140E+01  0.17132145523E+02 -0.66724570233E+01  0.72461412889E+02  0.69999794950E+02 0.  0.
         12    1    1    2    0    0  0.35571016140E+01 -0.17132145523E+02  0.66724570233E+01  0.18726587111E+02  0.00000000000E+00 0. -1.
         11    1    3    3    0    0 -0.26830337861E+02  0.19488320400E+02  0.80126694769E+01  0.34115458874E+02  0.51100000000E-03 0. -1.
        -11    1    3    3    0    0 -0.28327640007E+01 -0.10371921103E+01 -0.11646246758E+02  0.12030601945E+02  0.51100000000E-03 0.  1.
         12    1    3    3    0    0  0.26106000248E+02 -0.13189827666E+01 -0.30388797423E+01  0.26315352070E+02  0.00000000000E+00 0. -1.
</event>
<event>
 7    1  0.2797450E-013  0.7246182E+02  0.7816164E-02  0.1226707E+00
        -11   -1    0    0    0    0  0.00000000000E+00  0.00000000000E+00  0.45593999997E+02  0.45594000000E+02  0.51100000000E-03 0.  1.
         11   -1    0    0    0    0 -0.00000000000E+00 -0.00000000000E+00 -0.45593999997E+02  0.45594000000E+02  0.51100000000E-03 0. -1.
    9900012    2    1    2    0    0 -0.11709268054E+02 -0.51260700989E+01  0.13685255282E+02  0.72461821395E+02  0.70000327104E+02 0.  0.
         12    1    1    2    0    0  0.11709268054E+02  0.51260700989E+01 -0.13685255282E+02  0.18726178605E+02  0.00000000000E+00 0. -1.
         11    1    3    3    0    0 -0.27454816850E+02 -0.71248123607E+01  0.14460650718E+02  0.31837718808E+02  0.51100000000E-03 0. -1.
        -11    1    3    3    0    0 -0.18623708147E+01  0.11718013426E+02 -0.12588749848E+02  0.17299042942E+02  0.51100000000E-03 0.  1.
        -12    1    3    3    0    0  0.17607919611E+02 -0.97192711645E+01  0.11813354412E+02  0.23325059645E+02  0.00000000000E+00 0.  1.
</event>
<event>
 7    1  0.2797450E-013  0.7246140E+02  0.7816164E-02  0.1226708E+00
        -11   -1    0    0    0    0  0.00000000000E+00  0.00000000000E+00  0.45593999997E+02  0.45594000000E+02  0.51100000000E-03 0. -1.
         11   -1    0    0    0    0 -0.00000000000E+00 -0.00000000000E+00 -0.45593999997E+02  0.45594000000E+02  0.51100000000E-03 0.  1.
    9900012    2    1    2    0    0  0.16058581051E+02 -0.41439195316E+00 -0.96247526908E+01  0.72461398321E+02  0.69999775973E+02 0.  0.
         12    1    1    2    0    0 -0.16058581051E+02  0.41439195316E+00  0.96247526908E+01  0.18726601679E+02  0.00000000000E+00 0. -1.
         11    1    3    3    0    0  0.32514233190E+02  0.43452492220E+01 -0.73094992995E+01  0.33607816516E+02  0.51100000000E-03 0. -1.
        -11    1    3    3    0    0 -0.74489356034E+01  0.54748512507E+01 -0.16666729294E+02  0.19058869417E+02  0.51100000000E-03 0.  1.
         12    1    3    3    0    0 -0.90067165353E+01 -0.10234492426E+02  0.14351475902E+02  0.19794712388E+02  0.00000000000E+00 0. -1.
</event>
<event>
 7    1  0.2797450E-013  0.7246147E+02  0.7816164E-02  0.1226708E+00
        -11   -1    0    0    0    0  0.00000000000E+00  0.00000000000E+00  0.45593999997E+02  0.45594000000E+02  0.51100000000E-03 0.  1.
         11   -1    0    0    0    0 -0.00000000000E+00 -0.00000000000E+00 -0.45593999997E+02  0.45594000000E+02  0.51100000000E-03 0. -1.
    9900012    2    1    2    0    0 -0.14192399087E+02  0.11120461783E+02  0.50590676485E+01  0.72461467283E+02  0.69999865809E+02 0.  0.
         12    1    1    2    0    0  0.14192399087E+02 -0.11120461783E+02 -0.50590676485E+01  0.18726532717E+02  0.00000000000E+00 0. -1.
         11    1    3    3    0    0 -0.79369687611E+01 -0.44994730082E+01  0.14021968108E+01  0.92307576409E+01  0.51100000000E-03 0. -1.
        -11    1    3    3    0    0  0.17411972104E+02 -0.12043693400E+02  0.14002401750E+02  0.25382958423E+02  0.51100000000E-03 0.  1.
         12    1    3    3    0    0 -0.23667402430E+02  0.27663628192E+02 -0.10345530912E+02  0.37847751220E+02  0.00000000000E+00 0. -1.
</event>
<event>
 7    1  0.2797450E-013  0.7246155E+02  0.7816164E-02  0.1226708E+00
        -11   -1    0    0    0    0  0.00000000000E+00  0.00000000000E+00  0.45593999997E+02  0.45594000000E+02  0.51100000000E-03 0.  1.
         11   -1    0    0    0    0 -0.00000000000E+00 -0.00000000000E+00 -0.45593999997E+02  0.45594000000E+02  0.51100000000E-03 0. -1.
    9900012    2    1    2    0    0  0.87522059034E+01 -0.14880782579E+02 -0.72554160093E+01  0.72461551864E+02  0.69999975991E+02 0.  0.
         12    1    1    2    0    0 -0.87522059034E+01  0.14880782579E+02  0.72554160093E+01  0.18726448136E+02  0.00000000000E+00 0. -1.
         11    1    3    3    0    0  0.49091332015E+01 -0.12113430866E+02 -0.81573817153E+01  0.15407065679E+02  0.51100000000E-03 0. -1.
        -11    1    3    3    0    0  0.16043690740E+02  0.23240625213E+02  0.19509987393E+01  0.28307826995E+02  0.51100000000E-03 0.  1.
         12    1    3    3    0    0 -0.12200618038E+02 -0.26007976925E+02 -0.10490330333E+01  0.28746659189E+02  0.00000000000E+00 0. -1.
</event>
<event>
 7    1  0.2797450E-013  0.7246154E+02  0.7816164E-02  0.1226708E+00
        -11   -1    0    0    0    0  0.00000000000E+00  0.00000000000E+00  0.45593999997E+02  0.45594000000E+02  0.51100000000E-03 0.  1.
         11   -1    0    0    0    0 -0.00000000000E+00 -0.00000000000E+00 -0.45593999997E+02  0.45594000000E+02  0.51100000000E-03 0. -1.
    9900012    2    1    2    0    0  0.23744816570E+01 -0.18572845160E+02  0.30287204954E+00  0.72461535519E+02  0.69999954699E+02 0.  0.
         12    1    1    2    0    0 -0.23744816570E+01  0.18572845160E+02 -0.30287204954E+00  0.18726464481E+02  0.00000000000E+00 0. -1.
         11    1    3    3    0    0 -0.22619813549E+01  0.78303923891E+01  0.89243328349E+00  0.81992708239E+01  0.51100000000E-03 0.  1.
        -11    1    3    3    0    0 -0.57913194473E+01  0.17791521853E+02 -0.21068246460E+01  0.18828604333E+02  0.51100000000E-03 0. -1.
         12    1    3    3    0    0  0.10427782459E+02 -0.44194759402E+02  0.15172634120E+01  0.45433660362E+02  0.00000000000E+00 0. -1.
</event>
<event>
 7    1  0.2797450E-013  0.7246156E+02  0.7816164E-02  0.1226708E+00
        -11   -1    0    0    0    0  0.00000000000E+00  0.00000000000E+00  0.45593999997E+02  0.45594000000E+02  0.51100000000E-03 0.  1.
         11   -1    0    0    0    0 -0.00000000000E+00 -0.00000000000E+00 -0.45593999997E+02  0.45594000000E+02  0.51100000000E-03 0. -1.
    9900012    2    1    2    0    0 -0.72032696810E+01 -0.14599958618E+02  0.92538428922E+01  0.72461561630E+02  0.69999988713E+02 0.  0.
         12    1    1    2    0    0  0.72032696810E+01  0.14599958618E+02 -0.92538428922E+01  0.18726438370E+02  0.00000000000E+00 0. -1.
         11    1    3    3    0    0  0.70621264767E+01  0.61610836889E+01 -0.10133956769E+02  0.13803248264E+02  0.51100000000E-03 0. -1.
        -11    1    3    3    0    0 -0.22434545988E+02 -0.24580050989E+02 -0.40700001641E+01  0.33526894606E+02  0.51100000000E-03 0.  1.
        -12    1    3    3    0    0  0.81691498304E+01  0.38190086820E+01  0.23457799825E+02  0.25131418760E+02  0.00000000000E+00 0.  1.
</event>
<event>
 7    1  0.2797450E-013  0.7246154E+02  0.7816164E-02  0.1226708E+00
        -11   -1    0    0    0    0  0.00000000000E+00  0.00000000000E+00  0.45593999997E+02  0.45594000000E+02  0.51100000000E-03 0.  1.
         11   -1    0    0    0    0 -0.00000000000E+00 -0.00000000000E+00 -0.45593999997E+02  0.45594000000E+02  0.51100000000E-03 0. -1.
    9900012    2    1    2    0    0  0.15691067553E+00 -0.75724763125E+01  0.17126386775E+02  0.72461544318E+02  0.69999966160E+02 0.  0.
         12    1    1    2    0    0 -0.15691067553E+00  0.75724763125E+01 -0.17126386775E+02  0.18726455682E+02  0.00000000000E+00 0. -1.
         11    1    3    3    0    0  0.19994182126E+02 -0.10137612710E+02 -0.11100537426E+02  0.25015204212E+02  0.51100000000E-03 0. -1.
        -11    1    3    3    0    0  0.19198963375E+01 -0.63714452709E+01  0.22185327740E+02  0.23161823848E+02  0.51100000000E-03 0.  1.
        -12    1    3    3    0    0 -0.21757167788E+02  0.89365816679E+01  0.60415964608E+01  0.24284516257E+02  0.00000000000E+00 0.  1.
</event>
<event>
 7    1  0.2797450E-013  0.7246165E+02  0.7816164E-02  0.1226708E+00
        -11   -1    0    0    0    0  0.00000000000E+00  0.00000000000E+00  0.45593999997E+02  0.45594000000E+02  0.51100000000E-03 0. -1.
         11   -1    0    0    0    0 -0.00000000000E+00 -0.00000000000E+00 -0.45593999997E+02  0.45594000000E+02  0.51100000000E-03 0.  1.
    9900012    2    1    2    0    0  0.44843342809E+01 -0.91311014369E+01 -0.15722272212E+02  0.72461651960E+02  0.70000106385E+02 0.  0.
         12    1    1    2    0    0 -0.44843342809E+01  0.91311014369E+01  0.15722272212E+02  0.18726348040E+02  0.00000000000E+00 0. -1.
         11    1    3    3    0    0 -0.11698153885E+02 -0.99666452376E+01  0.57893651465E+01  0.16422471515E+02  0.51100000000E-03 0. -1.
        -11    1    3    3    0    0 -0.98994168292E+01 -0.11732192579E+02 -0.22304460030E+02  0.27076405481E+02  0.51100000000E-03 0.  1.
        -12    1    3    3    0    0  0.26081904995E+02  0.12567736379E+02  0.79282267187E+00  0.28962774965E+02  0.00000000000E+00 0.  1.
</event>
<event>
 7    1  0.2797450E-013  0.7246157E+02  0.7816164E-02  0.1226708E+00
        -11   -1    0    0    0    0  0.00000000000E+00  0.00000000000E+00  0.45593999997E+02  0.45594000000E+02  0.51100000000E-03 0. -1.
         11   -1    0    0    0    0 -0.00000000000E+00 -0.00000000000E+00 -0.45593999997E+02  0.45594000000E+02  0.51100000000E-03 0.  1.
    9900012    2    1    2    0    0  0.13438039779E+02  0.35908205275E+01 -0.12538112232E+02  0.72461570455E+02  0.70000000209E+02 0.  0.
         12    1    1    2    0    0 -0.13438039779E+02 -0.35908205275E+01  0.12538112232E+02  0.18726429545E+02  0.00000000000E+00 0. -1.
         11    1    3    3    0    0  0.18587645700E+02  0.18464821259E+02 -0.41184134546E+01  0.26521906538E+02  0.51100000000E-03 0. -1.
        -11    1    3    3    0    0  0.16036145304E+02  0.42768192348E+01 -0.27247786093E+01  0.16818845314E+02  0.51100000000E-03 0.  1.
        -12    1    3    3    0    0 -0.21185751225E+02 -0.19150819966E+02 -0.56949201684E+01  0.29120818602E+02  0.00000000000E+00 0.  1.
</event>
<event>
 7    1  0.2797450E-013  0.7246158E+02  0.7816164E-02  0.1226708E+00
        -11   -1    0    0    0    0  0.00000000000E+00  0.00000000000E+00  0.45593999997E+02  0.45594000000E+02  0.51100000000E-03 0.  1.
         11   -1    0    0    0    0 -0.00000000000E+00 -0.00000000000E+00 -0.45593999997E+02  0.45594000000E+02  0.51100000000E-03 0. -1.
    9900012    2    1    2    0    0 -0.10060682747E+02 -0.11994207918E+02  0.10276215816E+02  0.72461575557E+02  0.70000006856E+02 0.  0.
         12    1    1    2    0    0  0.10060682747E+02  0.11994207918E+02 -0.10276215816E+02  0.18726424443E+02  0.00000000000E+00 0. -1.
         11    1    3    3    0    0 -0.23921738625E+02 -0.11012341680E+02  0.11710336541E+02  0.28821055329E+02  0.51100000000E-03 0. -1.
        -11    1    3    3    0    0 -0.12717331266E+02  0.64665549100E+01  0.53153004230E+01  0.15224955362E+02  0.51100000000E-03 0.  1.
        -12    1    3    3    0    0  0.26578387145E+02 -0.74484211474E+01 -0.67494211475E+01  0.28415564866E+02  0.00000000000E+00 0.  1.
</event>
<event>
 7    1  0.2797450E-013  0.7246157E+02  0.7816164E-02  0.1226708E+00
        -11   -1    0    0    0    0  0.00000000000E+00  0.00000000000E+00  0.45593999997E+02  0.45594000000E+02  0.51100000000E-03 0.  1.
         11   -1    0    0    0    0 -0.00000000000E+00 -0.00000000000E+00 -0.45593999997E+02  0.45594000000E+02  0.51100000000E-03 0. -1.
    9900012    2    1    2    0    0  0.20589855522E+01 -0.57858456833E+01  0.17690785091E+02  0.72461566573E+02  0.69999995152E+02 0.  0.
         12    1    1    2    0    0 -0.20589855522E+01  0.57858456833E+01 -0.17690785091E+02  0.18726433427E+02  0.00000000000E+00 0. -1.
         11    1    3    3    0    0  0.15877354577E+02  0.14850711661E+02 -0.40122003773E+01  0.22107278831E+02  0.51100000000E-03 0. -1.
        -11    1    3    3    0    0 -0.12787801068E+02  0.90903324652E+01  0.72267134200E+01  0.17273893238E+02  0.51100000000E-03 0.  1.
        -12    1    3    3    0    0 -0.10305679564E+01 -0.29726889810E+02  0.14476272048E+02  0.33080394503E+02  0.00000000000E+00 0.  1.
</event>
<event>
 7    1  0.2797450E-013  0.7246159E+02  0.7816164E-02  0.1226708E+00
        -11   -1    0    0    0    0  0.00000000000E+00  0.00000000000E+00  0.45593999997E+02  0.45594000000E+02  0.51100000000E-03 0.  1.
         11   -1    0    0    0    0 -0.00000000000E+00 -0.00000000000E+00 -0.45593999997E+02  0.45594000000E+02  0.51100000000E-03 0. -1.
    9900012    2    1    2    0    0 -0.14101337342E+02  0.11705981029E+02  0.38471711564E+01  0.72461589971E+02  0.70000025632E+02 0.  0.
         12    1    1    2    0    0  0.14101337342E+02 -0.11705981029E+02 -0.38471711564E+01  0.18726410029E+02  0.00000000000E+00 0. -1.
         11    1    3    3    0    0  0.76139005118E+01  0.13832288457E+01  0.85453924379E+01  0.11528596412E+02  0.51100000000E-03 0. -1.
        -11    1    3    3    0    0  0.90718650193E+01  0.21177265756E+02  0.10020833352E+02  0.25123543165E+02  0.51100000000E-03 0.  1.
         12    1    3    3    0    0 -0.30787102873E+02 -0.10854513573E+02 -0.14719054633E+02  0.35809450394E+02  0.00000000000E+00 0. -1.
</event>
<event>
 7    1  0.2797450E-013  0.7246156E+02  0.7816164E-02  0.1226708E+00
        -11   -1    0    0    0    0  0.00000000000E+00  0.00000000000E+00  0.45593999997E+02  0.45594000000E+02  0.51100000000E-03 0. -1.
         11   -1    0    0    0    0 -0.00000000000E+00 -0.00000000000E+00 -0.45593999997E+02  0.45594000000E+02  0.51100000000E-03 0.  1.
    9900012    2    1    2    0    0 -0.17917803395E+02 -0.53070792600E+01 -0.12110395874E+01  0.72461564523E+02  0.69999992482E+02 0.  0.
         12    1    1    2    0    0  0.17917803395E+02  0.53070792600E+01  0.12110395874E+01  0.18726435477E+02  0.00000000000E+00 0. -1.
         11    1    3    3    0    0  0.19672590039E+02  0.49467808223E+01 -0.63919412634E+01  0.21268247523E+02  0.51100000000E-03 0. -1.
        -11    1    3    3    0    0 -0.81138334808E+01  0.11112427091E+02  0.54153998933E+01  0.14786713153E+02  0.51100000000E-03 0.  1.
         12    1    3    3    0    0 -0.29476559953E+02 -0.21366287173E+02 -0.23449821734E+00  0.36406603847E+02  0.00000000000E+00 0. -1.
</event>
<event>
 7    1  0.2797450E-013  0.7246158E+02  0.7816164E-02  0.1226708E+00
        -11   -1    0    0    0    0  0.00000000000E+00  0.00000000000E+00  0.45593999997E+02  0.45594000000E+02  0.51100000000E-03 0.  1.
         11   -1    0    0    0    0 -0.00000000000E+00 -0.00000000000E+00 -0.45593999997E+02  0.45594000000E+02  0.51100000000E-03 0. -1.
    9900012    2    1    2    0    0 -0.82533093803E+01  0.13895616366E+01  0.16752033793E+02  0.72461584607E+02  0.70000018645E+02 0.  0.
         12    1    1    2    0    0  0.82533093803E+01 -0.13895616366E+01 -0.16752033793E+02  0.18726415393E+02  0.00000000000E+00 0. -1.
         11    1    3    3    0    0  0.60591594737E+01  0.31541971513E+01 -0.52779519167E+01  0.86324475031E+01  0.51100000000E-03 0. -1.
        -11    1    3    3    0    0  0.10287820817E+02 -0.11946754296E+02 -0.12575450253E+02  0.20166956753E+02  0.51100000000E-03 0.  1.
         12    1    3    3    0    0 -0.24600289671E+02  0.10182118781E+02  0.34605435963E+02  0.43662180350E+02  0.00000000000E+00 0. -1.
</event>
<event>
 7    1  0.2797450E-013  0.7246143E+02  0.7816164E-02  0.1226708E+00
        -11   -1    0    0    0    0  0.00000000000E+00  0.00000000000E+00  0.45593999997E+02  0.45594000000E+02  0.51100000000E-03 0.  1.
         11   -1    0    0    0    0 -0.00000000000E+00 -0.00000000000E+00 -0.45593999997E+02  0.45594000000E+02  0.51100000000E-03 0. -1.
    9900012    2    1    2    0    0 -0.14051164682E+01  0.18257932956E+02 -0.39189091041E+01  0.72461432865E+02  0.69999820972E+02 0.  0.
         12    1    1    2    0    0  0.14051164682E+01 -0.18257932956E+02  0.39189091041E+01  0.18726567135E+02  0.00000000000E+00 0. -1.
         11    1    3    3    0    0 -0.46218771146E+01 -0.21099012108E+02  0.50145170244E+01  0.22173755686E+02  0.51100000000E-03 0. -1.
        -11    1    3    3    0    0 -0.50694552853E+01  0.57372992449E+01 -0.13341793225E+02  0.15382438891E+02  0.51100000000E-03 0.  1.
         12    1    3    3    0    0  0.82862159317E+01  0.33619645818E+02  0.44083670969E+01  0.34905238287E+02  0.00000000000E+00 0. -1.
</event>
<event>
 7    1  0.2797450E-013  0.7246172E+02  0.7816164E-02  0.1226708E+00
        -11   -1    0    0    0    0  0.00000000000E+00  0.00000000000E+00  0.45593999997E+02  0.45594000000E+02  0.51100000000E-03 0. -1.
         11   -1    0    0    0    0 -0.00000000000E+00 -0.00000000000E+00 -0.45593999997E+02  0.45594000000E+02  0.51100000000E-03 0.  1.
    9900012    2    1    2    0    0  0.96598569084E+00  0.84073039093E+01 -0.16705019825E+02  0.72461719677E+02  0.70000194598E+02 0.  0.
         12    1    1    2    0    0 -0.96598569084E+00 -0.84073039093E+01  0.16705019825E+02  0.18726280323E+02  0.00000000000E+00 0. -1.
         11    1    3    3    0    0  0.14539588087E+02  0.49332919702E+01 -0.27157394142E+01  0.15592056703E+02  0.51100000000E-03 0. -1.
        -11    1    3    3    0    0  0.86921763220E+01  0.22012091653E+02 -0.14750880568E+02  0.27886817423E+02  0.51100000000E-03 0.  1.
         12    1    3    3    0    0 -0.22265778718E+02 -0.18538079714E+02  0.76160015673E+00  0.28982845551E+02  0.00000000000E+00 0. -1.
</event>
<event>
 7    1  0.2797450E-013  0.7246157E+02  0.7816164E-02  0.1226708E+00
        -11   -1    0    0    0    0  0.00000000000E+00  0.00000000000E+00  0.45593999997E+02  0.45594000000E+02  0.51100000000E-03 0.  1.
         11   -1    0    0    0    0 -0.00000000000E+00 -0.00000000000E+00 -0.45593999997E+02  0.45594000000E+02  0.51100000000E-03 0. -1.
    9900012    2    1    2    0    0 -0.11928437909E+02  0.24148105568E+01  0.14232361426E+02  0.72461573413E+02  0.70000004062E+02 0.  0.
         12    1    1    2    0    0  0.11928437909E+02 -0.24148105568E+01 -0.14232361426E+02  0.18726426587E+02  0.00000000000E+00 0. -1.
         11    1    3    3    0    0 -0.21839871045E+02  0.92926433364E+01  0.32991890038E+02  0.40642317798E+02  0.51100000000E-03 0. -1.
        -11    1    3    3    0    0 -0.91090344845E+00 -0.82660485478E+01  0.18320867791E+01  0.85155062043E+01  0.51100000000E-03 0.  1.
        -12    1    3    3    0    0  0.10822336585E+02  0.13882157682E+01 -0.20591615391E+02  0.23303749410E+02  0.00000000000E+00 0.  1.
</event>
<event>
 7    1  0.2797450E-013  0.7246167E+02  0.7816164E-02  0.1226708E+00
        -11   -1    0    0    0    0  0.00000000000E+00  0.00000000000E+00  0.45593999997E+02  0.45594000000E+02  0.51100000000E-03 0.  1.
         11   -1    0    0    0    0 -0.00000000000E+00 -0.00000000000E+00 -0.45593999997E+02  0.45594000000E+02  0.51100000000E-03 0. -1.
    9900012    2    1    2    0    0 -0.80934395112E+01 -0.14844038066E+02  0.80514640282E+01  0.72461673552E+02  0.70000134513E+02 0.  0.
         12    1    1    2    0    0  0.80934395112E+01  0.14844038066E+02 -0.80514640282E+01  0.18726326448E+02  0.00000000000E+00 0. -1.
         11    1    3    3    0    0 -0.16753859268E+02 -0.45048920700E+01  0.57008170310E+01  0.18261576274E+02  0.51100000000E-03 0. -1.
        -11    1    3    3    0    0 -0.83815641990E+00 -0.89787816046E+01  0.26618250008E+02  0.28104310328E+02  0.51100000000E-03 0.  1.
         12    1    3    3    0    0  0.94985761765E+01 -0.13603643913E+01 -0.24267603011E+02  0.26095786950E+02  0.00000000000E+00 0. -1.
</event>
<event>
 7    1  0.2797450E-013  0.7246221E+02  0.7816164E-02  0.1226706E+00
        -11   -1    0    0    0    0  0.00000000000E+00  0.00000000000E+00  0.45593999997E+02  0.45594000000E+02  0.51100000000E-03 0.  1.
         11   -1    0    0    0    0 -0.00000000000E+00 -0.00000000000E+00 -0.45593999997E+02  0.45594000000E+02  0.51100000000E-03 0. -1.
    9900012    2    1    2    0    0 -0.19304924798E+01  0.18527102057E+02  0.19170277046E+01  0.72462207438E+02  0.70000829993E+02 0.  0.
         12    1    1    2    0    0  0.19304924798E+01 -0.18527102057E+02 -0.19170277046E+01  0.18725792562E+02  0.00000000000E+00 0. -1.
         11    1    3    3    0    0 -0.16605880416E+02  0.95451784517E+01 -0.18538030748E+02  0.26655661319E+02  0.51100000000E-03 0. -1.
        -11    1    3    3    0    0 -0.98754057988E+01 -0.62502878521E+01  0.88966148614E+01  0.14688073195E+02  0.51100000000E-03 0.  1.
         12    1    3    3    0    0  0.24550793735E+02  0.15232211458E+02  0.11558443591E+02  0.31118472925E+02  0.00000000000E+00 0. -1.
</event>
<event>
 7    1  0.2797450E-013  0.7246157E+02  0.7816164E-02  0.1226708E+00
        -11   -1    0    0    0    0  0.00000000000E+00  0.00000000000E+00  0.45593999997E+02  0.45594000000E+02  0.51100000000E-03 0. -1.
         11   -1    0    0    0    0 -0.00000000000E+00 -0.00000000000E+00 -0.45593999997E+02  0.45594000000E+02  0.51100000000E-03 0.  1.
    9900012    2    1    2    0    0  0.82857628280E+01  0.16367615982E+02  0.37585139382E+01  0.72461570933E+02  0.70000000832E+02 0.  0.
         12    1    1    2    0    0 -0.82857628280E+01 -0.16367615982E+02 -0.37585139382E+01  0.18726429067E+02  0.00000000000E+00 0. -1.
         11    1    3    3    0    0 -0.47379907011E+01 -0.14030079593E+02  0.22213359109E+02  0.26696910166E+02  0.51100000000E-03 0. -1.
        -11    1    3    3    0    0  0.12854082200E+02  0.63239571047E+01  0.16224360608E+01  0.14417078820E+02  0.51100000000E-03 0.  1.
        -12    1    3    3    0    0  0.16967132931E+00  0.24073738470E+02 -0.20077281231E+02  0.31347581947E+02  0.00000000000E+00 0.  1.
</event>
<event>
 7    1  0.2797450E-013  0.7246159E+02  0.7816164E-02  0.1226708E+00
        -11   -1    0    0    0    0  0.00000000000E+00  0.00000000000E+00  0.45593999997E+02  0.45594000000E+02  0.51100000000E-03 0.  1.
         11   -1    0    0    0    0 -0.00000000000E+00 -0.00000000000E+00 -0.45593999997E+02  0.45594000000E+02  0.51100000000E-03 0. -1.
    9900012    2    1    2    0    0 -0.43477058571E+01 -0.16051504937E+02  0.86096027798E+01  0.72461585047E+02  0.70000019219E+02 0.  0.
         12    1    1    2    0    0  0.43477058571E+01  0.16051504937E+02 -0.86096027798E+01  0.18726414953E+02  0.00000000000E+00 0. -1.
         11    1    3    3    0    0 -0.29405325404E+01  0.27316659852E+01  0.13593802697E+02  0.14173926862E+02  0.51100000000E-03 0. -1.
        -11    1    3    3    0    0  0.61462863178E+00 -0.18562776894E+02  0.23375125115E+02  0.29855500812E+02  0.51100000000E-03 0.  1.
         12    1    3    3    0    0 -0.20218019485E+01 -0.22039402814E+00 -0.28359325032E+02  0.28432157373E+02  0.00000000000E+00 0. -1.
</event>
<event>
 7    1  0.2797450E-013  0.7246114E+02  0.7816164E-02  0.1226709E+00
        -11   -1    0    0    0    0  0.00000000000E+00  0.00000000000E+00  0.45593999997E+02  0.45594000000E+02  0.51100000000E-03 0. -1.
         11   -1    0    0    0    0 -0.00000000000E+00 -0.00000000000E+00 -0.45593999997E+02  0.45594000000E+02  0.51100000000E-03 0.  1.
    9900012    2    1    2    0    0 -0.18240804759E+02 -0.23749301594E+01 -0.35111298222E+01  0.72461140035E+02  0.69999439505E+02 0.  0.
         12    1    1    2    0    0  0.18240804759E+02  0.23749301594E+01  0.35111298222E+01  0.18726859965E+02  0.00000000000E+00 0. -1.
         11    1    3    3    0    0 -0.19437736390E+02 -0.36821771590E+00 -0.18855983525E+02  0.27083376732E+02  0.51100000000E-03 0. -1.
        -11    1    3    3    0    0 -0.15916782938E+01  0.27843433605E+01 -0.14587756177E+02  0.14936152057E+02  0.51100000000E-03 0.  1.
         12    1    3    3    0    0  0.27886099249E+01 -0.47910558040E+01  0.29932609880E+02  0.30441611246E+02  0.00000000000E+00 0. -1.
</event>
<event>
 7    1  0.2797450E-013  0.7246157E+02  0.7816164E-02  0.1226708E+00
        -11   -1    0    0    0    0  0.00000000000E+00  0.00000000000E+00  0.45593999997E+02  0.45594000000E+02  0.51100000000E-03 0. -1.
         11   -1    0    0    0    0 -0.00000000000E+00 -0.00000000000E+00 -0.45593999997E+02  0.45594000000E+02  0.51100000000E-03 0.  1.
    9900012    2    1    2    0    0 -0.18114871282E+02 -0.27748575403E+01 -0.38510801105E+01  0.72461569109E+02  0.69999998455E+02 0.  0.
         12    1    1    2    0    0  0.18114871282E+02  0.27748575403E+01  0.38510801105E+01  0.18726430891E+02  0.00000000000E+00 0. -1.
         11    1    3    3    0    0  0.16697162879E+02 -0.10106337612E+02  0.86203063188E+01  0.21336424008E+02  0.51100000000E-03 0. -1.
        -11    1    3    3    0    0 -0.18824680050E+02 -0.12600717495E+02 -0.11852091623E+02  0.25565968326E+02  0.51100000000E-03 0.  1.
        -12    1    3    3    0    0 -0.15987354111E+02  0.19932197567E+02 -0.61929480630E+00  0.25559176774E+02  0.00000000000E+00 0.  1.
</event>
<event>
 7    1  0.2797450E-013  0.7246155E+02  0.7816164E-02  0.1226708E+00
        -11   -1    0    0    0    0  0.00000000000E+00  0.00000000000E+00  0.45593999997E+02  0.45594000000E+02  0.51100000000E-03 0. -1.
         11   -1    0    0    0    0 -0.00000000000E+00 -0.00000000000E+00 -0.45593999997E+02  0.45594000000E+02  0.51100000000E-03 0.  1.
    9900012    2    1    2    0    0 -0.13496982752E+02  0.59041333335E+01  0.11560817523E+02  0.72461552510E+02  0.69999976832E+02 0.  0.
         12    1    1    2    0    0  0.13496982752E+02 -0.59041333335E+01 -0.11560817523E+02  0.18726447490E+02  0.00000000000E+00 0. -1.
         11    1    3    3    0    0 -0.28324572187E+01 -0.51126678244E+01  0.16512125612E+02  0.17516063447E+02  0.51100000000E-03 0. -1.
        -11    1    3    3    0    0 -0.24265187001E+02  0.10629734127E+02 -0.21072288224E+02  0.33850138538E+02  0.51100000000E-03 0.  1.
         12    1    3    3    0    0  0.13600661468E+02  0.38706703075E+00  0.16120980134E+02  0.21095350524E+02  0.00000000000E+00 0. -1.
</event>
<event>
 7    1  0.2797450E-013  0.7246160E+02  0.7816164E-02  0.1226708E+00
        -11   -1    0    0    0    0  0.00000000000E+00  0.00000000000E+00  0.45593999997E+02  0.45594000000E+02  0.51100000000E-03 0.  1.
         11   -1    0    0    0    0 -0.00000000000E+00 -0.00000000000E+00 -0.45593999997E+02  0.45594000000E+02  0.51100000000E-03 0. -1.
    9900012    2    1    2    0    0  0.84028078696E+01  0.12339429830E+02  0.11305286519E+02  0.72461595863E+02  0.70000033308E+02 0.  0.
         12    1    1    2    0    0 -0.84028078696E+01 -0.12339429830E+02 -0.11305286519E+02  0.18726404137E+02  0.00000000000E+00 0. -1.
         11    1    3    3    0    0  0.55341903177E+01 -0.14869115360E+02 -0.58392269616E+01  0.16906047020E+02  0.51100000000E-03 0. -1.
        -11    1    3    3    0    0 -0.18947683256E+02  0.21776495055E+01  0.10217307794E+02  0.21636779727E+02  0.51100000000E-03 0.  1.
        -12    1    3    3    0    0  0.21816300808E+02  0.25030895685E+02  0.69272056871E+01  0.33918769116E+02  0.00000000000E+00 0.  1.
</event>
<event>
 7    1  0.2797450E-013  0.7246156E+02  0.7816164E-02  0.1226708E+00
        -11   -1    0    0    0    0  0.00000000000E+00  0.00000000000E+00  0.45593999997E+02  0.45594000000E+02  0.51100000000E-03 0.  1.
         11   -1    0    0    0    0 -0.00000000000E+00 -0.00000000000E+00 -0.45593999997E+02  0.45594000000E+02  0.51100000000E-03 0. -1.
    9900012    2    1    2    0    0  0.57372884897E+00  0.13669133027E+02  0.12786917017E+02  0.72461558552E+02  0.69999984703E+02 0.  0.
         12    1    1    2    0    0 -0.57372884897E+00 -0.13669133027E+02 -0.12786917017E+02  0.18726441448E+02  0.00000000000E+00 0. -1.
         11    1    3    3    0    0  0.65380851668E+01 -0.78267040355E+01  0.16274446142E+02  0.19205766093E+02  0.51100000000E-03 0. -1.
        -11    1    3    3    0    0 -0.56606465750E+01 -0.69317432118E+01  0.16315842791E+02  0.18609102875E+02  0.51100000000E-03 0.  1.
        -12    1    3    3    0    0 -0.30370974287E+00  0.28427580275E+02 -0.19803371916E+02  0.34646689584E+02  0.00000000000E+00 0.  1.
</event>
<event>
 7    1  0.2797450E-013  0.7246158E+02  0.7816164E-02  0.1226708E+00
        -11   -1    0    0    0    0  0.00000000000E+00  0.00000000000E+00  0.45593999997E+02  0.45594000000E+02  0.51100000000E-03 0.  1.
         11   -1    0    0    0    0 -0.00000000000E+00 -0.00000000000E+00 -0.45593999997E+02  0.45594000000E+02  0.51100000000E-03 0. -1.
    9900012    2    1    2    0    0  0.39905299653E+00 -0.14957416802E+01  0.18662318564E+02  0.72461584949E+02  0.70000019090E+02 0.  0.
         12    1    1    2    0    0 -0.39905299653E+00  0.14957416802E+01 -0.18662318564E+02  0.18726415051E+02  0.00000000000E+00 0. -1.
         11    1    3    3    0    0 -0.10481713143E+02  0.10587144852E+01  0.23116610611E+02  0.25404032616E+02  0.51100000000E-03 0. -1.
        -11    1    3    3    0    0 -0.12937209813E+02  0.13033734254E+02 -0.11400343197E+01  0.18399709369E+02  0.51100000000E-03 0.  1.
         12    1    3    3    0    0  0.23817975953E+02 -0.15588190420E+02 -0.33142577265E+01  0.28657842964E+02  0.00000000000E+00 0. -1.
</event>
<event>
 7    1  0.2797450E-013  0.7246159E+02  0.7816164E-02  0.1226708E+00
        -11   -1    0    0    0    0  0.00000000000E+00  0.00000000000E+00  0.45593999997E+02  0.45594000000E+02  0.51100000000E-03 0.  1.
         11   -1    0    0    0    0 -0.00000000000E+00 -0.00000000000E+00 -0.45593999997E+02  0.45594000000E+02  0.51100000000E-03 0. -1.
    9900012    2    1    2    0    0 -0.18223115141E+02 -0.67216533042E-01  0.43118510173E+01  0.72461588099E+02  0.70000023194E+02 0.  0.
         12    1    1    2    0    0  0.18223115141E+02  0.67216533042E-01 -0.43118510173E+01  0.18726411901E+02  0.00000000000E+00 0. -1.
         11    1    3    3    0    0  0.98964982395E+01 -0.11877187859E+02  0.94807476953E+01  0.18135403110E+02  0.51100000000E-03 0. -1.
        -11    1    3    3    0    0 -0.11308677264E+02  0.10084481858E+02  0.19332071729E+02  0.24562409357E+02  0.51100000000E-03 0.  1.
         12    1    3    3    0    0 -0.16810936116E+02  0.17254894686E+01 -0.24500968407E+02  0.29763775632E+02  0.00000000000E+00 0. -1.
</event>
<event>
 7    1  0.2797450E-013  0.7246152E+02  0.7816164E-02  0.1226708E+00
        -11   -1    0    0    0    0  0.00000000000E+00  0.00000000000E+00  0.45593999997E+02  0.45594000000E+02  0.51100000000E-03 0. -1.
         11   -1    0    0    0    0 -0.00000000000E+00 -0.00000000000E+00 -0.45593999997E+02  0.45594000000E+02  0.51100000000E-03 0.  1.
    9900012    2    1    2    0    0  0.13670874583E+02 -0.59148043455E+01  0.11349163063E+02  0.72461515425E+02  0.69999928523E+02 0.  0.
         12    1    1    2    0    0 -0.13670874583E+02  0.59148043455E+01 -0.11349163063E+02  0.18726484575E+02  0.00000000000E+00 0. -1.
         11    1    3    3    0    0 -0.15700425551E+02  0.88822471199E+01  0.24852998389E+01  0.18209184274E+02  0.51100000000E-03 0. -1.
        -11    1    3    3    0    0  0.24382176589E+01 -0.14206855858E+02 -0.13112219774E+02  0.19486148064E+02  0.51100000000E-03 0.  1.
        -12    1    3    3    0    0  0.26933082475E+02 -0.59019560726E+00  0.21976082998E+02  0.34766183086E+02  0.00000000000E+00 0.  1.
</event>
<event>
 7    1  0.2797450E-013  0.7246164E+02  0.7816164E-02  0.1226708E+00
        -11   -1    0    0    0    0  0.00000000000E+00  0.00000000000E+00  0.45593999997E+02  0.45594000000E+02  0.51100000000E-03 0.  1.
         11   -1    0    0    0    0 -0.00000000000E+00 -0.00000000000E+00 -0.45593999997E+02  0.45594000000E+02  0.51100000000E-03 0. -1.
    9900012    2    1    2    0    0 -0.19878550669E+01 -0.18518908057E+02  0.19429915777E+01  0.72461635172E+02  0.70000084515E+02 0.  0.
         12    1    1    2    0    0  0.19878550669E+01  0.18518908057E+02 -0.19429915777E+01  0.18726364828E+02  0.00000000000E+00 0. -1.
         11    1    3    3    0    0  0.20519025810E+02  0.79763272487E+01 -0.14076520754E+02  0.26130454519E+02  0.51100000000E-03 0. -1.
        -11    1    3    3    0    0 -0.12191197603E+02  0.20118533629E+01  0.87937039800E+01  0.15165819559E+02  0.51100000000E-03 0.  1.
        -12    1    3    3    0    0 -0.10315683274E+02 -0.28507088669E+02  0.72258083519E+01  0.31165361094E+02  0.00000000000E+00 0.  1.
</event>
<event>
 7    1  0.2797450E-013  0.7246155E+02  0.7816164E-02  0.1226708E+00
        -11   -1    0    0    0    0  0.00000000000E+00  0.00000000000E+00  0.45593999997E+02  0.45594000000E+02  0.51100000000E-03 0.  1.
         11   -1    0    0    0    0 -0.00000000000E+00 -0.00000000000E+00 -0.45593999997E+02  0.45594000000E+02  0.51100000000E-03 0. -1.
    9900012    2    1    2    0    0 -0.94993066667E+01  0.80934679730E+01  0.13962056493E+02  0.72461546185E+02  0.69999968593E+02 0.  0.
         12    1    1    2    0    0  0.94993066667E+01 -0.80934679730E+01 -0.13962056493E+02  0.18726453815E+02  0.00000000000E+00 0. -1.
         11    1    3    3    0    0 -0.77957141350E+01 -0.23413805098E+02 -0.44214342743E+01  0.25070470864E+02  0.51100000000E-03 0. -1.
        -11    1    3    3    0    0 -0.62478454020E+01 -0.42409511110E+01  0.43825355326E+01  0.87308565702E+01  0.51100000000E-03 0.  1.
        -12    1    3    3    0    0  0.45442528703E+01  0.35748224182E+02  0.14000955235E+02  0.38660218750E+02  0.00000000000E+00 0.  1.
</event>
<event>
 7    1  0.2797450E-013  0.7246154E+02  0.7816164E-02  0.1226708E+00
        -11   -1    0    0    0    0  0.00000000000E+00  0.00000000000E+00  0.45593999997E+02  0.45594000000E+02  0.51100000000E-03 0.  1.
         11   -1    0    0    0    0 -0.00000000000E+00 -0.00000000000E+00 -0.45593999997E+02  0.45594000000E+02  0.51100000000E-03 0. -1.
    9900012    2    1    2    0    0 -0.17649441744E+02 -0.37351773046E+01 -0.50225425043E+01  0.72461540736E+02  0.69999961494E+02 0.  0.
         12    1    1    2    0    0  0.17649441744E+02  0.37351773046E+01  0.50225425043E+01  0.18726459264E+02  0.00000000000E+00 0. -1.
         11    1    3    3    0    0  0.99275770444E+01  0.78019233870E+01 -0.34304789526E+01  0.13084149977E+02  0.51100000000E-03 0. -1.
        -11    1    3    3    0    0 -0.58481131456E+01  0.19430413223E+02  0.51884214646E+01  0.20944237941E+02  0.51100000000E-03 0.  1.
         12    1    3    3    0    0 -0.21728905643E+02 -0.30967513914E+02 -0.67804850164E+01  0.38433152818E+02  0.00000000000E+00 0. -1.
</event>
<event>
 7    1  0.2797450E-013  0.7246157E+02  0.7816164E-02  0.1226708E+00
        -11   -1    0    0    0    0  0.00000000000E+00  0.00000000000E+00  0.45593999997E+02  0.45594000000E+02  0.51100000000E-03 0. -1.
         11   -1    0    0    0    0 -0.00000000000E+00 -0.00000000000E+00 -0.45593999997E+02  0.45594000000E+02  0.51100000000E-03 0.  1.
    9900012    2    1    2    0    0  0.29644074888E+01  0.16964905917E+02 -0.73541416024E+01  0.72461570996E+02  0.70000000914E+02 0.  0.
         12    1    1    2    0    0 -0.29644074888E+01 -0.16964905917E+02  0.73541416024E+01  0.18726429004E+02  0.00000000000E+00 0. -1.
         11    1    3    3    0    0 -0.27219627400E+02 -0.19019542381E+01 -0.19574152848E+01  0.27356114867E+02  0.51100000000E-03 0. -1.
        -11    1    3    3    0    0  0.18045986749E+02 -0.43215703493E+01 -0.33109314694E+01  0.18849293766E+02  0.51100000000E-03 0.  1.
        -12    1    3    3    0    0  0.12138048140E+02  0.23188430504E+02 -0.20857948482E+01  0.26256162363E+02  0.00000000000E+00 0.  1.
</event>
<event>
 7    1  0.2797450E-013  0.7246159E+02  0.7816164E-02  0.1226708E+00
        -11   -1    0    0    0    0  0.00000000000E+00  0.00000000000E+00  0.45593999997E+02  0.45594000000E+02  0.51100000000E-03 0.  1.
         11   -1    0    0    0    0 -0.00000000000E+00 -0.00000000000E+00 -0.45593999997E+02  0.45594000000E+02  0.51100000000E-03 0. -1.
    9900012    2    1    2    0    0 -0.36419675461E+01  0.11924875190E+02  0.13971822389E+02  0.72461590927E+02  0.70000026877E+02 0.  0.
         12    1    1    2    0    0  0.36419675461E+01 -0.11924875190E+02 -0.13971822389E+02  0.18726409073E+02  0.00000000000E+00 0. -1.
         11    1    3    3    0    0  0.21385811234E+02  0.26359855233E+02 -0.83017460857E+01  0.34944439878E+02  0.51100000000E-03 0. -1.
        -11    1    3    3    0    0 -0.29098925880E+00 -0.28382780968E+01  0.17530049493E+01  0.33486600181E+01  0.51100000000E-03 0.  1.
        -12    1    3    3    0    0 -0.24736789522E+02 -0.11596701946E+02  0.20520563526E+02  0.34168491030E+02  0.00000000000E+00 0.  1.
</event>
<event>
 7    1  0.2797450E-013  0.7246148E+02  0.7816164E-02  0.1226708E+00
        -11   -1    0    0    0    0  0.00000000000E+00  0.00000000000E+00  0.45593999997E+02  0.45594000000E+02  0.51100000000E-03 0.  1.
         11   -1    0    0    0    0 -0.00000000000E+00 -0.00000000000E+00 -0.45593999997E+02  0.45594000000E+02  0.51100000000E-03 0. -1.
    9900012    2    1    2    0    0 -0.67977623619E+01 -0.12525059788E+02  0.12148899467E+02  0.72461482596E+02  0.69999885757E+02 0.  0.
         12    1    1    2    0    0  0.67977623619E+01  0.12525059788E+02 -0.12148899467E+02  0.18726517404E+02  0.00000000000E+00 0. -1.
         11    1    3    3    0    0 -0.63061603517E+01 -0.22545841667E+02  0.43808036312E+01  0.23817516150E+02  0.51100000000E-03 0.  1.
        -11    1    3    3    0    0 -0.52467745327E+01  0.14772184920E+02 -0.16914838912E+02  0.23062043838E+02  0.51100000000E-03 0. -1.
         12    1    3    3    0    0  0.47551725226E+01 -0.47514030419E+01  0.24682934747E+02  0.25581922608E+02  0.00000000000E+00 0. -1.
</event>
<event>
 7    1  0.2797450E-013  0.7246158E+02  0.7816164E-02  0.1226708E+00
        -11   -1    0    0    0    0  0.00000000000E+00  0.00000000000E+00  0.45593999997E+02  0.45594000000E+02  0.51100000000E-03 0.  1.
         11   -1    0    0    0    0 -0.00000000000E+00 -0.00000000000E+00 -0.45593999997E+02  0.45594000000E+02  0.51100000000E-03 0. -1.
    9900012    2    1    2    0    0 -0.81691399533E+01  0.11163787988E+02  0.12621960902E+02  0.72461577309E+02  0.70000009138E+02 0.  0.
         12    1    1    2    0    0  0.81691399533E+01 -0.11163787988E+02 -0.12621960902E+02  0.18726422691E+02  0.00000000000E+00 0. -1.
         11    1    3    3    0    0  0.83946505628E+01 -0.70299873506E+01 -0.23321792296E+02  0.25764255789E+02  0.51100000000E-03 0. -1.
        -11    1    3    3    0    0 -0.20002339304E+01  0.10209501862E+02  0.49216502842E+01  0.11509018456E+02  0.51100000000E-03 0.  1.
        -12    1    3    3    0    0 -0.14563556586E+02  0.79842734762E+01  0.31022102913E+02  0.35188303064E+02  0.00000000000E+00 0.  1.
</event>
<event>
 7    1  0.2797450E-013  0.7246166E+02  0.7816164E-02  0.1226708E+00
        -11   -1    0    0    0    0  0.00000000000E+00  0.00000000000E+00  0.45593999997E+02  0.45594000000E+02  0.51100000000E-03 0.  1.
         11   -1    0    0    0    0 -0.00000000000E+00 -0.00000000000E+00 -0.45593999997E+02  0.45594000000E+02  0.51100000000E-03 0. -1.
    9900012    2    1    2    0    0 -0.10640338934E+02 -0.75846053654E-01  0.15409520047E+02  0.72461658303E+02  0.70000114648E+02 0.  0.
         12    1    1    2    0    0  0.10640338934E+02  0.75846053654E-01 -0.15409520047E+02  0.18726341697E+02  0.00000000000E+00 0. -1.
         11    1    3    3    0    0 -0.11048914642E+02 -0.12941758413E+02  0.87045638126E+01  0.19113792325E+02  0.51100000000E-03 0. -1.
        -11    1    3    3    0    0 -0.11793863927E+00 -0.19264099329E+02 -0.36075751842E+01  0.19599337526E+02  0.51100000000E-03 0.  1.
        -12    1    3    3    0    0  0.52651434747E+00  0.32130011689E+02  0.10312531419E+02  0.33748528453E+02  0.00000000000E+00 0.  1.
</event>
<event>
 7    1  0.2797450E-013  0.7246155E+02  0.7816164E-02  0.1226708E+00
        -11   -1    0    0    0    0  0.00000000000E+00  0.00000000000E+00  0.45593999997E+02  0.45594000000E+02  0.51100000000E-03 0.  1.
         11   -1    0    0    0    0 -0.00000000000E+00 -0.00000000000E+00 -0.45593999997E+02  0.45594000000E+02  0.51100000000E-03 0. -1.
    9900012    2    1    2    0    0  0.16052047208E+02 -0.86782916294E+01 -0.42070049013E+01  0.72461551981E+02  0.69999976144E+02 0.  0.
         12    1    1    2    0    0 -0.16052047208E+02  0.86782916294E+01  0.42070049013E+01  0.18726448019E+02  0.00000000000E+00 0. -1.
         11    1    3    3    0    0 -0.16307875839E+02 -0.98295492597E+01  0.71053318709E+00  0.19054440708E+02  0.51100000000E-03 0. -1.
        -11    1    3    3    0    0  0.47409062003E+00 -0.15044810535E+02 -0.87962468046E+01  0.17434019734E+02  0.51100000000E-03 0.  1.
         12    1    3    3    0    0  0.31885832427E+02  0.16196068166E+02  0.38787087162E+01  0.35973091539E+02  0.00000000000E+00 0. -1.
</event>
<event>
 7    1  0.2797450E-013  0.7246158E+02  0.7816164E-02  0.1226708E+00
        -11   -1    0    0    0    0  0.00000000000E+00  0.00000000000E+00  0.45593999997E+02  0.45594000000E+02  0.51100000000E-03 0.  1.
         11   -1    0    0    0    0 -0.00000000000E+00 -0.00000000000E+00 -0.45593999997E+02  0.45594000000E+02  0.51100000000E-03 0. -1.
    9900012    2    1    2    0    0 -0.33492631107E+01  0.28446608339E+00  0.18422278696E+02  0.72461579181E+02  0.70000011577E+02 0.  0.
         12    1    1    2    0    0  0.33492631107E+01 -0.28446608339E+00 -0.18422278696E+02  0.18726420819E+02  0.00000000000E+00 0. -1.
         11    1    3    3    0    0 -0.14135658593E+02  0.51457378375E+01 -0.62901294731E+01  0.16305250406E+02  0.51100000000E-03 0. -1.
        -11    1    3    3    0    0  0.11095134533E+02 -0.40340680242E+01 -0.13499882966E+02  0.17933838281E+02  0.51100000000E-03 0.  1.
        -12    1    3    3    0    0 -0.30873905079E+00 -0.82720372995E+00  0.38212291135E+02  0.38222490494E+02  0.00000000000E+00 0.  1.
</event>
<event>
 7    1  0.2797450E-013  0.7246182E+02  0.7816164E-02  0.1226707E+00
        -11   -1    0    0    0    0  0.00000000000E+00  0.00000000000E+00  0.45593999997E+02  0.45594000000E+02  0.51100000000E-03 0.  1.
         11   -1    0    0    0    0 -0.00000000000E+00 -0.00000000000E+00 -0.45593999997E+02  0.45594000000E+02  0.51100000000E-03 0. -1.
    9900012    2    1    2    0    0 -0.83050495401E+01 -0.13511835622E+02  0.99562119280E+01  0.72461822983E+02  0.70000329173E+02 0.  0.
         12    1    1    2    0    0  0.83050495401E+01  0.13511835622E+02 -0.99562119280E+01  0.18726177017E+02  0.00000000000E+00 0. -1.
         11    1    3    3    0    0  0.18870161594E+02 -0.14218026899E+02  0.78993862187E+01  0.24912558888E+02  0.51100000000E-03 0.  1.
        -11    1    3    3    0    0  0.64039360809E+01  0.10430210815E+02  0.29085550314E+01  0.12580118744E+02  0.51100000000E-03 0. -1.
        -12    1    3    3    0    0 -0.33579147215E+02 -0.97240195384E+01 -0.85172932208E+00  0.34969145350E+02  0.00000000000E+00 0.  1.
</event>
<event>
 7    1  0.2797450E-013  0.7246155E+02  0.7816164E-02  0.1226708E+00
        -11   -1    0    0    0    0  0.00000000000E+00  0.00000000000E+00  0.45593999997E+02  0.45594000000E+02  0.51100000000E-03 0.  1.
         11   -1    0    0    0    0 -0.00000000000E+00 -0.00000000000E+00 -0.45593999997E+02  0.45594000000E+02  0.51100000000E-03 0. -1.
    9900012    2    1    2    0    0  0.54370088898E+01  0.28433741837E+01  0.17692769541E+02  0.72461549817E+02  0.69999973324E+02 0.  0.
         12    1    1    2    0    0 -0.54370088898E+01 -0.28433741837E+01 -0.17692769541E+02  0.18726450183E+02  0.00000000000E+00 0. -1.
         11    1    3    3    0    0 -0.34421035409E+01 -0.18592517070E+01 -0.12026661533E+02  0.12646955428E+02  0.51100000000E-03 0. -1.
        -11    1    3    3    0    0  0.98642654198E+01  0.26025352115E+02  0.71202612810E+01  0.28728397205E+02  0.51100000000E-03 0.  1.
         12    1    3    3    0    0 -0.98515298907E+00 -0.21322726224E+02  0.22599169794E+02  0.31086197185E+02  0.00000000000E+00 0. -1.
</event>
<event>
 7    1  0.2797450E-013  0.7246168E+02  0.7816164E-02  0.1226708E+00
        -11   -1    0    0    0    0  0.00000000000E+00  0.00000000000E+00  0.45593999997E+02  0.45594000000E+02  0.51100000000E-03 0.  1.
         11   -1    0    0    0    0 -0.00000000000E+00 -0.00000000000E+00 -0.45593999997E+02  0.45594000000E+02  0.51100000000E-03 0. -1.
    9900012    2    1    2    0    0 -0.12318696961E+02  0.60918445160E+01 -0.12720620982E+02  0.72461679951E+02  0.70000142848E+02 0.  0.
         12    1    1    2    0    0  0.12318696961E+02 -0.60918445160E+01  0.12720620982E+02  0.18726320049E+02  0.00000000000E+00 0. -1.
         11    1    3    3    0    0 -0.18461321874E+01  0.22442712019E+01  0.36011617103E+01  0.46274532095E+01  0.51100000000E-03 0. -1.
        -11    1    3    3    0    0  0.13433718877E+02  0.19846621813E+02  0.12571567895E+02  0.27062843898E+02  0.51100000000E-03 0.  1.
         12    1    3    3    0    0 -0.23906283650E+02 -0.15999048499E+02 -0.28893350587E+02  0.40771382843E+02  0.00000000000E+00 0. -1.
</event>
<event>
 7    1  0.2797450E-013  0.7246153E+02  0.7816164E-02  0.1226708E+00
        -11   -1    0    0    0    0  0.00000000000E+00  0.00000000000E+00  0.45593999997E+02  0.45594000000E+02  0.51100000000E-03 0. -1.
         11   -1    0    0    0    0 -0.00000000000E+00 -0.00000000000E+00 -0.45593999997E+02  0.45594000000E+02  0.51100000000E-03 0.  1.
    9900012    2    1    2    0    0  0.42962429158E+01 -0.10372165179E+02 -0.14988039101E+02  0.72461525965E+02  0.69999942252E+02 0.  0.
         12    1    1    2    0    0 -0.42962429158E+01  0.10372165179E+02  0.14988039101E+02  0.18726474035E+02  0.00000000000E+00 0. -1.
         11    1    3    3    0    0  0.20404903041E+02  0.96053266875E+01  0.10787393801E+01  0.22578442103E+02  0.51100000000E-03 0. -1.
        -11    1    3    3    0    0 -0.35315524621E+01  0.11078309410E+02  0.20283325662E+01  0.11803174803E+02  0.51100000000E-03 0.  1.
        -12    1    3    3    0    0 -0.12577107663E+02 -0.31055801277E+02 -0.18095111047E+02  0.38079909059E+02  0.00000000000E+00 0.  1.
</event>
<event>
 7    1  0.2797450E-013  0.7246157E+02  0.7816164E-02  0.1226708E+00
        -11   -1    0    0    0    0  0.00000000000E+00  0.00000000000E+00  0.45593999997E+02  0.45594000000E+02  0.51100000000E-03 0.  1.
         11   -1    0    0    0    0 -0.00000000000E+00 -0.00000000000E+00 -0.45593999997E+02  0.45594000000E+02  0.51100000000E-03 0. -1.
    9900012    2    1    2    0    0 -0.11322685060E+01  0.85554734376E+01  0.16619297275E+02  0.72461569490E+02  0.69999998953E+02 0.  0.
         12    1    1    2    0    0  0.11322685060E+01 -0.85554734376E+01 -0.16619297275E+02  0.18726430510E+02  0.00000000000E+00 0. -1.
         11    1    3    3    0    0  0.89160838103E+01 -0.16939908004E+02 -0.80219481436E+01  0.20755931345E+02  0.51100000000E-03 0. -1.
        -11    1    3    3    0    0  0.13727081609E+02  0.78804641086E+01  0.96049068808E+01  0.18514554289E+02  0.51100000000E-03 0.  1.
        -12    1    3    3    0    0 -0.23775433925E+02  0.17614917333E+02  0.15036338538E+02  0.33191083857E+02  0.00000000000E+00 0.  1.
</event>
<event>
 7    1  0.2797450E-013  0.7246164E+02  0.7816164E-02  0.1226708E+00
        -11   -1    0    0    0    0  0.00000000000E+00  0.00000000000E+00  0.45593999997E+02  0.45594000000E+02  0.51100000000E-03 0.  1.
         11   -1    0    0    0    0 -0.00000000000E+00 -0.00000000000E+00 -0.45593999997E+02  0.45594000000E+02  0.51100000000E-03 0. -1.
    9900012    2    1    2    0    0  0.49644835673E+01 -0.11140481516E+02  0.14209860466E+02  0.72461639970E+02  0.70000090766E+02 0.  0.
         12    1    1    2    0    0 -0.49644835673E+01  0.11140481516E+02 -0.14209860466E+02  0.18726360030E+02  0.00000000000E+00 0. -1.
         11    1    3    3    0    0  0.47756279130E+01  0.93273817908E+01 -0.75841362592E+01  0.12935447271E+02  0.51100000000E-03 0. -1.
        -11    1    3    3    0    0 -0.32429509436E+01  0.15478260516E+02 -0.24919005354E+01  0.16009461202E+02  0.51100000000E-03 0.  1.
         12    1    3    3    0    0  0.34318065979E+01 -0.35946123823E+02  0.24285897261E+02  0.43516731497E+02  0.00000000000E+00 0. -1.
</event>
<event>
 7    1  0.2797450E-013  0.7246154E+02  0.7816164E-02  0.1226708E+00
        -11   -1    0    0    0    0  0.00000000000E+00  0.00000000000E+00  0.45593999997E+02  0.45594000000E+02  0.51100000000E-03 0.  1.
         11   -1    0    0    0    0 -0.00000000000E+00 -0.00000000000E+00 -0.45593999997E+02  0.45594000000E+02  0.51100000000E-03 0. -1.
    9900012    2    1    2    0    0 -0.81105854595E+01  0.12191414011E+02  0.11673391871E+02  0.72461541449E+02  0.69999962424E+02 0.  0.
         12    1    1    2    0    0  0.81105854595E+01 -0.12191414011E+02 -0.11673391871E+02  0.18726458551E+02  0.00000000000E+00 0. -1.
         11    1    3    3    0    0  0.53178613007E+01  0.61374465575E+01  0.19459373620E+02  0.21085898629E+02  0.51100000000E-03 0.  1.
        -11    1    3    3    0    0 -0.14408700147E+02  0.26522371114E+02 -0.29997541336E+01  0.30332249085E+02  0.51100000000E-03 0. -1.
         12    1    3    3    0    0  0.98025338695E+00 -0.20468403661E+02 -0.47862276154E+01  0.21043393735E+02  0.00000000000E+00 0. -1.
</event>
<event>
 7    1  0.2797450E-013  0.7246184E+02  0.7816164E-02  0.1226707E+00
        -11   -1    0    0    0    0  0.00000000000E+00  0.00000000000E+00  0.45593999997E+02  0.45594000000E+02  0.51100000000E-03 0. -1.
         11   -1    0    0    0    0 -0.00000000000E+00 -0.00000000000E+00 -0.45593999997E+02  0.45594000000E+02  0.51100000000E-03 0.  1.
    9900012    2    1    2    0    0 -0.65029596521E+01  0.66737887437E+01 -0.16243188382E+02  0.72461838908E+02  0.70000349918E+02 0.  0.
         12    1    1    2    0    0  0.65029596521E+01 -0.66737887437E+01  0.16243188382E+02  0.18726161092E+02  0.00000000000E+00 0. -1.
         11    1    3    3    0    0 -0.42727718709E+01  0.16483775025E+02  0.83672358502E+01  0.18973193052E+02  0.51100000000E-03 0. -1.
        -11    1    3    3    0    0 -0.14934893184E+02 -0.83278807396E+00  0.82857569391E+01  0.17099659024E+02  0.51100000000E-03 0.  1.
        -12    1    3    3    0    0  0.12704705403E+02 -0.89771982074E+01 -0.32896181171E+02  0.36388986833E+02  0.00000000000E+00 0.  1.
</event>
<event>
 7    1  0.2797450E-013  0.7246142E+02  0.7816164E-02  0.1226708E+00
        -11   -1    0    0    0    0  0.00000000000E+00  0.00000000000E+00  0.45593999997E+02  0.45594000000E+02  0.51100000000E-03 0.  1.
         11   -1    0    0    0    0 -0.00000000000E+00 -0.00000000000E+00 -0.45593999997E+02  0.45594000000E+02  0.51100000000E-03 0. -1.
    9900012    2    1    2    0    0  0.11499329673E+02  0.92903662105E+01  0.11495184509E+02  0.72461421184E+02  0.69999805756E+02 0.  0.
         12    1    1    2    0    0 -0.11499329673E+02 -0.92903662105E+01 -0.11495184509E+02  0.18726578816E+02  0.00000000000E+00 0. -1.
         11    1    3    3    0    0  0.27096611210E+01 -0.13467684601E+02 -0.18819572373E+02  0.23300152284E+02  0.51100000000E-03 0. -1.
        -11    1    3    3    0    0 -0.24823062986E+01  0.18246111938E+01 -0.54232777445E+01  0.62372263326E+01  0.51100000000E-03 0.  1.
        -12    1    3    3    0    0  0.11271974851E+02  0.20933439618E+02  0.35738034627E+02  0.42924042567E+02  0.00000000000E+00 0.  1.
</event>
<event>
 7    1  0.2797450E-013  0.7246159E+02  0.7816164E-02  0.1226708E+00
        -11   -1    0    0    0    0  0.00000000000E+00  0.00000000000E+00  0.45593999997E+02  0.45594000000E+02  0.51100000000E-03 0. -1.
         11   -1    0    0    0    0 -0.00000000000E+00 -0.00000000000E+00 -0.45593999997E+02  0.45594000000E+02  0.51100000000E-03 0.  1.
    9900012    2    1    2    0    0  0.12706779854E+02 -0.21955077504E+01 -0.13579247559E+02  0.72461588896E+02  0.70000024233E+02 0.  0.
         12    1    1    2    0    0 -0.12706779854E+02  0.21955077504E+01  0.13579247559E+02  0.18726411104E+02  0.00000000000E+00 0. -1.
         11    1    3    3    0    0  0.12897471705E+02 -0.63723575687E+01 -0.10490023962E+02  0.17804278148E+02  0.51100000000E-03 0. -1.
        -11    1    3    3    0    0  0.60943898043E+01  0.67979170922E+01 -0.27677008022E+02  0.29143953698E+02  0.51100000000E-03 0.  1.
         12    1    3    3    0    0 -0.62850816554E+01 -0.26210672739E+01  0.24587784425E+02  0.25513357050E+02  0.00000000000E+00 0. -1.
</event>
<event>
 7    1  0.2797450E-013  0.7246158E+02  0.7816164E-02  0.1226708E+00
        -11   -1    0    0    0    0  0.00000000000E+00  0.00000000000E+00  0.45593999997E+02  0.45594000000E+02  0.51100000000E-03 0. -1.
         11   -1    0    0    0    0 -0.00000000000E+00 -0.00000000000E+00 -0.45593999997E+02  0.45594000000E+02  0.51100000000E-03 0.  1.
    9900012    2    1    2    0    0 -0.16674282843E+01 -0.14005408313E+02 -0.12318566933E+02  0.72461578282E+02  0.70000010405E+02 0.  0.
         12    1    1    2    0    0  0.16674282843E+01  0.14005408313E+02  0.12318566933E+02  0.18726421718E+02  0.00000000000E+00 0. -1.
         11    1    3    3    0    0 -0.25192589955E+02 -0.24734932116E+02 -0.10519216308E+02  0.36839345371E+02  0.51100000000E-03 0. -1.
        -11    1    3    3    0    0  0.10356180365E+02  0.29643918357E+01  0.11211118629E+02  0.15547580901E+02  0.51100000000E-03 0.  1.
        -12    1    3    3    0    0  0.13168981306E+02  0.77651319677E+01 -0.13010469254E+02  0.20074652010E+02  0.00000000000E+00 0.  1.
</event>
<event>
 7    1  0.2797450E-013  0.7246162E+02  0.7816164E-02  0.1226708E+00
        -11   -1    0    0    0    0  0.00000000000E+00  0.00000000000E+00  0.45593999997E+02  0.45594000000E+02  0.51100000000E-03 0.  1.
         11   -1    0    0    0    0 -0.00000000000E+00 -0.00000000000E+00 -0.45593999997E+02  0.45594000000E+02  0.51100000000E-03 0. -1.
    9900012    2    1    2    0    0  0.66011173181E+01  0.13456963234E+02  0.11225537055E+02  0.72461620438E+02  0.70000065322E+02 0.  0.
         12    1    1    2    0    0 -0.66011173181E+01 -0.13456963234E+02 -0.11225537055E+02  0.18726379562E+02  0.00000000000E+00 0. -1.
         11    1    3    3    0    0 -0.54394342095E+01  0.23586024442E+02 -0.98386593349E+01  0.26128283741E+02  0.51100000000E-03 0. -1.
        -11    1    3    3    0    0  0.97617431380E+01 -0.18031898655E+02 -0.31638256988E+01  0.20747308054E+02  0.51100000000E-03 0.  1.
        -12    1    3    3    0    0  0.22788083897E+01  0.79028374469E+01  0.24228022088E+02  0.25586028643E+02  0.00000000000E+00 0.  1.
</event>
<event>
 7    1  0.2797450E-013  0.7246161E+02  0.7816164E-02  0.1226708E+00
        -11   -1    0    0    0    0  0.00000000000E+00  0.00000000000E+00  0.45593999997E+02  0.45594000000E+02  0.51100000000E-03 0.  1.
         11   -1    0    0    0    0 -0.00000000000E+00 -0.00000000000E+00 -0.45593999997E+02  0.45594000000E+02  0.51100000000E-03 0. -1.
    9900012    2    1    2    0    0 -0.97158007741E+01 -0.51521995719E+01  0.15157034493E+02  0.72461611140E+02  0.70000053209E+02 0.  0.
         12    1    1    2    0    0  0.97158007741E+01  0.51521995719E+01 -0.15157034493E+02  0.18726388860E+02  0.00000000000E+00 0. -1.
         11    1    3    3    0    0 -0.51494947848E+01 -0.87291966043E+01 -0.12936090316E+02  0.16433459855E+02  0.51100000000E-03 0. -1.
        -11    1    3    3    0    0 -0.10520302483E+02 -0.14480073655E+02 -0.43543435851E+01  0.18420358458E+02  0.51100000000E-03 0.  1.
        -12    1    3    3    0    0  0.59539964937E+01  0.18057070688E+02  0.32447468395E+02  0.37607792827E+02  0.00000000000E+00 0.  1.
</event>
<event>
 7    1  0.2797450E-013  0.7246161E+02  0.7816164E-02  0.1226708E+00
        -11   -1    0    0    0    0  0.00000000000E+00  0.00000000000E+00  0.45593999997E+02  0.45594000000E+02  0.51100000000E-03 0.  1.
         11   -1    0    0    0    0 -0.00000000000E+00 -0.00000000000E+00 -0.45593999997E+02  0.45594000000E+02  0.51100000000E-03 0. -1.
    9900012    2    1    2    0    0 -0.11108857747E+02 -0.93698655581E+00  0.15046360949E+02  0.72461611078E+02  0.70000053129E+02 0.  0.
         12    1    1    2    0    0  0.11108857747E+02  0.93698655581E+00 -0.15046360949E+02  0.18726388922E+02  0.00000000000E+00 0. -1.
         11    1    3    3    0    0 -0.12471497414E+02  0.11946451133E+02  0.94774640889E+01  0.19699702237E+02  0.51100000000E-03 0. -1.
        -11    1    3    3    0    0  0.43012813518E+01  0.19273713214E+02 -0.11418551252E+01  0.19780820906E+02  0.51100000000E-03 0.  1.
         12    1    3    3    0    0 -0.29386416844E+01 -0.32157150903E+02  0.67107519849E+01  0.32981087935E+02  0.00000000000E+00 0. -1.
</event>
<event>
 7    1  0.2797450E-013  0.7246157E+02  0.7816164E-02  0.1226708E+00
        -11   -1    0    0    0    0  0.00000000000E+00  0.00000000000E+00  0.45593999997E+02  0.45594000000E+02  0.51100000000E-03 0.  1.
         11   -1    0    0    0    0 -0.00000000000E+00 -0.00000000000E+00 -0.45593999997E+02  0.45594000000E+02  0.51100000000E-03 0. -1.
    9900012    2    1    2    0    0 -0.15549467426E+02 -0.70023399552E+01  0.77369447258E+01  0.72461574399E+02  0.70000005348E+02 0.  0.
         12    1    1    2    0    0  0.15549467426E+02  0.70023399552E+01 -0.77369447258E+01  0.18726425601E+02  0.00000000000E+00 0. -1.
         11    1    3    3    0    0 -0.21697118086E+01 -0.82833542846E+01 -0.15401364827E+02  0.17621681144E+02  0.51100000000E-03 0. -1.
        -11    1    3    3    0    0  0.82477838922E+01  0.12627225877E+02 -0.65102877718E+01  0.16427313220E+02  0.51100000000E-03 0.  1.
        -12    1    3    3    0    0 -0.21627539510E+02 -0.11346211547E+02  0.29648597325E+02  0.38412580036E+02  0.00000000000E+00 0.  1.
</event>
<event>
 7    1  0.2797450E-013  0.7246154E+02  0.7816164E-02  0.1226708E+00
        -11   -1    0    0    0    0  0.00000000000E+00  0.00000000000E+00  0.45593999997E+02  0.45594000000E+02  0.51100000000E-03 0. -1.
         11   -1    0    0    0    0 -0.00000000000E+00 -0.00000000000E+00 -0.45593999997E+02  0.45594000000E+02  0.51100000000E-03 0.  1.
    9900012    2    1    2    0    0 -0.12291246227E+02 -0.13520917351E+01 -0.14063339668E+02  0.72461537214E+02  0.69999956906E+02 0.  0.
         12    1    1    2    0    0  0.12291246227E+02  0.13520917351E+01  0.14063339668E+02  0.18726462786E+02  0.00000000000E+00 0. -1.
         11    1    3    3    0    0  0.77607818814E+01  0.25281984144E+01 -0.18293365098E+01  0.83646873798E+01  0.51100000000E-03 0. -1.
        -11    1    3    3    0    0 -0.23723279827E+02  0.16400697642E+02 -0.26390612619E+02  0.39092727246E+02  0.51100000000E-03 0.  1.
         12    1    3    3    0    0  0.36712517185E+01 -0.20280987791E+02  0.14156609461E+02  0.25004122588E+02  0.00000000000E+00 0. -1.
</event>
<event>
 7    1  0.2797450E-013  0.7246155E+02  0.7816164E-02  0.1226708E+00
        -11   -1    0    0    0    0  0.00000000000E+00  0.00000000000E+00  0.45593999997E+02  0.45594000000E+02  0.51100000000E-03 0.  1.
         11   -1    0    0    0    0 -0.00000000000E+00 -0.00000000000E+00 -0.45593999997E+02  0.45594000000E+02  0.51100000000E-03 0. -1.
    9900012    2    1    2    0    0  0.17623820441E+02 -0.54770152849E+01  0.31754302723E+01  0.72461545430E+02  0.69999967609E+02 0.  0.
         12    1    1    2    0    0 -0.17623820441E+02  0.54770152849E+01 -0.31754302723E+01  0.18726454570E+02  0.00000000000E+00 0. -1.
         11    1    3    3    0    0  0.26822780289E+02  0.20181051571E+01  0.69217323699E+01  0.27774892801E+02  0.51100000000E-03 0. -1.
        -11    1    3    3    0    0  0.61546997035E+01 -0.88623534858E+01  0.16208603299E+02  0.19471529444E+02  0.51100000000E-03 0.  1.
         12    1    3    3    0    0 -0.15353659551E+02  0.13672330437E+01 -0.19954905396E+02  0.25215123184E+02  0.00000000000E+00 0. -1.
</event>
<event>
 7    1  0.2797450E-013  0.7246153E+02  0.7816164E-02  0.1226708E+00
        -11   -1    0    0    0    0  0.00000000000E+00  0.00000000000E+00  0.45593999997E+02  0.45594000000E+02  0.51100000000E-03 0.  1.
         11   -1    0    0    0    0 -0.00000000000E+00 -0.00000000000E+00 -0.45593999997E+02  0.45594000000E+02  0.51100000000E-03 0. -1.
    9900012    2    1    2    0    0  0.14952827860E+02  0.68721279960E+01 -0.89368506614E+01  0.72461534665E+02  0.69999953586E+02 0.  0.
         12    1    1    2    0    0 -0.14952827860E+02 -0.68721279960E+01  0.89368506614E+01  0.18726465335E+02  0.00000000000E+00 0. -1.
         11    1    3    3    0    0  0.17143268394E+02  0.86050537260E+01  0.89162763966E+01  0.21152744169E+02  0.51100000000E-03 0. -1.
        -11    1    3    3    0    0  0.17684555197E+02 -0.42631708312E+01  0.69066306249E+01  0.19458151631E+02  0.51100000000E-03 0.  1.
         12    1    3    3    0    0 -0.19874995730E+02  0.25302451013E+01 -0.24759757683E+02  0.31850638864E+02  0.00000000000E+00 0. -1.
</event>
<event>
 7    1  0.2797450E-013  0.7246157E+02  0.7816164E-02  0.1226708E+00
        -11   -1    0    0    0    0  0.00000000000E+00  0.00000000000E+00  0.45593999997E+02  0.45594000000E+02  0.51100000000E-03 0.  1.
         11   -1    0    0    0    0 -0.00000000000E+00 -0.00000000000E+00 -0.45593999997E+02  0.45594000000E+02  0.51100000000E-03 0. -1.
    9900012    2    1    2    0    0  0.11863697085E+02 -0.29562545186E+01  0.14184232215E+02  0.72461569672E+02  0.69999999189E+02 0.  0.
         12    1    1    2    0    0 -0.11863697085E+02  0.29562545186E+01 -0.14184232215E+02  0.18726430328E+02  0.00000000000E+00 0. -1.
         11    1    3    3    0    0 -0.24051624554E+02 -0.81917403851E+01 -0.70781926280E+01  0.26375861414E+02  0.51100000000E-03 0.  1.
        -11    1    3    3    0    0  0.15644725635E+02  0.11693381659E+02  0.87270169772E+01  0.21392836194E+02  0.51100000000E-03 0. -1.
        -12    1    3    3    0    0  0.20270596003E+02 -0.64578957928E+01  0.12535407866E+02  0.24692872064E+02  0.00000000000E+00 0.  1.
</event>
<event>
 7    1  0.2797450E-013  0.7246173E+02  0.7816164E-02  0.1226708E+00
        -11   -1    0    0    0    0  0.00000000000E+00  0.00000000000E+00  0.45593999997E+02  0.45594000000E+02  0.51100000000E-03 0. -1.
         11   -1    0    0    0    0 -0.00000000000E+00 -0.00000000000E+00 -0.45593999997E+02  0.45594000000E+02  0.51100000000E-03 0.  1.
    9900012    2    1    2    0    0  0.78434074443E+00  0.13321600031E+02 -0.13137462508E+02  0.72461731313E+02  0.70000209756E+02 0.  0.
         12    1    1    2    0    0 -0.78434074443E+00 -0.13321600031E+02  0.13137462508E+02  0.18726268687E+02  0.00000000000E+00 0. -1.
         11    1    3    3    0    0  0.15593943248E+02  0.13252775135E+02  0.51294282964E+01  0.21097823341E+02  0.51100000000E-03 0. -1.
        -11    1    3    3    0    0 -0.15405037305E+02  0.25510456991E+00  0.12958589522E+02  0.20132195493E+02  0.51100000000E-03 0.  1.
         12    1    3    3    0    0  0.59543480124E+00 -0.18627967373E+00 -0.31225480327E+02  0.31231712479E+02  0.00000000000E+00 0. -1.
</event>
<event>
 7    1  0.2797450E-013  0.7246158E+02  0.7816164E-02  0.1226708E+00
        -11   -1    0    0    0    0  0.00000000000E+00  0.00000000000E+00  0.45593999997E+02  0.45594000000E+02  0.51100000000E-03 0. -1.
         11   -1    0    0    0    0 -0.00000000000E+00 -0.00000000000E+00 -0.45593999997E+02  0.45594000000E+02  0.51100000000E-03 0.  1.
    9900012    2    1    2    0    0  0.10061374130E+02  0.12239287288E+02 -0.99823616787E+01  0.72461576225E+02  0.70000007726E+02 0.  0.
         12    1    1    2    0    0 -0.10061374130E+02 -0.12239287288E+02  0.99823616787E+01  0.18726423775E+02  0.00000000000E+00 0. -1.
         11    1    3    3    0    0  0.12444679249E+02  0.29078884273E+02  0.58342318423E+01  0.32163485719E+02  0.51100000000E-03 0. -1.
        -11    1    3    3    0    0  0.69135527635E+01  0.53555483335E+01 -0.13551272225E+02  0.16128114860E+02  0.51100000000E-03 0.  1.
        -12    1    3    3    0    0 -0.92968578825E+01 -0.22195145318E+02 -0.22653212964E+01  0.24169975646E+02  0.00000000000E+00 0.  1.
</event>
<event>
 7    1  0.2797450E-013  0.7246160E+02  0.7816164E-02  0.1226708E+00
        -11   -1    0    0    0    0  0.00000000000E+00  0.00000000000E+00  0.45593999997E+02  0.45594000000E+02  0.51100000000E-03 0. -1.
         11   -1    0    0    0    0 -0.00000000000E+00 -0.00000000000E+00 -0.45593999997E+02  0.45594000000E+02  0.51100000000E-03 0.  1.
    9900012    2    1    2    0    0 -0.19608794047E+01  0.17331996202E+02 -0.68143144555E+01  0.72461600936E+02  0.70000039917E+02 0.  0.
         12    1    1    2    0    0  0.19608794047E+01 -0.17331996202E+02  0.68143144555E+01  0.18726399064E+02  0.00000000000E+00 0. -1.
         11    1    3    3    0    0  0.19438040977E+02  0.19285967431E+02  0.17828421437E+02  0.32674739294E+02  0.51100000000E-03 0. -1.
        -11    1    3    3    0    0 -0.13612294966E+02  0.85815487264E+01 -0.63777220762E+01  0.17309329621E+02  0.51100000000E-03 0.  1.
        -12    1    3    3    0    0 -0.77866254153E+01 -0.10535519955E+02 -0.18265013816E+02  0.22477532021E+02  0.00000000000E+00 0.  1.
</event>
<event>
 7    1  0.3005986E-013  0.7246180E+02  0.7816164E-02  0.1226707E+00
        -11   -1    0    0    0    0  0.00000000000E+00  0.00000000000E+00  0.45593999997E+02  0.45594000000E+02  0.51100000000E-03 0. -1.
         11   -1    0    0    0    0 -0.00000000000E+00 -0.00000000000E+00 -0.45593999997E+02  0.45594000000E+02  0.51100000000E-03 0.  1.
    9900012    2    1    2    0    0  0.12122661062E+02 -0.71029038703E+01 -0.12379837765E+02  0.72461800767E+02  0.70000300233E+02 0.  0.
         12    1    1    2    0    0 -0.12122661062E+02  0.71029038703E+01  0.12379837765E+02  0.18726199233E+02  0.00000000000E+00 0. -1.
         11    1    3    3    0    0  0.10443209060E+02 -0.71570499364E+01 -0.88431166820E+01  0.15442949595E+02  0.51100000000E-03 0. -1.
        -11    1    3    3    0    0 -0.10861935164E+01 -0.26915439712E+01 -0.30065539984E+02  0.30205312779E+02  0.51100000000E-03 0.  1.
         12    1    3    3    0    0  0.27656455184E+01  0.27456900373E+01  0.26528818900E+02  0.26813538393E+02  0.00000000000E+00 0. -1.
</event>
<event>
 7    1  0.2797450E-013  0.7246156E+02  0.7816164E-02  0.1226708E+00
        -11   -1    0    0    0    0  0.00000000000E+00  0.00000000000E+00  0.45593999997E+02  0.45594000000E+02  0.51100000000E-03 0.  1.
         11   -1    0    0    0    0 -0.00000000000E+00 -0.00000000000E+00 -0.45593999997E+02  0.45594000000E+02  0.51100000000E-03 0. -1.
    9900012    2    1    2    0    0 -0.25362978114E+00 -0.16633209100E+02  0.85995107561E+01  0.72461559915E+02  0.69999986479E+02 0.  0.
         12    1    1    2    0    0  0.25362978114E+00  0.16633209100E+02 -0.85995107561E+01  0.18726440085E+02  0.00000000000E+00 0. -1.
         11    1    3    3    0    0  0.33653608985E+01  0.17622429032E+01  0.12706699721E+01  0.40057154750E+01  0.51100000000E-03 0. -1.
        -11    1    3    3    0    0 -0.29933438143E+02  0.76666387938E+01  0.54121982658E+01  0.31370048769E+02  0.51100000000E-03 0.  1.
         12    1    3    3    0    0  0.26314447463E+02 -0.26062090797E+02  0.19166425182E+01  0.37085795671E+02  0.00000000000E+00 0. -1.
</event>
<event>
 7    1  0.2797450E-013  0.7246148E+02  0.7816164E-02  0.1226708E+00
        -11   -1    0    0    0    0  0.00000000000E+00  0.00000000000E+00  0.45593999997E+02  0.45594000000E+02  0.51100000000E-03 0.  1.
         11   -1    0    0    0    0 -0.00000000000E+00 -0.00000000000E+00 -0.45593999997E+02  0.45594000000E+02  0.51100000000E-03 0. -1.
    9900012    2    1    2    0    0  0.12665127281E+01 -0.77079275289E+01  0.17019584429E+02  0.72461482560E+02  0.69999885710E+02 0.  0.
         12    1    1    2    0    0 -0.12665127281E+01  0.77079275289E+01 -0.17019584429E+02  0.18726517440E+02  0.00000000000E+00 0. -1.
         11    1    3    3    0    0 -0.13749988480E+02 -0.90259789908E+00 -0.74335300074E+01  0.15656763228E+02  0.51100000000E-03 0. -1.
        -11    1    3    3    0    0 -0.13133326680E+02 -0.15468427187E+02  0.33365819852E+01  0.20564272147E+02  0.51100000000E-03 0.  1.
        -12    1    3    3    0    0  0.28149827888E+02  0.86630975570E+01  0.21116532451E+02  0.36240447185E+02  0.00000000000E+00 0.  1.
</event>
<event>
 7    1  0.2797450E-013  0.7246157E+02  0.7816164E-02  0.1226708E+00
        -11   -1    0    0    0    0  0.00000000000E+00  0.00000000000E+00  0.45593999997E+02  0.45594000000E+02  0.51100000000E-03 0.  1.
         11   -1    0    0    0    0 -0.00000000000E+00 -0.00000000000E+00 -0.45593999997E+02  0.45594000000E+02  0.51100000000E-03 0. -1.
    9900012    2    1    2    0    0 -0.45455301987E+01  0.18004858032E+02  0.24170886542E+01  0.72461572815E+02  0.70000003284E+02 0.  0.
         12    1    1    2    0    0  0.45455301987E+01 -0.18004858032E+02 -0.24170886542E+01  0.18726427185E+02  0.00000000000E+00 0. -1.
         11    1    3    3    0    0 -0.70964901428E+01  0.25736064301E+02 -0.15853633439E+02  0.31049039784E+02  0.51100000000E-03 0. -1.
        -11    1    3    3    0    0 -0.10133250102E+01  0.95195965673E+01 -0.60929823689E+01  0.11347862389E+02  0.51100000000E-03 0.  1.
        -12    1    3    3    0    0  0.35642849543E+01 -0.17250802836E+02  0.24363704462E+02  0.30064670642E+02  0.00000000000E+00 0.  1.
</event>
<event>
 7    1  0.3814905E-013  0.7246156E+02  0.7816164E-02  0.1226708E+00
        -11   -1    0    0    0    0  0.00000000000E+00  0.00000000000E+00  0.45593999997E+02  0.45594000000E+02  0.51100000000E-03 0. -1.
         11   -1    0    0    0    0 -0.00000000000E+00 -0.00000000000E+00 -0.45593999997E+02  0.45594000000E+02  0.51100000000E-03 0.  1.
    9900012    2    1    2    0    0  0.64674237965E+01 -0.85274359137E+00 -0.17553485766E+02  0.72461558674E+02  0.69999984862E+02 0.  0.
         12    1    1    2    0    0 -0.64674237965E+01  0.85274359137E+00  0.17553485766E+02  0.18726441326E+02  0.00000000000E+00 0. -1.
         11    1    3    3    0    0 -0.55437044880E+01  0.14100121695E+02  0.14031629220E+02  0.20650247217E+02  0.51100000000E-03 0. -1.
        -11    1    3    3    0    0 -0.49720715544E+01 -0.18066034128E+01  0.63217454304E+01  0.82431654710E+01  0.51100000000E-03 0.  1.
        -12    1    3    3    0    0  0.16983199839E+02 -0.13146261874E+02 -0.37906860417E+02  0.43568145986E+02  0.00000000000E+00 0.  1.
</event>
<event>
 7    1  0.2797450E-013  0.7246154E+02  0.7816164E-02  0.1226708E+00
        -11   -1    0    0    0    0  0.00000000000E+00  0.00000000000E+00  0.45593999997E+02  0.45594000000E+02  0.51100000000E-03 0. -1.
         11   -1    0    0    0    0 -0.00000000000E+00 -0.00000000000E+00 -0.45593999997E+02  0.45594000000E+02  0.51100000000E-03 0.  1.
    9900012    2    1    2    0    0  0.62668089892E+01  0.92399004980E+01 -0.15034347971E+02  0.72461540777E+02  0.69999961548E+02 0.  0.
         12    1    1    2    0    0 -0.62668089892E+01 -0.92399004980E+01  0.15034347971E+02  0.18726459223E+02  0.00000000000E+00 0. -1.
         11    1    3    3    0    0  0.58128622473E+01 -0.67116466388E+01  0.36295409089E+01  0.95921392598E+01  0.51100000000E-03 0. -1.
        -11    1    3    3    0    0  0.28927775069E+02  0.43230777718E+01 -0.10080241194E+02  0.30937298439E+02  0.51100000000E-03 0.  1.
         12    1    3    3    0    0 -0.28473828328E+02  0.11628469365E+02 -0.85836476864E+01  0.31932103078E+02  0.00000000000E+00 0. -1.
</event>
<event>
 7    1  0.2797450E-013  0.7246161E+02  0.7816164E-02  0.1226708E+00
        -11   -1    0    0    0    0  0.00000000000E+00  0.00000000000E+00  0.45593999997E+02  0.45594000000E+02  0.51100000000E-03 0.  1.
         11   -1    0    0    0    0 -0.00000000000E+00 -0.00000000000E+00 -0.45593999997E+02  0.45594000000E+02  0.51100000000E-03 0. -1.
    9900012    2    1    2    0    0 -0.62154372126E+01 -0.17330116303E+02 -0.34224395734E+01  0.72461609973E+02  0.70000051688E+02 0.  0.
         12    1    1    2    0    0  0.62154372126E+01  0.17330116303E+02  0.34224395734E+01  0.18726390027E+02  0.00000000000E+00 0. -1.
         11    1    3    3    0    0 -0.14591533417E+02 -0.15166347003E+02 -0.32885097747E+02  0.39043060625E+02  0.51100000000E-03 0. -1.
        -11    1    3    3    0    0  0.36941692598E+01 -0.41542275374E+01  0.27064953138E+01  0.61830097927E+01  0.51100000000E-03 0.  1.
        -12    1    3    3    0    0  0.46819269450E+01  0.19904582374E+01  0.26756162859E+02  0.27235539555E+02  0.00000000000E+00 0.  1.
</event>
<event>
 7    1  0.2797450E-013  0.7246155E+02  0.7816164E-02  0.1226708E+00
        -11   -1    0    0    0    0  0.00000000000E+00  0.00000000000E+00  0.45593999997E+02  0.45594000000E+02  0.51100000000E-03 0. -1.
         11   -1    0    0    0    0 -0.00000000000E+00 -0.00000000000E+00 -0.45593999997E+02  0.45594000000E+02  0.51100000000E-03 0.  1.
    9900012    2    1    2    0    0 -0.52454508804E+01  0.15623948237E+02 -0.88914259724E+01  0.72461548941E+02  0.69999972183E+02 0.  0.
         12    1    1    2    0    0  0.52454508804E+01 -0.15623948237E+02  0.88914259724E+01  0.18726451059E+02  0.00000000000E+00 0. -1.
         11    1    3    3    0    0 -0.69096298105E+01 -0.35968903836E+01  0.10111856141E+02  0.12764413007E+02  0.51100000000E-03 0.  1.
        -11    1    3    3    0    0 -0.25258761750E+02  0.65352891597E+01 -0.40942964280E+01  0.26409814711E+02  0.51100000000E-03 0. -1.
        -12    1    3    3    0    0  0.26922940680E+02  0.12685549461E+02 -0.14908985685E+02  0.33287321222E+02  0.00000000000E+00 0.  1.
</event>
<event>
 7    1  0.2797450E-013  0.7246156E+02  0.7816164E-02  0.1226708E+00
        -11   -1    0    0    0    0  0.00000000000E+00  0.00000000000E+00  0.45593999997E+02  0.45594000000E+02  0.51100000000E-03 0. -1.
         11   -1    0    0    0    0 -0.00000000000E+00 -0.00000000000E+00 -0.45593999997E+02  0.45594000000E+02  0.51100000000E-03 0.  1.
    9900012    2    1    2    0    0 -0.87189487749E+01  0.34199892083E+01 -0.16216135836E+02  0.72461562662E+02  0.69999990057E+02 0.  0.
         12    1    1    2    0    0  0.87189487749E+01 -0.34199892083E+01  0.16216135836E+02  0.18726437338E+02  0.00000000000E+00 0. -1.
         11    1    3    3    0    0 -0.21020470940E+02  0.36943461187E+01  0.12116161076E+02  0.24541999740E+02  0.51100000000E-03 0. -1.
        -11    1    3    3    0    0  0.16667737620E+01  0.85365049069E+01 -0.32380259582E+02  0.33528066775E+02  0.51100000000E-03 0.  1.
         12    1    3    3    0    0  0.10634748403E+02 -0.88108618173E+01  0.40479626701E+01  0.14391496147E+02  0.00000000000E+00 0. -1.
</event>
<event>
 7    1  0.2797450E-013  0.7246161E+02  0.7816164E-02  0.1226708E+00
        -11   -1    0    0    0    0  0.00000000000E+00  0.00000000000E+00  0.45593999997E+02  0.45594000000E+02  0.51100000000E-03 0. -1.
         11   -1    0    0    0    0 -0.00000000000E+00 -0.00000000000E+00 -0.45593999997E+02  0.45594000000E+02  0.51100000000E-03 0.  1.
    9900012    2    1    2    0    0  0.11120447739E+02 -0.13471942282E+02  0.67468565537E+01  0.72461610596E+02  0.70000052500E+02 0.  0.
         12    1    1    2    0    0 -0.11120447739E+02  0.13471942282E+02 -0.67468565537E+01  0.18726389404E+02  0.00000000000E+00 0. -1.
         11    1    3    3    0    0 -0.12592706794E+02 -0.10533443462E+02  0.14524793976E+02  0.21920295068E+02  0.51100000000E-03 0. -1.
        -11    1    3    3    0    0  0.13711339905E+02  0.24475293152E+01  0.17772173362E+02  0.22579667579E+02  0.51100000000E-03 0.  1.
        -12    1    3    3    0    0  0.10001814628E+02 -0.53860281353E+01 -0.25550110783E+02  0.27961647948E+02  0.00000000000E+00 0.  1.
</event>
<event>
 7    1  0.2797450E-013  0.7246105E+02  0.7816164E-02  0.1226709E+00
        -11   -1    0    0    0    0  0.00000000000E+00  0.00000000000E+00  0.45593999997E+02  0.45594000000E+02  0.51100000000E-03 0.  1.
         11   -1    0    0    0    0 -0.00000000000E+00 -0.00000000000E+00 -0.45593999997E+02  0.45594000000E+02  0.51100000000E-03 0. -1.
    9900012    2    1    2    0    0 -0.44789893026E+01  0.17781922176E+02 -0.38000931978E+01  0.72461045903E+02  0.69999316879E+02 0.  0.
         12    1    1    2    0    0  0.44789893026E+01 -0.17781922176E+02  0.38000931978E+01  0.18726954097E+02  0.00000000000E+00 0. -1.
         11    1    3    3    0    0 -0.17787530039E+01 -0.12170571011E+02 -0.90986768937E+01  0.15299434057E+02  0.51100000000E-03 0. -1.
        -11    1    3    3    0    0  0.68514531986E+01  0.54049529030E+00  0.21272721246E+02  0.22355384487E+02  0.51100000000E-03 0.  1.
         12    1    3    3    0    0 -0.95516894973E+01  0.29411997897E+02 -0.15974137550E+02  0.34806227359E+02  0.00000000000E+00 0. -1.
</event>
<event>
 7    1  0.2797450E-013  0.7246158E+02  0.7816164E-02  0.1226708E+00
        -11   -1    0    0    0    0  0.00000000000E+00  0.00000000000E+00  0.45593999997E+02  0.45594000000E+02  0.51100000000E-03 0. -1.
         11   -1    0    0    0    0 -0.00000000000E+00 -0.00000000000E+00 -0.45593999997E+02  0.45594000000E+02  0.51100000000E-03 0.  1.
    9900012    2    1    2    0    0 -0.81721260174E+01  0.19676267335E+01 -0.16733900442E+02  0.72461584897E+02  0.70000019023E+02 0.  0.
         12    1    1    2    0    0  0.81721260174E+01 -0.19676267335E+01  0.16733900442E+02  0.18726415103E+02  0.00000000000E+00 0. -1.
         11    1    3    3    0    0 -0.10969823106E+02 -0.11347474967E+02 -0.29183298178E+01  0.16050509534E+02  0.51100000000E-03 0. -1.
        -11    1    3    3    0    0 -0.20565685598E+02  0.20751466462E+02 -0.22516745019E+01  0.29302573654E+02  0.51100000000E-03 0.  1.
        -12    1    3    3    0    0  0.23363382687E+02 -0.74363647607E+01 -0.11563896122E+02  0.27108501710E+02  0.00000000000E+00 0.  1.
</event>
<event>
 7    1  0.2797450E-013  0.7246162E+02  0.7816164E-02  0.1226708E+00
        -11   -1    0    0    0    0  0.00000000000E+00  0.00000000000E+00  0.45593999997E+02  0.45594000000E+02  0.51100000000E-03 0. -1.
         11   -1    0    0    0    0 -0.00000000000E+00 -0.00000000000E+00 -0.45593999997E+02  0.45594000000E+02  0.51100000000E-03 0.  1.
    9900012    2    1    2    0    0 -0.16190600745E+02 -0.21567698388E+01 -0.91591459793E+01  0.72461623851E+02  0.70000069767E+02 0.  0.
         12    1    1    2    0    0  0.16190600745E+02  0.21567698388E+01  0.91591459793E+01  0.18726376149E+02  0.00000000000E+00 0. -1.
         11    1    3    3    0    0  0.50899358813E+01 -0.38400718515E+01  0.84279147988E+01  0.10568034217E+02  0.51100000000E-03 0. -1.
        -11    1    3    3    0    0 -0.35077084771E+02  0.17505026671E+01 -0.27747548850E+02  0.44759273934E+02  0.51100000000E-03 0.  1.
         12    1    3    3    0    0  0.13796548145E+02 -0.67200654391E-01  0.10160488072E+02  0.17134315700E+02  0.00000000000E+00 0. -1.
</event>
<event>
 7    1  0.2797450E-013  0.7246154E+02  0.7816164E-02  0.1226708E+00
        -11   -1    0    0    0    0  0.00000000000E+00  0.00000000000E+00  0.45593999997E+02  0.45594000000E+02  0.51100000000E-03 0. -1.
         11   -1    0    0    0    0 -0.00000000000E+00 -0.00000000000E+00 -0.45593999997E+02  0.45594000000E+02  0.51100000000E-03 0.  1.
    9900012    2    1    2    0    0  0.17759912485E+02 -0.58070955965E+01 -0.12423134065E+01  0.72461542958E+02  0.69999964389E+02 0.  0.
         12    1    1    2    0    0 -0.17759912485E+02  0.58070955965E+01  0.12423134065E+01  0.18726457042E+02  0.00000000000E+00 0. -1.
         11    1    3    3    0    0  0.27006733981E+02  0.17953572838E+01  0.71517909156E+01  0.27995269273E+02  0.51100000000E-03 0. -1.
        -11    1    3    3    0    0 -0.92833242432E+01  0.15827950812E+02  0.26912619723E+01  0.18545808884E+02  0.51100000000E-03 0.  1.
         12    1    3    3    0    0  0.36502747291E-01 -0.23430403692E+02 -0.11085366294E+02  0.25920464801E+02  0.00000000000E+00 0. -1.
</event>
<event>
 7    1  0.2797450E-013  0.7246162E+02  0.7816164E-02  0.1226708E+00
        -11   -1    0    0    0    0  0.00000000000E+00  0.00000000000E+00  0.45593999997E+02  0.45594000000E+02  0.51100000000E-03 0.  1.
         11   -1    0    0    0    0 -0.00000000000E+00 -0.00000000000E+00 -0.45593999997E+02  0.45594000000E+02  0.51100000000E-03 0. -1.
    9900012    2    1    2    0    0  0.14938719833E+02  0.28675345364E+01  0.10921967302E+02  0.72461615557E+02  0.70000058962E+02 0.  0.
         12    1    1    2    0    0 -0.14938719833E+02 -0.28675345364E+01 -0.10921967302E+02  0.18726384443E+02  0.00000000000E+00 0. -1.
         11    1    3    3    0    0 -0.22335871264E+00 -0.78451950881E+01  0.76104878350E+00  0.78851867826E+01  0.51100000000E-03 0. -1.
        -11    1    3    3    0    0 -0.22754677503E+02 -0.35305542173E+01  0.99439070820E+00  0.23048405031E+02  0.51100000000E-03 0.  1.
         12    1    3    3    0    0  0.37916756049E+02  0.14243283842E+02  0.91665278102E+01  0.41528023743E+02  0.00000000000E+00 0. -1.
</event>
<event>
 7    1  0.2797450E-013  0.7246155E+02  0.7816164E-02  0.1226708E+00
        -11   -1    0    0    0    0  0.00000000000E+00  0.00000000000E+00  0.45593999997E+02  0.45594000000E+02  0.51100000000E-03 0.  1.
         11   -1    0    0    0    0 -0.00000000000E+00 -0.00000000000E+00 -0.45593999997E+02  0.45594000000E+02  0.51100000000E-03 0. -1.
    9900012    2    1    2    0    0  0.28009750000E+01 -0.25924140623E+00  0.18513977057E+02  0.72461547759E+02  0.69999970644E+02 0.  0.
         12    1    1    2    0    0 -0.28009750000E+01  0.25924140623E+00 -0.18513977057E+02  0.18726452241E+02  0.00000000000E+00 0. -1.
         11    1    3    3    0    0  0.12228196713E+02 -0.42430193623E+01 -0.11886287696E+01  0.12997878549E+02  0.51100000000E-03 0. -1.
        -11    1    3    3    0    0  0.32463889560E+01 -0.24523362029E+02  0.11017680739E+02  0.27079948589E+02  0.51100000000E-03 0.  1.
         12    1    3    3    0    0 -0.12673610669E+02  0.28507139985E+02  0.86849250873E+01  0.32383720621E+02  0.00000000000E+00 0. -1.
</event>
<event>
 7    1  0.2797450E-013  0.7246165E+02  0.7816164E-02  0.1226708E+00
        -11   -1    0    0    0    0  0.00000000000E+00  0.00000000000E+00  0.45593999997E+02  0.45594000000E+02  0.51100000000E-03 0. -1.
         11   -1    0    0    0    0 -0.00000000000E+00 -0.00000000000E+00 -0.45593999997E+02  0.45594000000E+02  0.51100000000E-03 0.  1.
    9900012    2    1    2    0    0 -0.29240222038E+01  0.13766101918E+02 -0.12353978611E+02  0.72461648102E+02  0.70000101359E+02 0.  0.
         12    1    1    2    0    0  0.29240222038E+01 -0.13766101918E+02  0.12353978611E+02  0.18726351898E+02  0.00000000000E+00 0. -1.
         11    1    3    3    0    0 -0.17980948135E+02 -0.30725630286E+00 -0.12956250216E+02  0.22164686378E+02  0.51100000000E-03 0. -1.
        -11    1    3    3    0    0 -0.10008268857E+02  0.65183253560E+01 -0.15495642167E+02  0.19564481526E+02  0.51100000000E-03 0.  1.
         12    1    3    3    0    0  0.25065194789E+02  0.75550328649E+01  0.16097913771E+02  0.30732480199E+02  0.00000000000E+00 0. -1.
</event>
<event>
 7    1  0.2797450E-013  0.7246161E+02  0.7816164E-02  0.1226708E+00
        -11   -1    0    0    0    0  0.00000000000E+00  0.00000000000E+00  0.45593999997E+02  0.45594000000E+02  0.51100000000E-03 0.  1.
         11   -1    0    0    0    0 -0.00000000000E+00 -0.00000000000E+00 -0.45593999997E+02  0.45594000000E+02  0.51100000000E-03 0. -1.
    9900012    2    1    2    0    0  0.10464656885E+02 -0.11982479339E+02  0.98787140503E+01  0.72461605630E+02  0.70000046031E+02 0.  0.
         12    1    1    2    0    0 -0.10464656885E+02  0.11982479339E+02 -0.98787140503E+01  0.18726394370E+02  0.00000000000E+00 0. -1.
         11    1    3    3    0    0  0.21607594185E+02 -0.24137965252E+02  0.18804480598E+02  0.37458483469E+02  0.51100000000E-03 0. -1.
        -11    1    3    3    0    0 -0.16509994547E+02 -0.28033592040E+01  0.59507440729E-01  0.16746411083E+02  0.51100000000E-03 0.  1.
        -12    1    3    3    0    0  0.53670572467E+01  0.14958845117E+02 -0.89852739881E+01  0.18256711077E+02  0.00000000000E+00 0.  1.
</event>
<event>
 7    1  0.2797450E-013  0.7246156E+02  0.7816164E-02  0.1226708E+00
        -11   -1    0    0    0    0  0.00000000000E+00  0.00000000000E+00  0.45593999997E+02  0.45594000000E+02  0.51100000000E-03 0.  1.
         11   -1    0    0    0    0 -0.00000000000E+00 -0.00000000000E+00 -0.45593999997E+02  0.45594000000E+02  0.51100000000E-03 0. -1.
    9900012    2    1    2    0    0 -0.10524866050E+02  0.12733466514E+02 -0.88184824215E+01  0.72461558612E+02  0.69999984782E+02 0.  0.
         12    1    1    2    0    0  0.10524866050E+02 -0.12733466514E+02  0.88184824215E+01  0.18726441388E+02  0.00000000000E+00 0. -1.
         11    1    3    3    0    0 -0.14337141303E+02  0.13506031256E+01  0.47017418088E+01  0.15148733473E+02  0.51100000000E-03 0. -1.
        -11    1    3    3    0    0  0.15863123295E+02  0.25297087486E+02  0.60283759604E+01  0.30461822547E+02  0.51100000000E-03 0.  1.
         12    1    3    3    0    0 -0.12050848042E+02 -0.13914224097E+02 -0.19548600191E+02  0.26851002592E+02  0.00000000000E+00 0. -1.
</event>
<event>
 7    1  0.2797450E-013  0.7246150E+02  0.7816164E-02  0.1226708E+00
        -11   -1    0    0    0    0  0.00000000000E+00  0.00000000000E+00  0.45593999997E+02  0.45594000000E+02  0.51100000000E-03 0. -1.
         11   -1    0    0    0    0 -0.00000000000E+00 -0.00000000000E+00 -0.45593999997E+02  0.45594000000E+02  0.51100000000E-03 0.  1.
    9900012    2    1    2    0    0 -0.83321512453E+01 -0.12178277180E+02 -0.11530243868E+02  0.72461502647E+02  0.69999911877E+02 0.  0.
         12    1    1    2    0    0  0.83321512453E+01  0.12178277180E+02  0.11530243868E+02  0.18726497353E+02  0.00000000000E+00 0. -1.
         11    1    3    3    0    0  0.83899892678E+01 -0.13981217754E+01  0.26332324025E+01  0.89039641486E+01  0.51100000000E-03 0. -1.
        -11    1    3    3    0    0  0.31139675678E+00  0.18191941798E+02 -0.22494717866E+02  0.28931920891E+02  0.51100000000E-03 0.  1.
         12    1    3    3    0    0 -0.17033537270E+02 -0.28972097202E+02  0.83312415952E+01  0.34625617608E+02  0.00000000000E+00 0. -1.
</event>
<event>
 7    1  0.2797450E-013  0.7246156E+02  0.7816164E-02  0.1226708E+00
        -11   -1    0    0    0    0  0.00000000000E+00  0.00000000000E+00  0.45593999997E+02  0.45594000000E+02  0.51100000000E-03 0.  1.
         11   -1    0    0    0    0 -0.00000000000E+00 -0.00000000000E+00 -0.45593999997E+02  0.45594000000E+02  0.51100000000E-03 0. -1.
    9900012    2    1    2    0    0 -0.15587376274E+02  0.99323603873E+01 -0.30102041419E+01  0.72461563848E+02  0.69999991603E+02 0.  0.
         12    1    1    2    0    0  0.15587376274E+02 -0.99323603873E+01  0.30102041419E+01  0.18726436152E+02  0.00000000000E+00 0. -1.
         11    1    3    3    0    0  0.57999451311E+00 -0.71983156148E+01  0.25425320716E+01  0.76561485698E+01  0.51100000000E-03 0. -1.
        -11    1    3    3    0    0 -0.22804985265E+02  0.90922415812E+01 -0.29682562082E+02  0.38520003919E+02  0.51100000000E-03 0.  1.
         12    1    3    3    0    0  0.66376144781E+01  0.80384344208E+01  0.24129825869E+02  0.26285411360E+02  0.00000000000E+00 0. -1.
</event>
<event>
 7    1  0.2797450E-013  0.7246156E+02  0.7816164E-02  0.1226708E+00
        -11   -1    0    0    0    0  0.00000000000E+00  0.00000000000E+00  0.45593999997E+02  0.45594000000E+02  0.51100000000E-03 0. -1.
         11   -1    0    0    0    0 -0.00000000000E+00 -0.00000000000E+00 -0.45593999997E+02  0.45594000000E+02  0.51100000000E-03 0.  1.
    9900012    2    1    2    0    0  0.68088607902E+01  0.16661258471E+02 -0.51692897829E+01  0.72461556772E+02  0.69999982385E+02 0.  0.
         12    1    1    2    0    0 -0.68088607902E+01 -0.16661258471E+02  0.51692897829E+01  0.18726443228E+02  0.00000000000E+00 0. -1.
         11    1    3    3    0    0  0.95750516522E+01  0.32848942137E+01 -0.25586894452E+01  0.10441218132E+02  0.51100000000E-03 0. -1.
        -11    1    3    3    0    0  0.23375078908E+02 -0.86975854408E+01  0.80099803410E+01  0.26195459374E+02  0.51100000000E-03 0.  1.
         12    1    3    3    0    0 -0.26141269770E+02  0.22073949698E+02 -0.10620580679E+02  0.35824879266E+02  0.00000000000E+00 0. -1.
</event>
<event>
 7    1  0.3391494E-013  0.7246155E+02  0.7816164E-02  0.1226708E+00
        -11   -1    0    0    0    0  0.00000000000E+00  0.00000000000E+00  0.45593999997E+02  0.45594000000E+02  0.51100000000E-03 0. -1.
         11   -1    0    0    0    0 -0.00000000000E+00 -0.00000000000E+00 -0.45593999997E+02  0.45594000000E+02  0.51100000000E-03 0.  1.
    9900012    2    1    2    0    0 -0.51261182919E+01  0.27307194012E+01 -0.17802977559E+02  0.72461550065E+02  0.69999973647E+02 0.  0.
         12    1    1    2    0    0  0.51261182919E+01 -0.27307194012E+01  0.17802977559E+02  0.18726449935E+02  0.00000000000E+00 0. -1.
         11    1    3    3    0    0 -0.82286294366E+01  0.60732871645E+01 -0.10783863142E+02  0.14862263082E+02  0.51100000000E-03 0. -1.
        -11    1    3    3    0    0  0.33679433207E+01  0.45015058195E+01 -0.31444895405E+02  0.31943513335E+02  0.51100000000E-03 0.  1.
         12    1    3    3    0    0 -0.26543217604E+00 -0.78440735828E+01  0.24425780988E+02  0.25655773648E+02  0.00000000000E+00 0. -1.
</event>
<event>
 7    1  0.2797450E-013  0.7246153E+02  0.7816164E-02  0.1226708E+00
        -11   -1    0    0    0    0  0.00000000000E+00  0.00000000000E+00  0.45593999997E+02  0.45594000000E+02  0.51100000000E-03 0.  1.
         11   -1    0    0    0    0 -0.00000000000E+00 -0.00000000000E+00 -0.45593999997E+02  0.45594000000E+02  0.51100000000E-03 0. -1.
    9900012    2    1    2    0    0 -0.11958317652E+02 -0.17476409498E+01  0.14304720668E+02  0.72461530943E+02  0.69999948738E+02 0.  0.
         12    1    1    2    0    0  0.11958317652E+02  0.17476409498E+01 -0.14304720668E+02  0.18726469057E+02  0.00000000000E+00 0. -1.
         11    1    3    3    0    0  0.11354688159E+02 -0.42859934112E+01 -0.15123037646E+02  0.19390847083E+02  0.51100000000E-03 0. -1.
        -11    1    3    3    0    0 -0.49113712149E+01  0.18775553423E+02  0.15615870780E+02  0.24909805179E+02  0.51100000000E-03 0.  1.
        -12    1    3    3    0    0 -0.18401634596E+02 -0.16237200962E+02  0.13811887533E+02  0.28160878681E+02  0.00000000000E+00 0.  1.
</event>
<event>
 7    1  0.2797450E-013  0.7246161E+02  0.7816164E-02  0.1226708E+00
        -11   -1    0    0    0    0  0.00000000000E+00  0.00000000000E+00  0.45593999997E+02  0.45594000000E+02  0.51100000000E-03 0.  1.
         11   -1    0    0    0    0 -0.00000000000E+00 -0.00000000000E+00 -0.45593999997E+02  0.45594000000E+02  0.51100000000E-03 0. -1.
    9900012    2    1    2    0    0  0.18596552841E+02  0.21930397279E+01  0.19127184769E+00  0.72461607242E+02  0.70000048131E+02 0.  0.
         12    1    1    2    0    0 -0.18596552841E+02 -0.21930397279E+01 -0.19127184769E+00  0.18726392758E+02  0.00000000000E+00 0. -1.
         11    1    3    3    0    0  0.12113831958E+02 -0.12008658017E+02 -0.11561559281E+02  0.20606369048E+02  0.51100000000E-03 0. -1.
        -11    1    3    3    0    0  0.99614035891E+01 -0.11273504981E+02  0.19842764808E+02  0.24900939571E+02  0.51100000000E-03 0.  1.
        -12    1    3    3    0    0 -0.34786827063E+01  0.25475202726E+02 -0.80899336787E+01  0.26954298623E+02  0.00000000000E+00 0.  1.
</event>
<event>
 7    1  0.2797450E-013  0.7246157E+02  0.7816164E-02  0.1226708E+00
        -11   -1    0    0    0    0  0.00000000000E+00  0.00000000000E+00  0.45593999997E+02  0.45594000000E+02  0.51100000000E-03 0. -1.
         11   -1    0    0    0    0 -0.00000000000E+00 -0.00000000000E+00 -0.45593999997E+02  0.45594000000E+02  0.51100000000E-03 0.  1.
    9900012    2    1    2    0    0  0.15258195474E+02 -0.77758041922E+01 -0.75765180488E+01  0.72461567192E+02  0.69999995959E+02 0.  0.
         12    1    1    2    0    0 -0.15258195474E+02  0.77758041922E+01  0.75765180488E+01  0.18726432808E+02  0.00000000000E+00 0. -1.
         11    1    3    3    0    0 -0.58854567369E+00 -0.12698504150E+01  0.17011400781E+02  0.17068879954E+02  0.51100000000E-03 0. -1.
        -11    1    3    3    0    0 -0.15550031096E+02  0.63806291322E-01 -0.15722267337E+02  0.22113281728E+02  0.51100000000E-03 0.  1.
         12    1    3    3    0    0  0.31396772243E+02 -0.65697600686E+01 -0.88656514930E+01  0.33279405509E+02  0.00000000000E+00 0. -1.
</event>
<event>
 7    1  0.2797450E-013  0.7246161E+02  0.7816164E-02  0.1226708E+00
        -11   -1    0    0    0    0  0.00000000000E+00  0.00000000000E+00  0.45593999997E+02  0.45594000000E+02  0.51100000000E-03 0. -1.
         11   -1    0    0    0    0 -0.00000000000E+00 -0.00000000000E+00 -0.45593999997E+02  0.45594000000E+02  0.51100000000E-03 0.  1.
    9900012    2    1    2    0    0  0.16143851166E+02  0.64228353326E+01 -0.69857611428E+01  0.72461612123E+02  0.70000054490E+02 0.  0.
         12    1    1    2    0    0 -0.16143851166E+02 -0.64228353326E+01  0.69857611428E+01  0.18726387877E+02  0.00000000000E+00 0. -1.
         11    1    3    3    0    0 -0.10065451716E+02  0.69996151568E+01 -0.13846331351E+02  0.18494021270E+02  0.51100000000E-03 0. -1.
        -11    1    3    3    0    0  0.39095553191E+02  0.14809684416E+01 -0.21313151849E+00  0.39124173757E+02  0.51100000000E-03 0.  1.
         12    1    3    3    0    0 -0.12886250309E+02 -0.20577482658E+01  0.70737017270E+01  0.14843417096E+02  0.00000000000E+00 0. -1.
</event>
<event>
 7    1  0.2797450E-013  0.7246160E+02  0.7816164E-02  0.1226708E+00
        -11   -1    0    0    0    0  0.00000000000E+00  0.00000000000E+00  0.45593999997E+02  0.45594000000E+02  0.51100000000E-03 0. -1.
         11   -1    0    0    0    0 -0.00000000000E+00 -0.00000000000E+00 -0.45593999997E+02  0.45594000000E+02  0.51100000000E-03 0.  1.
    9900012    2    1    2    0    0  0.14374967331E+02  0.10408679735E+02  0.59747562234E+01  0.72461601213E+02  0.70000040277E+02 0.  0.
         12    1    1    2    0    0 -0.14374967331E+02 -0.10408679735E+02 -0.59747562234E+01  0.18726398787E+02  0.00000000000E+00 0. -1.
         11    1    3    3    0    0  0.28078735654E+01 -0.10519579866E+02 -0.16287024134E+02  0.19591142639E+02  0.51100000000E-03 0. -1.
        -11    1    3    3    0    0  0.10509986660E+02  0.29429035374E+02  0.25207426147E+01  0.31350950324E+02  0.51100000000E-03 0.  1.
         12    1    3    3    0    0  0.10571071060E+01 -0.85007757724E+01  0.19741037743E+02  0.21519508250E+02  0.00000000000E+00 0. -1.
</event>
<event>
 7    1  0.2797450E-013  0.7246155E+02  0.7816164E-02  0.1226708E+00
        -11   -1    0    0    0    0  0.00000000000E+00  0.00000000000E+00  0.45593999997E+02  0.45594000000E+02  0.51100000000E-03 0. -1.
         11   -1    0    0    0    0 -0.00000000000E+00 -0.00000000000E+00 -0.45593999997E+02  0.45594000000E+02  0.51100000000E-03 0.  1.
    9900012    2    1    2    0    0  0.58638932948E+01 -0.14862400051E+02  0.97674813783E+01  0.72461551530E+02  0.69999975556E+02 0.  0.
         12    1    1    2    0    0 -0.58638932948E+01  0.14862400051E+02 -0.97674813783E+01  0.18726448470E+02  0.00000000000E+00 0. -1.
         11    1    3    3    0    0 -0.29221522042E+02 -0.65487194595E+01  0.11524216031E+02  0.32087234727E+02  0.51100000000E-03 0. -1.
        -11    1    3    3    0    0  0.48788151246E+01 -0.73417906398E+01 -0.47340319499E+01  0.10005787604E+02  0.51100000000E-03 0.  1.
        -12    1    3    3    0    0  0.30206600213E+02 -0.97188995129E+00  0.29772972973E+01  0.30368529198E+02  0.00000000000E+00 0.  1.
</event>
<event>
 7    1  0.2797450E-013  0.7246152E+02  0.7816164E-02  0.1226708E+00
        -11   -1    0    0    0    0  0.00000000000E+00  0.00000000000E+00  0.45593999997E+02  0.45594000000E+02  0.51100000000E-03 0. -1.
         11   -1    0    0    0    0 -0.00000000000E+00 -0.00000000000E+00 -0.45593999997E+02  0.45594000000E+02  0.51100000000E-03 0.  1.
    9900012    2    1    2    0    0  0.70672222863E+00  0.96721160452E+01 -0.16019729927E+02  0.72461520565E+02  0.69999935218E+02 0.  0.
         12    1    1    2    0    0 -0.70672222863E+00 -0.96721160452E+01  0.16019729927E+02  0.18726479435E+02  0.00000000000E+00 0. -1.
         11    1    3    3    0    0  0.11896538311E+02  0.18329183543E+02 -0.21367714225E+02  0.30562490157E+02  0.51100000000E-03 0. -1.
        -11    1    3    3    0    0 -0.13771965920E+01 -0.14522738382E+02 -0.13486277513E+02  0.19866712914E+02  0.51100000000E-03 0.  1.
         12    1    3    3    0    0 -0.98126194899E+01  0.58656708846E+01  0.18834261811E+02  0.22032317494E+02  0.00000000000E+00 0. -1.
</event>
<event>
 7    1  0.2797450E-013  0.7246166E+02  0.7816164E-02  0.1226708E+00
        -11   -1    0    0    0    0  0.00000000000E+00  0.00000000000E+00  0.45593999997E+02  0.45594000000E+02  0.51100000000E-03 0.  1.
         11   -1    0    0    0    0 -0.00000000000E+00 -0.00000000000E+00 -0.45593999997E+02  0.45594000000E+02  0.51100000000E-03 0. -1.
    9900012    2    1    2    0    0  0.96446111581E+01 -0.15593487081E+02  0.38079246342E+01  0.72461664166E+02  0.70000122286E+02 0.  0.
         12    1    1    2    0    0 -0.96446111581E+01  0.15593487081E+02 -0.38079246342E+01  0.18726335834E+02  0.00000000000E+00 0. -1.
         11    1    3    3    0    0 -0.16918569781E+02  0.12375103243E+02  0.93187539985E+01  0.22939493457E+02  0.51100000000E-03 0. -1.
        -11    1    3    3    0    0  0.11652727779E+02  0.48465973458E+01  0.17888446569E+01  0.12746589191E+02  0.51100000000E-03 0.  1.
        -12    1    3    3    0    0  0.14910453160E+02 -0.32815187670E+02 -0.72996740213E+01  0.36775581519E+02  0.00000000000E+00 0.  1.
</event>
<event>
 7    1  0.2797450E-013  0.7246154E+02  0.7816164E-02  0.1226708E+00
        -11   -1    0    0    0    0  0.00000000000E+00  0.00000000000E+00  0.45593999997E+02  0.45594000000E+02  0.51100000000E-03 0. -1.
         11   -1    0    0    0    0 -0.00000000000E+00 -0.00000000000E+00 -0.45593999997E+02  0.45594000000E+02  0.51100000000E-03 0.  1.
    9900012    2    1    2    0    0 -0.11660739608E+02  0.14017734500E+02 -0.42673773092E+01  0.72461541771E+02  0.69999962843E+02 0.  0.
         12    1    1    2    0    0  0.11660739608E+02 -0.14017734500E+02  0.42673773092E+01  0.18726458229E+02  0.00000000000E+00 0. -1.
         11    1    3    3    0    0 -0.12481191236E+02 -0.11700512889E+02 -0.14234925635E+02  0.22255678930E+02  0.51100000000E-03 0. -1.
        -11    1    3    3    0    0 -0.12382486985E+02  0.24698261683E+02 -0.71743984695E+01  0.28544738705E+02  0.51100000000E-03 0.  1.
         12    1    3    3    0    0  0.13202938614E+02  0.10199857066E+01  0.17141946795E+02  0.21661124135E+02  0.00000000000E+00 0. -1.
</event>
<event>
 7    1  0.2797450E-013  0.7246156E+02  0.7816164E-02  0.1226708E+00
        -11   -1    0    0    0    0  0.00000000000E+00  0.00000000000E+00  0.45593999997E+02  0.45594000000E+02  0.51100000000E-03 0. -1.
         11   -1    0    0    0    0 -0.00000000000E+00 -0.00000000000E+00 -0.45593999997E+02  0.45594000000E+02  0.51100000000E-03 0.  1.
    9900012    2    1    2    0    0 -0.68698391690E+01  0.11052769381E+02 -0.13465548679E+02  0.72461564076E+02  0.69999991899E+02 0.  0.
         12    1    1    2    0    0  0.68698391690E+01 -0.11052769381E+02  0.13465548679E+02  0.18726435924E+02  0.00000000000E+00 0. -1.
         11    1    3    3    0    0 -0.86283543667E+01 -0.21408674353E+02  0.13109434630E+00  0.23082396380E+02  0.51100000000E-03 0. -1.
        -11    1    3    3    0    0  0.12876656096E+02  0.16310143932E+02  0.60282908827E+01  0.21637221599E+02  0.51100000000E-03 0.  1.
        -12    1    3    3    0    0 -0.11118140899E+02  0.16151299802E+02 -0.19624933908E+02  0.27741946097E+02  0.00000000000E+00 0.  1.
</event>
<event>
 7    1  0.2797450E-013  0.7246135E+02  0.7816164E-02  0.1226709E+00
        -11   -1    0    0    0    0  0.00000000000E+00  0.00000000000E+00  0.45593999997E+02  0.45594000000E+02  0.51100000000E-03 0.  1.
         11   -1    0    0    0    0 -0.00000000000E+00 -0.00000000000E+00 -0.45593999997E+02  0.45594000000E+02  0.51100000000E-03 0. -1.
    9900012    2    1    2    0    0  0.51403221447E+01 -0.21208022636E+01  0.17882020248E+02  0.72461351550E+02  0.69999715045E+02 0.  0.
         12    1    1    2    0    0 -0.51403221447E+01  0.21208022636E+01 -0.17882020248E+02  0.18726648450E+02  0.00000000000E+00 0. -1.
         11    1    3    3    0    0  0.61981000715E+01  0.26518176466E+00 -0.11740685404E+02  0.13278947996E+02  0.51100000000E-03 0. -1.
        -11    1    3    3    0    0  0.48298814204E+01 -0.23214652390E+02  0.15888142414E+01  0.23764935747E+02  0.51100000000E-03 0.  1.
        -12    1    3    3    0    0 -0.58876593472E+01  0.20828668361E+02  0.28033891411E+02  0.35417467808E+02  0.00000000000E+00 0.  1.
</event>
<event>
 7    1  0.2797450E-013  0.7246157E+02  0.7816164E-02  0.1226708E+00
        -11   -1    0    0    0    0  0.00000000000E+00  0.00000000000E+00  0.45593999997E+02  0.45594000000E+02  0.51100000000E-03 0. -1.
         11   -1    0    0    0    0 -0.00000000000E+00 -0.00000000000E+00 -0.45593999997E+02  0.45594000000E+02  0.51100000000E-03 0.  1.
    9900012    2    1    2    0    0 -0.92896862192E+00  0.64030900394E+01 -0.17573178599E+02  0.72461570793E+02  0.70000000650E+02 0.  0.
         12    1    1    2    0    0  0.92896862192E+00 -0.64030900394E+01  0.17573178599E+02  0.18726429207E+02  0.00000000000E+00 0. -1.
         11    1    3    3    0    0  0.11246050537E+00 -0.78750771717E+01  0.11315762482E+02  0.13786804149E+02  0.51100000000E-03 0. -1.
        -11    1    3    3    0    0  0.17002529761E+02 -0.51667973171E+01  0.20870386642E+01  0.17892387863E+02  0.51100000000E-03 0.  1.
         12    1    3    3    0    0 -0.18043958889E+02  0.19444964528E+02 -0.30975979745E+02  0.40782378781E+02  0.00000000000E+00 0. -1.
</event>
<event>
 7    1  0.2797450E-013  0.7246146E+02  0.7816164E-02  0.1226708E+00
        -11   -1    0    0    0    0  0.00000000000E+00  0.00000000000E+00  0.45593999997E+02  0.45594000000E+02  0.51100000000E-03 0. -1.
         11   -1    0    0    0    0 -0.00000000000E+00 -0.00000000000E+00 -0.45593999997E+02  0.45594000000E+02  0.51100000000E-03 0.  1.
    9900012    2    1    2    0    0  0.71896199677E+01 -0.16052693874E+02 -0.64268082469E+01  0.72461455201E+02  0.69999850069E+02 0.  0.
         12    1    1    2    0    0 -0.71896199677E+01  0.16052693874E+02  0.64268082469E+01  0.18726544799E+02  0.00000000000E+00 0. -1.
         11    1    3    3    0    0  0.21305862238E+01 -0.74378109304E+01 -0.13516337153E+02  0.15574074592E+02  0.51100000000E-03 0. -1.
        -11    1    3    3    0    0 -0.14866013049E+02 -0.26027462366E+02  0.42643155291E+01  0.30275592949E+02  0.51100000000E-03 0.  1.
         12    1    3    3    0    0  0.19925046793E+02  0.17412579423E+02  0.28252133768E+01  0.26611787660E+02  0.00000000000E+00 0. -1.
</event>
<event>
 7    1  0.2797450E-013  0.7246158E+02  0.7816164E-02  0.1226708E+00
        -11   -1    0    0    0    0  0.00000000000E+00  0.00000000000E+00  0.45593999997E+02  0.45594000000E+02  0.51100000000E-03 0.  1.
         11   -1    0    0    0    0 -0.00000000000E+00 -0.00000000000E+00 -0.45593999997E+02  0.45594000000E+02  0.51100000000E-03 0. -1.
    9900012    2    1    2    0    0 -0.53271320508E+01 -0.16772245691E+02  0.64025114201E+01  0.72461582460E+02  0.70000015848E+02 0.  0.
         12    1    1    2    0    0  0.53271320508E+01  0.16772245691E+02 -0.64025114201E+01  0.18726417540E+02  0.00000000000E+00 0. -1.
         11    1    3    3    0    0  0.15310029966E+02 -0.93478755754E+00 -0.86804298130E+01  0.17624434951E+02  0.51100000000E-03 0. -1.
        -11    1    3    3    0    0 -0.15501463306E+02  0.10262623440E+02  0.20517344708E+02  0.27687149341E+02  0.51100000000E-03 0.  1.
         12    1    3    3    0    0 -0.51356987115E+01 -0.26100081573E+02 -0.54344034751E+01  0.27149998168E+02  0.00000000000E+00 0. -1.
</event>
<event>
 7    1  0.2797450E-013  0.7246154E+02  0.7816164E-02  0.1226708E+00
        -11   -1    0    0    0    0  0.00000000000E+00  0.00000000000E+00  0.45593999997E+02  0.45594000000E+02  0.51100000000E-03 0.  1.
         11   -1    0    0    0    0 -0.00000000000E+00 -0.00000000000E+00 -0.45593999997E+02  0.45594000000E+02  0.51100000000E-03 0. -1.
    9900012    2    1    2    0    0 -0.54719735634E+01 -0.11117303254E+02  0.14040772320E+02  0.72461542416E+02  0.69999963683E+02 0.  0.
         12    1    1    2    0    0  0.54719735634E+01  0.11117303254E+02 -0.14040772320E+02  0.18726457584E+02  0.00000000000E+00 0. -1.
         11    1    3    3    0    0  0.10662308022E+02  0.57075080404E+01  0.59793424786E+01  0.13491219260E+02  0.51100000000E-03 0. -1.
        -11    1    3    3    0    0  0.10748987048E+02 -0.27368801690E+02  0.20586022052E+01  0.29475920203E+02  0.51100000000E-03 0.  1.
         12    1    3    3    0    0 -0.26883268634E+02  0.10543990395E+02  0.60028276359E+01  0.29494402953E+02  0.00000000000E+00 0. -1.
</event>
<event>
 7    1  0.2797450E-013  0.7246161E+02  0.7816164E-02  0.1226708E+00
        -11   -1    0    0    0    0  0.00000000000E+00  0.00000000000E+00  0.45593999997E+02  0.45594000000E+02  0.51100000000E-03 0. -1.
         11   -1    0    0    0    0 -0.00000000000E+00 -0.00000000000E+00 -0.45593999997E+02  0.45594000000E+02  0.51100000000E-03 0.  1.
    9900012    2    1    2    0    0  0.89384900897E+01 -0.68803013916E+01 -0.14947991151E+02  0.72461612421E+02  0.70000054878E+02 0.  0.
         12    1    1    2    0    0 -0.89384900897E+01  0.68803013916E+01  0.14947991151E+02  0.18726387579E+02  0.00000000000E+00 0. -1.
         11    1    3    3    0    0  0.28144242334E+02  0.67556913501E+01 -0.93391628235E+01  0.30413117313E+02  0.51100000000E-03 0. -1.
        -11    1    3    3    0    0  0.38106382630E+00 -0.55194789032E+01 -0.17071989307E+02  0.17946104763E+02  0.51100000000E-03 0.  1.
         12    1    3    3    0    0 -0.19586816071E+02 -0.81165138385E+01  0.11463160980E+02  0.24102390345E+02  0.00000000000E+00 0. -1.
</event>
<event>
 7    1  0.2797450E-013  0.7246145E+02  0.7816164E-02  0.1226708E+00
        -11   -1    0    0    0    0  0.00000000000E+00  0.00000000000E+00  0.45593999997E+02  0.45594000000E+02  0.51100000000E-03 0.  1.
         11   -1    0    0    0    0 -0.00000000000E+00 -0.00000000000E+00 -0.45593999997E+02  0.45594000000E+02  0.51100000000E-03 0. -1.
    9900012    2    1    2    0    0  0.11824067967E+01 -0.94330494120E+01  0.16133916866E+02  0.72461447181E+02  0.69999839622E+02 0.  0.
         12    1    1    2    0    0 -0.11824067967E+01  0.94330494120E+01 -0.16133916866E+02  0.18726552819E+02  0.00000000000E+00 0. -1.
         11    1    3    3    0    0 -0.16034279235E+02  0.33169279611E+01 -0.87763516818E+01  0.18577525960E+02  0.51100000000E-03 0. -1.
        -11    1    3    3    0    0  0.47574647052E+01 -0.26164317017E+02  0.54133482706E+01  0.27138704743E+02  0.51100000000E-03 0.  1.
        -12    1    3    3    0    0  0.12459221326E+02  0.13414339644E+02  0.19496920277E+02  0.26745216478E+02  0.00000000000E+00 0.  1.
</event>
<event>
 7    1  0.2797450E-013  0.7246157E+02  0.7816164E-02  0.1226708E+00
        -11   -1    0    0    0    0  0.00000000000E+00  0.00000000000E+00  0.45593999997E+02  0.45594000000E+02  0.51100000000E-03 0.  1.
         11   -1    0    0    0    0 -0.00000000000E+00 -0.00000000000E+00 -0.45593999997E+02  0.45594000000E+02  0.51100000000E-03 0. -1.
    9900012    2    1    2    0    0  0.12376186135E+02 -0.13762551660E+02  0.28463027943E+01  0.72461568118E+02  0.69999997165E+02 0.  0.
         12    1    1    2    0    0 -0.12376186135E+02  0.13762551660E+02 -0.28463027943E+01  0.18726431882E+02  0.00000000000E+00 0. -1.
         11    1    3    3    0    0 -0.15250943601E+02 -0.82007539104E+01 -0.25012230270E+02  0.30421296961E+02  0.51100000000E-03 0. -1.
        -11    1    3    3    0    0  0.18669850252E+02 -0.32866625583E+01  0.88853155017E+01  0.20935956893E+02  0.51100000000E-03 0.  1.
        -12    1    3    3    0    0  0.89572794839E+01 -0.22751351916E+01  0.18973217563E+02  0.21104314264E+02  0.00000000000E+00 0.  1.
</event>
<event>
 7    1  0.2797450E-013  0.7246140E+02  0.7816164E-02  0.1226708E+00
        -11   -1    0    0    0    0  0.00000000000E+00  0.00000000000E+00  0.45593999997E+02  0.45594000000E+02  0.51100000000E-03 0.  1.
         11   -1    0    0    0    0 -0.00000000000E+00 -0.00000000000E+00 -0.45593999997E+02  0.45594000000E+02  0.51100000000E-03 0. -1.
    9900012    2    1    2    0    0  0.39195341344E+01  0.17475025703E+02  0.54723323614E+01  0.72461396127E+02  0.69999773114E+02 0.  0.
         12    1    1    2    0    0 -0.39195341344E+01 -0.17475025703E+02 -0.54723323614E+01  0.18726603873E+02  0.00000000000E+00 0. -1.
         11    1    3    3    0    0 -0.24694683895E+02  0.19552219546E+02 -0.13294303597E+02  0.34188524541E+02  0.51100000000E-03 0. -1.
        -11    1    3    3    0    0 -0.12136429980E+00 -0.37159889892E+01 -0.32842906283E+00  0.37324481740E+01  0.51100000000E-03 0.  1.
        -12    1    3    3    0    0  0.28735582329E+02  0.16387951456E+01  0.19095065022E+02  0.34540423412E+02  0.00000000000E+00 0.  1.
</event>
<event>
 7    1  0.2797450E-013  0.7246176E+02  0.7816164E-02  0.1226708E+00
        -11   -1    0    0    0    0  0.00000000000E+00  0.00000000000E+00  0.45593999997E+02  0.45594000000E+02  0.51100000000E-03 0.  1.
         11   -1    0    0    0    0 -0.00000000000E+00 -0.00000000000E+00 -0.45593999997E+02  0.45594000000E+02  0.51100000000E-03 0. -1.
    9900012    2    1    2    0    0  0.83547770284E+01 -0.10829634105E+02  0.12790188298E+02  0.72461756630E+02  0.70000242737E+02 0.  0.
         12    1    1    2    0    0 -0.83547770284E+01  0.10829634105E+02 -0.12790188298E+02  0.18726243370E+02  0.00000000000E+00 0. -1.
         11    1    3    3    0    0  0.99367293593E+01 -0.88015849661E+01 -0.58777759218E+01  0.14517394337E+02  0.51100000000E-03 0. -1.
        -11    1    3    3    0    0  0.19260386196E+02 -0.18972434478E+02  0.39711529031E+01  0.27325552182E+02  0.51100000000E-03 0.  1.
        -12    1    3    3    0    0 -0.20842338527E+02  0.16944385339E+02  0.14696811317E+02  0.30618810111E+02  0.00000000000E+00 0.  1.
</event>
<event>
 7    1  0.2797450E-013  0.7246159E+02  0.7816164E-02  0.1226708E+00
        -11   -1    0    0    0    0  0.00000000000E+00  0.00000000000E+00  0.45593999997E+02  0.45594000000E+02  0.51100000000E-03 0.  1.
         11   -1    0    0    0    0 -0.00000000000E+00 -0.00000000000E+00 -0.45593999997E+02  0.45594000000E+02  0.51100000000E-03 0. -1.
    9900012    2    1    2    0    0  0.33338587145E+01 -0.18380884033E+02  0.13064249641E+01  0.72461594633E+02  0.70000031706E+02 0.  0.
         12    1    1    2    0    0 -0.33338587145E+01  0.18380884033E+02 -0.13064249641E+01  0.18726405367E+02  0.00000000000E+00 0. -1.
         11    1    3    3    0    0  0.29068355311E+01 -0.24827434916E+01 -0.29032912533E+02  0.29283505912E+02  0.51100000000E-03 0. -1.
        -11    1    3    3    0    0  0.14475901350E+01 -0.10029493991E+02 -0.19709326233E+01  0.10323315484E+02  0.51100000000E-03 0.  1.
        -12    1    3    3    0    0 -0.10205669515E+01 -0.58686465510E+01  0.32310270121E+02  0.32854773238E+02  0.00000000000E+00 0.  1.
</event>
<event>
 7    1  0.2797450E-013  0.7246159E+02  0.7816164E-02  0.1226708E+00
        -11   -1    0    0    0    0  0.00000000000E+00  0.00000000000E+00  0.45593999997E+02  0.45594000000E+02  0.51100000000E-03 0. -1.
         11   -1    0    0    0    0 -0.00000000000E+00 -0.00000000000E+00 -0.45593999997E+02  0.45594000000E+02  0.51100000000E-03 0.  1.
    9900012    2    1    2    0    0 -0.32940702703E+01  0.10869013902E+02 -0.14889326308E+02  0.72461590840E+02  0.70000026764E+02 0.  0.
         12    1    1    2    0    0  0.32940702703E+01 -0.10869013902E+02  0.14889326308E+02  0.18726409160E+02  0.00000000000E+00 0. -1.
         11    1    3    3    0    0 -0.11082581493E+01  0.10662155298E+01  0.53509025810E+01  0.55675138414E+01  0.51100000000E-03 0. -1.
        -11    1    3    3    0    0 -0.73880401519E+01  0.28025548570E+02  0.10462626950E+02  0.30813650755E+02  0.51100000000E-03 0.  1.
         12    1    3    3    0    0  0.52022280308E+01 -0.18222750198E+02 -0.30702855838E+02  0.36080426243E+02  0.00000000000E+00 0. -1.
</event>
<event>
 7    1  0.2797450E-013  0.7246152E+02  0.7816164E-02  0.1226708E+00
        -11   -1    0    0    0    0  0.00000000000E+00  0.00000000000E+00  0.45593999997E+02  0.45594000000E+02  0.51100000000E-03 0. -1.
         11   -1    0    0    0    0 -0.00000000000E+00 -0.00000000000E+00 -0.45593999997E+02  0.45594000000E+02  0.51100000000E-03 0.  1.
    9900012    2    1    2    0    0 -0.14130662756E+02  0.59491062679E+01 -0.10752377708E+02  0.72461518171E+02  0.69999932100E+02 0.  0.
         12    1    1    2    0    0  0.14130662756E+02 -0.59491062679E+01  0.10752377708E+02  0.18726481829E+02  0.00000000000E+00 0. -1.
         11    1    3    3    0    0 -0.11026292578E+02 -0.92818840985E+01  0.45112914216E+01  0.15102458441E+02  0.51100000000E-03 0. -1.
        -11    1    3    3    0    0  0.22974434016E+01 -0.17029261021E+02  0.61644041008E+01  0.18255789637E+02  0.51100000000E-03 0.  1.
         12    1    3    3    0    0 -0.54018135801E+01  0.32260251388E+02 -0.21428073230E+02  0.39103270092E+02  0.00000000000E+00 0. -1.
</event>
<event>
 7    1  0.2797450E-013  0.7246158E+02  0.7816164E-02  0.1226708E+00
        -11   -1    0    0    0    0  0.00000000000E+00  0.00000000000E+00  0.45593999997E+02  0.45594000000E+02  0.51100000000E-03 0.  1.
         11   -1    0    0    0    0 -0.00000000000E+00 -0.00000000000E+00 -0.45593999997E+02  0.45594000000E+02  0.51100000000E-03 0. -1.
    9900012    2    1    2    0    0  0.11458668325E+02  0.97770955551E+01  0.11125929103E+02  0.72461575470E+02  0.70000006742E+02 0.  0.
         12    1    1    2    0    0 -0.11458668325E+02 -0.97770955551E+01 -0.11125929103E+02  0.18726424530E+02  0.00000000000E+00 0. -1.
         11    1    3    3    0    0 -0.10040992164E+02  0.10142470360E+02 -0.76864650779E+00  0.14292727044E+02  0.51100000000E-03 0. -1.
        -11    1    3    3    0    0  0.10956101996E+02  0.23469415415E+02 -0.59590855777E+01  0.26577440284E+02  0.51100000000E-03 0.  1.
         12    1    3    3    0    0  0.10543558493E+02 -0.23834790220E+02  0.17853661188E+02  0.31591408141E+02  0.00000000000E+00 0. -1.
</event>
<event>
 7    1  0.2797450E-013  0.7246158E+02  0.7816164E-02  0.1226708E+00
        -11   -1    0    0    0    0  0.00000000000E+00  0.00000000000E+00  0.45593999997E+02  0.45594000000E+02  0.51100000000E-03 0. -1.
         11   -1    0    0    0    0 -0.00000000000E+00 -0.00000000000E+00 -0.45593999997E+02  0.45594000000E+02  0.51100000000E-03 0.  1.
    9900012    2    1    2    0    0  0.44897446127E+01  0.13121233422E+02  0.12583883968E+02  0.72461582592E+02  0.70000016020E+02 0.  0.
         12    1    1    2    0    0 -0.44897446127E+01 -0.13121233422E+02 -0.12583883968E+02  0.18726417408E+02  0.00000000000E+00 0. -1.
         11    1    3    3    0    0 -0.38273043436E+01 -0.15538452242E+02 -0.17436976543E+02  0.23667275040E+02  0.51100000000E-03 0. -1.
        -11    1    3    3    0    0 -0.46826382901E+01  0.17671044367E+02  0.57778945948E+01  0.19172297113E+02  0.51100000000E-03 0.  1.
        -12    1    3    3    0    0  0.12999687246E+02  0.10988641297E+02  0.24242965917E+02  0.29622010440E+02  0.00000000000E+00 0.  1.
</event>
<event>
 7    1  0.2797450E-013  0.7246152E+02  0.7816164E-02  0.1226708E+00
        -11   -1    0    0    0    0  0.00000000000E+00  0.00000000000E+00  0.45593999997E+02  0.45594000000E+02  0.51100000000E-03 0.  1.
         11   -1    0    0    0    0 -0.00000000000E+00 -0.00000000000E+00 -0.45593999997E+02  0.45594000000E+02  0.51100000000E-03 0. -1.
    9900012    2    1    2    0    0  0.98195057729E+01 -0.14365016115E+02  0.69213181900E+01  0.72461520697E+02  0.69999935390E+02 0.  0.
         12    1    1    2    0    0 -0.98195057729E+01  0.14365016115E+02 -0.69213181900E+01  0.18726479303E+02  0.00000000000E+00 0. -1.
         11    1    3    3    0    0  0.17807796565E+02 -0.26829313210E+02  0.10915594344E+02  0.34001174479E+02  0.51100000000E-03 0. -1.
        -11    1    3    3    0    0  0.11311548323E+02 -0.39524322116E+01  0.26379675857E+01  0.12269136852E+02  0.51100000000E-03 0.  1.
        -12    1    3    3    0    0 -0.19299839116E+02  0.16416729307E+02 -0.66322437393E+01  0.26191209366E+02  0.00000000000E+00 0.  1.
</event>
<event>
 7    1  0.2797450E-013  0.7246158E+02  0.7816164E-02  0.1226708E+00
        -11   -1    0    0    0    0  0.00000000000E+00  0.00000000000E+00  0.45593999997E+02  0.45594000000E+02  0.51100000000E-03 0.  1.
         11   -1    0    0    0    0 -0.00000000000E+00 -0.00000000000E+00 -0.45593999997E+02  0.45594000000E+02  0.51100000000E-03 0. -1.
    9900012    2    1    2    0    0  0.10406747757E+02 -0.15499043327E+02  0.14690856116E+01  0.72461576010E+02  0.70000007445E+02 0.  0.
         12    1    1    2    0    0 -0.10406747757E+02  0.15499043327E+02 -0.14690856116E+01  0.18726423990E+02  0.00000000000E+00 0. -1.
         11    1    3    3    0    0 -0.95786454040E+01 -0.11667515047E+02  0.79944148490E+01  0.17081920975E+02  0.51100000000E-03 0. -1.
        -11    1    3    3    0    0 -0.81825111780E+00  0.10821331233E+02  0.17364426153E+02  0.20476670638E+02  0.51100000000E-03 0.  1.
         12    1    3    3    0    0  0.20803644279E+02 -0.14652859513E+02 -0.23889755390E+02  0.34902984397E+02  0.00000000000E+00 0. -1.
</event>
<event>
 7    1  0.2797450E-013  0.7246154E+02  0.7816164E-02  0.1226708E+00
        -11   -1    0    0    0    0  0.00000000000E+00  0.00000000000E+00  0.45593999997E+02  0.45594000000E+02  0.51100000000E-03 0.  1.
         11   -1    0    0    0    0 -0.00000000000E+00 -0.00000000000E+00 -0.45593999997E+02  0.45594000000E+02  0.51100000000E-03 0. -1.
    9900012    2    1    2    0    0 -0.39975516507E+01  0.33585858718E+01  0.17983871414E+02  0.72461544134E+02  0.69999965921E+02 0.  0.
         12    1    1    2    0    0  0.39975516507E+01 -0.33585858718E+01 -0.17983871414E+02  0.18726455866E+02  0.00000000000E+00 0. -1.
         11    1    3    3    0    0 -0.13454745961E+01  0.22386466402E+02  0.26106281713E+01  0.22578298421E+02  0.51100000000E-03 0. -1.
        -11    1    3    3    0    0  0.72250691050E+01  0.12464001708E+02  0.56656596207E+01  0.15480719019E+02  0.51100000000E-03 0.  1.
        -12    1    3    3    0    0 -0.98771461596E+01 -0.31491882238E+02  0.97075836222E+01  0.34402526694E+02  0.00000000000E+00 0.  1.
</event>
<event>
 7    1  0.2797450E-013  0.7246157E+02  0.7816164E-02  0.1226708E+00
        -11   -1    0    0    0    0  0.00000000000E+00  0.00000000000E+00  0.45593999997E+02  0.45594000000E+02  0.51100000000E-03 0.  1.
         11   -1    0    0    0    0 -0.00000000000E+00 -0.00000000000E+00 -0.45593999997E+02  0.45594000000E+02  0.51100000000E-03 0. -1.
    9900012    2    1    2    0    0 -0.79294818623E+01 -0.16906515408E+02 -0.14043134429E+01  0.72461573697E+02  0.70000004432E+02 0.  0.
         12    1    1    2    0    0  0.79294818623E+01  0.16906515408E+02  0.14043134429E+01  0.18726426303E+02  0.00000000000E+00 0. -1.
         11    1    3    3    0    0  0.18206494711E+01  0.45063432106E+01 -0.18360917566E+02  0.18993293231E+02  0.51100000000E-03 0. -1.
        -11    1    3    3    0    0  0.14158158471E+01  0.84322252564E+01  0.19709419271E+02  0.21484137533E+02  0.51100000000E-03 0.  1.
         12    1    3    3    0    0 -0.11165947180E+02 -0.29845083875E+02 -0.27528151479E+01  0.31984142933E+02  0.00000000000E+00 0. -1.
</event>
<event>
 7    1  0.2797450E-013  0.7246162E+02  0.7816164E-02  0.1226708E+00
        -11   -1    0    0    0    0  0.00000000000E+00  0.00000000000E+00  0.45593999997E+02  0.45594000000E+02  0.51100000000E-03 0. -1.
         11   -1    0    0    0    0 -0.00000000000E+00 -0.00000000000E+00 -0.45593999997E+02  0.45594000000E+02  0.51100000000E-03 0.  1.
    9900012    2    1    2    0    0  0.14173875248E+02  0.42108610621E+01 -0.11491180109E+02  0.72461619924E+02  0.70000064652E+02 0.  0.
         12    1    1    2    0    0 -0.14173875248E+02 -0.42108610621E+01  0.11491180109E+02  0.18726380076E+02  0.00000000000E+00 0. -1.
         11    1    3    3    0    0  0.14925611236E+02  0.54905296256E+01 -0.28500501794E+01  0.16156811957E+02  0.51100000000E-03 0. -1.
        -11    1    3    3    0    0 -0.59422018052E+01 -0.17911154146E+02 -0.25724604379E+02  0.31904145120E+02  0.51100000000E-03 0.  1.
         12    1    3    3    0    0  0.51904658175E+01  0.16631485582E+02  0.17083474450E+02  0.24400662846E+02  0.00000000000E+00 0. -1.
</event>
<event>
 7    1  0.2797450E-013  0.7246180E+02  0.7816164E-02  0.1226707E+00
        -11   -1    0    0    0    0  0.00000000000E+00  0.00000000000E+00  0.45593999997E+02  0.45594000000E+02  0.51100000000E-03 0.  1.
         11   -1    0    0    0    0 -0.00000000000E+00 -0.00000000000E+00 -0.45593999997E+02  0.45594000000E+02  0.51100000000E-03 0. -1.
    9900012    2    1    2    0    0 -0.16135984024E+02  0.88674338974E+01 -0.34160240884E+01  0.72461799506E+02  0.70000298591E+02 0.  0.
         12    1    1    2    0    0  0.16135984024E+02 -0.88674338974E+01  0.34160240884E+01  0.18726200494E+02  0.00000000000E+00 0. -1.
         11    1    3    3    0    0  0.53200560971E+01  0.98519674459E+01  0.22969668912E+02  0.25553276691E+02  0.51100000000E-03 0. -1.
        -11    1    3    3    0    0 -0.20371134719E+02 -0.38389067961E+01 -0.38924813057E+00  0.20733351140E+02  0.51100000000E-03 0.  1.
         12    1    3    3    0    0 -0.10849054023E+01  0.28543732475E+01 -0.25996444870E+02  0.26175171676E+02  0.00000000000E+00 0. -1.
</event>
<event>
 7    1  0.2797450E-013  0.7246153E+02  0.7816164E-02  0.1226708E+00
        -11   -1    0    0    0    0  0.00000000000E+00  0.00000000000E+00  0.45593999997E+02  0.45594000000E+02  0.51100000000E-03 0.  1.
         11   -1    0    0    0    0 -0.00000000000E+00 -0.00000000000E+00 -0.45593999997E+02  0.45594000000E+02  0.51100000000E-03 0. -1.
    9900012    2    1    2    0    0  0.14670345560E+02 -0.11638110452E+02  0.12621475580E+00  0.72461532530E+02  0.69999950804E+02 0.  0.
         12    1    1    2    0    0 -0.14670345560E+02  0.11638110452E+02 -0.12621475580E+00  0.18726467470E+02  0.00000000000E+00 0. -1.
         11    1    3    3    0    0 -0.43810062599E+01  0.16183172814E+02  0.58182511858E+01  0.17746558689E+02  0.51100000000E-03 0. -1.
        -11    1    3    3    0    0 -0.13443440647E+02 -0.12955705664E+02 -0.25472536131E+01  0.18843166053E+02  0.51100000000E-03 0.  1.
        -12    1    3    3    0    0  0.32494792467E+02 -0.14865577603E+02 -0.31447828169E+01  0.35871807787E+02  0.00000000000E+00 0.  1.
</event>
<event>
 7    1  0.2797450E-013  0.7246159E+02  0.7816164E-02  0.1226708E+00
        -11   -1    0    0    0    0  0.00000000000E+00  0.00000000000E+00  0.45593999997E+02  0.45594000000E+02  0.51100000000E-03 0. -1.
         11   -1    0    0    0    0 -0.00000000000E+00 -0.00000000000E+00 -0.45593999997E+02  0.45594000000E+02  0.51100000000E-03 0.  1.
    9900012    2    1    2    0    0  0.76637184012E+01  0.15517744057E+02 -0.71516018451E+01  0.72461591660E+02  0.70000027833E+02 0.  0.
         12    1    1    2    0    0 -0.76637184012E+01 -0.15517744057E+02  0.71516018451E+01  0.18726408340E+02  0.00000000000E+00 0. -1.
         11    1    3    3    0    0  0.72664261143E+01  0.49296454380E-01  0.68348234020E+01  0.99758804029E+01  0.51100000000E-03 0. -1.
        -11    1    3    3    0    0  0.43192221990E+01 -0.17404160816E+02  0.10975062393E+02  0.21024093058E+02  0.51100000000E-03 0.  1.
         12    1    3    3    0    0 -0.39219299121E+01  0.32872608419E+02 -0.24961487641E+02  0.41461618199E+02  0.00000000000E+00 0. -1.
</event>
<event>
 7    1  0.2797450E-013  0.7246128E+02  0.7816164E-02  0.1226709E+00
        -11   -1    0    0    0    0  0.00000000000E+00  0.00000000000E+00  0.45593999997E+02  0.45594000000E+02  0.51100000000E-03 0.  1.
         11   -1    0    0    0    0 -0.00000000000E+00 -0.00000000000E+00 -0.45593999997E+02  0.45594000000E+02  0.51100000000E-03 0. -1.
    9900012    2    1    2    0    0  0.28034916267E+01 -0.37120636655E+01  0.18139767806E+02  0.72461276901E+02  0.69999617800E+02 0.  0.
         12    1    1    2    0    0 -0.28034916267E+01  0.37120636655E+01 -0.18139767806E+02  0.18726723099E+02  0.00000000000E+00 0. -1.
         11    1    3    3    0    0  0.38540718948E+01 -0.57464007337E+01 -0.11507656377E+02  0.13427626265E+02  0.51100000000E-03 0. -1.
        -11    1    3    3    0    0  0.21017838302E+02 -0.31722394118E+01 -0.55984598290E+00  0.21263256043E+02  0.51100000000E-03 0.  1.
        -12    1    3    3    0    0 -0.22068418570E+02  0.52065764801E+01  0.30207270166E+02  0.37770394593E+02  0.00000000000E+00 0.  1.
</event>
<event>
 7    1  0.2797450E-013  0.7246152E+02  0.7816164E-02  0.1226708E+00
        -11   -1    0    0    0    0  0.00000000000E+00  0.00000000000E+00  0.45593999997E+02  0.45594000000E+02  0.51100000000E-03 0. -1.
         11   -1    0    0    0    0 -0.00000000000E+00 -0.00000000000E+00 -0.45593999997E+02  0.45594000000E+02  0.51100000000E-03 0.  1.
    9900012    2    1    2    0    0 -0.14765186573E+02  0.32676593795E+00 -0.11513628080E+02  0.72461517626E+02  0.69999931390E+02 0.  0.
         12    1    1    2    0    0  0.14765186573E+02 -0.32676593795E+00  0.11513628080E+02  0.18726482374E+02  0.00000000000E+00 0. -1.
         11    1    3    3    0    0 -0.12142766838E+02 -0.15634190230E+02  0.10490042414E+02  0.22403474747E+02  0.51100000000E-03 0. -1.
        -11    1    3    3    0    0 -0.10041015861E+02 -0.92579220645E+01 -0.19283665630E+02  0.23630295827E+02  0.51100000000E-03 0.  1.
         12    1    3    3    0    0  0.74185961256E+01  0.25218878233E+02 -0.27200048641E+01  0.26427747052E+02  0.00000000000E+00 0. -1.
</event>
<event>
 7    1  0.2797450E-013  0.7246160E+02  0.7816164E-02  0.1226708E+00
        -11   -1    0    0    0    0  0.00000000000E+00  0.00000000000E+00  0.45593999997E+02  0.45594000000E+02  0.51100000000E-03 0. -1.
         11   -1    0    0    0    0 -0.00000000000E+00 -0.00000000000E+00 -0.45593999997E+02  0.45594000000E+02  0.51100000000E-03 0.  1.
    9900012    2    1    2    0    0  0.38847423346E+01 -0.12452377163E+02 -0.13435961977E+02  0.72461601674E+02  0.70000040878E+02 0.  0.
         12    1    1    2    0    0 -0.38847423346E+01  0.12452377163E+02  0.13435961977E+02  0.18726398326E+02  0.00000000000E+00 0. -1.
         11    1    3    3    0    0  0.19307416004E+02 -0.25246985967E+02 -0.22112995773E+01  0.31860264583E+02  0.51100000000E-03 0. -1.
        -11    1    3    3    0    0  0.61480671687E+01  0.27200054995E+01  0.76757478628E+01  0.10203639809E+02  0.51100000000E-03 0.  1.
        -12    1    3    3    0    0 -0.21570740838E+02  0.10074603305E+02 -0.18900410262E+02  0.30397697283E+02  0.00000000000E+00 0.  1.
</event>
<event>
 7    1  0.2797450E-013  0.7246154E+02  0.7816164E-02  0.1226708E+00
        -11   -1    0    0    0    0  0.00000000000E+00  0.00000000000E+00  0.45593999997E+02  0.45594000000E+02  0.51100000000E-03 0.  1.
         11   -1    0    0    0    0 -0.00000000000E+00 -0.00000000000E+00 -0.45593999997E+02  0.45594000000E+02  0.51100000000E-03 0. -1.
    9900012    2    1    2    0    0  0.40975607293E+01 -0.14737035060E+02  0.10803252775E+02  0.72461535390E+02  0.69999954530E+02 0.  0.
         12    1    1    2    0    0 -0.40975607293E+01  0.14737035060E+02 -0.10803252775E+02  0.18726464610E+02  0.00000000000E+00 0. -1.
         11    1    3    3    0    0  0.32906717552E+01 -0.26338611997E+02  0.15309516425E+00  0.26543821144E+02  0.51100000000E-03 0. -1.
        -11    1    3    3    0    0 -0.19243148137E+02  0.10848425594E+02 -0.20284837384E+01  0.22183368424E+02  0.51100000000E-03 0.  1.
         12    1    3    3    0    0  0.20050037111E+02  0.75315134291E+00  0.12678641349E+02  0.23734345821E+02  0.00000000000E+00 0. -1.
</event>
<event>
 7    1  0.2797450E-013  0.7246163E+02  0.7816164E-02  0.1226708E+00
        -11   -1    0    0    0    0  0.00000000000E+00  0.00000000000E+00  0.45593999997E+02  0.45594000000E+02  0.51100000000E-03 0. -1.
         11   -1    0    0    0    0 -0.00000000000E+00 -0.00000000000E+00 -0.45593999997E+02  0.45594000000E+02  0.51100000000E-03 0.  1.
    9900012    2    1    2    0    0  0.89764399295E+01  0.15809083101E+02 -0.44914843529E+01  0.72461627847E+02  0.70000074973E+02 0.  0.
         12    1    1    2    0    0 -0.89764399295E+01 -0.15809083101E+02  0.44914843529E+01  0.18726372153E+02  0.00000000000E+00 0. -1.
         11    1    3    3    0    0 -0.16376755764E+02 -0.20620562493E+01  0.20171440624E+02  0.26064098343E+02  0.51100000000E-03 0. -1.
        -11    1    3    3    0    0 -0.44703865159E+01  0.29810722915E+00 -0.44382388294E+01  0.63064401756E+01  0.51100000000E-03 0.  1.
        -12    1    3    3    0    0  0.29823582209E+02  0.17573032122E+02 -0.20224686148E+02  0.40091089328E+02  0.00000000000E+00 0.  1.
</event>
<event>
 7    1  0.2797450E-013  0.7246151E+02  0.7816164E-02  0.1226708E+00
        -11   -1    0    0    0    0  0.00000000000E+00  0.00000000000E+00  0.45593999997E+02  0.45594000000E+02  0.51100000000E-03 0.  1.
         11   -1    0    0    0    0 -0.00000000000E+00 -0.00000000000E+00 -0.45593999997E+02  0.45594000000E+02  0.51100000000E-03 0. -1.
    9900012    2    1    2    0    0 -0.16513380006E+02 -0.86494093783E+01 -0.17825791747E+01  0.72461505658E+02  0.69999915800E+02 0.  0.
         12    1    1    2    0    0  0.16513380006E+02  0.86494093783E+01  0.17825791747E+01  0.18726494342E+02  0.00000000000E+00 0. -1.
         11    1    3    3    0    0  0.16667910452E+01 -0.17402049342E+02 -0.24891650797E+02  0.30417162809E+02  0.51100000000E-03 0. -1.
        -11    1    3    3    0    0  0.17872395309E+01  0.71084238593E+01 -0.39884371242E+01  0.83445518669E+01  0.51100000000E-03 0.  1.
         12    1    3    3    0    0 -0.19967410582E+02  0.16442161048E+01  0.27097508747E+02  0.33699790982E+02  0.00000000000E+00 0. -1.
</event>
<event>
 7    1  0.2797450E-013  0.7246160E+02  0.7816164E-02  0.1226708E+00
        -11   -1    0    0    0    0  0.00000000000E+00  0.00000000000E+00  0.45593999997E+02  0.45594000000E+02  0.51100000000E-03 0.  1.
         11   -1    0    0    0    0 -0.00000000000E+00 -0.00000000000E+00 -0.45593999997E+02  0.45594000000E+02  0.51100000000E-03 0. -1.
    9900012    2    1    2    0    0  0.58240812829E+01 -0.13220135818E+02 -0.11915788862E+02  0.72461603175E+02  0.70000042833E+02 0.  0.
         12    1    1    2    0    0 -0.58240812829E+01  0.13220135818E+02  0.11915788862E+02  0.18726396825E+02  0.00000000000E+00 0. -1.
         11    1    3    3    0    0 -0.35430899854E+01  0.68122959447E+01 -0.17186278909E+02  0.18823629981E+02  0.51100000000E-03 0. -1.
        -11    1    3    3    0    0 -0.56155127515E+01  0.13811076159E+02 -0.40921611633E+01  0.15460452496E+02  0.51100000000E-03 0.  1.
        -12    1    3    3    0    0  0.14982684020E+02 -0.33843507922E+02  0.93626512101E+01  0.38177520697E+02  0.00000000000E+00 0.  1.
</event>
<event>
 7    1  0.2797450E-013  0.7246152E+02  0.7816164E-02  0.1226708E+00
        -11   -1    0    0    0    0  0.00000000000E+00  0.00000000000E+00  0.45593999997E+02  0.45594000000E+02  0.51100000000E-03 0. -1.
         11   -1    0    0    0    0 -0.00000000000E+00 -0.00000000000E+00 -0.45593999997E+02  0.45594000000E+02  0.51100000000E-03 0.  1.
    9900012    2    1    2    0    0  0.10706900801E+02 -0.37343885422E+01 -0.14902937017E+02  0.72461523709E+02  0.69999939314E+02 0.  0.
         12    1    1    2    0    0 -0.10706900801E+02  0.37343885422E+01  0.14902937017E+02  0.18726476291E+02  0.00000000000E+00 0. -1.
         11    1    3    3    0    0 -0.18382759861E+02 -0.72484810638E+01  0.34136675495E+01  0.20052916602E+02  0.51100000000E-03 0. -1.
        -11    1    3    3    0    0  0.17245884370E+02 -0.17657712186E+02 -0.11362855937E+02  0.27172225206E+02  0.51100000000E-03 0.  1.
         12    1    3    3    0    0  0.11843776292E+02  0.21171804708E+02 -0.69537486291E+01  0.25236381901E+02  0.00000000000E+00 0. -1.
</event>
<event>
 7    1  0.2797450E-013  0.7246156E+02  0.7816164E-02  0.1226708E+00
        -11   -1    0    0    0    0  0.00000000000E+00  0.00000000000E+00  0.45593999997E+02  0.45594000000E+02  0.51100000000E-03 0. -1.
         11   -1    0    0    0    0 -0.00000000000E+00 -0.00000000000E+00 -0.45593999997E+02  0.45594000000E+02  0.51100000000E-03 0.  1.
    9900012    2    1    2    0    0  0.11698700177E+02 -0.68280880262E+01  0.12930472691E+02  0.72461561579E+02  0.69999988647E+02 0.  0.
         12    1    1    2    0    0 -0.11698700177E+02  0.68280880262E+01 -0.12930472691E+02  0.18726438421E+02  0.00000000000E+00 0. -1.
         11    1    3    3    0    0  0.14456149938E-02  0.22994695263E+02  0.21413006087E+02  0.31420898178E+02  0.51100000000E-03 0. -1.
        -11    1    3    3    0    0 -0.61019044177E+01 -0.90406170327E+00 -0.74915235867E+00  0.62138389586E+01  0.51100000000E-03 0.  1.
        -12    1    3    3    0    0  0.17799158979E+02 -0.28918721586E+02 -0.77333810382E+01  0.34826824443E+02  0.00000000000E+00 0.  1.
</event>
<event>
 7    1  0.2797450E-013  0.7246169E+02  0.7816164E-02  0.1226708E+00
        -11   -1    0    0    0    0  0.00000000000E+00  0.00000000000E+00  0.45593999997E+02  0.45594000000E+02  0.51100000000E-03 0. -1.
         11   -1    0    0    0    0 -0.00000000000E+00 -0.00000000000E+00 -0.45593999997E+02  0.45594000000E+02  0.51100000000E-03 0.  1.
    9900012    2    1    2    0    0 -0.77780585819E+01  0.46776987019E+00 -0.17028146447E+02  0.72461687619E+02  0.70000152837E+02 0.  0.
         12    1    1    2    0    0  0.77780585819E+01 -0.46776987019E+00  0.17028146447E+02  0.18726312381E+02  0.00000000000E+00 0. -1.
         11    1    3    3    0    0  0.20279364826E+02 -0.37006872654E+01 -0.74609621601E+01  0.21922903106E+02  0.51100000000E-03 0. -1.
        -11    1    3    3    0    0 -0.14186775884E+01  0.87638406129E+01 -0.19748927023E+02  0.21652659587E+02  0.51100000000E-03 0.  1.
         12    1    3    3    0    0 -0.26638745819E+02 -0.45953834773E+01  0.10181742736E+02  0.28886124926E+02  0.00000000000E+00 0. -1.
</event>
<event>
 7    1  0.2797450E-013  0.7246148E+02  0.7816164E-02  0.1226708E+00
        -11   -1    0    0    0    0  0.00000000000E+00  0.00000000000E+00  0.45593999997E+02  0.45594000000E+02  0.51100000000E-03 0.  1.
         11   -1    0    0    0    0 -0.00000000000E+00 -0.00000000000E+00 -0.45593999997E+02  0.45594000000E+02  0.51100000000E-03 0. -1.
    9900012    2    1    2    0    0  0.27910801322E+01  0.81459979380E+01  0.16629343692E+02  0.72461481842E+02  0.69999884774E+02 0.  0.
         12    1    1    2    0    0 -0.27910801322E+01 -0.81459979380E+01 -0.16629343692E+02  0.18726518158E+02  0.00000000000E+00 0. -1.
         11    1    3    3    0    0  0.57977077929E+01  0.67043690984E+01  0.93294106397E+01  0.12868561839E+02  0.51100000000E-03 0. -1.
        -11    1    3    3    0    0 -0.41549325217E+01  0.11103519895E+02  0.31421095751E+02  0.33583282698E+02  0.51100000000E-03 0.  1.
         12    1    3    3    0    0  0.11483048610E+01 -0.96618910553E+01 -0.24121162698E+02  0.26009637305E+02  0.00000000000E+00 0. -1.
</event>
<event>
 7    1  0.2797450E-013  0.7246225E+02  0.7816164E-02  0.1226706E+00
        -11   -1    0    0    0    0  0.00000000000E+00  0.00000000000E+00  0.45593999997E+02  0.45594000000E+02  0.51100000000E-03 0.  1.
         11   -1    0    0    0    0 -0.00000000000E+00 -0.00000000000E+00 -0.45593999997E+02  0.45594000000E+02  0.51100000000E-03 0. -1.
    9900012    2    1    2    0    0  0.10647979884E+02  0.77112607667E+01  0.13334565964E+02  0.72462251212E+02  0.70000887016E+02 0.  0.
         12    1    1    2    0    0 -0.10647979884E+02 -0.77112607667E+01 -0.13334565964E+02  0.18725748788E+02  0.00000000000E+00 0. -1.
         11    1    3    3    0    0  0.95595314234E+01  0.17103709226E+02 -0.70457177328E+01  0.20822191262E+02  0.51100000000E-03 0. -1.
        -11    1    3    3    0    0  0.23607638990E+02 -0.61776570201E+01  0.13432020276E+02  0.27855039650E+02  0.51100000000E-03 0.  1.
         12    1    3    3    0    0 -0.22519190530E+02 -0.32147914391E+01  0.69482634212E+01  0.23785020300E+02  0.00000000000E+00 0. -1.
</event>
<event>
 7    1  0.2797450E-013  0.7246149E+02  0.7816164E-02  0.1226708E+00
        -11   -1    0    0    0    0  0.00000000000E+00  0.00000000000E+00  0.45593999997E+02  0.45594000000E+02  0.51100000000E-03 0.  1.
         11   -1    0    0    0    0 -0.00000000000E+00 -0.00000000000E+00 -0.45593999997E+02  0.45594000000E+02  0.51100000000E-03 0. -1.
    9900012    2    1    2    0    0 -0.10485576293E+02 -0.16523872829E+01  0.15427393127E+02  0.72461490645E+02  0.69999896242E+02 0.  0.
         12    1    1    2    0    0  0.10485576293E+02  0.16523872829E+01 -0.15427393127E+02  0.18726509355E+02  0.00000000000E+00 0. -1.
         11    1    3    3    0    0 -0.78711986410E+01 -0.61876631003E+00  0.15803117466E+02  0.17665705808E+02  0.51100000000E-03 0. -1.
        -11    1    3    3    0    0 -0.15824443765E+02  0.17322131334E+02  0.14635080017E+02  0.27652392696E+02  0.51100000000E-03 0.  1.
         12    1    3    3    0    0  0.13210066113E+02 -0.18355752307E+02 -0.15010804357E+02  0.27143392141E+02  0.00000000000E+00 0. -1.
</event>
<event>
 7    1  0.2797450E-013  0.7246145E+02  0.7816164E-02  0.1226708E+00
        -11   -1    0    0    0    0  0.00000000000E+00  0.00000000000E+00  0.45593999997E+02  0.45594000000E+02  0.51100000000E-03 0.  1.
         11   -1    0    0    0    0 -0.00000000000E+00 -0.00000000000E+00 -0.45593999997E+02  0.45594000000E+02  0.51100000000E-03 0. -1.
    9900012    2    1    2    0    0  0.87666759212E+01 -0.14205714347E+02  0.84868485195E+01  0.72461454013E+02  0.69999848522E+02 0.  0.
         12    1    1    2    0    0 -0.87666759212E+01  0.14205714347E+02 -0.84868485195E+01  0.18726545987E+02  0.00000000000E+00 0. -1.
         11    1    3    3    0    0  0.20774993124E+02  0.76671376943E+00 -0.50002558333E+01  0.21382019268E+02  0.51100000000E-03 0. -1.
        -11    1    3    3    0    0  0.86981673267E+01  0.12019613081E+02  0.11096522049E+01  0.14878190137E+02  0.51100000000E-03 0.  1.
        -12    1    3    3    0    0 -0.20706484529E+02 -0.26992041197E+02  0.12377452148E+02  0.36201244609E+02  0.00000000000E+00 0.  1.
</event>
<event>
 7    1  0.2797450E-013  0.7246159E+02  0.7816164E-02  0.1226708E+00
        -11   -1    0    0    0    0  0.00000000000E+00  0.00000000000E+00  0.45593999997E+02  0.45594000000E+02  0.51100000000E-03 0. -1.
         11   -1    0    0    0    0 -0.00000000000E+00 -0.00000000000E+00 -0.45593999997E+02  0.45594000000E+02  0.51100000000E-03 0.  1.
    9900012    2    1    2    0    0  0.28465796778E+01 -0.41324845153E+00 -0.18504180533E+02  0.72461588508E+02  0.70000023727E+02 0.  0.
         12    1    1    2    0    0 -0.28465796778E+01  0.41324845153E+00  0.18504180533E+02  0.18726411492E+02  0.00000000000E+00 0. -1.
         11    1    3    3    0    0 -0.17438180815E+02  0.82793843275E+01 -0.92608284994E+01  0.21410308258E+02  0.51100000000E-03 0. -1.
        -11    1    3    3    0    0  0.10561021401E+01  0.15299269490E+02 -0.12963150010E+02  0.20080494443E+02  0.51100000000E-03 0.  1.
         12    1    3    3    0    0  0.19228658352E+02 -0.23991902269E+02  0.37197979758E+01  0.30970785807E+02  0.00000000000E+00 0. -1.
</event>
<event>
 7    1  0.2797450E-013  0.7246173E+02  0.7816164E-02  0.1226708E+00
        -11   -1    0    0    0    0  0.00000000000E+00  0.00000000000E+00  0.45593999997E+02  0.45594000000E+02  0.51100000000E-03 0.  1.
         11   -1    0    0    0    0 -0.00000000000E+00 -0.00000000000E+00 -0.45593999997E+02  0.45594000000E+02  0.51100000000E-03 0. -1.
    9900012    2    1    2    0    0 -0.56841000678E+00 -0.17501917716E+02 -0.66357390748E+01  0.72461728435E+02  0.70000206007E+02 0.  0.
         12    1    1    2    0    0  0.56841000678E+00  0.17501917716E+02  0.66357390748E+01  0.18726271565E+02  0.00000000000E+00 0. -1.
         11    1    3    3    0    0 -0.47132215713E+01  0.35565217753E+01  0.10977382707E+02  0.12464599315E+02  0.51100000000E-03 0. -1.
        -11    1    3    3    0    0 -0.20626948514E+02 -0.19409535885E+02  0.19482308866E+01  0.28390080876E+02  0.51100000000E-03 0.  1.
         12    1    3    3    0    0  0.24771760079E+02 -0.16489036057E+01 -0.19561352669E+02  0.31607048244E+02  0.00000000000E+00 0. -1.
</event>
<event>
 7    1  0.2797450E-013  0.7246160E+02  0.7816164E-02  0.1226708E+00
        -11   -1    0    0    0    0  0.00000000000E+00  0.00000000000E+00  0.45593999997E+02  0.45594000000E+02  0.51100000000E-03 0.  1.
         11   -1    0    0    0    0 -0.00000000000E+00 -0.00000000000E+00 -0.45593999997E+02  0.45594000000E+02  0.51100000000E-03 0. -1.
    9900012    2    1    2    0    0 -0.77804686791E+01 -0.84964941172E+01  0.14763194070E+02  0.72461601406E+02  0.70000040529E+02 0.  0.
         12    1    1    2    0    0  0.77804686791E+01  0.84964941172E+01 -0.14763194070E+02  0.18726398594E+02  0.00000000000E+00 0. -1.
         11    1    3    3    0    0 -0.64108229642E+01  0.64874167057E+01  0.17026074250E+02  0.19315082998E+02  0.51100000000E-03 0. -1.
        -11    1    3    3    0    0 -0.18806827399E+02 -0.24989536723E+02  0.51941575147E+01  0.31704147599E+02  0.51100000000E-03 0.  1.
         12    1    3    3    0    0  0.17437181684E+02  0.10005625900E+02 -0.74570376952E+01  0.21442370809E+02  0.00000000000E+00 0. -1.
</event>
<event>
 7    1  0.2797450E-013  0.7246156E+02  0.7816164E-02  0.1226708E+00
        -11   -1    0    0    0    0  0.00000000000E+00  0.00000000000E+00  0.45593999997E+02  0.45594000000E+02  0.51100000000E-03 0. -1.
         11   -1    0    0    0    0 -0.00000000000E+00 -0.00000000000E+00 -0.45593999997E+02  0.45594000000E+02  0.51100000000E-03 0.  1.
    9900012    2    1    2    0    0 -0.17749571257E+02  0.59610510649E+01  0.31325245290E+00  0.72461560491E+02  0.69999987229E+02 0.  0.
         12    1    1    2    0    0  0.17749571257E+02 -0.59610510649E+01 -0.31325245290E+00  0.18726439509E+02  0.00000000000E+00 0. -1.
         11    1    3    3    0    0 -0.24383586530E+02 -0.14057693144E+02  0.26638896192E+01  0.28271440302E+02  0.51100000000E-03 0. -1.
        -11    1    3    3    0    0 -0.14585343798E+02  0.42406754074E+01  0.61904779506E+01  0.16402365657E+02  0.51100000000E-03 0.  1.
        -12    1    3    3    0    0  0.21219359071E+02  0.15778068802E+02 -0.85411151169E+01  0.27787754532E+02  0.00000000000E+00 0.  1.
</event>
<event>
 7    1  0.2797450E-013  0.7246157E+02  0.7816164E-02  0.1226708E+00
        -11   -1    0    0    0    0  0.00000000000E+00  0.00000000000E+00  0.45593999997E+02  0.45594000000E+02  0.51100000000E-03 0.  1.
         11   -1    0    0    0    0 -0.00000000000E+00 -0.00000000000E+00 -0.45593999997E+02  0.45594000000E+02  0.51100000000E-03 0. -1.
    9900012    2    1    2    0    0 -0.72135711862E+00 -0.11179267962E+02  0.15006087546E+02  0.72461573440E+02  0.70000004098E+02 0.  0.
         12    1    1    2    0    0  0.72135711862E+00  0.11179267962E+02 -0.15006087546E+02  0.18726426560E+02  0.00000000000E+00 0. -1.
         11    1    3    3    0    0 -0.97362336004E+00  0.36864034371E+01  0.23353222540E+01  0.44711567899E+01  0.51100000000E-03 0. -1.
        -11    1    3    3    0    0  0.19488814661E+02 -0.29342357420E+02  0.22704424261E+02  0.41907979158E+02  0.51100000000E-03 0.  1.
         12    1    3    3    0    0 -0.19236548420E+02  0.14476686021E+02 -0.10033658969E+02  0.26082437492E+02  0.00000000000E+00 0. -1.
</event>
<event>
 7    1  0.2797450E-013  0.7246158E+02  0.7816164E-02  0.1226708E+00
        -11   -1    0    0    0    0  0.00000000000E+00  0.00000000000E+00  0.45593999997E+02  0.45594000000E+02  0.51100000000E-03 0. -1.
         11   -1    0    0    0    0 -0.00000000000E+00 -0.00000000000E+00 -0.45593999997E+02  0.45594000000E+02  0.51100000000E-03 0.  1.
    9900012    2    1    2    0    0 -0.14995884150E+01 -0.11245639009E+01 -0.18632376198E+02  0.72461578768E+02  0.70000011039E+02 0.  0.
         12    1    1    2    0    0  0.14995884150E+01  0.11245639009E+01  0.18632376198E+02  0.18726421232E+02  0.00000000000E+00 0. -1.
         11    1    3    3    0    0  0.49572508769E+01 -0.45641237652E+01 -0.42377456968E+01  0.79601539465E+01  0.51100000000E-03 0. -1.
        -11    1    3    3    0    0 -0.28266832790E+02 -0.10946405688E+02 -0.21808931735E+02  0.37342564683E+02  0.51100000000E-03 0.  1.
         12    1    3    3    0    0  0.21809993498E+02  0.14385965552E+02  0.74143012338E+01  0.27158860139E+02  0.00000000000E+00 0. -1.
</event>
<event>
 7    1  0.2797450E-013  0.7246157E+02  0.7816164E-02  0.1226708E+00
        -11   -1    0    0    0    0  0.00000000000E+00  0.00000000000E+00  0.45593999997E+02  0.45594000000E+02  0.51100000000E-03 0.  1.
         11   -1    0    0    0    0 -0.00000000000E+00 -0.00000000000E+00 -0.45593999997E+02  0.45594000000E+02  0.51100000000E-03 0. -1.
    9900012    2    1    2    0    0 -0.10626993730E+02  0.10226955588E+02  0.11539310990E+02  0.72461566425E+02  0.69999994959E+02 0.  0.
         12    1    1    2    0    0  0.10626993730E+02 -0.10226955588E+02 -0.11539310990E+02  0.18726433575E+02  0.00000000000E+00 0. -1.
         11    1    3    3    0    0 -0.10859155990E+02 -0.85173159134E+01  0.13727364852E+01  0.13869042682E+02  0.51100000000E-03 0. -1.
        -11    1    3    3    0    0 -0.11284805640E+02  0.13949255671E+01  0.28602774202E+02  0.30780047888E+02  0.51100000000E-03 0.  1.
        -12    1    3    3    0    0  0.11516967900E+02  0.17349345934E+02 -0.18436199697E+02  0.27812475855E+02  0.00000000000E+00 0.  1.
</event>
<event>
 7    1  0.2797450E-013  0.7246159E+02  0.7816164E-02  0.1226708E+00
        -11   -1    0    0    0    0  0.00000000000E+00  0.00000000000E+00  0.45593999997E+02  0.45594000000E+02  0.51100000000E-03 0. -1.
         11   -1    0    0    0    0 -0.00000000000E+00 -0.00000000000E+00 -0.45593999997E+02  0.45594000000E+02  0.51100000000E-03 0.  1.
    9900012    2    1    2    0    0  0.16549933802E+01  0.18569483853E+02  0.17646194103E+01  0.72461585091E+02  0.70000019276E+02 0.  0.
         12    1    1    2    0    0 -0.16549933802E+01 -0.18569483853E+02 -0.17646194103E+01  0.18726414909E+02  0.00000000000E+00 0. -1.
         11    1    3    3    0    0 -0.15892925320E+02  0.66206899992E+01 -0.22111008122E+01  0.17358213571E+02  0.51100000000E-03 0. -1.
        -11    1    3    3    0    0 -0.15666678062E+01  0.20274955949E+02  0.20216820632E+02  0.28674869197E+02  0.51100000000E-03 0.  1.
        -12    1    3    3    0    0  0.19114586507E+02 -0.83261620951E+01 -0.16241100409E+02  0.26428502323E+02  0.00000000000E+00 0.  1.
</event>
<event>
 7    1  0.2797450E-013  0.7246160E+02  0.7816164E-02  0.1226708E+00
        -11   -1    0    0    0    0  0.00000000000E+00  0.00000000000E+00  0.45593999997E+02  0.45594000000E+02  0.51100000000E-03 0. -1.
         11   -1    0    0    0    0 -0.00000000000E+00 -0.00000000000E+00 -0.45593999997E+02  0.45594000000E+02  0.51100000000E-03 0.  1.
    9900012    2    1    2    0    0 -0.14556951919E+02  0.11774757426E+02 -0.35796925774E+00  0.72461604095E+02  0.70000044031E+02 0.  0.
         12    1    1    2    0    0  0.14556951919E+02 -0.11774757426E+02  0.35796925774E+00  0.18726395905E+02  0.00000000000E+00 0. -1.
         11    1    3    3    0    0 -0.10732739358E+02  0.11509376556E+02  0.17810492033E+02  0.23767016421E+02  0.51100000000E-03 0. -1.
        -11    1    3    3    0    0 -0.31773174417E+01  0.21616634048E+02 -0.16285834502E+02  0.27250736126E+02  0.51100000000E-03 0.  1.
        -12    1    3    3    0    0 -0.64689511908E+00 -0.21351253178E+02 -0.18826267893E+01  0.21443851548E+02  0.00000000000E+00 0.  1.
</event>
<event>
 7    1  0.2797450E-013  0.7246150E+02  0.7816164E-02  0.1226708E+00
        -11   -1    0    0    0    0  0.00000000000E+00  0.00000000000E+00  0.45593999997E+02  0.45594000000E+02  0.51100000000E-03 0.  1.
         11   -1    0    0    0    0 -0.00000000000E+00 -0.00000000000E+00 -0.45593999997E+02  0.45594000000E+02  0.51100000000E-03 0. -1.
    9900012    2    1    2    0    0  0.13828916812E+02  0.12163276259E+02  0.33908040599E+01  0.72461500548E+02  0.69999909142E+02 0.  0.
         12    1    1    2    0    0 -0.13828916812E+02 -0.12163276259E+02 -0.33908040599E+01  0.18726499452E+02  0.00000000000E+00 0. -1.
         11    1    3    3    0    0  0.29348453206E+02 -0.38106700496E+01  0.18119820481E+02  0.34701308424E+02  0.51100000000E-03 0. -1.
        -11    1    3    3    0    0  0.89748611346E+00 -0.65428562284E+01 -0.94556798882E+00  0.66714727033E+01  0.51100000000E-03 0.  1.
         12    1    3    3    0    0 -0.16417022508E+02  0.22516802537E+02 -0.13783448432E+02  0.31088719420E+02  0.00000000000E+00 0. -1.
</event>
<event>
 7    1  0.2797450E-013  0.7246171E+02  0.7816164E-02  0.1226708E+00
        -11   -1    0    0    0    0  0.00000000000E+00  0.00000000000E+00  0.45593999997E+02  0.45594000000E+02  0.51100000000E-03 0.  1.
         11   -1    0    0    0    0 -0.00000000000E+00 -0.00000000000E+00 -0.45593999997E+02  0.45594000000E+02  0.51100000000E-03 0. -1.
    9900012    2    1    2    0    0 -0.32627128941E+01 -0.18439613942E+02  0.97102474979E-01  0.72461706008E+02  0.70000176793E+02 0.  0.
         12    1    1    2    0    0  0.32627128941E+01  0.18439613942E+02 -0.97102474979E-01  0.18726293992E+02  0.00000000000E+00 0. -1.
         11    1    3    3    0    0 -0.13015960463E+02 -0.72959276827E+01 -0.93877633249E+01  0.17628836832E+02  0.51100000000E-03 0. -1.
        -11    1    3    3    0    0 -0.10387724241E+02  0.32556119449E+01 -0.15967229044E+02  0.19325015592E+02  0.51100000000E-03 0.  1.
        -12    1    3    3    0    0  0.20140971810E+02 -0.14399298204E+02  0.25452094844E+02  0.35507853584E+02  0.00000000000E+00 0.  1.
</event>
<event>
 7    1  0.2797450E-013  0.7246158E+02  0.7816164E-02  0.1226708E+00
        -11   -1    0    0    0    0  0.00000000000E+00  0.00000000000E+00  0.45593999997E+02  0.45594000000E+02  0.51100000000E-03 0.  1.
         11   -1    0    0    0    0 -0.00000000000E+00 -0.00000000000E+00 -0.45593999997E+02  0.45594000000E+02  0.51100000000E-03 0. -1.
    9900012    2    1    2    0    0 -0.36100672382E+01  0.18366778583E+02  0.55478576175E+00  0.72461576737E+02  0.70000008392E+02 0.  0.
         12    1    1    2    0    0  0.36100672382E+01 -0.18366778583E+02 -0.55478576175E+00  0.18726423263E+02  0.00000000000E+00 0. -1.
         11    1    3    3    0    0  0.89574128663E+01  0.17259717454E+02 -0.23425041542E+02  0.30444468518E+02  0.51100000000E-03 0. -1.
        -11    1    3    3    0    0  0.58693542123E+00 -0.54916886045E+01 -0.62831745057E+01  0.83654897673E+01  0.51100000000E-03 0.  1.
        -12    1    3    3    0    0 -0.13154415526E+02  0.65987497337E+01  0.30263001809E+02  0.33651618451E+02  0.00000000000E+00 0.  1.
</event>
<event>
 7    1  0.2797450E-013  0.7246159E+02  0.7816164E-02  0.1226708E+00
        -11   -1    0    0    0    0  0.00000000000E+00  0.00000000000E+00  0.45593999997E+02  0.45594000000E+02  0.51100000000E-03 0. -1.
         11   -1    0    0    0    0 -0.00000000000E+00 -0.00000000000E+00 -0.45593999997E+02  0.45594000000E+02  0.51100000000E-03 0.  1.
    9900012    2    1    2    0    0  0.10186554888E+02  0.14458917801E+02  0.61524020478E+01  0.72461594701E+02  0.70000031794E+02 0.  0.
         12    1    1    2    0    0 -0.10186554888E+02 -0.14458917801E+02 -0.61524020478E+01  0.18726405299E+02  0.00000000000E+00 0. -1.
         11    1    3    3    0    0 -0.41683532262E+01 -0.13848418776E+02  0.10999318778E+02  0.18169724408E+02  0.51100000000E-03 0. -1.
        -11    1    3    3    0    0  0.25162726756E+02  0.15424830602E+01 -0.21429320658E+01  0.25300874093E+02  0.51100000000E-03 0.  1.
        -12    1    3    3    0    0 -0.10807818641E+02  0.26764853517E+02 -0.27039846646E+01  0.28990996200E+02  0.00000000000E+00 0.  1.
</event>
<event>
 7    1  0.2797450E-013  0.7246151E+02  0.7816164E-02  0.1226708E+00
        -11   -1    0    0    0    0  0.00000000000E+00  0.00000000000E+00  0.45593999997E+02  0.45594000000E+02  0.51100000000E-03 0. -1.
         11   -1    0    0    0    0 -0.00000000000E+00 -0.00000000000E+00 -0.45593999997E+02  0.45594000000E+02  0.51100000000E-03 0.  1.
    9900012    2    1    2    0    0  0.60596903244E+01  0.14540109528E+02 -0.10126542921E+02  0.72461507979E+02  0.69999918822E+02 0.  0.
         12    1    1    2    0    0 -0.60596903244E+01 -0.14540109528E+02  0.10126542921E+02  0.18726492021E+02  0.00000000000E+00 0. -1.
         11    1    3    3    0    0  0.17859677489E+01  0.36087749983E+02  0.66078704659E+01  0.36731176567E+02  0.51100000000E-03 0. -1.
        -11    1    3    3    0    0 -0.30027526840E+01 -0.14421289711E+01  0.44981497648E+01  0.55972860582E+01  0.51100000000E-03 0.  1.
        -12    1    3    3    0    0  0.72764752594E+01 -0.20105511485E+02 -0.21232563151E+02  0.30133045353E+02  0.00000000000E+00 0.  1.
</event>
<event>
 7    1  0.2797450E-013  0.7246155E+02  0.7816164E-02  0.1226708E+00
        -11   -1    0    0    0    0  0.00000000000E+00  0.00000000000E+00  0.45593999997E+02  0.45594000000E+02  0.51100000000E-03 0.  1.
         11   -1    0    0    0    0 -0.00000000000E+00 -0.00000000000E+00 -0.45593999997E+02  0.45594000000E+02  0.51100000000E-03 0. -1.
    9900012    2    1    2    0    0  0.85150268151E+01 -0.36969737952E+01  0.16263662831E+02  0.72461547437E+02  0.69999970224E+02 0.  0.
         12    1    1    2    0    0 -0.85150268151E+01  0.36969737952E+01 -0.16263662831E+02  0.18726452563E+02  0.00000000000E+00 0. -1.
         11    1    3    3    0    0 -0.26579325955E+02 -0.98269840079E+01  0.15952160420E+02  0.32519249764E+02  0.51100000000E-03 0. -1.
        -11    1    3    3    0    0  0.10951785566E+02  0.94333789540E+01  0.46657778674E+01  0.15188802749E+02  0.51100000000E-03 0.  1.
        -12    1    3    3    0    0  0.24142567203E+02 -0.33033687412E+01 -0.43542754564E+01  0.24753494924E+02  0.00000000000E+00 0.  1.
</event>
<event>
 7    1  0.2797450E-013  0.7246164E+02  0.7816164E-02  0.1226708E+00
        -11   -1    0    0    0    0  0.00000000000E+00  0.00000000000E+00  0.45593999997E+02  0.45594000000E+02  0.51100000000E-03 0. -1.
         11   -1    0    0    0    0 -0.00000000000E+00 -0.00000000000E+00 -0.45593999997E+02  0.45594000000E+02  0.51100000000E-03 0.  1.
    9900012    2    1    2    0    0  0.23723134700E+01 -0.52881043418E+01 -0.17806866656E+02  0.72461643738E+02  0.70000095674E+02 0.  0.
         12    1    1    2    0    0 -0.23723134700E+01  0.52881043418E+01  0.17806866656E+02  0.18726356262E+02  0.00000000000E+00 0. -1.
         11    1    3    3    0    0 -0.90611886473E+00 -0.70357968176E+01  0.13690365865E+02  0.15419131170E+02  0.51100000000E-03 0. -1.
        -11    1    3    3    0    0 -0.43230122881E+00  0.23236566612E+02 -0.70581406924E+01  0.24288727068E+02  0.51100000000E-03 0.  1.
         12    1    3    3    0    0  0.37107335635E+01 -0.21488874137E+02 -0.24439091828E+02  0.32753785501E+02  0.00000000000E+00 0. -1.
</event>
<event>
 7    1  0.2797450E-013  0.7246159E+02  0.7816164E-02  0.1226708E+00
        -11   -1    0    0    0    0  0.00000000000E+00  0.00000000000E+00  0.45593999997E+02  0.45594000000E+02  0.51100000000E-03 0.  1.
         11   -1    0    0    0    0 -0.00000000000E+00 -0.00000000000E+00 -0.45593999997E+02  0.45594000000E+02  0.51100000000E-03 0. -1.
    9900012    2    1    2    0    0 -0.12456914990E+02  0.13913646096E+02  0.13835664907E+01  0.72461587237E+02  0.70000022071E+02 0.  0.
         12    1    1    2    0    0  0.12456914990E+02 -0.13913646096E+02 -0.13835664907E+01  0.18726412763E+02  0.00000000000E+00 0. -1.
         11    1    3    3    0    0  0.31001963630E+01 -0.75560876013E+01  0.17187086364E+02  0.19028967793E+02  0.51100000000E-03 0. -1.
        -11    1    3    3    0    0 -0.13901359215E+02 -0.10261496549E+02  0.13364802192E+01  0.17330097492E+02  0.51100000000E-03 0.  1.
         12    1    3    3    0    0 -0.16557521375E+01  0.31731230247E+02 -0.17140000092E+02  0.36102521951E+02  0.00000000000E+00 0. -1.
</event>
<event>
 7    1  0.2797450E-013  0.7246198E+02  0.7816164E-02  0.1226707E+00
        -11   -1    0    0    0    0  0.00000000000E+00  0.00000000000E+00  0.45593999997E+02  0.45594000000E+02  0.51100000000E-03 0.  1.
         11   -1    0    0    0    0 -0.00000000000E+00 -0.00000000000E+00 -0.45593999997E+02  0.45594000000E+02  0.51100000000E-03 0. -1.
    9900012    2    1    2    0    0  0.11655121153E+02 -0.54815579405E+01  0.13593182484E+02  0.72461977021E+02  0.70000529835E+02 0.  0.
         12    1    1    2    0    0 -0.11655121153E+02  0.54815579405E+01 -0.13593182484E+02  0.18726022979E+02  0.00000000000E+00 0. -1.
         11    1    3    3    0    0 -0.48270377920E+01 -0.40891884553E+01  0.15337288177E+01  0.65095376499E+01  0.51100000000E-03 0. -1.
        -11    1    3    3    0    0 -0.16365913012E+02  0.17227985869E+02  0.14965340407E+02  0.28082165507E+02  0.51100000000E-03 0.  1.
         12    1    3    3    0    0  0.32848071957E+02 -0.18620355354E+02 -0.29058867401E+01  0.37870273864E+02  0.00000000000E+00 0. -1.
</event>
<event>
 7    1  0.2797450E-013  0.7246158E+02  0.7816164E-02  0.1226708E+00
        -11   -1    0    0    0    0  0.00000000000E+00  0.00000000000E+00  0.45593999997E+02  0.45594000000E+02  0.51100000000E-03 0.  1.
         11   -1    0    0    0    0 -0.00000000000E+00 -0.00000000000E+00 -0.45593999997E+02  0.45594000000E+02  0.51100000000E-03 0. -1.
    9900012    2    1    2    0    0 -0.80243944449E+01 -0.16892748584E+02 -0.96079438492E+00  0.72461575174E+02  0.70000006356E+02 0.  0.
         12    1    1    2    0    0  0.80243944449E+01  0.16892748584E+02  0.96079438492E+00  0.18726424826E+02  0.00000000000E+00 0. -1.
         11    1    3    3    0    0  0.74737758492E+00  0.12299423381E+01  0.30322210295E+00  0.14708077081E+01  0.51100000000E-03 0. -1.
        -11    1    3    3    0    0  0.11540964117E+02 -0.25255229647E+02  0.24768965517E+02  0.37209167289E+02  0.51100000000E-03 0.  1.
         12    1    3    3    0    0 -0.20312736147E+02  0.71325387254E+01 -0.26032982005E+02  0.33781600177E+02  0.00000000000E+00 0. -1.
</event>
<event>
 7    1  0.2797450E-013  0.7246148E+02  0.7816164E-02  0.1226708E+00
        -11   -1    0    0    0    0  0.00000000000E+00  0.00000000000E+00  0.45593999997E+02  0.45594000000E+02  0.51100000000E-03 0.  1.
         11   -1    0    0    0    0 -0.00000000000E+00 -0.00000000000E+00 -0.45593999997E+02  0.45594000000E+02  0.51100000000E-03 0. -1.
    9900012    2    1    2    0    0 -0.40910515726E+00 -0.50466649955E+01  0.18029044581E+02  0.72461477549E+02  0.69999879182E+02 0.  0.
         12    1    1    2    0    0  0.40910515726E+00  0.50466649955E+01 -0.18029044581E+02  0.18726522451E+02  0.00000000000E+00 0. -1.
         11    1    3    3    0    0  0.86721198162E+01 -0.10796764099E+02 -0.75068918969E+01  0.15752117423E+02  0.51100000000E-03 0. -1.
        -11    1    3    3    0    0 -0.15805196791E+02  0.13334231601E+02 -0.76206761526E+01  0.22038164244E+02  0.51100000000E-03 0.  1.
        -12    1    3    3    0    0  0.67239718172E+01 -0.75841324973E+01  0.33156612630E+02  0.34671195881E+02  0.00000000000E+00 0.  1.
</event>
<event>
 7    1  0.2797450E-013  0.7246158E+02  0.7816164E-02  0.1226708E+00
        -11   -1    0    0    0    0  0.00000000000E+00  0.00000000000E+00  0.45593999997E+02  0.45594000000E+02  0.51100000000E-03 0. -1.
         11   -1    0    0    0    0 -0.00000000000E+00 -0.00000000000E+00 -0.45593999997E+02  0.45594000000E+02  0.51100000000E-03 0.  1.
    9900012    2    1    2    0    0 -0.66482023859E+01  0.17490842688E+02  0.74193079185E+00  0.72461584587E+02  0.70000018619E+02 0.  0.
         12    1    1    2    0    0  0.66482023859E+01 -0.17490842688E+02 -0.74193079185E+00  0.18726415413E+02  0.00000000000E+00 0. -1.
         11    1    3    3    0    0 -0.35605517792E+01 -0.41775525835E+01  0.49101000002E+01  0.73646830776E+01  0.51100000000E-03 0. -1.
        -11    1    3    3    0    0 -0.14555260469E+02 -0.13795040471E+02 -0.16361511944E+02  0.25881611663E+02  0.51100000000E-03 0.  1.
        -12    1    3    3    0    0  0.11467609863E+02  0.35463435743E+02  0.12193342736E+02  0.39215289846E+02  0.00000000000E+00 0.  1.
</event>
<event>
 7    1  0.2797450E-013  0.7246155E+02  0.7816164E-02  0.1226708E+00
        -11   -1    0    0    0    0  0.00000000000E+00  0.00000000000E+00  0.45593999997E+02  0.45594000000E+02  0.51100000000E-03 0.  1.
         11   -1    0    0    0    0 -0.00000000000E+00 -0.00000000000E+00 -0.45593999997E+02  0.45594000000E+02  0.51100000000E-03 0. -1.
    9900012    2    1    2    0    0  0.15009664315E+02  0.73040734386E+01  0.84876696957E+01  0.72461546825E+02  0.69999969427E+02 0.  0.
         12    1    1    2    0    0 -0.15009664315E+02 -0.73040734386E+01 -0.84876696957E+01  0.18726453175E+02  0.00000000000E+00 0. -1.
         11    1    3    3    0    0  0.36873291347E+02 -0.15761235574E+01 -0.10301810051E+02  0.38317764429E+02  0.51100000000E-03 0. -1.
        -11    1    3    3    0    0 -0.89165457194E+01 -0.89612287456E-01 -0.86268389118E+00  0.89586294536E+01  0.51100000000E-03 0.  1.
        -12    1    3    3    0    0 -0.12947081313E+02  0.89698092835E+01  0.19652163637E+02  0.25185152942E+02  0.00000000000E+00 0.  1.
</event>
<event>
 7    1  0.2797450E-013  0.7246158E+02  0.7816164E-02  0.1226708E+00
        -11   -1    0    0    0    0  0.00000000000E+00  0.00000000000E+00  0.45593999997E+02  0.45594000000E+02  0.51100000000E-03 0.  1.
         11   -1    0    0    0    0 -0.00000000000E+00 -0.00000000000E+00 -0.45593999997E+02  0.45594000000E+02  0.51100000000E-03 0. -1.
    9900012    2    1    2    0    0 -0.13047938666E+02  0.13162075748E+02 -0.26813818941E+01  0.72461581488E+02  0.70000014582E+02 0.  0.
         12    1    1    2    0    0  0.13047938666E+02 -0.13162075748E+02  0.26813818941E+01  0.18726418512E+02  0.00000000000E+00 0. -1.
         11    1    3    3    0    0 -0.12061863966E+02 -0.16947934944E+02 -0.13433094435E+02  0.24762251262E+02  0.51100000000E-03 0. -1.
        -11    1    3    3    0    0 -0.11715464735E+02 -0.20277408279E+00 -0.39188192160E+01  0.12355176065E+02  0.51100000000E-03 0.  1.
        -12    1    3    3    0    0  0.10729390035E+02  0.30312784774E+02  0.14670531757E+02  0.35344154161E+02  0.00000000000E+00 0.  1.
</event>
<event>
 7    1  0.2797450E-013  0.7246155E+02  0.7816164E-02  0.1226708E+00
        -11   -1    0    0    0    0  0.00000000000E+00  0.00000000000E+00  0.45593999997E+02  0.45594000000E+02  0.51100000000E-03 0. -1.
         11   -1    0    0    0    0 -0.00000000000E+00 -0.00000000000E+00 -0.45593999997E+02  0.45594000000E+02  0.51100000000E-03 0.  1.
    9900012    2    1    2    0    0  0.17733589288E+02 -0.46345980700E+01 -0.38367112185E+01  0.72461547018E+02  0.69999969678E+02 0.  0.
         12    1    1    2    0    0 -0.17733589288E+02  0.46345980700E+01  0.38367112185E+01  0.18726452982E+02  0.00000000000E+00 0. -1.
         11    1    3    3    0    0  0.19021327711E+02 -0.10842315509E+02  0.14779196972E+01  0.21944269420E+02  0.51100000000E-03 0. -1.
        -11    1    3    3    0    0  0.19402478685E+02  0.64787967847E+00  0.12128147687E+02  0.22890344991E+02  0.51100000000E-03 0.  1.
        -12    1    3    3    0    0 -0.20690217108E+02  0.55598377604E+01 -0.17442778602E+02  0.27626932607E+02  0.00000000000E+00 0.  1.
</event>
<event>
 7    1  0.2797450E-013  0.7246158E+02  0.7816164E-02  0.1226708E+00
        -11   -1    0    0    0    0  0.00000000000E+00  0.00000000000E+00  0.45593999997E+02  0.45594000000E+02  0.51100000000E-03 0.  1.
         11   -1    0    0    0    0 -0.00000000000E+00 -0.00000000000E+00 -0.45593999997E+02  0.45594000000E+02  0.51100000000E-03 0. -1.
    9900012    2    1    2    0    0 -0.14219636557E+02  0.11983856816E+02  0.22063745476E+01  0.72461575444E+02  0.70000006708E+02 0.  0.
         12    1    1    2    0    0  0.14219636557E+02 -0.11983856816E+02 -0.22063745476E+01  0.18726424556E+02  0.00000000000E+00 0. -1.
         11    1    3    3    0    0 -0.92592228339E+01  0.79411531184E+01  0.88616402525E+00  0.12230306917E+02  0.51100000000E-03 0. -1.
        -11    1    3    3    0    0 -0.29434219448E+02  0.80459220063E+01  0.12567603491E+02  0.33000830190E+02  0.51100000000E-03 0.  1.
         12    1    3    3    0    0  0.24473805724E+02 -0.40032183086E+01 -0.11247392969E+02  0.27230438338E+02  0.00000000000E+00 0. -1.
</event>
<event>
 7    1  0.2797450E-013  0.7246154E+02  0.7816164E-02  0.1226708E+00
        -11   -1    0    0    0    0  0.00000000000E+00  0.00000000000E+00  0.45593999997E+02  0.45594000000E+02  0.51100000000E-03 0. -1.
         11   -1    0    0    0    0 -0.00000000000E+00 -0.00000000000E+00 -0.45593999997E+02  0.45594000000E+02  0.51100000000E-03 0.  1.
    9900012    2    1    2    0    0 -0.11292807399E+02  0.12553160908E+01 -0.14885466177E+02  0.72461536886E+02  0.69999956480E+02 0.  0.
         12    1    1    2    0    0  0.11292807399E+02 -0.12553160908E+01  0.14885466177E+02  0.18726463114E+02  0.00000000000E+00 0. -1.
         11    1    3    3    0    0 -0.32709025458E+01 -0.27151324924E+02 -0.14798704299E+02  0.31094933635E+02  0.51100000000E-03 0. -1.
        -11    1    3    3    0    0  0.66672428746E+01  0.75921832432E+01 -0.98246778235E+01  0.14093178085E+02  0.51100000000E-03 0.  1.
         12    1    3    3    0    0 -0.14689147728E+02  0.20814457771E+02  0.97379159462E+01  0.27273425166E+02  0.00000000000E+00 0. -1.
</event>
<event>
 7    1  0.2797450E-013  0.7246158E+02  0.7816164E-02  0.1226708E+00
        -11   -1    0    0    0    0  0.00000000000E+00  0.00000000000E+00  0.45593999997E+02  0.45594000000E+02  0.51100000000E-03 0. -1.
         11   -1    0    0    0    0 -0.00000000000E+00 -0.00000000000E+00 -0.45593999997E+02  0.45594000000E+02  0.51100000000E-03 0.  1.
    9900012    2    1    2    0    0  0.18427039599E+02  0.24224261999E+01 -0.22923744609E+01  0.72461577017E+02  0.70000008757E+02 0.  0.
         12    1    1    2    0    0 -0.18427039599E+02 -0.24224261999E+01  0.22923744609E+01  0.18726422983E+02  0.00000000000E+00 0. -1.
         11    1    3    3    0    0  0.47586095975E+01  0.79450163455E+01  0.36383661081E+01  0.99501436286E+01  0.51100000000E-03 0. -1.
        -11    1    3    3    0    0  0.26090045934E+02  0.17563848433E+02 -0.14901845108E+02  0.34802934596E+02  0.51100000000E-03 0.  1.
        -12    1    3    3    0    0 -0.12421615933E+02 -0.23086438579E+02  0.89711045390E+01  0.27708498792E+02  0.00000000000E+00 0.  1.
</event>
<event>
 7    1  0.2797450E-013  0.7246155E+02  0.7816164E-02  0.1226708E+00
        -11   -1    0    0    0    0  0.00000000000E+00  0.00000000000E+00  0.45593999997E+02  0.45594000000E+02  0.51100000000E-03 0. -1.
         11   -1    0    0    0    0 -0.00000000000E+00 -0.00000000000E+00 -0.45593999997E+02  0.45594000000E+02  0.51100000000E-03 0.  1.
    9900012    2    1    2    0    0 -0.75865655807E+01 -0.16680684556E+02  0.38572858151E+01  0.72461551634E+02  0.69999975691E+02 0.  0.
         12    1    1    2    0    0  0.75865655807E+01  0.16680684556E+02 -0.38572858151E+01  0.18726448366E+02  0.00000000000E+00 0. -1.
         11    1    3    3    0    0 -0.15294536633E+02  0.15509005472E+02  0.16535797338E+02  0.27347480605E+02  0.51100000000E-03 0. -1.
        -11    1    3    3    0    0  0.14287573696E+01  0.20224842690E+01  0.53796905267E+01  0.59222344317E+01  0.51100000000E-03 0.  1.
        -12    1    3    3    0    0  0.62792136828E+01 -0.34212174297E+02 -0.18058202050E+02  0.39191836597E+02  0.00000000000E+00 0.  1.
</event>
<event>
 7    1  0.2797450E-013  0.7246188E+02  0.7816164E-02  0.1226707E+00
        -11   -1    0    0    0    0  0.00000000000E+00  0.00000000000E+00  0.45593999997E+02  0.45594000000E+02  0.51100000000E-03 0. -1.
         11   -1    0    0    0    0 -0.00000000000E+00 -0.00000000000E+00 -0.45593999997E+02  0.45594000000E+02  0.51100000000E-03 0.  1.
    9900012    2    1    2    0    0 -0.93713975557E+01 -0.16077791790E+02  0.20854175530E+01  0.72461883281E+02  0.70000407722E+02 0.  0.
         12    1    1    2    0    0  0.93713975557E+01  0.16077791790E+02 -0.20854175530E+01  0.18726116719E+02  0.00000000000E+00 0. -1.
         11    1    3    3    0    0 -0.52636918462E+01  0.13732189550E+02 -0.43900925220E+00  0.14712994633E+02  0.51100000000E-03 0. -1.
        -11    1    3    3    0    0  0.11769262860E+02 -0.12753997545E+00 -0.15580890505E+02  0.19526801169E+02  0.51100000000E-03 0.  1.
         12    1    3    3    0    0 -0.15876968570E+02 -0.29682441365E+02  0.18105317310E+02  0.38222087479E+02  0.00000000000E+00 0. -1.
</event>
<event>
 7    1  0.2797450E-013  0.7246162E+02  0.7816164E-02  0.1226708E+00
        -11   -1    0    0    0    0  0.00000000000E+00  0.00000000000E+00  0.45593999997E+02  0.45594000000E+02  0.51100000000E-03 0.  1.
         11   -1    0    0    0    0 -0.00000000000E+00 -0.00000000000E+00 -0.45593999997E+02  0.45594000000E+02  0.51100000000E-03 0. -1.
    9900012    2    1    2    0    0 -0.11801122579E+02  0.56575675713E+01  0.13394126932E+02  0.72461622849E+02  0.70000068462E+02 0.  0.
         12    1    1    2    0    0  0.11801122579E+02 -0.56575675713E+01 -0.13394126932E+02  0.18726377151E+02  0.00000000000E+00 0. -1.
         11    1    3    3    0    0 -0.74250922473E+01  0.10449989372E+02 -0.34254484101E+00  0.12823868760E+02  0.51100000000E-03 0. -1.
        -11    1    3    3    0    0 -0.12721740966E+02  0.24275319515E+02  0.31089177592E+01  0.27582588723E+02  0.51100000000E-03 0.  1.
         12    1    3    3    0    0  0.83457106349E+01 -0.29067741316E+02  0.10627754014E+02  0.32055165365E+02  0.00000000000E+00 0. -1.
</event>
<event>
 7    1  0.2797450E-013  0.7246232E+02  0.7816164E-02  0.1226706E+00
        -11   -1    0    0    0    0  0.00000000000E+00  0.00000000000E+00  0.45593999997E+02  0.45594000000E+02  0.51100000000E-03 0.  1.
         11   -1    0    0    0    0 -0.00000000000E+00 -0.00000000000E+00 -0.45593999997E+02  0.45594000000E+02  0.51100000000E-03 0. -1.
    9900012    2    1    2    0    0  0.13796897274E+02  0.11628856207E+02  0.50066308288E+01  0.72462321819E+02  0.70000978994E+02 0.  0.
         12    1    1    2    0    0 -0.13796897274E+02 -0.11628856207E+02 -0.50066308288E+01  0.18725678181E+02  0.00000000000E+00 0. -1.
         11    1    3    3    0    0  0.26935746029E+01 -0.51752913735E+01 -0.31120710161E+01  0.66124103935E+01  0.51100000000E-03 0. -1.
        -11    1    3    3    0    0 -0.19245138807E+02 -0.11069351448E+02  0.10532100732E+02  0.24572974083E+02  0.51100000000E-03 0.  1.
         12    1    3    3    0    0  0.30348461479E+02  0.27873499029E+02 -0.24133988867E+01  0.41276937343E+02  0.00000000000E+00 0. -1.
</event>
<event>
 7    1  0.2797450E-013  0.7246161E+02  0.7816164E-02  0.1226708E+00
        -11   -1    0    0    0    0  0.00000000000E+00  0.00000000000E+00  0.45593999997E+02  0.45594000000E+02  0.51100000000E-03 0.  1.
         11   -1    0    0    0    0 -0.00000000000E+00 -0.00000000000E+00 -0.45593999997E+02  0.45594000000E+02  0.51100000000E-03 0. -1.
    9900012    2    1    2    0    0 -0.35403604666E+01  0.12212296949E+02  0.13747843347E+02  0.72461613651E+02  0.70000056480E+02 0.  0.
         12    1    1    2    0    0  0.35403604666E+01 -0.12212296949E+02 -0.13747843347E+02  0.18726386349E+02  0.00000000000E+00 0. -1.
         11    1    3    3    0    0 -0.15069151731E+02  0.26232870906E+01 -0.15387408148E+02  0.21696389073E+02  0.51100000000E-03 0. -1.
        -11    1    3    3    0    0 -0.83223907086E+01 -0.10225725354E+02  0.12426081816E+02  0.18117261263E+02  0.51100000000E-03 0.  1.
         12    1    3    3    0    0  0.19851181973E+02  0.19814735212E+02  0.16709169679E+02  0.32647963315E+02  0.00000000000E+00 0. -1.
</event>
<event>
 7    1  0.2797450E-013  0.7246166E+02  0.7816164E-02  0.1226708E+00
        -11   -1    0    0    0    0  0.00000000000E+00  0.00000000000E+00  0.45593999997E+02  0.45594000000E+02  0.51100000000E-03 0. -1.
         11   -1    0    0    0    0 -0.00000000000E+00 -0.00000000000E+00 -0.45593999997E+02  0.45594000000E+02  0.51100000000E-03 0.  1.
    9900012    2    1    2    0    0  0.66562666947E+01  0.10980353040E+02 -0.13630918058E+02  0.72461655821E+02  0.70000111414E+02 0.  0.
         12    1    1    2    0    0 -0.66562666947E+01 -0.10980353040E+02  0.13630918058E+02  0.18726344179E+02  0.00000000000E+00 0. -1.
         11    1    3    3    0    0 -0.11542735861E+02  0.63638739455E+00  0.11134099265E+02  0.16050168435E+02  0.51100000000E-03 0. -1.
        -11    1    3    3    0    0  0.15556490801E+02  0.25633955700E+02 -0.36473262562E+01  0.30206076871E+02  0.51100000000E-03 0.  1.
        -12    1    3    3    0    0  0.26425117544E+01 -0.15289990054E+02 -0.21117691068E+02  0.26205410515E+02  0.00000000000E+00 0.  1.
</event>
<event>
 7    1  0.2797450E-013  0.7246132E+02  0.7816164E-02  0.1226709E+00
        -11   -1    0    0    0    0  0.00000000000E+00  0.00000000000E+00  0.45593999997E+02  0.45594000000E+02  0.51100000000E-03 0. -1.
         11   -1    0    0    0    0 -0.00000000000E+00 -0.00000000000E+00 -0.45593999997E+02  0.45594000000E+02  0.51100000000E-03 0.  1.
    9900012    2    1    2    0    0  0.15254133335E+02 -0.97738196423E+01 -0.47405054105E+01  0.72461320482E+02  0.69999674573E+02 0.  0.
         12    1    1    2    0    0 -0.15254133335E+02  0.97738196423E+01  0.47405054105E+01  0.18726679518E+02  0.00000000000E+00 0. -1.
         11    1    3    3    0    0  0.98985036601E+01 -0.14789114624E+02 -0.56540016827E+01  0.18672600819E+02  0.51100000000E-03 0. -1.
        -11    1    3    3    0    0 -0.12220571949E+01 -0.39971519735E+01 -0.25119806078E+02  0.25465178290E+02  0.51100000000E-03 0.  1.
         12    1    3    3    0    0  0.65776868703E+01  0.90124469551E+01  0.26033302350E+02  0.28323541373E+02  0.00000000000E+00 0. -1.
</event>
<event>
 7    1  0.2797450E-013  0.7246171E+02  0.7816164E-02  0.1226708E+00
        -11   -1    0    0    0    0  0.00000000000E+00  0.00000000000E+00  0.45593999997E+02  0.45594000000E+02  0.51100000000E-03 0. -1.
         11   -1    0    0    0    0 -0.00000000000E+00 -0.00000000000E+00 -0.45593999997E+02  0.45594000000E+02  0.51100000000E-03 0.  1.
    9900012    2    1    2    0    0  0.16091873304E+02 -0.78453205616E+01 -0.54933055738E+01  0.72461712400E+02  0.70000185119E+02 0.  0.
         12    1    1    2    0    0 -0.16091873304E+02  0.78453205616E+01  0.54933055738E+01  0.18726287600E+02  0.00000000000E+00 0. -1.
         11    1    3    3    0    0  0.21757936044E+02 -0.23263406189E+02  0.64012610525E+01  0.32489536650E+02  0.51100000000E-03 0. -1.
        -11    1    3    3    0    0  0.58464382986E+01  0.22031094380E+02 -0.13668136557E+02  0.26577582989E+02  0.51100000000E-03 0.  1.
         12    1    3    3    0    0 -0.11512501039E+02 -0.66130087527E+01  0.17735699304E+01  0.13394592761E+02  0.00000000000E+00 0. -1.
</event>
<event>
 7    1  0.2797450E-013  0.7246104E+02  0.7816164E-02  0.1226709E+00
        -11   -1    0    0    0    0  0.00000000000E+00  0.00000000000E+00  0.45593999997E+02  0.45594000000E+02  0.51100000000E-03 0. -1.
         11   -1    0    0    0    0 -0.00000000000E+00 -0.00000000000E+00 -0.45593999997E+02  0.45594000000E+02  0.51100000000E-03 0.  1.
    9900012    2    1    2    0    0  0.34591518899E+01 -0.10009844263E+01 -0.18377471784E+02  0.72461036263E+02  0.69999304322E+02 0.  0.
         12    1    1    2    0    0 -0.34591518899E+01  0.10009844263E+01  0.18377471784E+02  0.18726963737E+02  0.00000000000E+00 0. -1.
         11    1    3    3    0    0 -0.91307156493E+01  0.90789758607E+01 -0.18920563670E+02  0.22886360584E+02  0.51100000000E-03 0. -1.
        -11    1    3    3    0    0 -0.10742795459E+01 -0.62863257010E+01 -0.22020158905E+02  0.22925081588E+02  0.51100000000E-03 0.  1.
         12    1    3    3    0    0  0.13664147085E+02 -0.37936345860E+01  0.22563250791E+02  0.26649594091E+02  0.00000000000E+00 0. -1.
</event>
<event>
 7    1  0.2797450E-013  0.7246161E+02  0.7816164E-02  0.1226708E+00
        -11   -1    0    0    0    0  0.00000000000E+00  0.00000000000E+00  0.45593999997E+02  0.45594000000E+02  0.51100000000E-03 0. -1.
         11   -1    0    0    0    0 -0.00000000000E+00 -0.00000000000E+00 -0.45593999997E+02  0.45594000000E+02  0.51100000000E-03 0.  1.
    9900012    2    1    2    0    0  0.24994602702E+01 -0.27476979123E+01 -0.18354307717E+02  0.72461608003E+02  0.70000049122E+02 0.  0.
         12    1    1    2    0    0 -0.24994602702E+01  0.27476979123E+01  0.18354307717E+02  0.18726391997E+02  0.00000000000E+00 0. -1.
         11    1    3    3    0    0  0.84087027376E+01 -0.31835248167E+01 -0.37514545098E+01  0.97424084901E+01  0.51100000000E-03 0. -1.
        -11    1    3    3    0    0 -0.24318641807E+01  0.89397797925E+01 -0.37194425404E+02  0.38330913210E+02  0.51100000000E-03 0.  1.
         12    1    3    3    0    0 -0.34773782868E+01 -0.85039528881E+01  0.22591572196E+02  0.24388286303E+02  0.00000000000E+00 0. -1.
</event>
<event>
 7    1  0.2797450E-013  0.7246158E+02  0.7816164E-02  0.1226708E+00
        -11   -1    0    0    0    0  0.00000000000E+00  0.00000000000E+00  0.45593999997E+02  0.45594000000E+02  0.51100000000E-03 0.  1.
         11   -1    0    0    0    0 -0.00000000000E+00 -0.00000000000E+00 -0.45593999997E+02  0.45594000000E+02  0.51100000000E-03 0. -1.
    9900012    2    1    2    0    0 -0.53641811855E+01  0.95347073703E+01  0.15198472119E+02  0.72461584455E+02  0.70000018447E+02 0.  0.
         12    1    1    2    0    0  0.53641811855E+01 -0.95347073703E+01 -0.15198472119E+02  0.18726415545E+02  0.00000000000E+00 0. -1.
         11    1    3    3    0    0 -0.17545906681E+02 -0.74128081917E+01 -0.18444219244E+02  0.26514105497E+02  0.51100000000E-03 0. -1.
        -11    1    3    3    0    0  0.15073543106E+02  0.10197089936E+02  0.91341618689E+01  0.20362349035E+02  0.51100000000E-03 0.  1.
        -12    1    3    3    0    0 -0.28918176099E+01  0.67504256264E+01  0.24508529493E+02  0.25585129923E+02  0.00000000000E+00 0.  1.
</event>
<event>
 7    1  0.2797450E-013  0.7246154E+02  0.7816164E-02  0.1226708E+00
        -11   -1    0    0    0    0  0.00000000000E+00  0.00000000000E+00  0.45593999997E+02  0.45594000000E+02  0.51100000000E-03 0.  1.
         11   -1    0    0    0    0 -0.00000000000E+00 -0.00000000000E+00 -0.45593999997E+02  0.45594000000E+02  0.51100000000E-03 0. -1.
    9900012    2    1    2    0    0 -0.83908956617E+01 -0.76287101027E+01  0.14902215981E+02  0.72461537734E+02  0.69999957585E+02 0.  0.
         12    1    1    2    0    0  0.83908956617E+01  0.76287101027E+01 -0.14902215981E+02  0.18726462266E+02  0.00000000000E+00 0. -1.
         11    1    3    3    0    0  0.40002353197E+01  0.74003995855E+01 -0.79243620177E+01  0.11556959388E+02  0.51100000000E-03 0. -1.
        -11    1    3    3    0    0  0.86189626641E+01  0.16412069687E+02  0.57178257731E+01  0.19399383512E+02  0.51100000000E-03 0.  1.
        -12    1    3    3    0    0 -0.21010093646E+02 -0.31441179375E+02  0.17108752226E+02  0.41505194834E+02  0.00000000000E+00 0.  1.
</event>
<event>
 7    1  0.2797450E-013  0.7246154E+02  0.7816164E-02  0.1226708E+00
        -11   -1    0    0    0    0  0.00000000000E+00  0.00000000000E+00  0.45593999997E+02  0.45594000000E+02  0.51100000000E-03 0.  1.
         11   -1    0    0    0    0 -0.00000000000E+00 -0.00000000000E+00 -0.45593999997E+02  0.45594000000E+02  0.51100000000E-03 0. -1.
    9900012    2    1    2    0    0  0.13821431349E+02  0.28131001714E+01  0.12318073500E+02  0.72461536590E+02  0.69999956094E+02 0.  0.
         12    1    1    2    0    0 -0.13821431349E+02 -0.28131001714E+01 -0.12318073500E+02  0.18726463410E+02  0.00000000000E+00 0. -1.
         11    1    3    3    0    0  0.14362025295E+02  0.27110610315E+00 -0.11553650115E+02  0.18434427041E+02  0.51100000000E-03 0. -1.
        -11    1    3    3    0    0 -0.28602295192E+01 -0.83081957439E+01 -0.12905420185E+02  0.15612715966E+02  0.51100000000E-03 0.  1.
        -12    1    3    3    0    0  0.23196355728E+01  0.10850189812E+02  0.36777143801E+02  0.38414393582E+02  0.00000000000E+00 0.  1.
</event>
<event>
 7    1  0.2797450E-013  0.7246149E+02  0.7816164E-02  0.1226708E+00
        -11   -1    0    0    0    0  0.00000000000E+00  0.00000000000E+00  0.45593999997E+02  0.45594000000E+02  0.51100000000E-03 0.  1.
         11   -1    0    0    0    0 -0.00000000000E+00 -0.00000000000E+00 -0.45593999997E+02  0.45594000000E+02  0.51100000000E-03 0. -1.
    9900012    2    1    2    0    0  0.38400489343E+01  0.79666164807E+01  0.16506644564E+02  0.72461487545E+02  0.69999892203E+02 0.  0.
         12    1    1    2    0    0 -0.38400489343E+01 -0.79666164807E+01 -0.16506644564E+02  0.18726512455E+02  0.00000000000E+00 0. -1.
         11    1    3    3    0    0 -0.41429897980E+01 -0.50727114307E+01  0.21664929301E+02  0.22633292461E+02  0.51100000000E-03 0. -1.
        -11    1    3    3    0    0  0.32166321273E+01  0.39235157410E+01  0.21060846556E+02  0.21663332060E+02  0.51100000000E-03 0.  1.
         12    1    3    3    0    0  0.47664066049E+01  0.91158121703E+01 -0.26219131293E+02  0.28164863024E+02  0.00000000000E+00 0. -1.
</event>
<event>
 7    1  0.2797450E-013  0.7246156E+02  0.7816164E-02  0.1226708E+00
        -11   -1    0    0    0    0  0.00000000000E+00  0.00000000000E+00  0.45593999997E+02  0.45594000000E+02  0.51100000000E-03 0.  1.
         11   -1    0    0    0    0 -0.00000000000E+00 -0.00000000000E+00 -0.45593999997E+02  0.45594000000E+02  0.51100000000E-03 0. -1.
    9900012    2    1    2    0    0 -0.83742547037E+01 -0.11790372599E+02  0.11896997720E+02  0.72461559264E+02  0.69999985631E+02 0.  0.
         12    1    1    2    0    0  0.83742547037E+01  0.11790372599E+02 -0.11896997720E+02  0.18726440736E+02  0.00000000000E+00 0. -1.
         11    1    3    3    0    0  0.18096013315E+02  0.10041074706E+02  0.42091890312E+00  0.20699421541E+02  0.51100000000E-03 0. -1.
        -11    1    3    3    0    0 -0.78472514692E+01  0.14233220466E+01 -0.11600502381E+02  0.14077530218E+02  0.51100000000E-03 0.  1.
        -12    1    3    3    0    0 -0.18623016550E+02 -0.23254769351E+02  0.23076581199E+02  0.37684607505E+02  0.00000000000E+00 0.  1.
</event>
<event>
 7    1  0.2797450E-013  0.7246158E+02  0.7816164E-02  0.1226708E+00
        -11   -1    0    0    0    0  0.00000000000E+00  0.00000000000E+00  0.45593999997E+02  0.45594000000E+02  0.51100000000E-03 0. -1.
         11   -1    0    0    0    0 -0.00000000000E+00 -0.00000000000E+00 -0.45593999997E+02  0.45594000000E+02  0.51100000000E-03 0.  1.
    9900012    2    1    2    0    0  0.14468242082E+02 -0.87378961170E+01 -0.80621395566E+01  0.72461576110E+02  0.70000007576E+02 0.  0.
         12    1    1    2    0    0 -0.14468242082E+02  0.87378961170E+01  0.80621395566E+01  0.18726423890E+02  0.00000000000E+00 0. -1.
         11    1    3    3    0    0  0.10649550330E+02 -0.11940316471E+02 -0.40286935849E+01  0.16498922751E+02  0.51100000000E-03 0. -1.
        -11    1    3    3    0    0  0.29652925109E+02  0.37480183687E+01 -0.37315931220E+01  0.30120896346E+02  0.51100000000E-03 0.  1.
         12    1    3    3    0    0 -0.25834233358E+02 -0.54559801419E+00 -0.30185284972E+00  0.25841757013E+02  0.00000000000E+00 0. -1.
</event>
<event>
 7    1  0.2797450E-013  0.7246189E+02  0.7816164E-02  0.1226707E+00
        -11   -1    0    0    0    0  0.00000000000E+00  0.00000000000E+00  0.45593999997E+02  0.45594000000E+02  0.51100000000E-03 0.  1.
         11   -1    0    0    0    0 -0.00000000000E+00 -0.00000000000E+00 -0.45593999997E+02  0.45594000000E+02  0.51100000000E-03 0. -1.
    9900012    2    1    2    0    0 -0.50211425480E+01 -0.16197792252E+02  0.79427163661E+01  0.72461892834E+02  0.70000420166E+02 0.  0.
         12    1    1    2    0    0  0.50211425480E+01  0.16197792252E+02 -0.79427163661E+01  0.18726107166E+02  0.00000000000E+00 0. -1.
         11    1    3    3    0    0  0.15073548077E+02 -0.27716897143E+02  0.12595271489E+02  0.33971739770E+02  0.51100000000E-03 0. -1.
        -11    1    3    3    0    0  0.44942104574E+01  0.85896453608E+01 -0.91404629618E+01  0.13323963317E+02  0.51100000000E-03 0.  1.
        -12    1    3    3    0    0 -0.24588901083E+02  0.29294595297E+01  0.44879078391E+01  0.25166189747E+02  0.00000000000E+00 0.  1.
</event>
<event>
 7    1  0.2797450E-013  0.7246158E+02  0.7816164E-02  0.1226708E+00
        -11   -1    0    0    0    0  0.00000000000E+00  0.00000000000E+00  0.45593999997E+02  0.45594000000E+02  0.51100000000E-03 0. -1.
         11   -1    0    0    0    0 -0.00000000000E+00 -0.00000000000E+00 -0.45593999997E+02  0.45594000000E+02  0.51100000000E-03 0.  1.
    9900012    2    1    2    0    0 -0.15766944371E+01 -0.68849041411E+01 -0.17343327478E+02  0.72461578068E+02  0.70000010126E+02 0.  0.
         12    1    1    2    0    0  0.15766944371E+01  0.68849041411E+01  0.17343327478E+02  0.18726421932E+02  0.00000000000E+00 0. -1.
         11    1    3    3    0    0 -0.36588039888E+01 -0.12054389942E+02 -0.87882645032E+01  0.15359972550E+02  0.51100000000E-03 0. -1.
        -11    1    3    3    0    0 -0.22185316983E+02 -0.54014734849E+01 -0.17918162515E+02  0.29024554322E+02  0.51100000000E-03 0.  1.
         12    1    3    3    0    0  0.24267426535E+02  0.10570959286E+02  0.93630995399E+01  0.28077051195E+02  0.00000000000E+00 0. -1.
</event>
<event>
 7    1  0.2797450E-013  0.7246162E+02  0.7816164E-02  0.1226708E+00
        -11   -1    0    0    0    0  0.00000000000E+00  0.00000000000E+00  0.45593999997E+02  0.45594000000E+02  0.51100000000E-03 0. -1.
         11   -1    0    0    0    0 -0.00000000000E+00 -0.00000000000E+00 -0.45593999997E+02  0.45594000000E+02  0.51100000000E-03 0.  1.
    9900012    2    1    2    0    0  0.91447679088E+01 -0.38818050484E+01 -0.15873941815E+02  0.72461622366E+02  0.70000067833E+02 0.  0.
         12    1    1    2    0    0 -0.91447679088E+01  0.38818050484E+01  0.15873941815E+02  0.18726377634E+02  0.00000000000E+00 0. -1.
         11    1    3    3    0    0  0.82973014194E+01 -0.26445525794E+02  0.13655295300E+02  0.30897866194E+02  0.51100000000E-03 0. -1.
        -11    1    3    3    0    0  0.27392714531E+01 -0.27285256083E+01 -0.33887919756E+01  0.51412422044E+01  0.51100000000E-03 0.  1.
         12    1    3    3    0    0 -0.18918049638E+01  0.25292246354E+02 -0.26140445139E+02  0.36422513968E+02  0.00000000000E+00 0. -1.
</event>
<event>
 7    1  0.2797450E-013  0.7246157E+02  0.7816164E-02  0.1226708E+00
        -11   -1    0    0    0    0  0.00000000000E+00  0.00000000000E+00  0.45593999997E+02  0.45594000000E+02  0.51100000000E-03 0. -1.
         11   -1    0    0    0    0 -0.00000000000E+00 -0.00000000000E+00 -0.45593999997E+02  0.45594000000E+02  0.51100000000E-03 0.  1.
    9900012    2    1    2    0    0  0.19114108138E+01  0.15232316647E+02 -0.10723905548E+02  0.72461571832E+02  0.70000002003E+02 0.  0.
         12    1    1    2    0    0 -0.19114108138E+01 -0.15232316647E+02  0.10723905548E+02  0.18726428168E+02  0.00000000000E+00 0. -1.
         11    1    3    3    0    0  0.30038400212E+01  0.60624278823E+01  0.84005827154E+01  0.10786374596E+02  0.51100000000E-03 0. -1.
        -11    1    3    3    0    0 -0.25681815833E+02  0.18223109000E+02 -0.49280122340E+01  0.31873541864E+02  0.51100000000E-03 0.  1.
        -12    1    3    3    0    0  0.24589386626E+02 -0.90532202356E+01 -0.14196476029E+02  0.29801655372E+02  0.00000000000E+00 0.  1.
</event>
<event>
 7    1  0.2797450E-013  0.7246156E+02  0.7816164E-02  0.1226708E+00
        -11   -1    0    0    0    0  0.00000000000E+00  0.00000000000E+00  0.45593999997E+02  0.45594000000E+02  0.51100000000E-03 0. -1.
         11   -1    0    0    0    0 -0.00000000000E+00 -0.00000000000E+00 -0.45593999997E+02  0.45594000000E+02  0.51100000000E-03 0.  1.
    9900012    2    1    2    0    0  0.65741032227E+01  0.11598653788E+02 -0.13150355880E+02  0.72461562468E+02  0.69999989805E+02 0.  0.
         12    1    1    2    0    0 -0.65741032227E+01 -0.11598653788E+02  0.13150355880E+02  0.18726437532E+02  0.00000000000E+00 0. -1.
         11    1    3    3    0    0  0.20787250270E+02 -0.13337723222E+02 -0.18834617646E+01  0.24769983104E+02  0.51100000000E-03 0. -1.
        -11    1    3    3    0    0 -0.10275805467E+02 -0.67023928352E+01 -0.99252829989E+01  0.15780541518E+02  0.51100000000E-03 0.  1.
         12    1    3    3    0    0 -0.39373415795E+01  0.31638769845E+02 -0.13416111163E+01  0.31911037846E+02  0.00000000000E+00 0. -1.
</event>
<event>
 7    1  0.2797450E-013  0.7246164E+02  0.7816164E-02  0.1226708E+00
        -11   -1    0    0    0    0  0.00000000000E+00  0.00000000000E+00  0.45593999997E+02  0.45594000000E+02  0.51100000000E-03 0.  1.
         11   -1    0    0    0    0 -0.00000000000E+00 -0.00000000000E+00 -0.45593999997E+02  0.45594000000E+02  0.51100000000E-03 0. -1.
    9900012    2    1    2    0    0  0.90591094108E+01 -0.43410707604E+01 -0.15803931476E+02  0.72461638668E+02  0.70000089069E+02 0.  0.
         12    1    1    2    0    0 -0.90591094108E+01  0.43410707604E+01  0.15803931476E+02  0.18726361332E+02  0.00000000000E+00 0. -1.
         11    1    3    3    0    0  0.11738841221E+02 -0.45385725203E+01 -0.16018692149E+02  0.20371488217E+02  0.51100000000E-03 0. -1.
        -11    1    3    3    0    0  0.14524291404E+02  0.16964671321E+02  0.11977224324E+02  0.25341843196E+02  0.51100000000E-03 0.  1.
        -12    1    3    3    0    0 -0.17204023214E+02 -0.16767169561E+02 -0.11762463651E+02  0.26748307254E+02  0.00000000000E+00 0.  1.
</event>
<event>
 7    1  0.2797450E-013  0.7246166E+02  0.7816164E-02  0.1226708E+00
        -11   -1    0    0    0    0  0.00000000000E+00  0.00000000000E+00  0.45593999997E+02  0.45594000000E+02  0.51100000000E-03 0.  1.
         11   -1    0    0    0    0 -0.00000000000E+00 -0.00000000000E+00 -0.45593999997E+02  0.45594000000E+02  0.51100000000E-03 0. -1.
    9900012    2    1    2    0    0  0.72552669355E+01 -0.78776521001E+01  0.15361623527E+02  0.72461660841E+02  0.70000117953E+02 0.  0.
         12    1    1    2    0    0 -0.72552669355E+01  0.78776521001E+01 -0.15361623527E+02  0.18726339159E+02  0.00000000000E+00 0. -1.
         11    1    3    3    0    0  0.55517676561E+01 -0.38717494018E+02  0.73155772422E+01  0.39791759672E+02  0.51100000000E-03 0. -1.
        -11    1    3    3    0    0 -0.90941057464E+00  0.20595267982E+01 -0.89037493430E+00  0.24210423397E+01  0.51100000000E-03 0.  1.
        -12    1    3    3    0    0  0.26129098541E+01  0.28780315119E+02  0.89364212194E+01  0.30248858829E+02  0.00000000000E+00 0.  1.
</event>
<event>
 7    1  0.2797450E-013  0.7246156E+02  0.7816164E-02  0.1226708E+00
        -11   -1    0    0    0    0  0.00000000000E+00  0.00000000000E+00  0.45593999997E+02  0.45594000000E+02  0.51100000000E-03 0. -1.
         11   -1    0    0    0    0 -0.00000000000E+00 -0.00000000000E+00 -0.45593999997E+02  0.45594000000E+02  0.51100000000E-03 0.  1.
    9900012    2    1    2    0    0  0.95566702893E+01  0.10215391909E+02 -0.12449719866E+02  0.72461556034E+02  0.69999981424E+02 0.  0.
         12    1    1    2    0    0 -0.95566702893E+01 -0.10215391909E+02  0.12449719866E+02  0.18726443966E+02  0.00000000000E+00 0. -1.
         11    1    3    3    0    0 -0.21949467747E+02  0.16011029226E+02 -0.10093029760E+02  0.28982778356E+02  0.51100000000E-03 0. -1.
        -11    1    3    3    0    0  0.13193640532E+02  0.94586991292E+01 -0.92293199814E+01  0.18674032433E+02  0.51100000000E-03 0.  1.
         12    1    3    3    0    0  0.18312497504E+02 -0.15254336447E+02  0.68726298755E+01  0.24804745245E+02  0.00000000000E+00 0. -1.
</event>
<event>
 7    1  0.2797450E-013  0.7246154E+02  0.7816164E-02  0.1226708E+00
        -11   -1    0    0    0    0  0.00000000000E+00  0.00000000000E+00  0.45593999997E+02  0.45594000000E+02  0.51100000000E-03 0.  1.
         11   -1    0    0    0    0 -0.00000000000E+00 -0.00000000000E+00 -0.45593999997E+02  0.45594000000E+02  0.51100000000E-03 0. -1.
    9900012    2    1    2    0    0  0.11752627357E+02 -0.13417649141E+02  0.57028774125E+01  0.72461538267E+02  0.69999958279E+02 0.  0.
         12    1    1    2    0    0 -0.11752627357E+02  0.13417649141E+02 -0.57028774125E+01  0.18726461733E+02  0.00000000000E+00 0. -1.
         11    1    3    3    0    0 -0.11926166089E+02  0.98118041734E+01  0.73230981920E+01  0.17091890069E+02  0.51100000000E-03 0. -1.
        -11    1    3    3    0    0  0.95514891624E+01  0.12248861435E+02  0.55887687321E+01  0.16507570623E+02  0.51100000000E-03 0.  1.
        -12    1    3    3    0    0  0.14127304284E+02 -0.35478314749E+02 -0.72089895116E+01  0.38862077576E+02  0.00000000000E+00 0.  1.
</event>
<event>
 7    1  0.2797450E-013  0.7246158E+02  0.7816164E-02  0.1226708E+00
        -11   -1    0    0    0    0  0.00000000000E+00  0.00000000000E+00  0.45593999997E+02  0.45594000000E+02  0.51100000000E-03 0. -1.
         11   -1    0    0    0    0 -0.00000000000E+00 -0.00000000000E+00 -0.45593999997E+02  0.45594000000E+02  0.51100000000E-03 0.  1.
    9900012    2    1    2    0    0 -0.48831717712E+01 -0.17998385199E+02 -0.17004499996E+01  0.72461581054E+02  0.70000014017E+02 0.  0.
         12    1    1    2    0    0  0.48831717712E+01  0.17998385199E+02  0.17004499996E+01  0.18726418946E+02  0.00000000000E+00 0. -1.
         11    1    3    3    0    0 -0.97029935476E+01 -0.98393543132E+01  0.66714863370E+01  0.15345022232E+02  0.51100000000E-03 0. -1.
        -11    1    3    3    0    0 -0.15270587831E+02 -0.40352133789E+01  0.17844691843E+02  0.23830795768E+02  0.51100000000E-03 0.  1.
         12    1    3    3    0    0  0.20090409607E+02 -0.41238175070E+01 -0.26216628179E+02  0.33285763055E+02  0.00000000000E+00 0. -1.
</event>
<event>
 7    1  0.2797450E-013  0.7246153E+02  0.7816164E-02  0.1226708E+00
        -11   -1    0    0    0    0  0.00000000000E+00  0.00000000000E+00  0.45593999997E+02  0.45594000000E+02  0.51100000000E-03 0.  1.
         11   -1    0    0    0    0 -0.00000000000E+00 -0.00000000000E+00 -0.45593999997E+02  0.45594000000E+02  0.51100000000E-03 0. -1.
    9900012    2    1    2    0    0  0.65997899165E+01  0.14245499625E+02  0.10207302790E+02  0.72461534323E+02  0.69999953141E+02 0.  0.
         12    1    1    2    0    0 -0.65997899165E+01 -0.14245499625E+02 -0.10207302790E+02  0.18726465677E+02  0.00000000000E+00 0. -1.
         11    1    3    3    0    0  0.86422527217E+00  0.12726969435E+02  0.20944614734E+02  0.24523448430E+02  0.51100000000E-03 0. -1.
        -11    1    3    3    0    0 -0.84515070785E+01  0.60040520038E+01  0.14985389532E+02  0.18221923940E+02  0.51100000000E-03 0.  1.
         12    1    3    3    0    0  0.14187071723E+02 -0.44855218137E+01 -0.25722701476E+02  0.29716161953E+02  0.00000000000E+00 0. -1.
</event>
<event>
 7    1  0.2797450E-013  0.7246153E+02  0.7816164E-02  0.1226708E+00
        -11   -1    0    0    0    0  0.00000000000E+00  0.00000000000E+00  0.45593999997E+02  0.45594000000E+02  0.51100000000E-03 0.  1.
         11   -1    0    0    0    0 -0.00000000000E+00 -0.00000000000E+00 -0.45593999997E+02  0.45594000000E+02  0.51100000000E-03 0. -1.
    9900012    2    1    2    0    0 -0.79769863132E+01 -0.74183333838E+01  0.15232088702E+02  0.72461534582E+02  0.69999953477E+02 0.  0.
         12    1    1    2    0    0  0.79769863132E+01  0.74183333838E+01 -0.15232088702E+02  0.18726465418E+02  0.00000000000E+00 0. -1.
         11    1    3    3    0    0 -0.12111889313E+02 -0.18850512708E+02 -0.15516668723E+02  0.27254480376E+02  0.51100000000E-03 0. -1.
        -11    1    3    3    0    0 -0.28046213760E-02 -0.83600953342E+01 -0.54336076095E-01  0.83602723958E+01  0.51100000000E-03 0.  1.
        -12    1    3    3    0    0  0.41377076210E+01  0.19792274658E+02  0.30803093501E+02  0.36846781810E+02  0.00000000000E+00 0.  1.
</event>
<event>
 7    1  0.2797450E-013  0.7246151E+02  0.7816164E-02  0.1226708E+00
        -11   -1    0    0    0    0  0.00000000000E+00  0.00000000000E+00  0.45593999997E+02  0.45594000000E+02  0.51100000000E-03 0. -1.
         11   -1    0    0    0    0 -0.00000000000E+00 -0.00000000000E+00 -0.45593999997E+02  0.45594000000E+02  0.51100000000E-03 0.  1.
    9900012    2    1    2    0    0 -0.11906635238E+02 -0.12321427227E+02 -0.75561914400E+01  0.72461506450E+02  0.69999916831E+02 0.  0.
         12    1    1    2    0    0  0.11906635238E+02  0.12321427227E+02  0.75561914400E+01  0.18726493550E+02  0.00000000000E+00 0. -1.
         11    1    3    3    0    0 -0.83105212512E+01 -0.35879821847E+02 -0.63145454495E+01  0.37367096003E+02  0.51100000000E-03 0. -1.
        -11    1    3    3    0    0 -0.97162285124E+01  0.71381652862E+01 -0.98517689280E+01  0.15569709420E+02  0.51100000000E-03 0.  1.
        -12    1    3    3    0    0  0.61201145256E+01  0.16420229334E+02  0.86101229375E+01  0.19524701027E+02  0.00000000000E+00 0.  1.
</event>
<event>
 7    1  0.2797450E-013  0.7246161E+02  0.7816164E-02  0.1226708E+00
        -11   -1    0    0    0    0  0.00000000000E+00  0.00000000000E+00  0.45593999997E+02  0.45594000000E+02  0.51100000000E-03 0.  1.
         11   -1    0    0    0    0 -0.00000000000E+00 -0.00000000000E+00 -0.45593999997E+02  0.45594000000E+02  0.51100000000E-03 0. -1.
    9900012    2    1    2    0    0 -0.16194779561E+01 -0.17126049001E+02 -0.73995509528E+01  0.72461611733E+02  0.70000053981E+02 0.  0.
         12    1    1    2    0    0  0.16194779561E+01  0.17126049001E+02  0.73995509528E+01  0.18726388267E+02  0.00000000000E+00 0. -1.
         11    1    3    3    0    0 -0.22771013268E+02 -0.37411400272E+00 -0.24033023146E+02  0.33109593902E+02  0.51100000000E-03 0. -1.
        -11    1    3    3    0    0 -0.49961787680E+01 -0.11253725102E+01  0.14874573399E+01  0.53329912027E+01  0.51100000000E-03 0.  1.
        -12    1    3    3    0    0  0.26147714080E+02 -0.15626562488E+02  0.15146014853E+02  0.34019026628E+02  0.00000000000E+00 0.  1.
</event>
<event>
 7    1  0.2797450E-013  0.7246184E+02  0.7816164E-02  0.1226707E+00
        -11   -1    0    0    0    0  0.00000000000E+00  0.00000000000E+00  0.45593999997E+02  0.45594000000E+02  0.51100000000E-03 0.  1.
         11   -1    0    0    0    0 -0.00000000000E+00 -0.00000000000E+00 -0.45593999997E+02  0.45594000000E+02  0.51100000000E-03 0. -1.
    9900012    2    1    2    0    0 -0.31274968741E+01 -0.76787717551E+01 -0.16790604076E+02  0.72461837616E+02  0.70000348236E+02 0.  0.
         12    1    1    2    0    0  0.31274968741E+01  0.76787717551E+01  0.16790604076E+02  0.18726162384E+02  0.00000000000E+00 0. -1.
         11    1    3    3    0    0  0.70281497360E+01  0.31595687176E+01 -0.64051813003E+01  0.10020185175E+02  0.51100000000E-03 0. -1.
        -11    1    3    3    0    0 -0.26842314326E+02  0.15048002316E+02 -0.53540136922E+01  0.31234879141E+02  0.51100000000E-03 0.  1.
         12    1    3    3    0    0  0.16686667716E+02 -0.25886342789E+02 -0.50314090840E+01  0.31206773300E+02  0.00000000000E+00 0. -1.
</event>
<event>
 7    1  0.3280279E-013  0.7246154E+02  0.7816164E-02  0.1226708E+00
        -11   -1    0    0    0    0  0.00000000000E+00  0.00000000000E+00  0.45593999997E+02  0.45594000000E+02  0.51100000000E-03 0.  1.
         11   -1    0    0    0    0 -0.00000000000E+00 -0.00000000000E+00 -0.45593999997E+02  0.45594000000E+02  0.51100000000E-03 0. -1.
    9900012    2    1    2    0    0 -0.15554857786E+02  0.41068588989E+00  0.10419120431E+02  0.72461539198E+02  0.69999959491E+02 0.  0.
         12    1    1    2    0    0  0.15554857786E+02 -0.41068588989E+00 -0.10419120431E+02  0.18726460802E+02  0.00000000000E+00 0. -1.
         11    1    3    3    0    0  0.37143271916E+00 -0.21937988418E+02 -0.15030532046E+02  0.26595679949E+02  0.51100000000E-03 0. -1.
        -11    1    3    3    0    0 -0.74197734005E+00  0.59771973240E+01 -0.51916510045E+01  0.79517707862E+01  0.51100000000E-03 0.  1.
        -12    1    3    3    0    0 -0.15184313165E+02  0.16371476984E+02  0.30641303481E+02  0.37914088463E+02  0.00000000000E+00 0.  1.
</event>
<event>
 7    1  0.2797450E-013  0.7246155E+02  0.7816164E-02  0.1226708E+00
        -11   -1    0    0    0    0  0.00000000000E+00  0.00000000000E+00  0.45593999997E+02  0.45594000000E+02  0.51100000000E-03 0.  1.
         11   -1    0    0    0    0 -0.00000000000E+00 -0.00000000000E+00 -0.45593999997E+02  0.45594000000E+02  0.51100000000E-03 0. -1.
    9900012    2    1    2    0    0  0.81185385111E+01  0.61280000110E+01  0.15723129481E+02  0.72461552062E+02  0.69999976249E+02 0.  0.
         12    1    1    2    0    0 -0.81185385111E+01 -0.61280000110E+01 -0.15723129481E+02  0.18726447938E+02  0.00000000000E+00 0. -1.
         11    1    3    3    0    0  0.15352666862E+02  0.20261119049E+02  0.91422537631E+00  0.25437239103E+02  0.51100000000E-03 0. -1.
        -11    1    3    3    0    0 -0.50012854288E-01  0.11674601050E+02  0.16465175049E+02  0.20184172032E+02  0.51100000000E-03 0.  1.
        -12    1    3    3    0    0 -0.71841154967E+01 -0.25807720087E+02 -0.16562709447E+01  0.26840140927E+02  0.00000000000E+00 0.  1.
</event>
<event>
 7    1  0.2797450E-013  0.7246155E+02  0.7816164E-02  0.1226708E+00
        -11   -1    0    0    0    0  0.00000000000E+00  0.00000000000E+00  0.45593999997E+02  0.45594000000E+02  0.51100000000E-03 0.  1.
         11   -1    0    0    0    0 -0.00000000000E+00 -0.00000000000E+00 -0.45593999997E+02  0.45594000000E+02  0.51100000000E-03 0. -1.
    9900012    2    1    2    0    0  0.12487796752E+01  0.13482697968E+00  0.18684277224E+02  0.72461552275E+02  0.69999976527E+02 0.  0.
         12    1    1    2    0    0 -0.12487796752E+01 -0.13482697968E+00 -0.18684277224E+02  0.18726447725E+02  0.00000000000E+00 0. -1.
         11    1    3    3    0    0 -0.24105946480E+01  0.13422716237E+02  0.91812672350E+01  0.16440071351E+02  0.51100000000E-03 0. -1.
        -11    1    3    3    0    0 -0.19261148856E+02  0.23740658190E+01 -0.10252957541E+02  0.21948831002E+02  0.51100000000E-03 0.  1.
        -12    1    3    3    0    0  0.22920523179E+02 -0.15661955076E+02  0.19755967530E+02  0.34072649922E+02  0.00000000000E+00 0.  1.
</event>
<event>
 7    1  0.2797450E-013  0.7246152E+02  0.7816164E-02  0.1226708E+00
        -11   -1    0    0    0    0  0.00000000000E+00  0.00000000000E+00  0.45593999997E+02  0.45594000000E+02  0.51100000000E-03 0.  1.
         11   -1    0    0    0    0 -0.00000000000E+00 -0.00000000000E+00 -0.45593999997E+02  0.45594000000E+02  0.51100000000E-03 0. -1.
    9900012    2    1    2    0    0  0.24754571371E+01 -0.18453642719E+02  0.20041009437E+01  0.72461515059E+02  0.69999928046E+02 0.  0.
         12    1    1    2    0    0 -0.24754571371E+01  0.18453642719E+02 -0.20041009437E+01  0.18726484941E+02  0.00000000000E+00 0. -1.
         11    1    3    3    0    0 -0.33457091209E+01  0.49133659639E+00  0.37516705094E+01  0.50507636100E+01  0.51100000000E-03 0. -1.
        -11    1    3    3    0    0  0.78779554212E+01  0.12668542083E+02  0.22859350443E+02  0.27296593983E+02  0.51100000000E-03 0.  1.
         12    1    3    3    0    0 -0.20567891632E+01 -0.31613521399E+02 -0.24606920009E+02  0.40114157466E+02  0.00000000000E+00 0. -1.
</event>
<event>
 7    1  0.2797450E-013  0.7246142E+02  0.7816164E-02  0.1226708E+00
        -11   -1    0    0    0    0  0.00000000000E+00  0.00000000000E+00  0.45593999997E+02  0.45594000000E+02  0.51100000000E-03 0.  1.
         11   -1    0    0    0    0 -0.00000000000E+00 -0.00000000000E+00 -0.45593999997E+02  0.45594000000E+02  0.51100000000E-03 0. -1.
    9900012    2    1    2    0    0 -0.14829654882E+01  0.98130492066E+01  0.15880485560E+02  0.72461416142E+02  0.69999799188E+02 0.  0.
         12    1    1    2    0    0  0.14829654882E+01 -0.98130492066E+01 -0.15880485560E+02  0.18726583858E+02  0.00000000000E+00 0. -1.
         11    1    3    3    0    0 -0.55367867404E+01  0.10238337458E+02 -0.68298091784E+01  0.13495401254E+02  0.51100000000E-03 0. -1.
        -11    1    3    3    0    0  0.26204627663E+02  0.12094558218E+02  0.13953610417E+02  0.32057200336E+02  0.51100000000E-03 0.  1.
         12    1    3    3    0    0 -0.22150806411E+02 -0.12519846470E+02  0.87566843214E+01  0.26908814552E+02  0.00000000000E+00 0. -1.
</event>
<event>
 7    1  0.2797450E-013  0.7246155E+02  0.7816164E-02  0.1226708E+00
        -11   -1    0    0    0    0  0.00000000000E+00  0.00000000000E+00  0.45593999997E+02  0.45594000000E+02  0.51100000000E-03 0. -1.
         11   -1    0    0    0    0 -0.00000000000E+00 -0.00000000000E+00 -0.45593999997E+02  0.45594000000E+02  0.51100000000E-03 0.  1.
    9900012    2    1    2    0    0  0.18289646433E+02  0.21336971758E+01  0.34082250290E+01  0.72461552709E+02  0.69999977092E+02 0.  0.
         12    1    1    2    0    0 -0.18289646433E+02 -0.21336971758E+01 -0.34082250290E+01  0.18726447291E+02  0.00000000000E+00 0. -1.
         11    1    3    3    0    0  0.12507233244E+02  0.13563512233E+02  0.61362382922E+01  0.19443589384E+02  0.51100000000E-03 0. -1.
        -11    1    3    3    0    0 -0.42879521845E+01  0.19731091335E+02 -0.14979437646E+01  0.20247131525E+02  0.51100000000E-03 0.  1.
        -12    1    3    3    0    0  0.10070365374E+02 -0.31160906392E+02 -0.12300694985E+01  0.32770831800E+02  0.00000000000E+00 0.  1.
</event>
<event>
 7    1  0.2797450E-013  0.7246158E+02  0.7816164E-02  0.1226708E+00
        -11   -1    0    0    0    0  0.00000000000E+00  0.00000000000E+00  0.45593999997E+02  0.45594000000E+02  0.51100000000E-03 0.  1.
         11   -1    0    0    0    0 -0.00000000000E+00 -0.00000000000E+00 -0.45593999997E+02  0.45594000000E+02  0.51100000000E-03 0. -1.
    9900012    2    1    2    0    0  0.78860241794E+01  0.14972306447E+02  0.80199499124E+01  0.72461576575E+02  0.70000008182E+02 0.  0.
         12    1    1    2    0    0 -0.78860241794E+01 -0.14972306447E+02 -0.80199499124E+01  0.18726423425E+02  0.00000000000E+00 0. -1.
         11    1    3    3    0    0 -0.76659792470E+01 -0.51080099459E+01  0.50840110489E+01  0.10521700054E+02  0.51100000000E-03 0. -1.
        -11    1    3    3    0    0 -0.20179749778E+02  0.85138152679E+01 -0.71714553448E+01  0.23046412379E+02  0.51100000000E-03 0.  1.
        -12    1    3    3    0    0  0.35731753204E+02  0.11566501125E+02  0.10107394208E+02  0.38893464142E+02  0.00000000000E+00 0.  1.
</event>
<event>
 7    1  0.2797450E-013  0.7246150E+02  0.7816164E-02  0.1226708E+00
        -11   -1    0    0    0    0  0.00000000000E+00  0.00000000000E+00  0.45593999997E+02  0.45594000000E+02  0.51100000000E-03 0.  1.
         11   -1    0    0    0    0 -0.00000000000E+00 -0.00000000000E+00 -0.45593999997E+02  0.45594000000E+02  0.51100000000E-03 0. -1.
    9900012    2    1    2    0    0  0.17573728100E+02 -0.63777124972E+01 -0.10819979465E+01  0.72461498576E+02  0.69999906573E+02 0.  0.
         12    1    1    2    0    0 -0.17573728100E+02  0.63777124972E+01  0.10819979465E+01  0.18726501424E+02  0.00000000000E+00 0. -1.
         11    1    3    3    0    0  0.23327522589E+01 -0.34240126095E+01 -0.47263031146E+01  0.62851839148E+01  0.51100000000E-03 0. -1.
        -11    1    3    3    0    0  0.82135148477E+01 -0.30672030257E+02 -0.11558307286E+02  0.33790971188E+02  0.51100000000E-03 0.  1.
         12    1    3    3    0    0  0.70274609937E+01  0.27718330369E+02  0.15202612454E+02  0.32385343473E+02  0.00000000000E+00 0. -1.
</event>
<event>
 7    1  0.2797450E-013  0.7246158E+02  0.7816164E-02  0.1226708E+00
        -11   -1    0    0    0    0  0.00000000000E+00  0.00000000000E+00  0.45593999997E+02  0.45594000000E+02  0.51100000000E-03 0.  1.
         11   -1    0    0    0    0 -0.00000000000E+00 -0.00000000000E+00 -0.45593999997E+02  0.45594000000E+02  0.51100000000E-03 0. -1.
    9900012    2    1    2    0    0  0.33507227747E+01  0.84183428444E+01  0.16388500048E+02  0.72461580876E+02  0.70000013785E+02 0.  0.
         12    1    1    2    0    0 -0.33507227747E+01 -0.84183428444E+01 -0.16388500048E+02  0.18726419124E+02  0.00000000000E+00 0. -1.
         11    1    3    3    0    0  0.54693452173E+01  0.29565167841E+01 -0.10162200814E+02  0.11913230219E+02  0.51100000000E-03 0. -1.
        -11    1    3    3    0    0 -0.63840638395E+01  0.28220409407E+02  0.23335916650E+02  0.37171397396E+02  0.51100000000E-03 0.  1.
         12    1    3    3    0    0  0.42654413969E+01 -0.22758583347E+02  0.32147842121E+01  0.23376953261E+02  0.00000000000E+00 0. -1.
</event>
<event>
 7    1  0.2797450E-013  0.7246165E+02  0.7816164E-02  0.1226708E+00
        -11   -1    0    0    0    0  0.00000000000E+00  0.00000000000E+00  0.45593999997E+02  0.45594000000E+02  0.51100000000E-03 0.  1.
         11   -1    0    0    0    0 -0.00000000000E+00 -0.00000000000E+00 -0.45593999997E+02  0.45594000000E+02  0.51100000000E-03 0. -1.
    9900012    2    1    2    0    0 -0.60490677251E+01  0.12061045233E+01  0.17681356179E+02  0.72461647852E+02  0.70000101033E+02 0.  0.
         12    1    1    2    0    0  0.60490677251E+01 -0.12061045233E+01 -0.17681356179E+02  0.18726352148E+02  0.00000000000E+00 0. -1.
         11    1    3    3    0    0 -0.20375707346E+02  0.13036755516E+02 -0.28782503750E+01  0.24360024009E+02  0.51100000000E-03 0. -1.
        -11    1    3    3    0    0 -0.83924372786E+01 -0.14380289094E+01 -0.69132058681E+01  0.10967832341E+02  0.51100000000E-03 0.  1.
        -12    1    3    3    0    0  0.22719076900E+02 -0.10392622083E+02  0.27472812422E+02  0.37133791502E+02  0.00000000000E+00 0.  1.
</event>
<event>
 7    1  0.2797450E-013  0.7246159E+02  0.7816164E-02  0.1226708E+00
        -11   -1    0    0    0    0  0.00000000000E+00  0.00000000000E+00  0.45593999997E+02  0.45594000000E+02  0.51100000000E-03 0.  1.
         11   -1    0    0    0    0 -0.00000000000E+00 -0.00000000000E+00 -0.45593999997E+02  0.45594000000E+02  0.51100000000E-03 0. -1.
    9900012    2    1    2    0    0  0.73691738714E+01  0.25825044078E+01  0.17020709656E+02  0.72461585241E+02  0.70000019470E+02 0.  0.
         12    1    1    2    0    0 -0.73691738714E+01 -0.25825044078E+01 -0.17020709656E+02  0.18726414759E+02  0.00000000000E+00 0. -1.
         11    1    3    3    0    0  0.15834503670E+00  0.35527688689E+01 -0.24316952613E+01  0.43081761676E+01  0.51100000000E-03 0. -1.
        -11    1    3    3    0    0  0.21336546123E+02  0.25396185875E+02  0.13640421329E+01  0.33197516001E+02  0.51100000000E-03 0.  1.
        -12    1    3    3    0    0 -0.14125717289E+02 -0.26366450336E+02  0.18088362784E+02  0.34955893072E+02  0.00000000000E+00 0.  1.
</event>
<event>
 7    1  0.2797450E-013  0.7246163E+02  0.7816164E-02  0.1226708E+00
        -11   -1    0    0    0    0  0.00000000000E+00  0.00000000000E+00  0.45593999997E+02  0.45594000000E+02  0.51100000000E-03 0. -1.
         11   -1    0    0    0    0 -0.00000000000E+00 -0.00000000000E+00 -0.45593999997E+02  0.45594000000E+02  0.51100000000E-03 0.  1.
    9900012    2    1    2    0    0  0.57122538774E+01 -0.76679919980E+01 -0.16101209211E+02  0.72461631327E+02  0.70000079506E+02 0.  0.
         12    1    1    2    0    0 -0.57122538774E+01  0.76679919980E+01  0.16101209211E+02  0.18726368673E+02  0.00000000000E+00 0. -1.
         11    1    3    3    0    0  0.86268204438E+01  0.25407086546E+01 -0.78056498388E+01  0.11908207300E+02  0.51100000000E-03 0. -1.
        -11    1    3    3    0    0  0.91481582555E+00  0.87143887629E+01 -0.30147058051E+02  0.31394626434E+02  0.51100000000E-03 0.  1.
         12    1    3    3    0    0 -0.38293823919E+01 -0.18923089415E+02  0.21851498679E+02  0.29158797593E+02  0.00000000000E+00 0. -1.
</event>
<event>
 7    1  0.2797450E-013  0.7246171E+02  0.7816164E-02  0.1226708E+00
        -11   -1    0    0    0    0  0.00000000000E+00  0.00000000000E+00  0.45593999997E+02  0.45594000000E+02  0.51100000000E-03 0.  1.
         11   -1    0    0    0    0 -0.00000000000E+00 -0.00000000000E+00 -0.45593999997E+02  0.45594000000E+02  0.51100000000E-03 0. -1.
    9900012    2    1    2    0    0  0.18661954234E+02 -0.68273916510E-01 -0.15494306600E+01  0.72461710124E+02  0.70000182154E+02 0.  0.
         12    1    1    2    0    0 -0.18661954234E+02  0.68273916510E-01  0.15494306600E+01  0.18726289876E+02  0.00000000000E+00 0. -1.
         11    1    3    3    0    0  0.21868834349E+01  0.61835454893E+01 -0.14890997411E+02  0.16271462692E+02  0.51100000000E-03 0. -1.
        -11    1    3    3    0    0 -0.12039332695E+02  0.13331539902E+01 -0.12180199764E+02  0.17177895618E+02  0.51100000000E-03 0.  1.
         12    1    3    3    0    0  0.28514403494E+02 -0.75849733960E+01  0.25521766515E+02  0.39012351814E+02  0.00000000000E+00 0. -1.
</event>
<event>
 7    1  0.2797450E-013  0.7246174E+02  0.7816164E-02  0.1226708E+00
        -11   -1    0    0    0    0  0.00000000000E+00  0.00000000000E+00  0.45593999997E+02  0.45594000000E+02  0.51100000000E-03 0. -1.
         11   -1    0    0    0    0 -0.00000000000E+00 -0.00000000000E+00 -0.45593999997E+02  0.45594000000E+02  0.51100000000E-03 0.  1.
    9900012    2    1    2    0    0  0.83277777726E+01 -0.64759860932E+01 -0.15471997724E+02  0.72461735234E+02  0.70000214865E+02 0.  0.
         12    1    1    2    0    0 -0.83277777726E+01  0.64759860932E+01  0.15471997724E+02  0.18726264766E+02  0.00000000000E+00 0. -1.
         11    1    3    3    0    0 -0.10154981964E+02 -0.12781694994E+01  0.15790292208E+02  0.18817298006E+02  0.51100000000E-03 0. -1.
        -11    1    3    3    0    0  0.38071066976E+01  0.11841286322E+02  0.28746569176E+01  0.12766118275E+02  0.51100000000E-03 0.  1.
        -12    1    3    3    0    0  0.14675653039E+02 -0.17039102915E+02 -0.34136946849E+02  0.40878318954E+02  0.00000000000E+00 0.  1.
</event>
<event>
 7    1  0.2797450E-013  0.7246150E+02  0.7816164E-02  0.1226708E+00
        -11   -1    0    0    0    0  0.00000000000E+00  0.00000000000E+00  0.45593999997E+02  0.45594000000E+02  0.51100000000E-03 0.  1.
         11   -1    0    0    0    0 -0.00000000000E+00 -0.00000000000E+00 -0.45593999997E+02  0.45594000000E+02  0.51100000000E-03 0. -1.
    9900012    2    1    2    0    0 -0.66297893685E+01  0.16759769818E+02  0.50830767988E+01  0.72461503767E+02  0.69999913336E+02 0.  0.
         12    1    1    2    0    0  0.66297893685E+01 -0.16759769818E+02 -0.50830767988E+01  0.18726496233E+02  0.00000000000E+00 0. -1.
         11    1    3    3    0    0  0.62097616573E+01  0.99485932366E+01  0.23836723604E+01  0.11967353150E+02  0.51100000000E-03 0. -1.
        -11    1    3    3    0    0 -0.41586136664E+01  0.32126952211E+02  0.76289028994E+01  0.33281155114E+02  0.51100000000E-03 0.  1.
         12    1    3    3    0    0 -0.86809373594E+01 -0.25315775630E+02 -0.49294984610E+01  0.27212995503E+02  0.00000000000E+00 0. -1.
</event>
<event>
 7    1  0.2797450E-013  0.7246157E+02  0.7816164E-02  0.1226708E+00
        -11   -1    0    0    0    0  0.00000000000E+00  0.00000000000E+00  0.45593999997E+02  0.45594000000E+02  0.51100000000E-03 0.  1.
         11   -1    0    0    0    0 -0.00000000000E+00 -0.00000000000E+00 -0.45593999997E+02  0.45594000000E+02  0.51100000000E-03 0. -1.
    9900012    2    1    2    0    0  0.14061681991E+02  0.85009442903E+01  0.89823211976E+01  0.72461573530E+02  0.70000004215E+02 0.  0.
         12    1    1    2    0    0 -0.14061681991E+02 -0.85009442903E+01 -0.89823211976E+01  0.18726426470E+02  0.00000000000E+00 0. -1.
         11    1    3    3    0    0 -0.56182819461E+01  0.18240581712E+01  0.41318726436E+01  0.72086511944E+01  0.51100000000E-03 0. -1.
        -11    1    3    3    0    0  0.35368106114E+02 -0.11292839515E+02  0.14035090014E+02  0.39691496650E+02  0.51100000000E-03 0.  1.
         12    1    3    3    0    0 -0.15688142176E+02  0.17969725634E+02 -0.91846414598E+01  0.25561425685E+02  0.00000000000E+00 0. -1.
</event>
<event>
 7    1  0.2797450E-013  0.7246161E+02  0.7816164E-02  0.1226708E+00
        -11   -1    0    0    0    0  0.00000000000E+00  0.00000000000E+00  0.45593999997E+02  0.45594000000E+02  0.51100000000E-03 0.  1.
         11   -1    0    0    0    0 -0.00000000000E+00 -0.00000000000E+00 -0.45593999997E+02  0.45594000000E+02  0.51100000000E-03 0. -1.
    9900012    2    1    2    0    0  0.24272434677E+01  0.52381678287E+00  0.18561023720E+02  0.72461614967E+02  0.70000058195E+02 0.  0.
         12    1    1    2    0    0 -0.24272434677E+01 -0.52381678287E+00 -0.18561023720E+02  0.18726385033E+02  0.00000000000E+00 0. -1.
         11    1    3    3    0    0 -0.20470646040E+02 -0.20434625113E+02  0.88600382094E+01  0.30250975689E+02  0.51100000000E-03 0. -1.
        -11    1    3    3    0    0  0.74878426918E+01  0.21428171880E+00  0.14129413617E+02  0.15992311723E+02  0.51100000000E-03 0.  1.
        -12    1    3    3    0    0  0.15410046816E+02  0.20744160177E+02 -0.44284281067E+01  0.26218327555E+02  0.00000000000E+00 0.  1.
</event>
<event>
 7    1  0.2797450E-013  0.7246136E+02  0.7816164E-02  0.1226709E+00
        -11   -1    0    0    0    0  0.00000000000E+00  0.00000000000E+00  0.45593999997E+02  0.45594000000E+02  0.51100000000E-03 0. -1.
         11   -1    0    0    0    0 -0.00000000000E+00 -0.00000000000E+00 -0.45593999997E+02  0.45594000000E+02  0.51100000000E-03 0.  1.
    9900012    2    1    2    0    0  0.17603859722E+02  0.58752279532E+01 -0.25045629343E+01  0.72461360790E+02  0.69999727081E+02 0.  0.
         12    1    1    2    0    0 -0.17603859722E+02 -0.58752279532E+01  0.25045629343E+01  0.18726639210E+02  0.00000000000E+00 0. -1.
         11    1    3    3    0    0 -0.70670786368E+01 -0.17949048695E+02  0.18371117676E+01  0.19377485116E+02  0.51100000000E-03 0. -1.
        -11    1    3    3    0    0 -0.98101835936E+01 -0.13237527682E+01  0.14870349123E+01  0.10010159670E+02  0.51100000000E-03 0.  1.
        -12    1    3    3    0    0  0.34481121953E+02  0.25148029416E+02 -0.58287096142E+01  0.43073716004E+02  0.00000000000E+00 0.  1.
</event>
<event>
 7    1  0.2797450E-013  0.7246156E+02  0.7816164E-02  0.1226708E+00
        -11   -1    0    0    0    0  0.00000000000E+00  0.00000000000E+00  0.45593999997E+02  0.45594000000E+02  0.51100000000E-03 0. -1.
         11   -1    0    0    0    0 -0.00000000000E+00 -0.00000000000E+00 -0.45593999997E+02  0.45594000000E+02  0.51100000000E-03 0.  1.
    9900012    2    1    2    0    0 -0.17539123298E+02  0.44545030821E+01 -0.48183020826E+01  0.72461562039E+02  0.69999989245E+02 0.  0.
         12    1    1    2    0    0  0.17539123298E+02 -0.44545030821E+01  0.48183020826E+01  0.18726437961E+02  0.00000000000E+00 0. -1.
         11    1    3    3    0    0 -0.28660465390E+02 -0.89957730010E+01  0.64355931105E+01  0.30720726997E+02  0.51100000000E-03 0. -1.
        -11    1    3    3    0    0 -0.10427253149E+02  0.14377032054E+02 -0.93956767883E+01  0.20092421494E+02  0.51100000000E-03 0.  1.
         12    1    3    3    0    0  0.21548595241E+02 -0.92675597085E+00 -0.18582184048E+01  0.21648413548E+02  0.00000000000E+00 0. -1.
</event>
<event>
 7    1  0.2797450E-013  0.7246135E+02  0.7816164E-02  0.1226709E+00
        -11   -1    0    0    0    0  0.00000000000E+00  0.00000000000E+00  0.45593999997E+02  0.45594000000E+02  0.51100000000E-03 0.  1.
         11   -1    0    0    0    0 -0.00000000000E+00 -0.00000000000E+00 -0.45593999997E+02  0.45594000000E+02  0.51100000000E-03 0. -1.
    9900012    2    1    2    0    0  0.14470324681E+02  0.31522588657E+01  0.11461249630E+02  0.72461353866E+02  0.69999718061E+02 0.  0.
         12    1    1    2    0    0 -0.14470324681E+02 -0.31522588657E+01 -0.11461249630E+02  0.18726646134E+02  0.00000000000E+00 0. -1.
         11    1    3    3    0    0  0.11701965252E+02  0.10255315788E+02  0.33416459611E+01  0.15914587354E+02  0.51100000000E-03 0. -1.
        -11    1    3    3    0    0  0.10274967795E+02  0.86384282743E+01  0.27422887451E+02  0.30532149657E+02  0.51100000000E-03 0.  1.
         12    1    3    3    0    0 -0.75066083654E+01 -0.15741485196E+02 -0.19303283782E+02  0.26014616855E+02  0.00000000000E+00 0. -1.
</event>
<event>
 7    1  0.2797450E-013  0.7246158E+02  0.7816164E-02  0.1226708E+00
        -11   -1    0    0    0    0  0.00000000000E+00  0.00000000000E+00  0.45593999997E+02  0.45594000000E+02  0.51100000000E-03 0. -1.
         11   -1    0    0    0    0 -0.00000000000E+00 -0.00000000000E+00 -0.45593999997E+02  0.45594000000E+02  0.51100000000E-03 0.  1.
    9900012    2    1    2    0    0 -0.84234209306E+01  0.95974319165E+01 -0.13697230946E+02  0.72461578688E+02  0.70000010935E+02 0.  0.
         12    1    1    2    0    0  0.84234209306E+01 -0.95974319165E+01  0.13697230946E+02  0.18726421312E+02  0.00000000000E+00 0. -1.
         11    1    3    3    0    0  0.69102901684E+01 -0.39905869787E+00  0.15766106901E+02  0.17218637726E+02  0.51100000000E-03 0. -1.
        -11    1    3    3    0    0  0.71690247950E+01  0.11191822774E+02  0.48867558235E+01  0.14160939102E+02  0.51100000000E-03 0.  1.
        -12    1    3    3    0    0 -0.22502735894E+02 -0.11953321600E+01 -0.34350093670E+02  0.41082001860E+02  0.00000000000E+00 0.  1.
</event>
<event>
 7    1  0.2797450E-013  0.7246154E+02  0.7816164E-02  0.1226708E+00
        -11   -1    0    0    0    0  0.00000000000E+00  0.00000000000E+00  0.45593999997E+02  0.45594000000E+02  0.51100000000E-03 0. -1.
         11   -1    0    0    0    0 -0.00000000000E+00 -0.00000000000E+00 -0.45593999997E+02  0.45594000000E+02  0.51100000000E-03 0.  1.
    9900012    2    1    2    0    0 -0.15256621065E+02  0.59365963510E+01 -0.90924440276E+01  0.72461542755E+02  0.69999964125E+02 0.  0.
         12    1    1    2    0    0  0.15256621065E+02 -0.59365963510E+01  0.90924440276E+01  0.18726457245E+02  0.00000000000E+00 0. -1.
         11    1    3    3    0    0  0.48079859223E+01 -0.69235517910E+01  0.10655287119E+02  0.13586296106E+02  0.51100000000E-03 0.  1.
        -11    1    3    3    0    0 -0.68842043980E+01  0.60721314524E+01  0.16961002555E+02  0.19285711252E+02  0.51100000000E-03 0. -1.
        -12    1    3    3    0    0 -0.13180402589E+02  0.67880166896E+01 -0.36708733701E+02  0.39589535397E+02  0.00000000000E+00 0.  1.
</event>
<event>
 7    1  0.2797450E-013  0.7246154E+02  0.7816164E-02  0.1226708E+00
        -11   -1    0    0    0    0  0.00000000000E+00  0.00000000000E+00  0.45593999997E+02  0.45594000000E+02  0.51100000000E-03 0.  1.
         11   -1    0    0    0    0 -0.00000000000E+00 -0.00000000000E+00 -0.45593999997E+02  0.45594000000E+02  0.51100000000E-03 0. -1.
    9900012    2    1    2    0    0 -0.16047033330E+02 -0.47299826002E+01  0.84142885339E+01  0.72461541029E+02  0.69999961876E+02 0.  0.
         12    1    1    2    0    0  0.16047033330E+02  0.47299826002E+01 -0.84142885339E+01  0.18726458971E+02  0.00000000000E+00 0. -1.
         11    1    3    3    0    0  0.74794791498E+01  0.10862773563E+02 -0.37391707404E-01  0.13188777663E+02  0.51100000000E-03 0. -1.
        -11    1    3    3    0    0 -0.21402345726E+02  0.14905904373E+02  0.11587666911E+02  0.28539804001E+02  0.51100000000E-03 0.  1.
         12    1    3    3    0    0 -0.21241667536E+01 -0.30498660536E+02 -0.31359866699E+01  0.30732959364E+02  0.00000000000E+00 0. -1.
</event>
<event>
 7    1  0.2797450E-013  0.7246159E+02  0.7816164E-02  0.1226708E+00
        -11   -1    0    0    0    0  0.00000000000E+00  0.00000000000E+00  0.45593999997E+02  0.45594000000E+02  0.51100000000E-03 0.  1.
         11   -1    0    0    0    0 -0.00000000000E+00 -0.00000000000E+00 -0.45593999997E+02  0.45594000000E+02  0.51100000000E-03 0. -1.
    9900012    2    1    2    0    0 -0.10452473938E+02  0.15473555790E+02  0.14118743987E+01  0.72461587382E+02  0.70000022260E+02 0.  0.
         12    1    1    2    0    0  0.10452473938E+02 -0.15473555790E+02 -0.14118743987E+01  0.18726412618E+02  0.00000000000E+00 0. -1.
         11    1    3    3    0    0  0.92682370730E+01 -0.82890285647E+01 -0.15154619657E+02  0.19602824037E+02  0.51100000000E-03 0. -1.
        -11    1    3    3    0    0 -0.46627988699E+01  0.23912833083E+02  0.25566256795E+02  0.35315701410E+02  0.51100000000E-03 0.  1.
         12    1    3    3    0    0 -0.15057912141E+02 -0.15024872741E+00 -0.89997627387E+01  0.17543061935E+02  0.00000000000E+00 0. -1.
</event>
<event>
 7    1  0.2797450E-013  0.7246156E+02  0.7816164E-02  0.1226708E+00
        -11   -1    0    0    0    0  0.00000000000E+00  0.00000000000E+00  0.45593999997E+02  0.45594000000E+02  0.51100000000E-03 0. -1.
         11   -1    0    0    0    0 -0.00000000000E+00 -0.00000000000E+00 -0.45593999997E+02  0.45594000000E+02  0.51100000000E-03 0.  1.
    9900012    2    1    2    0    0 -0.10440045949E+02  0.14577273805E+02 -0.54025911803E+01  0.72461562472E+02  0.69999989811E+02 0.  0.
         12    1    1    2    0    0  0.10440045949E+02 -0.14577273805E+02  0.54025911803E+01  0.18726437528E+02  0.00000000000E+00 0. -1.
         11    1    3    3    0    0 -0.11081894564E+02  0.48928432874E+01 -0.74548216599E-01  0.12114200768E+02  0.51100000000E-03 0. -1.
        -11    1    3    3    0    0 -0.28145235899E+02  0.12041751468E+02  0.15642274573E+01  0.30652975223E+02  0.51100000000E-03 0.  1.
         12    1    3    3    0    0  0.28787084514E+02 -0.23573209502E+01 -0.68922704211E+01  0.29694386481E+02  0.00000000000E+00 0. -1.
</event>
<event>
 7    1  0.2797450E-013  0.7246151E+02  0.7816164E-02  0.1226708E+00
        -11   -1    0    0    0    0  0.00000000000E+00  0.00000000000E+00  0.45593999997E+02  0.45594000000E+02  0.51100000000E-03 0.  1.
         11   -1    0    0    0    0 -0.00000000000E+00 -0.00000000000E+00 -0.45593999997E+02  0.45594000000E+02  0.51100000000E-03 0. -1.
    9900012    2    1    2    0    0  0.14783282644E+02 -0.39399417540E+01  0.10798740253E+02  0.72461511333E+02  0.69999923191E+02 0.  0.
         12    1    1    2    0    0 -0.14783282644E+02  0.39399417540E+01 -0.10798740253E+02  0.18726488667E+02  0.00000000000E+00 0. -1.
         11    1    3    3    0    0  0.67957720389E+01 -0.55682170350E+01 -0.14938136423E+02  0.17330189803E+02  0.51100000000E-03 0. -1.
        -11    1    3    3    0    0  0.26413283825E+02  0.90414662441E+01  0.95392090942E+01  0.29502647079E+02  0.51100000000E-03 0.  1.
        -12    1    3    3    0    0 -0.18425773220E+02 -0.74131909631E+01  0.16197667582E+02  0.25628674451E+02  0.00000000000E+00 0.  1.
</event>
<event>
 7    1  0.2797450E-013  0.7246156E+02  0.7816164E-02  0.1226708E+00
        -11   -1    0    0    0    0  0.00000000000E+00  0.00000000000E+00  0.45593999997E+02  0.45594000000E+02  0.51100000000E-03 0.  1.
         11   -1    0    0    0    0 -0.00000000000E+00 -0.00000000000E+00 -0.45593999997E+02  0.45594000000E+02  0.51100000000E-03 0. -1.
    9900012    2    1    2    0    0  0.17249197895E+02  0.65377889058E+01  0.32251948298E+01  0.72461564314E+02  0.69999992210E+02 0.  0.
         12    1    1    2    0    0 -0.17249197895E+02 -0.65377889058E+01 -0.32251948298E+01  0.18726435686E+02  0.00000000000E+00 0. -1.
         11    1    3    3    0    0 -0.14900522174E+02  0.66735763223E+00 -0.19981004939E+02  0.24934142975E+02  0.51100000000E-03 0. -1.
        -11    1    3    3    0    0  0.10827975437E+01  0.33229748815E+01  0.14849851877E+02  0.15255579754E+02  0.51100000000E-03 0.  1.
        -12    1    3    3    0    0  0.31066922525E+02  0.25474563921E+01  0.83563478912E+01  0.32271841586E+02  0.00000000000E+00 0.  1.
</event>
<event>
 7    1  0.2797450E-013  0.7246154E+02  0.7816164E-02  0.1226708E+00
        -11   -1    0    0    0    0  0.00000000000E+00  0.00000000000E+00  0.45593999997E+02  0.45594000000E+02  0.51100000000E-03 0. -1.
         11   -1    0    0    0    0 -0.00000000000E+00 -0.00000000000E+00 -0.45593999997E+02  0.45594000000E+02  0.51100000000E-03 0.  1.
    9900012    2    1    2    0    0  0.15009107548E+02 -0.59567293270E+01 -0.94828437499E+01  0.72461541198E+02  0.69999962097E+02 0.  0.
         12    1    1    2    0    0 -0.15009107548E+02  0.59567293270E+01  0.94828437499E+01  0.18726458802E+02  0.00000000000E+00 0. -1.
         11    1    3    3    0    0 -0.10810143492E+02  0.94904189062E+01 -0.18724775429E+01  0.14506323646E+02  0.51100000000E-03 0. -1.
        -11    1    3    3    0    0  0.28116727355E+02  0.11470372830E+02 -0.54701463274E+01  0.30855182889E+02  0.51100000000E-03 0.  1.
         12    1    3    3    0    0 -0.22974763147E+01 -0.26917521063E+02 -0.21402198797E+01  0.27100034663E+02  0.00000000000E+00 0. -1.
</event>
<event>
 7    1  0.2797450E-013  0.7246156E+02  0.7816164E-02  0.1226708E+00
        -11   -1    0    0    0    0  0.00000000000E+00  0.00000000000E+00  0.45593999997E+02  0.45594000000E+02  0.51100000000E-03 0. -1.
         11   -1    0    0    0    0 -0.00000000000E+00 -0.00000000000E+00 -0.45593999997E+02  0.45594000000E+02  0.51100000000E-03 0.  1.
    9900012    2    1    2    0    0  0.17228783273E+02  0.93753621532E+00 -0.72780152458E+01  0.72461562722E+02  0.69999990135E+02 0.  0.
         12    1    1    2    0    0 -0.17228783273E+02 -0.93753621532E+00  0.72780152458E+01  0.18726437278E+02  0.00000000000E+00 0. -1.
         11    1    3    3    0    0  0.27199743493E+02 -0.57808403985E+01  0.20357021262E+02  0.34462334174E+02  0.51100000000E-03 0. -1.
        -11    1    3    3    0    0 -0.78104301284E+00 -0.40928501789E+01  0.23805059331E+01  0.47987768789E+01  0.51100000000E-03 0.  1.
        -12    1    3    3    0    0 -0.91899172068E+01  0.10811226793E+02 -0.30015542441E+02  0.33200451669E+02  0.00000000000E+00 0.  1.
</event>
<event>
 7    1  0.2797450E-013  0.7246155E+02  0.7816164E-02  0.1226708E+00
        -11   -1    0    0    0    0  0.00000000000E+00  0.00000000000E+00  0.45593999997E+02  0.45594000000E+02  0.51100000000E-03 0. -1.
         11   -1    0    0    0    0 -0.00000000000E+00 -0.00000000000E+00 -0.45593999997E+02  0.45594000000E+02  0.51100000000E-03 0.  1.
    9900012    2    1    2    0    0 -0.10971608024E+01 -0.17193054465E+01 -0.18615055991E+02  0.72461545915E+02  0.69999968242E+02 0.  0.
         12    1    1    2    0    0  0.10971608024E+01  0.17193054465E+01  0.18615055991E+02  0.18726454085E+02  0.00000000000E+00 0. -1.
         11    1    3    3    0    0  0.12272028465E+02  0.44599174215E+01 -0.26322681660E+02  0.29383279533E+02  0.51100000000E-03 0. -1.
        -11    1    3    3    0    0 -0.73547703021E+01 -0.32108234472E+01 -0.16290820285E+02  0.18160199868E+02  0.51100000000E-03 0.  1.
         12    1    3    3    0    0 -0.60144189649E+01 -0.29683994208E+01  0.23998445955E+02  0.24918066515E+02  0.00000000000E+00 0. -1.
</event>
<event>
 7    1  0.2797450E-013  0.7246167E+02  0.7816164E-02  0.1226708E+00
        -11   -1    0    0    0    0  0.00000000000E+00  0.00000000000E+00  0.45593999997E+02  0.45594000000E+02  0.51100000000E-03 0.  1.
         11   -1    0    0    0    0 -0.00000000000E+00 -0.00000000000E+00 -0.45593999997E+02  0.45594000000E+02  0.51100000000E-03 0. -1.
    9900012    2    1    2    0    0  0.14146187549E+02  0.83940180912E+01  0.89499350298E+01  0.72461668301E+02  0.70000127671E+02 0.  0.
         12    1    1    2    0    0 -0.14146187549E+02 -0.83940180912E+01 -0.89499350298E+01  0.18726331699E+02  0.00000000000E+00 0. -1.
         11    1    3    3    0    0 -0.15119798301E+02 -0.40761355935E+01  0.25340624781E+01  0.15863311601E+02  0.51100000000E-03 0. -1.
        -11    1    3    3    0    0  0.58704243971E+01 -0.13889229577E+02  0.13967577089E+02  0.20553972629E+02  0.51100000000E-03 0.  1.
         12    1    3    3    0    0  0.23395561453E+02  0.26359383261E+02 -0.75517045373E+01  0.36044384071E+02  0.00000000000E+00 0. -1.
</event>
<event>
 7    1  0.2797450E-013  0.7246149E+02  0.7816164E-02  0.1226708E+00
        -11   -1    0    0    0    0  0.00000000000E+00  0.00000000000E+00  0.45593999997E+02  0.45594000000E+02  0.51100000000E-03 0.  1.
         11   -1    0    0    0    0 -0.00000000000E+00 -0.00000000000E+00 -0.45593999997E+02  0.45594000000E+02  0.51100000000E-03 0. -1.
    9900012    2    1    2    0    0  0.16828732714E+02 -0.10138374859E+01  0.81515666365E+01  0.72461490720E+02  0.69999896339E+02 0.  0.
         12    1    1    2    0    0 -0.16828732714E+02  0.10138374859E+01 -0.81515666365E+01  0.18726509280E+02  0.00000000000E+00 0. -1.
         11    1    3    3    0    0 -0.75128269438E+01 -0.18829878579E+01 -0.91307055990E+01  0.11973219991E+02  0.51100000000E-03 0. -1.
        -11    1    3    3    0    0  0.20975611101E+02 -0.20053002873E+02 -0.53232789552E+01  0.29503160583E+02  0.51100000000E-03 0.  1.
         12    1    3    3    0    0  0.33659485570E+01  0.20922153245E+02  0.22605551191E+02  0.30985110146E+02  0.00000000000E+00 0. -1.
</event>
<event>
 7    1  0.2797450E-013  0.7246158E+02  0.7816164E-02  0.1226708E+00
        -11   -1    0    0    0    0  0.00000000000E+00  0.00000000000E+00  0.45593999997E+02  0.45594000000E+02  0.51100000000E-03 0. -1.
         11   -1    0    0    0    0 -0.00000000000E+00 -0.00000000000E+00 -0.45593999997E+02  0.45594000000E+02  0.51100000000E-03 0.  1.
    9900012    2    1    2    0    0 -0.62527778919E+01 -0.14132213133E+02 -0.10576488692E+02  0.72461580362E+02  0.70000013115E+02 0.  0.
         12    1    1    2    0    0  0.62527778919E+01  0.14132213133E+02  0.10576488692E+02  0.18726419638E+02  0.00000000000E+00 0. -1.
         11    1    3    3    0    0 -0.12551247743E+01 -0.92349811329E+01 -0.32995268505E+02  0.34286264870E+02  0.51100000000E-03 0. -1.
        -11    1    3    3    0    0  0.11409956254E-01 -0.11218383545E+02 -0.29131553414E+01  0.11590458743E+02  0.51100000000E-03 0.  1.
         12    1    3    3    0    0 -0.50090630738E+01  0.63211515452E+01  0.25331935154E+02  0.26584856750E+02  0.00000000000E+00 0. -1.
</event>
<event>
 7    1  0.2797450E-013  0.7246153E+02  0.7816164E-02  0.1226708E+00
        -11   -1    0    0    0    0  0.00000000000E+00  0.00000000000E+00  0.45593999997E+02  0.45594000000E+02  0.51100000000E-03 0.  1.
         11   -1    0    0    0    0 -0.00000000000E+00 -0.00000000000E+00 -0.45593999997E+02  0.45594000000E+02  0.51100000000E-03 0. -1.
    9900012    2    1    2    0    0  0.83323613723E+01  0.72602464263E+01  0.15117577891E+02  0.72461532487E+02  0.69999950749E+02 0.  0.
         12    1    1    2    0    0 -0.83323613723E+01 -0.72602464263E+01 -0.15117577891E+02  0.18726467513E+02  0.00000000000E+00 0. -1.
         11    1    3    3    0    0  0.73651973874E+01  0.66699725622E+01  0.12167150715E+02  0.15709049090E+02  0.51100000000E-03 0. -1.
        -11    1    3    3    0    0  0.24699970567E+02  0.12366636468E+02  0.99319013503E+01  0.29354129321E+02  0.51100000000E-03 0.  1.
         12    1    3    3    0    0 -0.23732806582E+02 -0.11776362604E+02 -0.69814741738E+01  0.27398354076E+02  0.00000000000E+00 0. -1.
</event>
<event>
 7    1  0.2797450E-013  0.7246152E+02  0.7816164E-02  0.1226708E+00
        -11   -1    0    0    0    0  0.00000000000E+00  0.00000000000E+00  0.45593999997E+02  0.45594000000E+02  0.51100000000E-03 0.  1.
         11   -1    0    0    0    0 -0.00000000000E+00 -0.00000000000E+00 -0.45593999997E+02  0.45594000000E+02  0.51100000000E-03 0. -1.
    9900012    2    1    2    0    0 -0.88348842627E+01 -0.41498550611E+01  0.15981382194E+02  0.72461519984E+02  0.69999934462E+02 0.  0.
         12    1    1    2    0    0  0.88348842627E+01  0.41498550611E+01 -0.15981382194E+02  0.18726480016E+02  0.00000000000E+00 0. -1.
         11    1    3    3    0    0 -0.64143436573E+00 -0.94494630556E+01  0.23335495552E+02  0.25184303504E+02  0.51100000000E-03 0.  1.
        -11    1    3    3    0    0  0.61301028108E+01  0.22928886920E+02 -0.13008322665E+01  0.23769816590E+02  0.51100000000E-03 0. -1.
        -12    1    3    3    0    0 -0.14323552708E+02 -0.17629278926E+02 -0.60532810919E+01  0.23507399890E+02  0.00000000000E+00 0.  1.
</event>
<event>
 7    1  0.2797450E-013  0.7246161E+02  0.7816164E-02  0.1226708E+00
        -11   -1    0    0    0    0  0.00000000000E+00  0.00000000000E+00  0.45593999997E+02  0.45594000000E+02  0.51100000000E-03 0.  1.
         11   -1    0    0    0    0 -0.00000000000E+00 -0.00000000000E+00 -0.45593999997E+02  0.45594000000E+02  0.51100000000E-03 0. -1.
    9900012    2    1    2    0    0 -0.16553896379E+02 -0.33322608532E+01  0.80958117781E+01  0.72461611772E+02  0.70000054032E+02 0.  0.
         12    1    1    2    0    0  0.16553896379E+02  0.33322608532E+01 -0.80958117781E+01  0.18726388228E+02  0.00000000000E+00 0. -1.
         11    1    3    3    0    0  0.53518249688E+01 -0.52472436322E+01 -0.36487318468E+01  0.83359966761E+01  0.51100000000E-03 0. -1.
        -11    1    3    3    0    0 -0.29918068526E+02 -0.21764584719E+02  0.12680010684E+02  0.39109725689E+02  0.51100000000E-03 0.  1.
         12    1    3    3    0    0  0.80123471780E+01  0.23679567498E+02 -0.93546705862E+00  0.25015889407E+02  0.00000000000E+00 0. -1.
</event>
<event>
 7    1  0.2797450E-013  0.7246161E+02  0.7816164E-02  0.1226708E+00
        -11   -1    0    0    0    0  0.00000000000E+00  0.00000000000E+00  0.45593999997E+02  0.45594000000E+02  0.51100000000E-03 0. -1.
         11   -1    0    0    0    0 -0.00000000000E+00 -0.00000000000E+00 -0.45593999997E+02  0.45594000000E+02  0.51100000000E-03 0.  1.
    9900012    2    1    2    0    0  0.72818372260E+01  0.14573022508E+02 -0.92346872748E+01  0.72461612536E+02  0.70000055027E+02 0.  0.
         12    1    1    2    0    0 -0.72818372260E+01 -0.14573022508E+02  0.92346872748E+01  0.18726387464E+02  0.00000000000E+00 0. -1.
         11    1    3    3    0    0 -0.50866094580E+01 -0.23968941766E+01  0.13327929124E+02  0.14465558837E+02  0.51100000000E-03 0. -1.
        -11    1    3    3    0    0 -0.18164920729E+02  0.80280586525E+00 -0.12308876984E+02  0.21957169562E+02  0.51100000000E-03 0.  1.
        -12    1    3    3    0    0  0.30533367413E+02  0.16167110819E+02 -0.10253739415E+02  0.36038884136E+02  0.00000000000E+00 0.  1.
</event>
<event>
 7    1  0.2797450E-013  0.7246152E+02  0.7816164E-02  0.1226708E+00
        -11   -1    0    0    0    0  0.00000000000E+00  0.00000000000E+00  0.45593999997E+02  0.45594000000E+02  0.51100000000E-03 0.  1.
         11   -1    0    0    0    0 -0.00000000000E+00 -0.00000000000E+00 -0.45593999997E+02  0.45594000000E+02  0.51100000000E-03 0. -1.
    9900012    2    1    2    0    0  0.17889588411E+02 -0.55356587712E+01  0.53091811029E-02  0.72461523563E+02  0.69999939124E+02 0.  0.
         12    1    1    2    0    0 -0.17889588411E+02  0.55356587712E+01 -0.53091811029E-02  0.18726476437E+02  0.00000000000E+00 0. -1.
         11    1    3    3    0    0 -0.12277449389E+02  0.87771876063E+01  0.60426497483E+01  0.16256949346E+02  0.51100000000E-03 0. -1.
        -11    1    3    3    0    0 -0.11190090253E+02 -0.81013853864E+01  0.75553320839E+00  0.13835512124E+02  0.51100000000E-03 0.  1.
        -12    1    3    3    0    0  0.41357128054E+02 -0.62114609911E+01 -0.67928737756E+01  0.42369062093E+02  0.00000000000E+00 0.  1.
</event>
<event>
 7    1  0.2797450E-013  0.7246155E+02  0.7816164E-02  0.1226708E+00
        -11   -1    0    0    0    0  0.00000000000E+00  0.00000000000E+00  0.45593999997E+02  0.45594000000E+02  0.51100000000E-03 0.  1.
         11   -1    0    0    0    0 -0.00000000000E+00 -0.00000000000E+00 -0.45593999997E+02  0.45594000000E+02  0.51100000000E-03 0. -1.
    9900012    2    1    2    0    0 -0.10286127292E+02 -0.14606568499E+02 -0.56145944292E+01  0.72461550027E+02  0.69999973598E+02 0.  0.
         12    1    1    2    0    0  0.10286127292E+02  0.14606568499E+02  0.56145944292E+01  0.18726449973E+02  0.00000000000E+00 0. -1.
         11    1    3    3    0    0 -0.25878581274E+02 -0.24277737216E+02 -0.16630832351E+02  0.39187932812E+02  0.51100000000E-03 0. -1.
        -11    1    3    3    0    0 -0.32553272186E+01 -0.19153994717E+00 -0.54648260417E+01  0.63638169976E+01  0.51100000000E-03 0.  1.
        -12    1    3    3    0    0  0.18847781201E+02  0.98627086645E+01  0.16481063964E+02  0.26909800218E+02  0.00000000000E+00 0.  1.
</event>
<event>
 7    1  0.2797450E-013  0.7246159E+02  0.7816164E-02  0.1226708E+00
        -11   -1    0    0    0    0  0.00000000000E+00  0.00000000000E+00  0.45593999997E+02  0.45594000000E+02  0.51100000000E-03 0. -1.
         11   -1    0    0    0    0 -0.00000000000E+00 -0.00000000000E+00 -0.45593999997E+02  0.45594000000E+02  0.51100000000E-03 0.  1.
    9900012    2    1    2    0    0  0.12374395430E+02  0.12413947135E+02 -0.65913977852E+01  0.72461594299E+02  0.70000031270E+02 0.  0.
         12    1    1    2    0    0 -0.12374395430E+02 -0.12413947135E+02  0.65913977852E+01  0.18726405701E+02  0.00000000000E+00 0. -1.
         11    1    3    3    0    0  0.18477150135E+01  0.22155977445E+02  0.89918310968E+01  0.23982377156E+02  0.51100000000E-03 0. -1.
        -11    1    3    3    0    0  0.26011441944E+02  0.24069276336E+01 -0.10481261168E+02  0.28146851485E+02  0.51100000000E-03 0.  1.
         12    1    3    3    0    0 -0.15484761527E+02 -0.12148957944E+02 -0.51019677143E+01  0.20332365658E+02  0.00000000000E+00 0. -1.
</event>
<event>
 7    1  0.2797450E-013  0.7246152E+02  0.7816164E-02  0.1226708E+00
        -11   -1    0    0    0    0  0.00000000000E+00  0.00000000000E+00  0.45593999997E+02  0.45594000000E+02  0.51100000000E-03 0. -1.
         11   -1    0    0    0    0 -0.00000000000E+00 -0.00000000000E+00 -0.45593999997E+02  0.45594000000E+02  0.51100000000E-03 0.  1.
    9900012    2    1    2    0    0 -0.14433933712E+02 -0.10582617439E+02 -0.55091472732E+01  0.72461523077E+02  0.69999938491E+02 0.  0.
         12    1    1    2    0    0  0.14433933712E+02  0.10582617439E+02  0.55091472732E+01  0.18726476923E+02  0.00000000000E+00 0. -1.
         11    1    3    3    0    0  0.45743684415E+01 -0.24225184879E+02  0.11514717389E+02  0.27209798711E+02  0.51100000000E-03 0.  1.
        -11    1    3    3    0    0 -0.58832390828E+01 -0.10204821796E+02  0.21263747317E+01  0.11969643259E+02  0.51100000000E-03 0. -1.
         12    1    3    3    0    0 -0.13125063070E+02  0.23847389236E+02 -0.19150239394E+02  0.33282081107E+02  0.00000000000E+00 0. -1.
</event>
<event>
 7    1  0.2797450E-013  0.7246155E+02  0.7816164E-02  0.1226708E+00
        -11   -1    0    0    0    0  0.00000000000E+00  0.00000000000E+00  0.45593999997E+02  0.45594000000E+02  0.51100000000E-03 0. -1.
         11   -1    0    0    0    0 -0.00000000000E+00 -0.00000000000E+00 -0.45593999997E+02  0.45594000000E+02  0.51100000000E-03 0.  1.
    9900012    2    1    2    0    0 -0.21424270356E+01  0.51660487912E+01 -0.17871819574E+02  0.72461548425E+02  0.69999971511E+02 0.  0.
         12    1    1    2    0    0  0.21424270356E+01 -0.51660487912E+01  0.17871819574E+02  0.18726451575E+02  0.00000000000E+00 0. -1.
         11    1    3    3    0    0 -0.34242394065E+01  0.22554669331E+02  0.18305453891E+02  0.29249413098E+02  0.51100000000E-03 0. -1.
        -11    1    3    3    0    0 -0.32010304384E+01  0.14700851142E+01 -0.23817858174E+01  0.42521347640E+01  0.51100000000E-03 0.  1.
        -12    1    3    3    0    0  0.44828428093E+01 -0.18858705654E+02 -0.33795487647E+02  0.38960000563E+02  0.00000000000E+00 0.  1.
</event>
<event>
 7    1  0.2797450E-013  0.7246158E+02  0.7816164E-02  0.1226708E+00
        -11   -1    0    0    0    0  0.00000000000E+00  0.00000000000E+00  0.45593999997E+02  0.45594000000E+02  0.51100000000E-03 0.  1.
         11   -1    0    0    0    0 -0.00000000000E+00 -0.00000000000E+00 -0.45593999997E+02  0.45594000000E+02  0.51100000000E-03 0. -1.
    9900012    2    1    2    0    0 -0.29507784040E+01  0.14492938176E+02  0.11485923435E+02  0.72461580499E+02  0.70000013293E+02 0.  0.
         12    1    1    2    0    0  0.29507784040E+01 -0.14492938176E+02 -0.11485923435E+02  0.18726419501E+02  0.00000000000E+00 0. -1.
         11    1    3    3    0    0  0.24593272831E+01 -0.49191311471E+01  0.71876851991E+01  0.90503569383E+01  0.51100000000E-03 0. -1.
        -11    1    3    3    0    0 -0.29963481274E+02  0.17001355327E+02  0.13609012167E+02  0.37041348591E+02  0.51100000000E-03 0.  1.
         12    1    3    3    0    0  0.24553375587E+02  0.24107139961E+01 -0.93107739313E+01  0.26369874969E+02  0.00000000000E+00 0. -1.
</event>
<event>
 7    1  0.2797450E-013  0.7246121E+02  0.7816164E-02  0.1226709E+00
        -11   -1    0    0    0    0  0.00000000000E+00  0.00000000000E+00  0.45593999997E+02  0.45594000000E+02  0.51100000000E-03 0.  1.
         11   -1    0    0    0    0 -0.00000000000E+00 -0.00000000000E+00 -0.45593999997E+02  0.45594000000E+02  0.51100000000E-03 0. -1.
    9900012    2    1    2    0    0 -0.88074841015E+01  0.10738637911E+02  0.12561948361E+02  0.72461209912E+02  0.69999530534E+02 0.  0.
         12    1    1    2    0    0  0.88074841015E+01 -0.10738637911E+02 -0.12561948361E+02  0.18726790088E+02  0.00000000000E+00 0. -1.
         11    1    3    3    0    0  0.25597093829E+02  0.52358559597E+01 -0.42374002218E+01  0.26468489965E+02  0.51100000000E-03 0. -1.
        -11    1    3    3    0    0 -0.44920564823E+01 -0.84741192008E+01  0.19360040730E+01  0.97845480070E+01  0.51100000000E-03 0.  1.
        -12    1    3    3    0    0 -0.29912521448E+02  0.13976901152E+02  0.14863344510E+02  0.36208171940E+02  0.00000000000E+00 0.  1.
</event>
