<event>
 7    1  0.5155466E-011  0.5052877E+02  0.7816164E-02  0.1300439E+00
        -11   -1    0    0    0    0  0.00000000000E+00  0.00000000000E+00  0.45593999997E+02  0.45594000000E+02  0.51100000000E-03 0.  1.
         11   -1    0    0    0    0 -0.00000000000E+00 -0.00000000000E+00 -0.45593999997E+02  0.45594000000E+02  0.51100000000E-03 0. -1.
    9900012    2    1    2    0    0  0.37079879406E+02 -0.23174751298E+01 -0.16519218529E+02  0.50528773144E+02  0.29999736447E+02 0.  0.
        -12    1    1    2    0    0 -0.37079879406E+02  0.23174751298E+01  0.16519218529E+02  0.40659226856E+02  0.00000000000E+00 0.  1.
         11    1    3    3    0    0  0.14744675497E+02 -0.10143798069E+02 -0.37344618453E+01  0.18282458814E+02  0.51100000000E-03 0. -1.
        -11    1    3    3    0    0  0.91844459761E+01  0.11849662166E+02 -0.10504542970E+02  0.18306118229E+02  0.51100000000E-03 0.  1.
        -12    1    3    3    0    0  0.13150757933E+02 -0.40233392272E+01 -0.22802137143E+01  0.13940196101E+02  0.00000000000E+00 0.  1.
</event>
<event>
 7    1  0.5155466E-011  0.5052886E+02  0.7816164E-02  0.1300439E+00
        -11   -1    0    0    0    0  0.00000000000E+00  0.00000000000E+00  0.45593999997E+02  0.45594000000E+02  0.51100000000E-03 0.  1.
         11   -1    0    0    0    0 -0.00000000000E+00 -0.00000000000E+00 -0.45593999997E+02  0.45594000000E+02  0.51100000000E-03 0. -1.
    9900012    2    1    2    0    0 -0.20020612132E+02 -0.16522805379E+02 -0.31294369522E+02  0.50528861156E+02  0.30000003970E+02 0.  0.
        -12    1    1    2    0    0  0.20020612132E+02  0.16522805379E+02  0.31294369522E+02  0.40659138844E+02  0.00000000000E+00 0.  1.
         11    1    3    3    0    0 -0.19412214990E+02 -0.15649725473E+02 -0.15056431374E+02  0.29128064203E+02  0.51100000000E-03 0. -1.
        -11    1    3    3    0    0  0.85582630308E+00 -0.63231497688E+01 -0.13895721759E+02  0.15290707803E+02  0.51100000000E-03 0.  1.
         12    1    3    3    0    0 -0.14642234453E+01  0.54500698634E+01 -0.23422163894E+01  0.61100891506E+01  0.00000000000E+00 0. -1.
</event>
<event>
 7    1  0.5155466E-011  0.5052886E+02  0.7816164E-02  0.1300439E+00
        -11   -1    0    0    0    0  0.00000000000E+00  0.00000000000E+00  0.45593999997E+02  0.45594000000E+02  0.51100000000E-03 0. -1.
         11   -1    0    0    0    0 -0.00000000000E+00 -0.00000000000E+00 -0.45593999997E+02  0.45594000000E+02  0.51100000000E-03 0.  1.
    9900012    2    1    2    0    0 -0.23925698053E+02 -0.32170315985E+02  0.67673742278E+01  0.50528860660E+02  0.30000002463E+02 0.  0.
        -12    1    1    2    0    0  0.23925698053E+02  0.32170315985E+02 -0.67673742278E+01  0.40659139340E+02  0.00000000000E+00 0.  1.
         11    1    3    3    0    0 -0.24466637899E+02 -0.21028378659E+02  0.10566007824E+02  0.33947748095E+02  0.51100000000E-03 0. -1.
        -11    1    3    3    0    0  0.55804029364E+00  0.24314585116E+01 -0.11704459141E+01  0.27556021777E+01  0.51100000000E-03 0.  1.
         12    1    3    3    0    0 -0.17100447749E-01 -0.13573395838E+02 -0.26281876824E+01  0.13825510388E+02  0.00000000000E+00 0. -1.
</event>
<event>
 7    1  0.5155466E-011  0.5052886E+02  0.7816164E-02  0.1300439E+00
        -11   -1    0    0    0    0  0.00000000000E+00  0.00000000000E+00  0.45593999997E+02  0.45594000000E+02  0.51100000000E-03 0.  1.
         11   -1    0    0    0    0 -0.00000000000E+00 -0.00000000000E+00 -0.45593999997E+02  0.45594000000E+02  0.51100000000E-03 0. -1.
    9900012    2    1    2    0    0 -0.75893581991E+01 -0.37047124395E+02 -0.14935802040E+02  0.50528856301E+02  0.29999989211E+02 0.  0.
        -12    1    1    2    0    0  0.75893581991E+01  0.37047124395E+02  0.14935802040E+02  0.40659143699E+02  0.00000000000E+00 0.  1.
         11    1    3    3    0    0  0.64065669549E+01 -0.53293630844E+01 -0.97820330457E+01  0.12850462319E+02  0.51100000000E-03 0. -1.
        -11    1    3    3    0    0 -0.64497962612E+01 -0.20521202129E+02  0.32788063917E+01  0.21759369941E+02  0.51100000000E-03 0.  1.
        -12    1    3    3    0    0 -0.75461288928E+01 -0.11196559182E+02 -0.84325753856E+01  0.15919024041E+02  0.00000000000E+00 0.  1.
</event>
<event>
 7    1  0.5155466E-011  0.5052885E+02  0.7816164E-02  0.1300439E+00
        -11   -1    0    0    0    0  0.00000000000E+00  0.00000000000E+00  0.45593999997E+02  0.45594000000E+02  0.51100000000E-03 0. -1.
         11   -1    0    0    0    0 -0.00000000000E+00 -0.00000000000E+00 -0.45593999997E+02  0.45594000000E+02  0.51100000000E-03 0.  1.
    9900012    2    1    2    0    0 -0.63519727568E+01  0.29471367229E+02  0.27281082249E+02  0.50528849826E+02  0.29999969530E+02 0.  0.
        -12    1    1    2    0    0  0.63519727568E+01 -0.29471367229E+02 -0.27281082249E+02  0.40659150174E+02  0.00000000000E+00 0.  1.
         11    1    3    3    0    0 -0.15777602895E+02  0.55803792146E+01  0.11771266793E+02  0.20460598903E+02  0.51100000000E-03 0. -1.
        -11    1    3    3    0    0  0.73256711826E+01  0.19708559206E+02  0.11918220248E+02  0.24168920919E+02  0.51100000000E-03 0.  1.
         12    1    3    3    0    0  0.20999589558E+01  0.41824288079E+01  0.35915952074E+01  0.58993300029E+01  0.00000000000E+00 0. -1.
</event>
<event>
 7    1  0.5155466E-011  0.5052887E+02  0.7816164E-02  0.1300439E+00
        -11   -1    0    0    0    0  0.00000000000E+00  0.00000000000E+00  0.45593999997E+02  0.45594000000E+02  0.51100000000E-03 0. -1.
         11   -1    0    0    0    0 -0.00000000000E+00 -0.00000000000E+00 -0.45593999997E+02  0.45594000000E+02  0.51100000000E-03 0.  1.
    9900012    2    1    2    0    0  0.38515395236E+02  0.97711801240E+01 -0.86170203328E+01  0.50528872234E+02  0.30000037644E+02 0.  0.
        -12    1    1    2    0    0 -0.38515395236E+02 -0.97711801240E+01  0.86170203328E+01  0.40659127766E+02  0.00000000000E+00 0.  1.
         11    1    3    3    0    0  0.15799284060E+02  0.33288713429E+01  0.86519877107E+01  0.18318178207E+02  0.51100000000E-03 0. -1.
        -11    1    3    3    0    0  0.19132704821E+02  0.10436079078E+02 -0.14454970929E+02  0.26151832156E+02  0.51100000000E-03 0.  1.
         12    1    3    3    0    0  0.35834063554E+01 -0.39937702970E+01 -0.28140371142E+01  0.60588618712E+01  0.00000000000E+00 0. -1.
</event>
<event>
 7    1  0.5155466E-011  0.5052885E+02  0.7816164E-02  0.1300439E+00
        -11   -1    0    0    0    0  0.00000000000E+00  0.00000000000E+00  0.45593999997E+02  0.45594000000E+02  0.51100000000E-03 0.  1.
         11   -1    0    0    0    0 -0.00000000000E+00 -0.00000000000E+00 -0.45593999997E+02  0.45594000000E+02  0.51100000000E-03 0. -1.
    9900012    2    1    2    0    0  0.31446220138E+02 -0.33772705336E+01 -0.25551825251E+02  0.50528849851E+02  0.29999969606E+02 0.  0.
        -12    1    1    2    0    0 -0.31446220138E+02  0.33772705336E+01  0.25551825251E+02  0.40659150149E+02  0.00000000000E+00 0.  1.
         11    1    3    3    0    0  0.29041065317E+02 -0.63810261897E+01 -0.28912444623E+02  0.41473249503E+02  0.51100000000E-03 0. -1.
        -11    1    3    3    0    0 -0.74548999246E+00 -0.21998386931E+01  0.81885965335E+00  0.24628392147E+01  0.51100000000E-03 0.  1.
         12    1    3    3    0    0  0.31506448137E+01  0.52035943492E+01  0.25417597191E+01  0.65927611335E+01  0.00000000000E+00 0. -1.
</event>
<event>
 7    1  0.5155466E-011  0.5052886E+02  0.7816164E-02  0.1300439E+00
        -11   -1    0    0    0    0  0.00000000000E+00  0.00000000000E+00  0.45593999997E+02  0.45594000000E+02  0.51100000000E-03 0. -1.
         11   -1    0    0    0    0 -0.00000000000E+00 -0.00000000000E+00 -0.45593999997E+02  0.45594000000E+02  0.51100000000E-03 0.  1.
    9900012    2    1    2    0    0 -0.70269752318E+01 -0.39845692587E+02  0.40134440607E+01  0.50528864103E+02  0.30000012928E+02 0.  0.
        -12    1    1    2    0    0  0.70269752318E+01  0.39845692587E+02 -0.40134440607E+01  0.40659135897E+02  0.00000000000E+00 0.  1.
         11    1    3    3    0    0  0.23340568778E+01  0.18855950914E+01  0.27534021831E+01  0.40724088941E+01  0.51100000000E-03 0.  1.
        -11    1    3    3    0    0 -0.74187186779E+01 -0.31163079991E+02 -0.71369960331E+01  0.32819379244E+02  0.51100000000E-03 0. -1.
         12    1    3    3    0    0 -0.19423134318E+01 -0.10568207688E+02  0.83970379107E+01  0.13637075965E+02  0.00000000000E+00 0. -1.
</event>
<event>
 7    1  0.5155466E-011  0.5052885E+02  0.7816164E-02  0.1300439E+00
        -11   -1    0    0    0    0  0.00000000000E+00  0.00000000000E+00  0.45593999997E+02  0.45594000000E+02  0.51100000000E-03 0.  1.
         11   -1    0    0    0    0 -0.00000000000E+00 -0.00000000000E+00 -0.45593999997E+02  0.45594000000E+02  0.51100000000E-03 0. -1.
    9900012    2    1    2    0    0 -0.99232794330E+01  0.65597692094E+01 -0.38880132244E+02  0.50528846909E+02  0.29999960665E+02 0.  0.
        -12    1    1    2    0    0  0.99232794330E+01 -0.65597692094E+01  0.38880132244E+02  0.40659153091E+02  0.00000000000E+00 0.  1.
         11    1    3    3    0    0 -0.13076880315E+02  0.81356407203E+01 -0.30319134558E+02  0.34006519511E+02  0.51100000000E-03 0. -1.
        -11    1    3    3    0    0  0.62010633040E+01  0.28267271133E+01 -0.48451585251E+00  0.68321539902E+01  0.51100000000E-03 0.  1.
         12    1    3    3    0    0 -0.30474624224E+01 -0.44025986242E+01 -0.80764818335E+01  0.96901734076E+01  0.00000000000E+00 0. -1.
</event>
<event>
 7    1  0.5155466E-011  0.5052886E+02  0.7816164E-02  0.1300439E+00
        -11   -1    0    0    0    0  0.00000000000E+00  0.00000000000E+00  0.45593999997E+02  0.45594000000E+02  0.51100000000E-03 0. -1.
         11   -1    0    0    0    0 -0.00000000000E+00 -0.00000000000E+00 -0.45593999997E+02  0.45594000000E+02  0.51100000000E-03 0.  1.
    9900012    2    1    2    0    0  0.39248606716E+02 -0.51498863970E+01  0.92839365860E+01  0.50528856655E+02  0.29999990288E+02 0.  0.
        -12    1    1    2    0    0 -0.39248606716E+02  0.51498863970E+01 -0.92839365860E+01  0.40659143345E+02  0.00000000000E+00 0.  1.
         11    1    3    3    0    0  0.11618466892E+02 -0.12636401733E+02 -0.42369716989E+01  0.17681044967E+02  0.51100000000E-03 0. -1.
        -11    1    3    3    0    0  0.74820089180E+01  0.21736062135E+01 -0.37845159275E+00  0.78005286545E+01  0.51100000000E-03 0.  1.
         12    1    3    3    0    0  0.20148130905E+02  0.53129091228E+01  0.13899359878E+02  0.25047283033E+02  0.00000000000E+00 0. -1.
</event>
<event>
 7    1  0.5155466E-011  0.5052885E+02  0.7816164E-02  0.1300439E+00
        -11   -1    0    0    0    0  0.00000000000E+00  0.00000000000E+00  0.45593999997E+02  0.45594000000E+02  0.51100000000E-03 0. -1.
         11   -1    0    0    0    0 -0.00000000000E+00 -0.00000000000E+00 -0.45593999997E+02  0.45594000000E+02  0.51100000000E-03 0.  1.
    9900012    2    1    2    0    0  0.15488269461E+02 -0.29898889412E+02 -0.22788956311E+02  0.50528848402E+02  0.29999965202E+02 0.  0.
        -12    1    1    2    0    0 -0.15488269461E+02  0.29898889412E+02  0.22788956311E+02  0.40659151598E+02  0.00000000000E+00 0.  1.
         11    1    3    3    0    0  0.13688943945E+02 -0.23216189555E+02 -0.27952841814E+01  0.27095982317E+02  0.51100000000E-03 0. -1.
        -11    1    3    3    0    0  0.56901265024E+01 -0.58897095305E+01 -0.14525954239E+02  0.16675417979E+02  0.51100000000E-03 0.  1.
         12    1    3    3    0    0 -0.38908009866E+01 -0.79299032619E+00 -0.54677178904E+01  0.67574481059E+01  0.00000000000E+00 0. -1.
</event>
<event>
 7    1  0.5155466E-011  0.5052882E+02  0.7816164E-02  0.1300439E+00
        -11   -1    0    0    0    0  0.00000000000E+00  0.00000000000E+00  0.45593999997E+02  0.45594000000E+02  0.51100000000E-03 0. -1.
         11   -1    0    0    0    0 -0.00000000000E+00 -0.00000000000E+00 -0.45593999997E+02  0.45594000000E+02  0.51100000000E-03 0.  1.
    9900012    2    1    2    0    0 -0.23732660353E+02 -0.32823721576E+02 -0.35401625263E+01  0.50528823715E+02  0.29999890163E+02 0.  0.
        -12    1    1    2    0    0  0.23732660353E+02  0.32823721576E+02  0.35401625263E+01  0.40659176285E+02  0.00000000000E+00 0.  1.
         11    1    3    3    0    0 -0.95939111572E+01 -0.23805137097E+01  0.47300347886E+01  0.10958248317E+02  0.51100000000E-03 0. -1.
        -11    1    3    3    0    0 -0.46757706639E+01 -0.22875329882E+02 -0.12809430284E+02  0.26631279597E+02  0.51100000000E-03 0.  1.
        -12    1    3    3    0    0 -0.94629785319E+01 -0.75678779836E+01  0.45392329688E+01  0.12939295801E+02  0.00000000000E+00 0.  1.
</event>
<event>
 7    1  0.5155466E-011  0.5052900E+02  0.7816164E-02  0.1300438E+00
        -11   -1    0    0    0    0  0.00000000000E+00  0.00000000000E+00  0.45593999997E+02  0.45594000000E+02  0.51100000000E-03 0.  1.
         11   -1    0    0    0    0 -0.00000000000E+00 -0.00000000000E+00 -0.45593999997E+02  0.45594000000E+02  0.51100000000E-03 0. -1.
    9900012    2    1    2    0    0 -0.12462641436E+02  0.65928430799E+00 -0.38696285090E+02  0.50528996482E+02  0.30000415302E+02 0.  0.
        -12    1    1    2    0    0  0.12462641436E+02 -0.65928430799E+00  0.38696285090E+02  0.40659003518E+02  0.00000000000E+00 0.  1.
         11    1    3    3    0    0 -0.18509904722E+02 -0.56887279851E+01 -0.26570275468E+02  0.32877921735E+02  0.51100000000E-03 0. -1.
        -11    1    3    3    0    0  0.44779935081E+01  0.15889104370E+01 -0.11692650840E+02  0.12621218094E+02  0.51100000000E-03 0.  1.
         12    1    3    3    0    0  0.15692697781E+01  0.47591018560E+01 -0.43335878155E+00  0.50298566526E+01  0.00000000000E+00 0. -1.
</event>
<event>
 7    1  0.5155466E-011  0.5052886E+02  0.7816164E-02  0.1300439E+00
        -11   -1    0    0    0    0  0.00000000000E+00  0.00000000000E+00  0.45593999997E+02  0.45594000000E+02  0.51100000000E-03 0.  1.
         11   -1    0    0    0    0 -0.00000000000E+00 -0.00000000000E+00 -0.45593999997E+02  0.45594000000E+02  0.51100000000E-03 0. -1.
    9900012    2    1    2    0    0  0.71330556076E+01  0.10383221858E+02 -0.38658422635E+02  0.50528863031E+02  0.30000009669E+02 0.  0.
        -12    1    1    2    0    0 -0.71330556076E+01 -0.10383221858E+02  0.38658422635E+02  0.40659136969E+02  0.00000000000E+00 0.  1.
         11    1    3    3    0    0 -0.45817981140E+01  0.75000843136E+01 -0.48178381595E+01  0.10022759274E+02  0.51100000000E-03 0. -1.
        -11    1    3    3    0    0  0.48876635656E+01 -0.60934298970E+01 -0.43687453276E+01  0.89501440792E+01  0.51100000000E-03 0.  1.
        -12    1    3    3    0    0  0.68271901560E+01  0.89765674417E+01 -0.29471839148E+02  0.31555959678E+02  0.00000000000E+00 0.  1.
</event>
<event>
 7    1  0.5155466E-011  0.5052886E+02  0.7816164E-02  0.1300439E+00
        -11   -1    0    0    0    0  0.00000000000E+00  0.00000000000E+00  0.45593999997E+02  0.45594000000E+02  0.51100000000E-03 0.  1.
         11   -1    0    0    0    0 -0.00000000000E+00 -0.00000000000E+00 -0.45593999997E+02  0.45594000000E+02  0.51100000000E-03 0. -1.
    9900012    2    1    2    0    0 -0.17354302735E+02 -0.29430448380E+02 -0.22041838184E+02  0.50528859013E+02  0.29999997456E+02 0.  0.
        -12    1    1    2    0    0  0.17354302735E+02  0.29430448380E+02  0.22041838184E+02  0.40659140987E+02  0.00000000000E+00 0.  1.
         11    1    3    3    0    0 -0.85205900059E+01 -0.19652140909E+02 -0.86294756832E+01  0.23092746636E+02  0.51100000000E-03 0. -1.
        -11    1    3    3    0    0 -0.23862804502E+01  0.62190345286E+01 -0.31764993952E+01  0.73797610749E+01  0.51100000000E-03 0.  1.
         12    1    3    3    0    0 -0.64474322787E+01 -0.15997342000E+02 -0.10235863106E+02  0.20056351302E+02  0.00000000000E+00 0. -1.
</event>
<event>
 7    1  0.5155466E-011  0.5052885E+02  0.7816164E-02  0.1300439E+00
        -11   -1    0    0    0    0  0.00000000000E+00  0.00000000000E+00  0.45593999997E+02  0.45594000000E+02  0.51100000000E-03 0.  1.
         11   -1    0    0    0    0 -0.00000000000E+00 -0.00000000000E+00 -0.45593999997E+02  0.45594000000E+02  0.51100000000E-03 0. -1.
    9900012    2    1    2    0    0  0.12997731497E+02  0.11484458514E+02  0.36774074523E+02  0.50528851357E+02  0.29999974183E+02 0.  0.
        -12    1    1    2    0    0 -0.12997731497E+02 -0.11484458514E+02 -0.36774074523E+02  0.40659148643E+02  0.00000000000E+00 0.  1.
         11    1    3    3    0    0 -0.72735837770E+01  0.27241327459E+01  0.61371596824E+00  0.77911852583E+01  0.51100000000E-03 0. -1.
        -11    1    3    3    0    0  0.16503911468E+02  0.88053698101E+01  0.27139237348E+02  0.32961368833E+02  0.51100000000E-03 0.  1.
         12    1    3    3    0    0  0.37674038059E+01 -0.45044042522E-01  0.90211212063E+01  0.97762972654E+01  0.00000000000E+00 0. -1.
</event>
<event>
 7    1  0.5155466E-011  0.5052886E+02  0.7816164E-02  0.1300439E+00
        -11   -1    0    0    0    0  0.00000000000E+00  0.00000000000E+00  0.45593999997E+02  0.45594000000E+02  0.51100000000E-03 0. -1.
         11   -1    0    0    0    0 -0.00000000000E+00 -0.00000000000E+00 -0.45593999997E+02  0.45594000000E+02  0.51100000000E-03 0.  1.
    9900012    2    1    2    0    0  0.16578015589E+02  0.26102388053E+02  0.26400764322E+02  0.50528860564E+02  0.30000002169E+02 0.  0.
        -12    1    1    2    0    0 -0.16578015589E+02 -0.26102388053E+02 -0.26400764322E+02  0.40659139436E+02  0.00000000000E+00 0.  1.
         11    1    3    3    0    0  0.24345860359E+02  0.13403346287E+02  0.14602014464E+02  0.31394098729E+02  0.51100000000E-03 0. -1.
        -11    1    3    3    0    0 -0.65770088253E+01  0.88042007496E+01  0.87370480206E+01  0.14039480201E+02  0.51100000000E-03 0.  1.
         12    1    3    3    0    0 -0.11908359449E+01  0.38948410173E+01  0.30617018364E+01  0.50952816343E+01  0.00000000000E+00 0. -1.
</event>
<event>
 7    1  0.5155466E-011  0.5052880E+02  0.7816164E-02  0.1300439E+00
        -11   -1    0    0    0    0  0.00000000000E+00  0.00000000000E+00  0.45593999997E+02  0.45594000000E+02  0.51100000000E-03 0.  1.
         11   -1    0    0    0    0 -0.00000000000E+00 -0.00000000000E+00 -0.45593999997E+02  0.45594000000E+02  0.51100000000E-03 0. -1.
    9900012    2    1    2    0    0 -0.32926838155E+01  0.32750908610E+02 -0.23868530434E+02  0.50528800223E+02  0.29999818756E+02 0.  0.
        -12    1    1    2    0    0  0.32926838155E+01 -0.32750908610E+02  0.23868530434E+02  0.40659199777E+02  0.00000000000E+00 0.  1.
         11    1    3    3    0    0 -0.37423678471E+01  0.13598057997E+02 -0.22704967200E+02  0.26728786621E+02  0.51100000000E-03 0. -1.
        -11    1    3    3    0    0  0.51239593062E+01  0.18212920745E+02 -0.12508993744E+00  0.18920388177E+02  0.51100000000E-03 0.  1.
        -12    1    3    3    0    0 -0.46742752746E+01  0.93992986825E+00 -0.10384732964E+01  0.48796254249E+01  0.00000000000E+00 0.  1.
</event>
<event>
 7    1  0.5155466E-011  0.5052887E+02  0.7816164E-02  0.1300439E+00
        -11   -1    0    0    0    0  0.00000000000E+00  0.00000000000E+00  0.45593999997E+02  0.45594000000E+02  0.51100000000E-03 0.  1.
         11   -1    0    0    0    0 -0.00000000000E+00 -0.00000000000E+00 -0.45593999997E+02  0.45594000000E+02  0.51100000000E-03 0. -1.
    9900012    2    1    2    0    0 -0.37721216032E+02 -0.44028292089E+01  0.14522040094E+02  0.50528871966E+02  0.30000036829E+02 0.  0.
        -12    1    1    2    0    0  0.37721216032E+02  0.44028292089E+01 -0.14522040094E+02  0.40659128034E+02  0.00000000000E+00 0.  1.
         11    1    3    3    0    0 -0.10359327114E+02 -0.41299983933E+00 -0.21569919324E+01  0.10589562860E+02  0.51100000000E-03 0. -1.
        -11    1    3    3    0    0 -0.24798831172E+02  0.75499876549E+00  0.21405727268E+02  0.32768234783E+02  0.51100000000E-03 0.  1.
        -12    1    3    3    0    0 -0.25630577460E+01 -0.47448281351E+01 -0.47266952416E+01  0.71710743231E+01  0.00000000000E+00 0.  1.
</event>
<event>
 7    1  0.5155466E-011  0.5052886E+02  0.7816164E-02  0.1300439E+00
        -11   -1    0    0    0    0  0.00000000000E+00  0.00000000000E+00  0.45593999997E+02  0.45594000000E+02  0.51100000000E-03 0.  1.
         11   -1    0    0    0    0 -0.00000000000E+00 -0.00000000000E+00 -0.45593999997E+02  0.45594000000E+02  0.51100000000E-03 0. -1.
    9900012    2    1    2    0    0  0.33385342105E+02 -0.21185097072E+02 -0.94750278987E+01  0.50528861309E+02  0.30000004434E+02 0.  0.
        -12    1    1    2    0    0 -0.33385342105E+02  0.21185097072E+02  0.94750278987E+01  0.40659138691E+02  0.00000000000E+00 0.  1.
         11    1    3    3    0    0  0.37645016490E+02 -0.22295286368E+02 -0.56813089693E+01  0.44119205938E+02  0.51100000000E-03 0. -1.
        -11    1    3    3    0    0 -0.17341535847E+01  0.13229517344E+01 -0.47233522922E+00  0.22317237232E+01  0.51100000000E-03 0.  1.
         12    1    3    3    0    0 -0.25255208000E+01 -0.21276243922E+00 -0.33213837002E+01  0.41779316474E+01  0.00000000000E+00 0. -1.
</event>
<event>
 7    1  0.5155466E-011  0.5052885E+02  0.7816164E-02  0.1300439E+00
        -11   -1    0    0    0    0  0.00000000000E+00  0.00000000000E+00  0.45593999997E+02  0.45594000000E+02  0.51100000000E-03 0.  1.
         11   -1    0    0    0    0 -0.00000000000E+00 -0.00000000000E+00 -0.45593999997E+02  0.45594000000E+02  0.51100000000E-03 0. -1.
    9900012    2    1    2    0    0 -0.19779680405E+01 -0.19402717050E+02 -0.35676163476E+02  0.50528850638E+02  0.29999971998E+02 0.  0.
        -12    1    1    2    0    0  0.19779680405E+01  0.19402717050E+02  0.35676163476E+02  0.40659149362E+02  0.00000000000E+00 0.  1.
         11    1    3    3    0    0  0.59626870261E+00 -0.25199212349E+00 -0.22013423182E+01  0.22945467219E+01  0.51100000000E-03 0. -1.
        -11    1    3    3    0    0  0.59019091784E+01  0.46513623926E+01 -0.15503403106E+02  0.17228558041E+02  0.51100000000E-03 0.  1.
        -12    1    3    3    0    0 -0.84761459215E+01 -0.23802087319E+02 -0.17971418052E+02  0.31005745874E+02  0.00000000000E+00 0.  1.
</event>
<event>
 7    1  0.5155466E-011  0.5052886E+02  0.7816164E-02  0.1300439E+00
        -11   -1    0    0    0    0  0.00000000000E+00  0.00000000000E+00  0.45593999997E+02  0.45594000000E+02  0.51100000000E-03 0.  1.
         11   -1    0    0    0    0 -0.00000000000E+00 -0.00000000000E+00 -0.45593999997E+02  0.45594000000E+02  0.51100000000E-03 0. -1.
    9900012    2    1    2    0    0 -0.35970054436E+02 -0.72328090034E+00 -0.18941953577E+02  0.50528861339E+02  0.30000004525E+02 0.  0.
        -12    1    1    2    0    0  0.35970054436E+02  0.72328090034E+00  0.18941953577E+02  0.40659138661E+02  0.00000000000E+00 0.  1.
         11    1    3    3    0    0 -0.25883676073E+02  0.67731213734E+01 -0.14837670224E+02  0.30594056909E+02  0.51100000000E-03 0. -1.
        -11    1    3    3    0    0  0.31163873084E+01  0.11148056593E+01 -0.23827882379E+01  0.40782767883E+01  0.51100000000E-03 0.  1.
        -12    1    3    3    0    0 -0.13202765671E+02 -0.86112079330E+01 -0.17214951153E+01  0.15856527642E+02  0.00000000000E+00 0.  1.
</event>
<event>
 7    1  0.5155466E-011  0.5052886E+02  0.7816164E-02  0.1300439E+00
        -11   -1    0    0    0    0  0.00000000000E+00  0.00000000000E+00  0.45593999997E+02  0.45594000000E+02  0.51100000000E-03 0.  1.
         11   -1    0    0    0    0 -0.00000000000E+00 -0.00000000000E+00 -0.45593999997E+02  0.45594000000E+02  0.51100000000E-03 0. -1.
    9900012    2    1    2    0    0 -0.35354483911E+02  0.90723980858E+01 -0.17914175286E+02  0.50528860612E+02  0.30000002316E+02 0.  0.
        -12    1    1    2    0    0  0.35354483911E+02 -0.90723980858E+01  0.17914175286E+02  0.40659139388E+02  0.00000000000E+00 0.  1.
         11    1    3    3    0    0 -0.10799466227E+02  0.15369143109E+02 -0.12729851693E+02  0.22691147064E+02  0.51100000000E-03 0. -1.
        -11    1    3    3    0    0 -0.23214284787E+02 -0.28623453865E+01 -0.58033782939E+01  0.24099278810E+02  0.51100000000E-03 0.  1.
         12    1    3    3    0    0 -0.13407328969E+01 -0.34343996366E+01  0.61905470128E+00  0.37384347377E+01  0.00000000000E+00 0. -1.
</event>
<event>
 7    1  0.5155466E-011  0.5052886E+02  0.7816164E-02  0.1300439E+00
        -11   -1    0    0    0    0  0.00000000000E+00  0.00000000000E+00  0.45593999997E+02  0.45594000000E+02  0.51100000000E-03 0. -1.
         11   -1    0    0    0    0 -0.00000000000E+00 -0.00000000000E+00 -0.45593999997E+02  0.45594000000E+02  0.51100000000E-03 0.  1.
    9900012    2    1    2    0    0 -0.34257173524E+02  0.14805738509E+02  0.16136976634E+02  0.50528857786E+02  0.29999993728E+02 0.  0.
        -12    1    1    2    0    0  0.34257173524E+02 -0.14805738509E+02 -0.16136976634E+02  0.40659142214E+02  0.00000000000E+00 0.  1.
         11    1    3    3    0    0 -0.15337324920E+02  0.11027482812E+02  0.23768611630E+00  0.18891675623E+02  0.51100000000E-03 0. -1.
        -11    1    3    3    0    0 -0.35552279346E+01 -0.13742654261E+01  0.14923177538E+02  0.15402255654E+02  0.51100000000E-03 0.  1.
        -12    1    3    3    0    0 -0.15364620669E+02  0.51525211225E+01  0.97611297951E+00  0.16234926510E+02  0.00000000000E+00 0.  1.
</event>
<event>
 7    1  0.5155466E-011  0.5052886E+02  0.7816164E-02  0.1300439E+00
        -11   -1    0    0    0    0  0.00000000000E+00  0.00000000000E+00  0.45593999997E+02  0.45594000000E+02  0.51100000000E-03 0.  1.
         11   -1    0    0    0    0 -0.00000000000E+00 -0.00000000000E+00 -0.45593999997E+02  0.45594000000E+02  0.51100000000E-03 0. -1.
    9900012    2    1    2    0    0 -0.23978025147E+02  0.24507942065E+02 -0.21853627793E+02  0.50528856355E+02  0.29999989378E+02 0.  0.
        -12    1    1    2    0    0  0.23978025147E+02 -0.24507942065E+02  0.21853627793E+02  0.40659143645E+02  0.00000000000E+00 0.  1.
         11    1    3    3    0    0 -0.10249949487E+02  0.17026484114E+02 -0.12534558002E+01  0.19913155889E+02  0.51100000000E-03 0. -1.
        -11    1    3    3    0    0 -0.49896231304E+01  0.50440218360E+01  0.10213124917E+01  0.71680942190E+01  0.51100000000E-03 0.  1.
         12    1    3    3    0    0 -0.87384525297E+01  0.24374361155E+01 -0.21621484484E+02  0.23447606247E+02  0.00000000000E+00 0. -1.
</event>
<event>
 7    1  0.5155466E-011  0.5052886E+02  0.7816164E-02  0.1300439E+00
        -11   -1    0    0    0    0  0.00000000000E+00  0.00000000000E+00  0.45593999997E+02  0.45594000000E+02  0.51100000000E-03 0.  1.
         11   -1    0    0    0    0 -0.00000000000E+00 -0.00000000000E+00 -0.45593999997E+02  0.45594000000E+02  0.51100000000E-03 0. -1.
    9900012    2    1    2    0    0  0.27830987342E+02  0.29560440717E+02  0.21867780138E+01  0.50528861914E+02  0.30000006273E+02 0.  0.
        -12    1    1    2    0    0 -0.27830987342E+02 -0.29560440717E+02 -0.21867780138E+01  0.40659138086E+02  0.00000000000E+00 0.  1.
         11    1    3    3    0    0  0.25679466287E+02  0.12798502045E+02  0.82066546872E+01  0.29842684611E+02  0.51100000000E-03 0. -1.
        -11    1    3    3    0    0  0.85466315055E+00  0.85836925771E+01  0.23211320375E+01  0.89329659999E+01  0.51100000000E-03 0.  1.
         12    1    3    3    0    0  0.12968579049E+01  0.81782460951E+01 -0.83410087108E+01  0.11753211303E+02  0.00000000000E+00 0. -1.
</event>
<event>
 7    1  0.5155466E-011  0.5052891E+02  0.7816164E-02  0.1300439E+00
        -11   -1    0    0    0    0  0.00000000000E+00  0.00000000000E+00  0.45593999997E+02  0.45594000000E+02  0.51100000000E-03 0.  1.
         11   -1    0    0    0    0 -0.00000000000E+00 -0.00000000000E+00 -0.45593999997E+02  0.45594000000E+02  0.51100000000E-03 0. -1.
    9900012    2    1    2    0    0  0.76053196966E+01  0.22081155891E+02 -0.33282782939E+02  0.50528905405E+02  0.30000138467E+02 0.  0.
        -12    1    1    2    0    0 -0.76053196966E+01 -0.22081155891E+02  0.33282782939E+02  0.40659094595E+02  0.00000000000E+00 0.  1.
         11    1    3    3    0    0  0.11440483638E+02  0.54717670242E+01 -0.30416688547E+02  0.32954511719E+02  0.51100000000E-03 0. -1.
        -11    1    3    3    0    0 -0.40798011147E+01  0.12851153146E+02 -0.29713589163E+01  0.13806733444E+02  0.51100000000E-03 0.  1.
         12    1    3    3    0    0  0.24463717372E+00  0.37582357205E+01  0.10526452381E+00  0.37676602418E+01  0.00000000000E+00 0. -1.
</event>
<event>
 7    1  0.5155466E-011  0.5052886E+02  0.7816164E-02  0.1300439E+00
        -11   -1    0    0    0    0  0.00000000000E+00  0.00000000000E+00  0.45593999997E+02  0.45594000000E+02  0.51100000000E-03 0.  1.
         11   -1    0    0    0    0 -0.00000000000E+00 -0.00000000000E+00 -0.45593999997E+02  0.45594000000E+02  0.51100000000E-03 0. -1.
    9900012    2    1    2    0    0 -0.38337417724E+02  0.11505588044E+02  0.71435155243E+01  0.50528856280E+02  0.29999989150E+02 0.  0.
        -12    1    1    2    0    0  0.38337417724E+02 -0.11505588044E+02 -0.71435155243E+01  0.40659143720E+02  0.00000000000E+00 0.  1.
         11    1    3    3    0    0 -0.20252203090E+02 -0.58194445204E+01 -0.54209495922E+01  0.21757857414E+02  0.51100000000E-03 0. -1.
        -11    1    3    3    0    0 -0.11519215626E+02  0.14848387467E+02  0.81760090459E+01  0.20494244635E+02  0.51100000000E-03 0.  1.
         12    1    3    3    0    0 -0.65659990080E+01  0.24766450971E+01  0.43884560707E+01  0.82767542306E+01  0.00000000000E+00 0. -1.
</event>
<event>
 7    1  0.5155466E-011  0.5052887E+02  0.7816164E-02  0.1300439E+00
        -11   -1    0    0    0    0  0.00000000000E+00  0.00000000000E+00  0.45593999997E+02  0.45594000000E+02  0.51100000000E-03 0. -1.
         11   -1    0    0    0    0 -0.00000000000E+00 -0.00000000000E+00 -0.45593999997E+02  0.45594000000E+02  0.51100000000E-03 0.  1.
    9900012    2    1    2    0    0  0.16333873274E+02  0.13856242489E+02  0.34559721804E+02  0.50528865193E+02  0.30000016242E+02 0.  0.
        -12    1    1    2    0    0 -0.16333873274E+02 -0.13856242489E+02 -0.34559721804E+02  0.40659134807E+02  0.00000000000E+00 0.  1.
         11    1    3    3    0    0 -0.22705132559E+01  0.59806401941E+01  0.93811442804E+01  0.11354697523E+02  0.51100000000E-03 0. -1.
        -11    1    3    3    0    0  0.24171750249E+01 -0.68559353600E+01  0.25794249641E+01  0.77136254879E+01  0.51100000000E-03 0.  1.
        -12    1    3    3    0    0  0.16187211505E+02  0.14731537655E+02  0.22599152560E+02  0.31460542182E+02  0.00000000000E+00 0.  1.
</event>
<event>
 7    1  0.5155466E-011  0.5052886E+02  0.7816164E-02  0.1300439E+00
        -11   -1    0    0    0    0  0.00000000000E+00  0.00000000000E+00  0.45593999997E+02  0.45594000000E+02  0.51100000000E-03 0.  1.
         11   -1    0    0    0    0 -0.00000000000E+00 -0.00000000000E+00 -0.45593999997E+02  0.45594000000E+02  0.51100000000E-03 0. -1.
    9900012    2    1    2    0    0  0.30179845511E+02 -0.19815131816E+02 -0.18700352863E+02  0.50528859316E+02  0.29999998378E+02 0.  0.
        -12    1    1    2    0    0 -0.30179845511E+02  0.19815131816E+02  0.18700352863E+02  0.40659140684E+02  0.00000000000E+00 0.  1.
         11    1    3    3    0    0  0.88565434193E+01  0.39809455532E+01 -0.71518498511E+01  0.12059653618E+02  0.51100000000E-03 0. -1.
        -11    1    3    3    0    0  0.80264179532E+01 -0.18343284453E+02  0.16166749366E-01  0.20022480649E+02  0.51100000000E-03 0.  1.
        -12    1    3    3    0    0  0.13296884138E+02 -0.54527929158E+01 -0.11564669762E+02  0.18446725050E+02  0.00000000000E+00 0.  1.
</event>
<event>
 7    1  0.5155466E-011  0.5052887E+02  0.7816164E-02  0.1300439E+00
        -11   -1    0    0    0    0  0.00000000000E+00  0.00000000000E+00  0.45593999997E+02  0.45594000000E+02  0.51100000000E-03 0. -1.
         11   -1    0    0    0    0 -0.00000000000E+00 -0.00000000000E+00 -0.45593999997E+02  0.45594000000E+02  0.51100000000E-03 0.  1.
    9900012    2    1    2    0    0  0.39004171273E+02 -0.40497306749E-01  0.11482075043E+02  0.50528867397E+02  0.30000022940E+02 0.  0.
        -12    1    1    2    0    0 -0.39004171273E+02  0.40497306749E-01 -0.11482075043E+02  0.40659132603E+02  0.00000000000E+00 0.  1.
         11    1    3    3    0    0  0.24198743577E+02 -0.36638246043E+00  0.12434717541E+02  0.27209109273E+02  0.51100000000E-03 0. -1.
        -11    1    3    3    0    0  0.80800671319E+01  0.28432226064E+01 -0.90743910517E+01  0.12478620632E+02  0.51100000000E-03 0.  1.
        -12    1    3    3    0    0  0.67253605639E+01 -0.25173374528E+01  0.81217485534E+01  0.10841137492E+02  0.00000000000E+00 0.  1.
</event>
<event>
 7    1  0.5155466E-011  0.5052885E+02  0.7816164E-02  0.1300439E+00
        -11   -1    0    0    0    0  0.00000000000E+00  0.00000000000E+00  0.45593999997E+02  0.45594000000E+02  0.51100000000E-03 0.  1.
         11   -1    0    0    0    0 -0.00000000000E+00 -0.00000000000E+00 -0.45593999997E+02  0.45594000000E+02  0.51100000000E-03 0. -1.
    9900012    2    1    2    0    0  0.20761307883E+02 -0.32435847387E+02 -0.13040325848E+02  0.50528853440E+02  0.29999980517E+02 0.  0.
        -12    1    1    2    0    0 -0.20761307883E+02  0.32435847387E+02  0.13040325848E+02  0.40659146560E+02  0.00000000000E+00 0.  1.
         11    1    3    3    0    0  0.18381845810E+02 -0.13914672503E+02 -0.31800203053E+01  0.23272793035E+02  0.51100000000E-03 0. -1.
        -11    1    3    3    0    0  0.16855629312E+00 -0.99295045769E+01  0.40766061925E+01  0.10735091554E+02  0.51100000000E-03 0.  1.
         12    1    3    3    0    0  0.22109057796E+01 -0.85916703071E+01 -0.13936911736E+02  0.16520968850E+02  0.00000000000E+00 0. -1.
</event>
<event>
 7    1  0.5155466E-011  0.5052884E+02  0.7816164E-02  0.1300439E+00
        -11   -1    0    0    0    0  0.00000000000E+00  0.00000000000E+00  0.45593999997E+02  0.45594000000E+02  0.51100000000E-03 0.  1.
         11   -1    0    0    0    0 -0.00000000000E+00 -0.00000000000E+00 -0.45593999997E+02  0.45594000000E+02  0.51100000000E-03 0. -1.
    9900012    2    1    2    0    0 -0.24151763836E+02 -0.45558943396E+01 -0.32389860806E+02  0.50528844172E+02  0.29999952345E+02 0.  0.
        -12    1    1    2    0    0  0.24151763836E+02  0.45558943396E+01  0.32389860806E+02  0.40659155828E+02  0.00000000000E+00 0.  1.
         11    1    3    3    0    0 -0.86998457920E+01 -0.50729417409E+01 -0.20286947865E+02  0.22649112756E+02  0.51100000000E-03 0. -1.
        -11    1    3    3    0    0 -0.14167534447E+01  0.66694373797E+01  0.19455324298E+01  0.70903936408E+01  0.51100000000E-03 0.  1.
        -12    1    3    3    0    0 -0.14035164599E+02 -0.61523899785E+01 -0.14048445371E+02  0.20789337775E+02  0.00000000000E+00 0.  1.
</event>
<event>
 7    1  0.5155466E-011  0.5052886E+02  0.7816164E-02  0.1300439E+00
        -11   -1    0    0    0    0  0.00000000000E+00  0.00000000000E+00  0.45593999997E+02  0.45594000000E+02  0.51100000000E-03 0.  1.
         11   -1    0    0    0    0 -0.00000000000E+00 -0.00000000000E+00 -0.45593999997E+02  0.45594000000E+02  0.51100000000E-03 0. -1.
    9900012    2    1    2    0    0  0.11724168871E+01 -0.18099277723E+02 -0.36389661608E+02  0.50528857272E+02  0.29999992163E+02 0.  0.
        -12    1    1    2    0    0 -0.11724168871E+01  0.18099277723E+02  0.36389661608E+02  0.40659142728E+02  0.00000000000E+00 0.  1.
         11    1    3    3    0    0  0.14453530557E+01 -0.95305942531E+01 -0.56601639227E+01  0.11178494003E+02  0.51100000000E-03 0. -1.
        -11    1    3    3    0    0  0.41780688057E+01  0.63711520595E+01 -0.16791584727E+02  0.18439228710E+02  0.51100000000E-03 0.  1.
        -12    1    3    3    0    0 -0.44510049743E+01 -0.14939835529E+02 -0.13937912958E+02  0.20911134559E+02  0.00000000000E+00 0.  1.
</event>
<event>
 7    1  0.5155466E-011  0.5052885E+02  0.7816164E-02  0.1300439E+00
        -11   -1    0    0    0    0  0.00000000000E+00  0.00000000000E+00  0.45593999997E+02  0.45594000000E+02  0.51100000000E-03 0. -1.
         11   -1    0    0    0    0 -0.00000000000E+00 -0.00000000000E+00 -0.45593999997E+02  0.45594000000E+02  0.51100000000E-03 0.  1.
    9900012    2    1    2    0    0 -0.15462530526E+01 -0.36408562251E+02  0.18033087882E+02  0.50528848972E+02  0.29999966936E+02 0.  0.
        -12    1    1    2    0    0  0.15462530526E+01  0.36408562251E+02 -0.18033087882E+02  0.40659151028E+02  0.00000000000E+00 0.  1.
         11    1    3    3    0    0 -0.10648905875E+02 -0.21065334407E+02  0.14280186957E+02  0.27587519820E+02  0.51100000000E-03 0. -1.
        -11    1    3    3    0    0  0.84765762900E+01 -0.35314436012E+01  0.59067323487E+01  0.10918467237E+02  0.51100000000E-03 0.  1.
         12    1    3    3    0    0  0.62607653257E+00 -0.11811784243E+02 -0.21538314232E+01  0.12022861915E+02  0.00000000000E+00 0. -1.
</event>
<event>
 7    1  0.5155466E-011  0.5052886E+02  0.7816164E-02  0.1300439E+00
        -11   -1    0    0    0    0  0.00000000000E+00  0.00000000000E+00  0.45593999997E+02  0.45594000000E+02  0.51100000000E-03 0. -1.
         11   -1    0    0    0    0 -0.00000000000E+00 -0.00000000000E+00 -0.45593999997E+02  0.45594000000E+02  0.51100000000E-03 0.  1.
    9900012    2    1    2    0    0  0.11666097387E+02  0.46531758873E+00  0.38946776236E+02  0.50528859233E+02  0.29999998125E+02 0.  0.
        -12    1    1    2    0    0 -0.11666097387E+02 -0.46531758873E+00 -0.38946776236E+02  0.40659140767E+02  0.00000000000E+00 0.  1.
         11    1    3    3    0    0  0.98985829510E+01 -0.11155792716E+02  0.29842649190E+02  0.33361914911E+02  0.51100000000E-03 0. -1.
        -11    1    3    3    0    0 -0.32755458844E+01  0.45677194205E+01  0.52018719517E+01  0.76585072703E+01  0.51100000000E-03 0.  1.
         12    1    3    3    0    0  0.50430603201E+01  0.70533908838E+01  0.39022550942E+01  0.95084370521E+01  0.00000000000E+00 0. -1.
</event>
<event>
 7    1  0.5155466E-011  0.5052886E+02  0.7816164E-02  0.1300439E+00
        -11   -1    0    0    0    0  0.00000000000E+00  0.00000000000E+00  0.45593999997E+02  0.45594000000E+02  0.51100000000E-03 0.  1.
         11   -1    0    0    0    0 -0.00000000000E+00 -0.00000000000E+00 -0.45593999997E+02  0.45594000000E+02  0.51100000000E-03 0. -1.
    9900012    2    1    2    0    0 -0.19768906116E+02 -0.34716468034E+02 -0.75579637265E+01  0.50528860591E+02  0.30000002253E+02 0.  0.
        -12    1    1    2    0    0  0.19768906116E+02  0.34716468034E+02  0.75579637265E+01  0.40659139409E+02  0.00000000000E+00 0.  1.
         11    1    3    3    0    0 -0.10465583381E+02 -0.20088679280E+02 -0.95796714800E+01  0.24593771095E+02  0.51100000000E-03 0. -1.
        -11    1    3    3    0    0 -0.94524462861E+01  0.14192268738E+01  0.25011612758E+01  0.98802203265E+01  0.51100000000E-03 0.  1.
        -12    1    3    3    0    0  0.14912355135E+00 -0.16047015627E+02 -0.47945352229E+00  0.16054869170E+02  0.00000000000E+00 0.  1.
</event>
<event>
 7    1  0.5155466E-011  0.5052886E+02  0.7816164E-02  0.1300439E+00
        -11   -1    0    0    0    0  0.00000000000E+00  0.00000000000E+00  0.45593999997E+02  0.45594000000E+02  0.51100000000E-03 0.  1.
         11   -1    0    0    0    0 -0.00000000000E+00 -0.00000000000E+00 -0.45593999997E+02  0.45594000000E+02  0.51100000000E-03 0. -1.
    9900012    2    1    2    0    0  0.12918070453E+02 -0.26319369198E+02 -0.28170550218E+02  0.50528860329E+02  0.30000001456E+02 0.  0.
        -12    1    1    2    0    0 -0.12918070453E+02  0.26319369198E+02  0.28170550218E+02  0.40659139671E+02  0.00000000000E+00 0.  1.
         11    1    3    3    0    0  0.69428733494E+01 -0.42919848350E+01 -0.10032164369E+02  0.12933249644E+02  0.51100000000E-03 0. -1.
        -11    1    3    3    0    0 -0.86034171115E+01 -0.45266636125E+01 -0.27357307056E+01  0.10099192651E+02  0.51100000000E-03 0.  1.
        -12    1    3    3    0    0  0.14578614216E+02 -0.17500720750E+02 -0.15402655143E+02  0.27496418034E+02  0.00000000000E+00 0.  1.
</event>
<event>
 7    1  0.5155466E-011  0.5052885E+02  0.7816164E-02  0.1300439E+00
        -11   -1    0    0    0    0  0.00000000000E+00  0.00000000000E+00  0.45593999997E+02  0.45594000000E+02  0.51100000000E-03 0. -1.
         11   -1    0    0    0    0 -0.00000000000E+00 -0.00000000000E+00 -0.45593999997E+02  0.45594000000E+02  0.51100000000E-03 0.  1.
    9900012    2    1    2    0    0 -0.34585320416E+02  0.21827783908E+01  0.21266344482E+02  0.50528851984E+02  0.29999976089E+02 0.  0.
        -12    1    1    2    0    0  0.34585320416E+02 -0.21827783908E+01 -0.21266344482E+02  0.40659148016E+02  0.00000000000E+00 0.  1.
         11    1    3    3    0    0 -0.26465663836E+02  0.11432244173E+02  0.42085582467E+01  0.29134850812E+02  0.51100000000E-03 0. -1.
        -11    1    3    3    0    0 -0.49768772886E+00 -0.25692127205E+01  0.49919226327E+01  0.56362965598E+01  0.51100000000E-03 0.  1.
         12    1    3    3    0    0 -0.76219688516E+01 -0.66802530612E+01  0.12065863603E+02  0.15757704611E+02  0.00000000000E+00 0. -1.
</event>
<event>
 7    1  0.5155466E-011  0.5052886E+02  0.7816164E-02  0.1300439E+00
        -11   -1    0    0    0    0  0.00000000000E+00  0.00000000000E+00  0.45593999997E+02  0.45594000000E+02  0.51100000000E-03 0.  1.
         11   -1    0    0    0    0 -0.00000000000E+00 -0.00000000000E+00 -0.45593999997E+02  0.45594000000E+02  0.51100000000E-03 0. -1.
    9900012    2    1    2    0    0 -0.63416490919E+01 -0.27313286897E+02 -0.29443737482E+02  0.50528857963E+02  0.29999994263E+02 0.  0.
        -12    1    1    2    0    0  0.63416490919E+01  0.27313286897E+02  0.29443737482E+02  0.40659142037E+02  0.00000000000E+00 0.  1.
         11    1    3    3    0    0  0.28746092723E+01 -0.26376405169E+02 -0.13975513983E+02  0.29988216343E+02  0.51100000000E-03 0. -1.
        -11    1    3    3    0    0 -0.10393237216E+02 -0.79275619504E+00 -0.16113281519E+02  0.19190770797E+02  0.51100000000E-03 0.  1.
        -12    1    3    3    0    0  0.11769788518E+01 -0.14412553257E+00  0.64505802019E+00  0.13498708220E+01  0.00000000000E+00 0.  1.
</event>
<event>
 7    1  0.5155466E-011  0.5052886E+02  0.7816164E-02  0.1300439E+00
        -11   -1    0    0    0    0  0.00000000000E+00  0.00000000000E+00  0.45593999997E+02  0.45594000000E+02  0.51100000000E-03 0.  1.
         11   -1    0    0    0    0 -0.00000000000E+00 -0.00000000000E+00 -0.45593999997E+02  0.45594000000E+02  0.51100000000E-03 0. -1.
    9900012    2    1    2    0    0  0.24333434708E+02 -0.67169503904E+01 -0.31873692023E+02  0.50528859448E+02  0.29999998778E+02 0.  0.
        -12    1    1    2    0    0 -0.24333434708E+02  0.67169503904E+01  0.31873692023E+02  0.40659140552E+02  0.00000000000E+00 0.  1.
         11    1    3    3    0    0  0.23949265146E+02 -0.12885387189E+02 -0.12086927217E+02  0.29760616826E+02  0.51100000000E-03 0. -1.
        -11    1    3    3    0    0 -0.28029204479E+00  0.20630426333E+01 -0.81098585413E+01  0.83728438632E+01  0.51100000000E-03 0.  1.
         12    1    3    3    0    0  0.66446160711E+00  0.41053941649E+01 -0.11676906265E+02  0.12395398759E+02  0.00000000000E+00 0. -1.
</event>
<event>
 7    1  0.5155466E-011  0.5052887E+02  0.7816164E-02  0.1300439E+00
        -11   -1    0    0    0    0  0.00000000000E+00  0.00000000000E+00  0.45593999997E+02  0.45594000000E+02  0.51100000000E-03 0. -1.
         11   -1    0    0    0    0 -0.00000000000E+00 -0.00000000000E+00 -0.45593999997E+02  0.45594000000E+02  0.51100000000E-03 0.  1.
    9900012    2    1    2    0    0 -0.17980572913E+02 -0.42091676181E-01  0.36467277503E+02  0.50528866924E+02  0.30000021502E+02 0.  0.
        -12    1    1    2    0    0  0.17980572913E+02  0.42091676181E-01 -0.36467277503E+02  0.40659133076E+02  0.00000000000E+00 0.  1.
         11    1    3    3    0    0  0.13238448862E+00 -0.40767868595E+01  0.13478428037E+02  0.14082107064E+02  0.51100000000E-03 0. -1.
        -11    1    3    3    0    0 -0.15193010215E+02  0.78289501476E+01  0.49653090687E+01  0.17798154798E+02  0.51100000000E-03 0.  1.
        -12    1    3    3    0    0 -0.29199471870E+01 -0.37942549642E+01  0.18023540398E+02  0.18648605062E+02  0.00000000000E+00 0.  1.
</event>
<event>
 7    1  0.5155466E-011  0.5052886E+02  0.7816164E-02  0.1300439E+00
        -11   -1    0    0    0    0  0.00000000000E+00  0.00000000000E+00  0.45593999997E+02  0.45594000000E+02  0.51100000000E-03 0. -1.
         11   -1    0    0    0    0 -0.00000000000E+00 -0.00000000000E+00 -0.45593999997E+02  0.45594000000E+02  0.51100000000E-03 0.  1.
    9900012    2    1    2    0    0  0.37219606491E+02 -0.11365360424E+02  0.11776897787E+02  0.50528857776E+02  0.29999993695E+02 0.  0.
        -12    1    1    2    0    0 -0.37219606491E+02  0.11365360424E+02 -0.11776897787E+02  0.40659142224E+02  0.00000000000E+00 0.  1.
         11    1    3    3    0    0  0.70229962439E+00  0.58111975434E+01  0.74464314420E+00  0.59006554996E+01  0.51100000000E-03 0.  1.
        -11    1    3    3    0    0  0.28042054662E+02 -0.17359604790E+02  0.13741283424E+02  0.35728638072E+02  0.51100000000E-03 0. -1.
         12    1    3    3    0    0  0.84752522051E+01  0.18304682203E+00 -0.27090287813E+01  0.88995642037E+01  0.00000000000E+00 0. -1.
</event>
<event>
 7    1  0.5155466E-011  0.5052884E+02  0.7816164E-02  0.1300439E+00
        -11   -1    0    0    0    0  0.00000000000E+00  0.00000000000E+00  0.45593999997E+02  0.45594000000E+02  0.51100000000E-03 0.  1.
         11   -1    0    0    0    0 -0.00000000000E+00 -0.00000000000E+00 -0.45593999997E+02  0.45594000000E+02  0.51100000000E-03 0. -1.
    9900012    2    1    2    0    0 -0.15496316902E+02 -0.11314419452E+02 -0.35847112860E+02  0.50528838358E+02  0.29999934671E+02 0.  0.
        -12    1    1    2    0    0  0.15496316902E+02  0.11314419452E+02  0.35847112860E+02  0.40659161642E+02  0.00000000000E+00 0.  1.
         11    1    3    3    0    0 -0.10503072521E+02 -0.16801415468E+02 -0.75977704951E+01  0.21220938030E+02  0.51100000000E-03 0. -1.
        -11    1    3    3    0    0 -0.40262183102E+01  0.32756590592E+01 -0.22112756650E+02  0.22713748767E+02  0.51100000000E-03 0.  1.
         12    1    3    3    0    0 -0.96702607073E+00  0.22113369572E+01 -0.61365857157E+01  0.65941515607E+01  0.00000000000E+00 0. -1.
</event>
<event>
 7    1  0.5155466E-011  0.5052887E+02  0.7816164E-02  0.1300439E+00
        -11   -1    0    0    0    0  0.00000000000E+00  0.00000000000E+00  0.45593999997E+02  0.45594000000E+02  0.51100000000E-03 0.  1.
         11   -1    0    0    0    0 -0.00000000000E+00 -0.00000000000E+00 -0.45593999997E+02  0.45594000000E+02  0.51100000000E-03 0. -1.
    9900012    2    1    2    0    0 -0.13623842401E+02  0.31332751830E+02 -0.22041197566E+02  0.50528870531E+02  0.30000032467E+02 0.  0.
        -12    1    1    2    0    0  0.13623842401E+02 -0.31332751830E+02  0.22041197566E+02  0.40659129469E+02  0.00000000000E+00 0.  1.
         11    1    3    3    0    0  0.50421715537E+01  0.14275711491E+02 -0.26638162565E+01  0.15372551833E+02  0.51100000000E-03 0.  1.
        -11    1    3    3    0    0 -0.10326337928E+02  0.13664808949E+02 -0.19753845929E+02  0.26145261289E+02  0.51100000000E-03 0. -1.
        -12    1    3    3    0    0 -0.83396760265E+01  0.33922313900E+01  0.37646461958E+00  0.90110574097E+01  0.00000000000E+00 0.  1.
</event>
<event>
 7    1  0.5155466E-011  0.5052884E+02  0.7816164E-02  0.1300439E+00
        -11   -1    0    0    0    0  0.00000000000E+00  0.00000000000E+00  0.45593999997E+02  0.45594000000E+02  0.51100000000E-03 0.  1.
         11   -1    0    0    0    0 -0.00000000000E+00 -0.00000000000E+00 -0.45593999997E+02  0.45594000000E+02  0.51100000000E-03 0. -1.
    9900012    2    1    2    0    0 -0.23931572002E+02 -0.10795309715E+02 -0.31046868802E+02  0.50528844662E+02  0.29999953836E+02 0.  0.
        -12    1    1    2    0    0  0.23931572002E+02  0.10795309715E+02  0.31046868802E+02  0.40659155338E+02  0.00000000000E+00 0.  1.
         11    1    3    3    0    0 -0.12849738559E+02 -0.66316264191E+01 -0.15450517890E+02  0.21161586740E+02  0.51100000000E-03 0. -1.
        -11    1    3    3    0    0  0.28203188410E+01  0.61358938819E+01 -0.11988627074E+01  0.68586196969E+01  0.51100000000E-03 0.  1.
        -12    1    3    3    0    0 -0.13902152284E+02 -0.10299577178E+02 -0.14397488205E+02  0.22508638226E+02  0.00000000000E+00 0.  1.
</event>
<event>
 7    1  0.5155466E-011  0.5052885E+02  0.7816164E-02  0.1300439E+00
        -11   -1    0    0    0    0  0.00000000000E+00  0.00000000000E+00  0.45593999997E+02  0.45594000000E+02  0.51100000000E-03 0.  1.
         11   -1    0    0    0    0 -0.00000000000E+00 -0.00000000000E+00 -0.45593999997E+02  0.45594000000E+02  0.51100000000E-03 0. -1.
    9900012    2    1    2    0    0  0.10430503258E+02 -0.36520071370E+02 -0.14513975042E+02  0.50528849953E+02  0.29999969916E+02 0.  0.
        -12    1    1    2    0    0 -0.10430503258E+02  0.36520071370E+02  0.14513975042E+02  0.40659150047E+02  0.00000000000E+00 0.  1.
         11    1    3    3    0    0  0.14871730259E+02 -0.24158188540E+02 -0.18369203107E+02  0.33796657490E+02  0.51100000000E-03 0. -1.
        -11    1    3    3    0    0 -0.39252166152E+01 -0.28897614373E+01  0.52274086229E+01  0.71472965388E+01  0.51100000000E-03 0.  1.
         12    1    3    3    0    0 -0.51601038645E+00 -0.94721213922E+01 -0.13721805582E+01  0.95848959239E+01  0.00000000000E+00 0. -1.
</event>
<event>
 7    1  0.5155466E-011  0.5052886E+02  0.7816164E-02  0.1300439E+00
        -11   -1    0    0    0    0  0.00000000000E+00  0.00000000000E+00  0.45593999997E+02  0.45594000000E+02  0.51100000000E-03 0. -1.
         11   -1    0    0    0    0 -0.00000000000E+00 -0.00000000000E+00 -0.45593999997E+02  0.45594000000E+02  0.51100000000E-03 0.  1.
    9900012    2    1    2    0    0  0.22488908882E+02  0.33746054033E+02  0.29356659598E+01  0.50528864248E+02  0.30000013368E+02 0.  0.
        -12    1    1    2    0    0 -0.22488908882E+02 -0.33746054033E+02 -0.29356659598E+01  0.40659135752E+02  0.00000000000E+00 0.  1.
         11    1    3    3    0    0  0.17414026489E+02  0.19382161890E+02 -0.11962675131E+02  0.28670928040E+02  0.51100000000E-03 0. -1.
        -11    1    3    3    0    0  0.32615665697E+01  0.31319330238E+01  0.53487097665E+01  0.70039644046E+01  0.51100000000E-03 0.  1.
         12    1    3    3    0    0  0.18133158230E+01  0.11231959119E+02  0.95496313240E+01  0.14853971804E+02  0.00000000000E+00 0. -1.
</event>
<event>
 7    1  0.5155466E-011  0.5052886E+02  0.7816164E-02  0.1300439E+00
        -11   -1    0    0    0    0  0.00000000000E+00  0.00000000000E+00  0.45593999997E+02  0.45594000000E+02  0.51100000000E-03 0.  1.
         11   -1    0    0    0    0 -0.00000000000E+00 -0.00000000000E+00 -0.45593999997E+02  0.45594000000E+02  0.51100000000E-03 0. -1.
    9900012    2    1    2    0    0  0.26442324428E+02  0.14327612741E+02 -0.27362172149E+02  0.50528862372E+02  0.30000007664E+02 0.  0.
        -12    1    1    2    0    0 -0.26442324428E+02 -0.14327612741E+02  0.27362172149E+02  0.40659137628E+02  0.00000000000E+00 0.  1.
         11    1    3    3    0    0  0.13853016740E+02  0.80724010697E+01 -0.30270284626E+02  0.34254340797E+02  0.51100000000E-03 0. -1.
        -11    1    3    3    0    0  0.32651700686E+01  0.34983940297E+01  0.43230732645E+01  0.64489579837E+01  0.51100000000E-03 0.  1.
         12    1    3    3    0    0  0.93241376194E+01  0.27568176415E+01 -0.14149607872E+01  0.98255635911E+01  0.00000000000E+00 0. -1.
</event>
<event>
 7    1  0.5155466E-011  0.5052886E+02  0.7816164E-02  0.1300439E+00
        -11   -1    0    0    0    0  0.00000000000E+00  0.00000000000E+00  0.45593999997E+02  0.45594000000E+02  0.51100000000E-03 0.  1.
         11   -1    0    0    0    0 -0.00000000000E+00 -0.00000000000E+00 -0.45593999997E+02  0.45594000000E+02  0.51100000000E-03 0. -1.
    9900012    2    1    2    0    0 -0.26188167740E+02 -0.23941376814E+02 -0.19853367192E+02  0.50528857828E+02  0.29999993853E+02 0.  0.
        -12    1    1    2    0    0  0.26188167740E+02  0.23941376814E+02  0.19853367192E+02  0.40659142172E+02  0.00000000000E+00 0.  1.
         11    1    3    3    0    0 -0.12566491673E+02 -0.23223394331E+02 -0.18108908035E+02  0.32018358916E+02  0.51100000000E-03 0. -1.
        -11    1    3    3    0    0  0.18171871621E+01  0.20512248036E+01 -0.36779570316E+00  0.27649532215E+01  0.51100000000E-03 0.  1.
         12    1    3    3    0    0 -0.15438863229E+02 -0.27692072865E+01 -0.13766634545E+01  0.15745545690E+02  0.00000000000E+00 0. -1.
</event>
<event>
 7    1  0.5155466E-011  0.5052885E+02  0.7816164E-02  0.1300439E+00
        -11   -1    0    0    0    0  0.00000000000E+00  0.00000000000E+00  0.45593999997E+02  0.45594000000E+02  0.51100000000E-03 0.  1.
         11   -1    0    0    0    0 -0.00000000000E+00 -0.00000000000E+00 -0.45593999997E+02  0.45594000000E+02  0.51100000000E-03 0. -1.
    9900012    2    1    2    0    0  0.28052696764E+02 -0.20474424286E+02 -0.21142628836E+02  0.50528848513E+02  0.29999965539E+02 0.  0.
        -12    1    1    2    0    0 -0.28052696764E+02  0.20474424286E+02  0.21142628836E+02  0.40659151487E+02  0.00000000000E+00 0.  1.
         11    1    3    3    0    0  0.16962453065E+02 -0.22259057225E+02 -0.66787747676E+01  0.28771452434E+02  0.51100000000E-03 0. -1.
        -11    1    3    3    0    0  0.21558902823E+01  0.78525914254E+00 -0.12297866295E+02  0.12510076359E+02  0.51100000000E-03 0.  1.
         12    1    3    3    0    0  0.89343534164E+01  0.99937379651E+00 -0.21659877730E+01  0.92473197191E+01  0.00000000000E+00 0. -1.
</event>
<event>
 7    1  0.5155466E-011  0.5052886E+02  0.7816164E-02  0.1300439E+00
        -11   -1    0    0    0    0  0.00000000000E+00  0.00000000000E+00  0.45593999997E+02  0.45594000000E+02  0.51100000000E-03 0.  1.
         11   -1    0    0    0    0 -0.00000000000E+00 -0.00000000000E+00 -0.45593999997E+02  0.45594000000E+02  0.51100000000E-03 0. -1.
    9900012    2    1    2    0    0  0.36089328186E+02  0.18443709179E+02 -0.32489333061E+01  0.50528860992E+02  0.30000003472E+02 0.  0.
        -12    1    1    2    0    0 -0.36089328186E+02 -0.18443709179E+02  0.32489333061E+01  0.40659139008E+02  0.00000000000E+00 0.  1.
         11    1    3    3    0    0  0.23666378633E+02  0.28824380522E+01 -0.10303083723E+02  0.25972282556E+02  0.51100000000E-03 0. -1.
        -11    1    3    3    0    0  0.12415414157E+02  0.16632859326E+02  0.37611729090E+01  0.21093623206E+02  0.51100000000E-03 0.  1.
        -12    1    3    3    0    0  0.75353960504E-02 -0.10715881995E+01  0.32929775082E+01  0.34629552295E+01  0.00000000000E+00 0.  1.
</event>
<event>
 7    1  0.5155466E-011  0.5052884E+02  0.7816164E-02  0.1300439E+00
        -11   -1    0    0    0    0  0.00000000000E+00  0.00000000000E+00  0.45593999997E+02  0.45594000000E+02  0.51100000000E-03 0.  1.
         11   -1    0    0    0    0 -0.00000000000E+00 -0.00000000000E+00 -0.45593999997E+02  0.45594000000E+02  0.51100000000E-03 0. -1.
    9900012    2    1    2    0    0 -0.23199861489E+02  0.31286641980E+02 -0.11665312906E+02  0.50528842794E+02  0.29999948156E+02 0.  0.
        -12    1    1    2    0    0  0.23199861489E+02 -0.31286641980E+02  0.11665312906E+02  0.40659157206E+02  0.00000000000E+00 0.  1.
         11    1    3    3    0    0 -0.10375129132E+02  0.75245089966E+01 -0.62160999513E+00  0.12831521321E+02  0.51100000000E-03 0. -1.
        -11    1    3    3    0    0 -0.56625525177E+01  0.21778068116E+02 -0.16976507683E+02  0.28187773329E+02  0.51100000000E-03 0.  1.
        -12    1    3    3    0    0 -0.71621798391E+01  0.19840648677E+01  0.59328047719E+01  0.95095481442E+01  0.00000000000E+00 0.  1.
</event>
<event>
 7    1  0.5155466E-011  0.5052887E+02  0.7816164E-02  0.1300439E+00
        -11   -1    0    0    0    0  0.00000000000E+00  0.00000000000E+00  0.45593999997E+02  0.45594000000E+02  0.51100000000E-03 0.  1.
         11   -1    0    0    0    0 -0.00000000000E+00 -0.00000000000E+00 -0.45593999997E+02  0.45594000000E+02  0.51100000000E-03 0. -1.
    9900012    2    1    2    0    0 -0.10846188170E+02  0.10190395443E+01 -0.39172523413E+02  0.50528870275E+02  0.30000031688E+02 0.  0.
        -12    1    1    2    0    0  0.10846188170E+02 -0.10190395443E+01  0.39172523413E+02  0.40659129725E+02  0.00000000000E+00 0.  1.
         11    1    3    3    0    0  0.81325861007E+01  0.36682528956E+01 -0.23633777029E+02  0.25261639949E+02  0.51100000000E-03 0. -1.
        -11    1    3    3    0    0 -0.15327059884E+02 -0.20111905987E+01 -0.14966112245E+02  0.21516230346E+02  0.51100000000E-03 0.  1.
         12    1    3    3    0    0 -0.36517143866E+01 -0.63802275257E+00 -0.57263413948E+00  0.37509999802E+01  0.00000000000E+00 0. -1.
</event>
<event>
 7    1  0.5155466E-011  0.5052887E+02  0.7816164E-02  0.1300439E+00
        -11   -1    0    0    0    0  0.00000000000E+00  0.00000000000E+00  0.45593999997E+02  0.45594000000E+02  0.51100000000E-03 0.  1.
         11   -1    0    0    0    0 -0.00000000000E+00 -0.00000000000E+00 -0.45593999997E+02  0.45594000000E+02  0.51100000000E-03 0. -1.
    9900012    2    1    2    0    0 -0.75566857935E+01 -0.38432080714E+02 -0.10910393443E+02  0.50528868021E+02  0.30000024838E+02 0.  0.
        -12    1    1    2    0    0  0.75566857935E+01  0.38432080714E+02  0.10910393443E+02  0.40659131979E+02  0.00000000000E+00 0.  1.
         11    1    3    3    0    0  0.50664586450E+01 -0.75942681453E+01 -0.12499382627E+01  0.92143506438E+01  0.51100000000E-03 0. -1.
        -11    1    3    3    0    0 -0.87459149631E+01 -0.28484774199E+02 -0.15764144819E+02  0.33710260335E+02  0.51100000000E-03 0.  1.
        -12    1    3    3    0    0 -0.38772294754E+01 -0.23530383696E+01  0.61036896386E+01  0.76042570431E+01  0.00000000000E+00 0.  1.
</event>
<event>
 7    1  0.5155466E-011  0.5052887E+02  0.7816164E-02  0.1300439E+00
        -11   -1    0    0    0    0  0.00000000000E+00  0.00000000000E+00  0.45593999997E+02  0.45594000000E+02  0.51100000000E-03 0.  1.
         11   -1    0    0    0    0 -0.00000000000E+00 -0.00000000000E+00 -0.45593999997E+02  0.45594000000E+02  0.51100000000E-03 0. -1.
    9900012    2    1    2    0    0 -0.23429716045E+02 -0.12799316493E+02 -0.30665796129E+02  0.50528866353E+02  0.30000019768E+02 0.  0.
        -12    1    1    2    0    0  0.23429716045E+02  0.12799316493E+02  0.30665796129E+02  0.40659133647E+02  0.00000000000E+00 0.  1.
         11    1    3    3    0    0 -0.10111662956E+01 -0.13978224842E+01 -0.21758159404E+02  0.21826448770E+02  0.51100000000E-03 0. -1.
        -11    1    3    3    0    0 -0.17442032932E+02 -0.39026071969E+01 -0.82297378337E+01  0.19676977431E+02  0.51100000000E-03 0.  1.
         12    1    3    3    0    0 -0.49765168174E+01 -0.74988868116E+01 -0.67789889148E+00  0.90254401529E+01  0.00000000000E+00 0. -1.
</event>
<event>
 7    1  0.5155466E-011  0.5052887E+02  0.7816164E-02  0.1300439E+00
        -11   -1    0    0    0    0  0.00000000000E+00  0.00000000000E+00  0.45593999997E+02  0.45594000000E+02  0.51100000000E-03 0. -1.
         11   -1    0    0    0    0 -0.00000000000E+00 -0.00000000000E+00 -0.45593999997E+02  0.45594000000E+02  0.51100000000E-03 0.  1.
    9900012    2    1    2    0    0  0.25070564205E+01  0.24053767195E+02  0.32684796647E+02  0.50528868430E+02  0.30000026081E+02 0.  0.
        -12    1    1    2    0    0 -0.25070564205E+01 -0.24053767195E+02 -0.32684796647E+02  0.40659131570E+02  0.00000000000E+00 0.  1.
         11    1    3    3    0    0  0.11058195737E+02  0.13879225340E+02  0.96581801288E+01  0.20203886573E+02  0.51100000000E-03 0. -1.
        -11    1    3    3    0    0  0.30320933402E+00 -0.71020449843E+00  0.13134653007E+02  0.13157333932E+02  0.51100000000E-03 0.  1.
         12    1    3    3    0    0 -0.88543486500E+01  0.10884746354E+02  0.98919635108E+01  0.17167647926E+02  0.00000000000E+00 0. -1.
</event>
<event>
 7    1  0.5155466E-011  0.5052886E+02  0.7816164E-02  0.1300439E+00
        -11   -1    0    0    0    0  0.00000000000E+00  0.00000000000E+00  0.45593999997E+02  0.45594000000E+02  0.51100000000E-03 0.  1.
         11   -1    0    0    0    0 -0.00000000000E+00 -0.00000000000E+00 -0.45593999997E+02  0.45594000000E+02  0.51100000000E-03 0. -1.
    9900012    2    1    2    0    0 -0.39242855097E+02 -0.56111628739E+00 -0.10623043466E+02  0.50528861051E+02  0.30000003650E+02 0.  0.
        -12    1    1    2    0    0  0.39242855097E+02  0.56111628739E+00  0.10623043466E+02  0.40659138949E+02  0.00000000000E+00 0.  1.
         11    1    3    3    0    0 -0.14143077551E+02  0.89335571318E+01 -0.10399029446E+02  0.19697078446E+02  0.51100000000E-03 0.  1.
        -11    1    3    3    0    0 -0.11614711018E+02 -0.70023899124E+01  0.70751068110E+01  0.15296800749E+02  0.51100000000E-03 0. -1.
         12    1    3    3    0    0 -0.13485066527E+02 -0.24922835068E+01 -0.72991208313E+01  0.15534981855E+02  0.00000000000E+00 0. -1.
</event>
<event>
 7    1  0.5155466E-011  0.5052886E+02  0.7816164E-02  0.1300439E+00
        -11   -1    0    0    0    0  0.00000000000E+00  0.00000000000E+00  0.45593999997E+02  0.45594000000E+02  0.51100000000E-03 0.  1.
         11   -1    0    0    0    0 -0.00000000000E+00 -0.00000000000E+00 -0.45593999997E+02  0.45594000000E+02  0.51100000000E-03 0. -1.
    9900012    2    1    2    0    0  0.74350293236E+01 -0.17281161551E+01 -0.39936196469E+02  0.50528857918E+02  0.29999994127E+02 0.  0.
        -12    1    1    2    0    0 -0.74350293236E+01  0.17281161551E+01  0.39936196469E+02  0.40659142082E+02  0.00000000000E+00 0.  1.
         11    1    3    3    0    0 -0.96184656564E+01  0.59679109401E+01 -0.15467184863E+02  0.19166758996E+02  0.51100000000E-03 0. -1.
        -11    1    3    3    0    0  0.68082923628E+01 -0.18499335435E+01 -0.13605680262E+02  0.15326109574E+02  0.51100000000E-03 0.  1.
         12    1    3    3    0    0  0.10245202617E+02 -0.58460935516E+01 -0.10863331344E+02  0.16035989348E+02  0.00000000000E+00 0. -1.
</event>
<event>
 7    1  0.5155466E-011  0.5052885E+02  0.7816164E-02  0.1300439E+00
        -11   -1    0    0    0    0  0.00000000000E+00  0.00000000000E+00  0.45593999997E+02  0.45594000000E+02  0.51100000000E-03 0.  1.
         11   -1    0    0    0    0 -0.00000000000E+00 -0.00000000000E+00 -0.45593999997E+02  0.45594000000E+02  0.51100000000E-03 0. -1.
    9900012    2    1    2    0    0 -0.27161841831E+02 -0.16899086862E+02 -0.25096244829E+02  0.50528852285E+02  0.29999977004E+02 0.  0.
        -12    1    1    2    0    0  0.27161841831E+02  0.16899086862E+02  0.25096244829E+02  0.40659147715E+02  0.00000000000E+00 0.  1.
         11    1    3    3    0    0 -0.11422092867E+01  0.27710479753E+00  0.84961148619E+00  0.14502651695E+01  0.51100000000E-03 0. -1.
        -11    1    3    3    0    0 -0.13870771364E+02 -0.18594941907E+02 -0.34242092230E+01  0.23449848012E+02  0.51100000000E-03 0.  1.
        -12    1    3    3    0    0 -0.12148861180E+02  0.14187502468E+01 -0.22521647092E+02  0.25628739103E+02  0.00000000000E+00 0.  1.
</event>
<event>
 7    1  0.5155466E-011  0.5052890E+02  0.7816164E-02  0.1300439E+00
        -11   -1    0    0    0    0  0.00000000000E+00  0.00000000000E+00  0.45593999997E+02  0.45594000000E+02  0.51100000000E-03 0.  1.
         11   -1    0    0    0    0 -0.00000000000E+00 -0.00000000000E+00 -0.45593999997E+02  0.45594000000E+02  0.51100000000E-03 0. -1.
    9900012    2    1    2    0    0 -0.30085543548E+01  0.34941234694E+02 -0.20572348776E+02  0.50528895049E+02  0.30000106992E+02 0.  0.
        -12    1    1    2    0    0  0.30085543548E+01 -0.34941234694E+02  0.20572348776E+02  0.40659104951E+02  0.00000000000E+00 0.  1.
         11    1    3    3    0    0 -0.37881940417E+00  0.31401584255E+01 -0.99220720051E+00  0.33149018791E+01  0.51100000000E-03 0. -1.
        -11    1    3    3    0    0 -0.14238349291E+02  0.22146158272E+02 -0.62205705743E+01  0.27053251474E+02  0.51100000000E-03 0.  1.
        -12    1    3    3    0    0  0.11608614341E+02  0.96549179958E+01 -0.13359571001E+02  0.20160741697E+02  0.00000000000E+00 0.  1.
</event>
<event>
 7    1  0.5155466E-011  0.5052886E+02  0.7816164E-02  0.1300439E+00
        -11   -1    0    0    0    0  0.00000000000E+00  0.00000000000E+00  0.45593999997E+02  0.45594000000E+02  0.51100000000E-03 0.  1.
         11   -1    0    0    0    0 -0.00000000000E+00 -0.00000000000E+00 -0.45593999997E+02  0.45594000000E+02  0.51100000000E-03 0. -1.
    9900012    2    1    2    0    0 -0.37677764955E+02  0.14828549213E+02  0.36967840245E+01  0.50528855199E+02  0.29999985864E+02 0.  0.
        -12    1    1    2    0    0  0.37677764955E+02 -0.14828549213E+02 -0.36967840245E+01  0.40659144801E+02  0.00000000000E+00 0.  1.
         11    1    3    3    0    0 -0.47512247616E+01  0.10086182227E+02  0.10245030511E+02  0.15141527634E+02  0.51100000000E-03 0. -1.
        -11    1    3    3    0    0 -0.22641792980E+02 -0.15046817049E+01 -0.33634332308E+01  0.22939649948E+02  0.51100000000E-03 0.  1.
         12    1    3    3    0    0 -0.10284747214E+02  0.62470486908E+01 -0.31848132557E+01  0.12447677618E+02  0.00000000000E+00 0. -1.
</event>
<event>
 7    1  0.5155466E-011  0.5052886E+02  0.7816164E-02  0.1300439E+00
        -11   -1    0    0    0    0  0.00000000000E+00  0.00000000000E+00  0.45593999997E+02  0.45594000000E+02  0.51100000000E-03 0. -1.
         11   -1    0    0    0    0 -0.00000000000E+00 -0.00000000000E+00 -0.45593999997E+02  0.45594000000E+02  0.51100000000E-03 0.  1.
    9900012    2    1    2    0    0 -0.26747191268E+02  0.25186113156E+02 -0.17418749469E+02  0.50528863638E+02  0.30000011515E+02 0.  0.
        -12    1    1    2    0    0  0.26747191268E+02 -0.25186113156E+02  0.17418749469E+02  0.40659136362E+02  0.00000000000E+00 0.  1.
         11    1    3    3    0    0 -0.13199517714E+02  0.16594202103E+02  0.81747456510E+00  0.21219403296E+02  0.51100000000E-03 0. -1.
        -11    1    3    3    0    0  0.71668756873E+00 -0.38439410842E+01 -0.42691106659E+01  0.57891994498E+01  0.51100000000E-03 0.  1.
         12    1    3    3    0    0 -0.14264361122E+02  0.12435852137E+02 -0.13967113368E+02  0.23520260892E+02  0.00000000000E+00 0. -1.
</event>
<event>
 7    1  0.5155466E-011  0.5052888E+02  0.7816164E-02  0.1300439E+00
        -11   -1    0    0    0    0  0.00000000000E+00  0.00000000000E+00  0.45593999997E+02  0.45594000000E+02  0.51100000000E-03 0. -1.
         11   -1    0    0    0    0 -0.00000000000E+00 -0.00000000000E+00 -0.45593999997E+02  0.45594000000E+02  0.51100000000E-03 0.  1.
    9900012    2    1    2    0    0 -0.32408721825E+02  0.23003074062E+02 -0.85847373447E+01  0.50528875785E+02  0.30000048436E+02 0.  0.
        -12    1    1    2    0    0  0.32408721825E+02 -0.23003074062E+02  0.85847373447E+01  0.40659124215E+02  0.00000000000E+00 0.  1.
         11    1    3    3    0    0 -0.11449319662E+02 -0.34968947460E+01  0.42751970348E+01  0.12711904009E+02  0.51100000000E-03 0. -1.
        -11    1    3    3    0    0 -0.21903950206E+02  0.26761803222E+02 -0.12525656410E+02  0.36781370489E+02  0.51100000000E-03 0.  1.
         12    1    3    3    0    0  0.94454804229E+00 -0.26183441371E+00 -0.33427796971E+00  0.10356012869E+01  0.00000000000E+00 0. -1.
</event>
<event>
 7    1  0.5155466E-011  0.5052887E+02  0.7816164E-02  0.1300439E+00
        -11   -1    0    0    0    0  0.00000000000E+00  0.00000000000E+00  0.45593999997E+02  0.45594000000E+02  0.51100000000E-03 0.  1.
         11   -1    0    0    0    0 -0.00000000000E+00 -0.00000000000E+00 -0.45593999997E+02  0.45594000000E+02  0.51100000000E-03 0. -1.
    9900012    2    1    2    0    0 -0.17085833461E+02  0.92135480426E+01 -0.35726033105E+02  0.50528872931E+02  0.30000039760E+02 0.  0.
        -12    1    1    2    0    0  0.17085833461E+02 -0.92135480426E+01  0.35726033105E+02  0.40659127069E+02  0.00000000000E+00 0.  1.
         11    1    3    3    0    0 -0.19842457948E+02  0.54583018227E+01 -0.96968799348E+01  0.22749630259E+02  0.51100000000E-03 0. -1.
        -11    1    3    3    0    0  0.46560268911E+01 -0.46315685768E+00 -0.91415463433E+01  0.10269419190E+02  0.51100000000E-03 0.  1.
         12    1    3    3    0    0 -0.18994024046E+01  0.42184030776E+01 -0.16887606827E+02  0.17509823482E+02  0.00000000000E+00 0. -1.
</event>
<event>
 7    1  0.5155466E-011  0.5052886E+02  0.7816164E-02  0.1300439E+00
        -11   -1    0    0    0    0  0.00000000000E+00  0.00000000000E+00  0.45593999997E+02  0.45594000000E+02  0.51100000000E-03 0.  1.
         11   -1    0    0    0    0 -0.00000000000E+00 -0.00000000000E+00 -0.45593999997E+02  0.45594000000E+02  0.51100000000E-03 0. -1.
    9900012    2    1    2    0    0 -0.30009882842E+02  0.18299876859E+02 -0.20437388407E+02  0.50528863190E+02  0.30000010152E+02 0.  0.
        -12    1    1    2    0    0  0.30009882842E+02 -0.18299876859E+02  0.20437388407E+02  0.40659136810E+02  0.00000000000E+00 0.  1.
         11    1    3    3    0    0 -0.18213016700E+02 -0.18062075603E+01 -0.18011519474E+02  0.25678613613E+02  0.51100000000E-03 0. -1.
        -11    1    3    3    0    0 -0.91643758253E+01  0.18071984711E+02 -0.47248145670E+01  0.20806400184E+02  0.51100000000E-03 0.  1.
         12    1    3    3    0    0 -0.26324903160E+01  0.20340997088E+01  0.22989456334E+01  0.40438493931E+01  0.00000000000E+00 0. -1.
</event>
<event>
 7    1  0.5155466E-011  0.5052887E+02  0.7816164E-02  0.1300439E+00
        -11   -1    0    0    0    0  0.00000000000E+00  0.00000000000E+00  0.45593999997E+02  0.45594000000E+02  0.51100000000E-03 0. -1.
         11   -1    0    0    0    0 -0.00000000000E+00 -0.00000000000E+00 -0.45593999997E+02  0.45594000000E+02  0.51100000000E-03 0.  1.
    9900012    2    1    2    0    0 -0.25968643101E+02 -0.80113207151E+01  0.30242577446E+02  0.50528866036E+02  0.30000018804E+02 0.  0.
        -12    1    1    2    0    0  0.25968643101E+02  0.80113207151E+01 -0.30242577446E+02  0.40659133964E+02  0.00000000000E+00 0.  1.
         11    1    3    3    0    0 -0.13607631492E+02 -0.35912413756E+01  0.13147094424E+02  0.19259043110E+02  0.51100000000E-03 0. -1.
        -11    1    3    3    0    0 -0.11680574583E+02  0.35603597883E+01 -0.19678374370E+00  0.12212727317E+02  0.51100000000E-03 0.  1.
        -12    1    3    3    0    0 -0.68043702628E+00 -0.79804391278E+01  0.17292266765E+02  0.19057095610E+02  0.00000000000E+00 0.  1.
</event>
<event>
 7    1  0.5155466E-011  0.5052886E+02  0.7816164E-02  0.1300439E+00
        -11   -1    0    0    0    0  0.00000000000E+00  0.00000000000E+00  0.45593999997E+02  0.45594000000E+02  0.51100000000E-03 0. -1.
         11   -1    0    0    0    0 -0.00000000000E+00 -0.00000000000E+00 -0.45593999997E+02  0.45594000000E+02  0.51100000000E-03 0.  1.
    9900012    2    1    2    0    0 -0.51596178617E+01 -0.24852883175E+02  0.31762839278E+02  0.50528863049E+02  0.30000009723E+02 0.  0.
        -12    1    1    2    0    0  0.51596178617E+01  0.24852883175E+02 -0.31762839278E+02  0.40659136951E+02  0.00000000000E+00 0.  1.
         11    1    3    3    0    0  0.58576960632E+01 -0.12057566423E+02  0.30330802390E+02  0.33161047708E+02  0.51100000000E-03 0. -1.
        -11    1    3    3    0    0 -0.80312696488E+01 -0.79944289554E+01  0.25239361971E+01  0.11609584001E+02  0.51100000000E-03 0.  1.
         12    1    3    3    0    0 -0.29860442761E+01 -0.48008877971E+01 -0.10918993087E+01  0.57582313395E+01  0.00000000000E+00 0. -1.
</event>
<event>
 7    1  0.5155466E-011  0.5052886E+02  0.7816164E-02  0.1300439E+00
        -11   -1    0    0    0    0  0.00000000000E+00  0.00000000000E+00  0.45593999997E+02  0.45594000000E+02  0.51100000000E-03 0. -1.
         11   -1    0    0    0    0 -0.00000000000E+00 -0.00000000000E+00 -0.45593999997E+02  0.45594000000E+02  0.51100000000E-03 0.  1.
    9900012    2    1    2    0    0 -0.19616466686E+02  0.21298142501E+02  0.28543806755E+02  0.50528861503E+02  0.30000005025E+02 0.  0.
        -12    1    1    2    0    0  0.19616466686E+02 -0.21298142501E+02 -0.28543806755E+02  0.40659138497E+02  0.00000000000E+00 0.  1.
         11    1    3    3    0    0 -0.87701345683E+01  0.13506712057E+02  0.60747118717E+01  0.17211875422E+02  0.51100000000E-03 0.  1.
        -11    1    3    3    0    0 -0.85444827053E+01 -0.61124581562E+01  0.94364201776E+01  0.14121485596E+02  0.51100000000E-03 0. -1.
         12    1    3    3    0    0 -0.23018494129E+01  0.13903888600E+02  0.13032674705E+02  0.19195500486E+02  0.00000000000E+00 0. -1.
</event>
<event>
 7    1  0.5155466E-011  0.5052896E+02  0.7816164E-02  0.1300438E+00
        -11   -1    0    0    0    0  0.00000000000E+00  0.00000000000E+00  0.45593999997E+02  0.45594000000E+02  0.51100000000E-03 0.  1.
         11   -1    0    0    0    0 -0.00000000000E+00 -0.00000000000E+00 -0.45593999997E+02  0.45594000000E+02  0.51100000000E-03 0. -1.
    9900012    2    1    2    0    0  0.30009626043E+02  0.55078209713E+01 -0.26874587090E+02  0.50528964370E+02  0.30000317698E+02 0.  0.
        -12    1    1    2    0    0 -0.30009626043E+02 -0.55078209713E+01  0.26874587090E+02  0.40659035630E+02  0.00000000000E+00 0.  1.
         11    1    3    3    0    0  0.19082109781E+02  0.17031490030E+02 -0.17095621882E+02  0.30764571411E+02  0.51100000000E-03 0. -1.
        -11    1    3    3    0    0  0.83696559649E+01 -0.51715418788E+01 -0.80229822827E+01  0.12695047512E+02  0.51100000000E-03 0.  1.
         12    1    3    3    0    0  0.25578602970E+01 -0.63521271796E+01 -0.17559829252E+01  0.70693454462E+01  0.00000000000E+00 0. -1.
</event>
<event>
 7    1  0.5155466E-011  0.5052886E+02  0.7816164E-02  0.1300439E+00
        -11   -1    0    0    0    0  0.00000000000E+00  0.00000000000E+00  0.45593999997E+02  0.45594000000E+02  0.51100000000E-03 0.  1.
         11   -1    0    0    0    0 -0.00000000000E+00 -0.00000000000E+00 -0.45593999997E+02  0.45594000000E+02  0.51100000000E-03 0. -1.
    9900012    2    1    2    0    0  0.44684613908E+01 -0.22925301830E+02 -0.33281061642E+02  0.50528859881E+02  0.30000000095E+02 0.  0.
        -12    1    1    2    0    0 -0.44684613908E+01  0.22925301830E+02  0.33281061642E+02  0.40659140119E+02  0.00000000000E+00 0.  1.
         11    1    3    3    0    0  0.52456483225E+01 -0.42144081701E+01 -0.25208410623E+02  0.26091033497E+02  0.51100000000E-03 0.  1.
        -11    1    3    3    0    0  0.36648502102E+00 -0.20403922754E+02 -0.88609067629E+01  0.22247922238E+02  0.51100000000E-03 0. -1.
         12    1    3    3    0    0 -0.11436719527E+01  0.16930290936E+01  0.78825574466E+00  0.21899041454E+01  0.00000000000E+00 0. -1.
</event>
<event>
 7    1  0.5155466E-011  0.5052886E+02  0.7816164E-02  0.1300439E+00
        -11   -1    0    0    0    0  0.00000000000E+00  0.00000000000E+00  0.45593999997E+02  0.45594000000E+02  0.51100000000E-03 0.  1.
         11   -1    0    0    0    0 -0.00000000000E+00 -0.00000000000E+00 -0.45593999997E+02  0.45594000000E+02  0.51100000000E-03 0. -1.
    9900012    2    1    2    0    0 -0.26115289720E+02 -0.24242669598E+02 -0.19581884012E+02  0.50528861201E+02  0.30000004107E+02 0.  0.
        -12    1    1    2    0    0  0.26115289720E+02  0.24242669598E+02  0.19581884012E+02  0.40659138799E+02  0.00000000000E+00 0.  1.
         11    1    3    3    0    0  0.41354339256E+01 -0.11288026863E+01 -0.66044916587E+01  0.78737106620E+01  0.51100000000E-03 0. -1.
        -11    1    3    3    0    0 -0.24893886348E+02 -0.23989563014E+02 -0.84562119109E+01  0.35590900961E+02  0.51100000000E-03 0.  1.
         12    1    3    3    0    0 -0.53568372983E+01  0.87569610258E+00 -0.45211804427E+01  0.70642495780E+01  0.00000000000E+00 0. -1.
</event>
<event>
 7    1  0.5155466E-011  0.5052886E+02  0.7816164E-02  0.1300439E+00
        -11   -1    0    0    0    0  0.00000000000E+00  0.00000000000E+00  0.45593999997E+02  0.45594000000E+02  0.51100000000E-03 0.  1.
         11   -1    0    0    0    0 -0.00000000000E+00 -0.00000000000E+00 -0.45593999997E+02  0.45594000000E+02  0.51100000000E-03 0. -1.
    9900012    2    1    2    0    0 -0.32043931290E+01 -0.40036707534E+02 -0.63213729310E+01  0.50528857840E+02  0.29999993889E+02 0.  0.
        -12    1    1    2    0    0  0.32043931290E+01  0.40036707534E+02  0.63213729310E+01  0.40659142160E+02  0.00000000000E+00 0.  1.
         11    1    3    3    0    0 -0.25217291388E+01 -0.15112471895E+02 -0.46091533634E+01  0.15999694360E+02  0.51100000000E-03 0.  1.
        -11    1    3    3    0    0 -0.84295837238E+01 -0.17414517648E+01 -0.48592707760E+01  0.98844852543E+01  0.51100000000E-03 0. -1.
        -12    1    3    3    0    0  0.77469197336E+01 -0.23182783874E+02  0.31470512085E+01  0.24644678225E+02  0.00000000000E+00 0.  1.
</event>
<event>
 7    1  0.5155466E-011  0.5052886E+02  0.7816164E-02  0.1300439E+00
        -11   -1    0    0    0    0  0.00000000000E+00  0.00000000000E+00  0.45593999997E+02  0.45594000000E+02  0.51100000000E-03 0. -1.
         11   -1    0    0    0    0 -0.00000000000E+00 -0.00000000000E+00 -0.45593999997E+02  0.45594000000E+02  0.51100000000E-03 0.  1.
    9900012    2    1    2    0    0 -0.23415437847E+01 -0.25008725511E+02  0.31972591736E+02  0.50528858330E+02  0.29999995381E+02 0.  0.
        -12    1    1    2    0    0  0.23415437847E+01  0.25008725511E+02 -0.31972591736E+02  0.40659141670E+02  0.00000000000E+00 0.  1.
         11    1    3    3    0    0  0.12938692602E+02 -0.15176063043E+02  0.21077624565E+02  0.29017045220E+02  0.51100000000E-03 0. -1.
        -11    1    3    3    0    0 -0.33766958807E+01 -0.20558762473E+01  0.69754791545E+00  0.40143835853E+01  0.51100000000E-03 0.  1.
         12    1    3    3    0    0 -0.11903540506E+02 -0.77767862206E+01  0.10197419255E+02  0.17497429525E+02  0.00000000000E+00 0. -1.
</event>
<event>
 7    1  0.5155466E-011  0.5052885E+02  0.7816164E-02  0.1300439E+00
        -11   -1    0    0    0    0  0.00000000000E+00  0.00000000000E+00  0.45593999997E+02  0.45594000000E+02  0.51100000000E-03 0.  1.
         11   -1    0    0    0    0 -0.00000000000E+00 -0.00000000000E+00 -0.45593999997E+02  0.45594000000E+02  0.51100000000E-03 0. -1.
    9900012    2    1    2    0    0 -0.31173980463E+02 -0.16719179786E+02 -0.20045399935E+02  0.50528854790E+02  0.29999984620E+02 0.  0.
        -12    1    1    2    0    0  0.31173980463E+02  0.16719179786E+02  0.20045399935E+02  0.40659145210E+02  0.00000000000E+00 0.  1.
         11    1    3    3    0    0  0.17395694302E+01  0.49606244595E+01 -0.64390661007E+01  0.83123684556E+01  0.51100000000E-03 0. -1.
        -11    1    3    3    0    0 -0.86177111129E+01 -0.90999575496E+01 -0.31130041870E+01  0.12913751103E+02  0.51100000000E-03 0.  1.
         12    1    3    3    0    0 -0.24295838781E+02 -0.12579846696E+02 -0.10493329647E+02  0.29302735231E+02  0.00000000000E+00 0. -1.
</event>
<event>
 7    1  0.5155466E-011  0.5052886E+02  0.7816164E-02  0.1300439E+00
        -11   -1    0    0    0    0  0.00000000000E+00  0.00000000000E+00  0.45593999997E+02  0.45594000000E+02  0.51100000000E-03 0.  1.
         11   -1    0    0    0    0 -0.00000000000E+00 -0.00000000000E+00 -0.45593999997E+02  0.45594000000E+02  0.51100000000E-03 0. -1.
    9900012    2    1    2    0    0 -0.18789628635E+02  0.97802958867E+01 -0.34705350746E+02  0.50528859548E+02  0.29999999083E+02 0.  0.
        -12    1    1    2    0    0  0.18789628635E+02 -0.97802958867E+01  0.34705350746E+02  0.40659140452E+02  0.00000000000E+00 0.  1.
         11    1    3    3    0    0 -0.21470290771E+02  0.49159665025E+01 -0.91791295770E+01  0.23862031190E+02  0.51100000000E-03 0. -1.
        -11    1    3    3    0    0  0.37284495938E+01  0.35996278642E+01 -0.12417031245E+02  0.13455159692E+02  0.51100000000E-03 0.  1.
         12    1    3    3    0    0 -0.10477874574E+01  0.12647015201E+01 -0.13109189924E+02  0.13211668667E+02  0.00000000000E+00 0. -1.
</event>
<event>
 7    1  0.5155466E-011  0.5052885E+02  0.7816164E-02  0.1300439E+00
        -11   -1    0    0    0    0  0.00000000000E+00  0.00000000000E+00  0.45593999997E+02  0.45594000000E+02  0.51100000000E-03 0. -1.
         11   -1    0    0    0    0 -0.00000000000E+00 -0.00000000000E+00 -0.45593999997E+02  0.45594000000E+02  0.51100000000E-03 0.  1.
    9900012    2    1    2    0    0 -0.40347128343E+02 -0.32342894873E+01 -0.38490807786E+01  0.50528845842E+02  0.29999957420E+02 0.  0.
        -12    1    1    2    0    0  0.40347128343E+02  0.32342894873E+01  0.38490807786E+01  0.40659154158E+02  0.00000000000E+00 0.  1.
         11    1    3    3    0    0 -0.21497535729E+02  0.97751956951E+01  0.23580201025E+01  0.23733072965E+02  0.51100000000E-03 0. -1.
        -11    1    3    3    0    0 -0.16229913747E+02 -0.11134441743E+02 -0.97858068505E+01  0.21980625767E+02  0.51100000000E-03 0.  1.
         12    1    3    3    0    0 -0.26196788678E+01 -0.18750434397E+01  0.35787059695E+01  0.48151471096E+01  0.00000000000E+00 0. -1.
</event>
<event>
 7    1  0.5155466E-011  0.5052886E+02  0.7816164E-02  0.1300439E+00
        -11   -1    0    0    0    0  0.00000000000E+00  0.00000000000E+00  0.45593999997E+02  0.45594000000E+02  0.51100000000E-03 0.  1.
         11   -1    0    0    0    0 -0.00000000000E+00 -0.00000000000E+00 -0.45593999997E+02  0.45594000000E+02  0.51100000000E-03 0. -1.
    9900012    2    1    2    0    0  0.38923696933E+02 -0.11746573824E+02  0.35992393386E+00  0.50528859272E+02  0.29999998243E+02 0.  0.
        -12    1    1    2    0    0 -0.38923696933E+02  0.11746573824E+02 -0.35992393386E+00  0.40659140728E+02  0.00000000000E+00 0.  1.
         11    1    3    3    0    0  0.24328063910E+02 -0.33860010664E+01  0.12521978865E+02  0.27570267532E+02  0.51100000000E-03 0. -1.
        -11    1    3    3    0    0  0.12228573724E+01  0.19243502120E+01 -0.29771242623E+01  0.37499030689E+01  0.51100000000E-03 0.  1.
         12    1    3    3    0    0  0.13372775650E+02 -0.10284922969E+02 -0.91849306686E+01  0.19208688671E+02  0.00000000000E+00 0. -1.
</event>
<event>
 7    1  0.5155466E-011  0.5052886E+02  0.7816164E-02  0.1300439E+00
        -11   -1    0    0    0    0  0.00000000000E+00  0.00000000000E+00  0.45593999997E+02  0.45594000000E+02  0.51100000000E-03 0.  1.
         11   -1    0    0    0    0 -0.00000000000E+00 -0.00000000000E+00 -0.45593999997E+02  0.45594000000E+02  0.51100000000E-03 0. -1.
    9900012    2    1    2    0    0  0.31610492472E+02 -0.88443415111E+01 -0.23994169735E+02  0.50528858441E+02  0.29999995716E+02 0.  0.
        -12    1    1    2    0    0 -0.31610492472E+02  0.88443415111E+01  0.23994169735E+02  0.40659141559E+02  0.00000000000E+00 0.  1.
         11    1    3    3    0    0  0.35458828069E+00  0.69739268297E+01 -0.50361907316E+01  0.86095647754E+01  0.51100000000E-03 0. -1.
        -11    1    3    3    0    0  0.13987206244E+02 -0.57501482832E+01 -0.11816969595E+01  0.15169131543E+02  0.51100000000E-03 0.  1.
         12    1    3    3    0    0  0.17268697948E+02 -0.10068120058E+02 -0.17776282044E+02  0.26750162123E+02  0.00000000000E+00 0. -1.
</event>
<event>
 7    1  0.5155466E-011  0.5052886E+02  0.7816164E-02  0.1300439E+00
        -11   -1    0    0    0    0  0.00000000000E+00  0.00000000000E+00  0.45593999997E+02  0.45594000000E+02  0.51100000000E-03 0. -1.
         11   -1    0    0    0    0 -0.00000000000E+00 -0.00000000000E+00 -0.45593999997E+02  0.45594000000E+02  0.51100000000E-03 0.  1.
    9900012    2    1    2    0    0 -0.63145846152E+01  0.25557934271E+02  0.30985214805E+02  0.50528861795E+02  0.30000005913E+02 0.  0.
        -12    1    1    2    0    0  0.63145846152E+01 -0.25557934271E+02 -0.30985214805E+02  0.40659138205E+02  0.00000000000E+00 0.  1.
         11    1    3    3    0    0 -0.14109036557E+02  0.20617597212E+02  0.11011474522E+02  0.27302065834E+02  0.51100000000E-03 0. -1.
        -11    1    3    3    0    0  0.28902956042E+00 -0.95683725940E+00 -0.94738701253E-01  0.10040175847E+01  0.51100000000E-03 0.  1.
         12    1    3    3    0    0  0.75054223814E+01  0.58971743179E+01  0.20068478984E+02  0.22222778377E+02  0.00000000000E+00 0. -1.
</event>
<event>
 7    1  0.5155466E-011  0.5052886E+02  0.7816164E-02  0.1300439E+00
        -11   -1    0    0    0    0  0.00000000000E+00  0.00000000000E+00  0.45593999997E+02  0.45594000000E+02  0.51100000000E-03 0.  1.
         11   -1    0    0    0    0 -0.00000000000E+00 -0.00000000000E+00 -0.45593999997E+02  0.45594000000E+02  0.51100000000E-03 0. -1.
    9900012    2    1    2    0    0 -0.15273523722E+02 -0.16050606146E+02 -0.34091981469E+02  0.50528859760E+02  0.29999999727E+02 0.  0.
        -12    1    1    2    0    0  0.15273523722E+02  0.16050606146E+02  0.34091981469E+02  0.40659140240E+02  0.00000000000E+00 0.  1.
         11    1    3    3    0    0 -0.89673737347E+01 -0.12670586946E+02 -0.15735824798E+02  0.22103704386E+02  0.51100000000E-03 0.  1.
        -11    1    3    3    0    0 -0.10846184781E+02  0.50040954853E+01 -0.12211658157E+02  0.17082309303E+02  0.51100000000E-03 0. -1.
        -12    1    3    3    0    0  0.45400347938E+01 -0.83841146858E+01 -0.61444985149E+01  0.11342846071E+02  0.00000000000E+00 0.  1.
</event>
<event>
 7    1  0.5155466E-011  0.5052886E+02  0.7816164E-02  0.1300439E+00
        -11   -1    0    0    0    0  0.00000000000E+00  0.00000000000E+00  0.45593999997E+02  0.45594000000E+02  0.51100000000E-03 0.  1.
         11   -1    0    0    0    0 -0.00000000000E+00 -0.00000000000E+00 -0.45593999997E+02  0.45594000000E+02  0.51100000000E-03 0. -1.
    9900012    2    1    2    0    0  0.37643556848E+02  0.10285814331E+02  0.11416221528E+02  0.50528862495E+02  0.30000008041E+02 0.  0.
        -12    1    1    2    0    0 -0.37643556848E+02 -0.10285814331E+02 -0.11416221528E+02  0.40659137505E+02  0.00000000000E+00 0.  1.
         11    1    3    3    0    0  0.57016384848E+00  0.99054832471E+01  0.80821992630E+01  0.12797094606E+02  0.51100000000E-03 0. -1.
        -11    1    3    3    0    0  0.16438459847E+02 -0.27175508643E+01  0.25077385636E+01  0.16849237306E+02  0.51100000000E-03 0.  1.
         12    1    3    3    0    0  0.20634933153E+02  0.30978819485E+01  0.82628370140E+00  0.20882530583E+02  0.00000000000E+00 0. -1.
</event>
<event>
 7    1  0.5155466E-011  0.5052885E+02  0.7816164E-02  0.1300439E+00
        -11   -1    0    0    0    0  0.00000000000E+00  0.00000000000E+00  0.45593999997E+02  0.45594000000E+02  0.51100000000E-03 0.  1.
         11   -1    0    0    0    0 -0.00000000000E+00 -0.00000000000E+00 -0.45593999997E+02  0.45594000000E+02  0.51100000000E-03 0. -1.
    9900012    2    1    2    0    0  0.27576646239E+02 -0.29713592264E+02 -0.31300323037E+01  0.50528854839E+02  0.29999984769E+02 0.  0.
        -12    1    1    2    0    0 -0.27576646239E+02  0.29713592264E+02  0.31300323037E+01  0.40659145161E+02  0.00000000000E+00 0.  1.
         11    1    3    3    0    0  0.29687754554E+02 -0.15806582144E+02  0.12460039811E+00  0.33633708315E+02  0.51100000000E-03 0.  1.
        -11    1    3    3    0    0 -0.45452118136E+01 -0.13317130752E+02 -0.28721182337E+01  0.14361545366E+02  0.51100000000E-03 0. -1.
         12    1    3    3    0    0  0.24341034981E+01 -0.58987936817E+00 -0.38251446807E+00  0.25336011578E+01  0.00000000000E+00 0. -1.
</event>
<event>
 7    1  0.5155466E-011  0.5052886E+02  0.7816164E-02  0.1300439E+00
        -11   -1    0    0    0    0  0.00000000000E+00  0.00000000000E+00  0.45593999997E+02  0.45594000000E+02  0.51100000000E-03 0. -1.
         11   -1    0    0    0    0 -0.00000000000E+00 -0.00000000000E+00 -0.45593999997E+02  0.45594000000E+02  0.51100000000E-03 0.  1.
    9900012    2    1    2    0    0 -0.28824415868E+02 -0.18381997481E+02  0.22009563424E+02  0.50528860024E+02  0.30000000528E+02 0.  0.
        -12    1    1    2    0    0  0.28824415868E+02  0.18381997481E+02 -0.22009563424E+02  0.40659139976E+02  0.00000000000E+00 0.  1.
         11    1    3    3    0    0 -0.17908123545E+02  0.14839730167E+01  0.72120777135E+01  0.19362776919E+02  0.51100000000E-03 0. -1.
        -11    1    3    3    0    0 -0.78389453966E+01 -0.19221117214E+02  0.17398730571E+02  0.27085350979E+02  0.51100000000E-03 0.  1.
        -12    1    3    3    0    0 -0.30773469262E+01 -0.64485328360E+00 -0.26012448603E+01  0.40807321261E+01  0.00000000000E+00 0.  1.
</event>
<event>
 7    1  0.5155466E-011  0.5052886E+02  0.7816164E-02  0.1300439E+00
        -11   -1    0    0    0    0  0.00000000000E+00  0.00000000000E+00  0.45593999997E+02  0.45594000000E+02  0.51100000000E-03 0.  1.
         11   -1    0    0    0    0 -0.00000000000E+00 -0.00000000000E+00 -0.45593999997E+02  0.45594000000E+02  0.51100000000E-03 0. -1.
    9900012    2    1    2    0    0 -0.34940348041E+02  0.14241650883E+02 -0.15149690975E+02  0.50528859850E+02  0.29999999999E+02 0.  0.
        -12    1    1    2    0    0  0.34940348041E+02 -0.14241650883E+02  0.15149690975E+02  0.40659140150E+02  0.00000000000E+00 0.  1.
         11    1    3    3    0    0 -0.33945854800E+02  0.15748092014E+02 -0.28147296710E+01  0.37526606076E+02  0.51100000000E-03 0. -1.
        -11    1    3    3    0    0  0.63216210850E+00 -0.36112154711E+00 -0.95608959759E+01  0.95885749632E+01  0.51100000000E-03 0.  1.
         12    1    3    3    0    0 -0.16266553495E+01 -0.11453195839E+01 -0.27740653280E+01  0.34136788102E+01  0.00000000000E+00 0. -1.
</event>
<event>
 7    1  0.5155466E-011  0.5052887E+02  0.7816164E-02  0.1300439E+00
        -11   -1    0    0    0    0  0.00000000000E+00  0.00000000000E+00  0.45593999997E+02  0.45594000000E+02  0.51100000000E-03 0. -1.
         11   -1    0    0    0    0 -0.00000000000E+00 -0.00000000000E+00 -0.45593999997E+02  0.45594000000E+02  0.51100000000E-03 0.  1.
    9900012    2    1    2    0    0  0.34639910876E+02  0.72404254569E+01  0.20020440045E+02  0.50528865652E+02  0.30000017637E+02 0.  0.
        -12    1    1    2    0    0 -0.34639910876E+02 -0.72404254569E+01 -0.20020440045E+02  0.40659134348E+02  0.00000000000E+00 0.  1.
         11    1    3    3    0    0  0.12221142530E+02  0.15805442899E+02  0.10828641272E+02  0.22725048340E+02  0.51100000000E-03 0.  1.
        -11    1    3    3    0    0  0.11584477927E+02 -0.42349979043E+01 -0.91409959716E+00  0.12368141106E+02  0.51100000000E-03 0. -1.
         12    1    3    3    0    0  0.10834290420E+02 -0.43300195379E+01  0.10105898370E+02  0.15435676207E+02  0.00000000000E+00 0. -1.
</event>
<event>
 7    1  0.5155466E-011  0.5052886E+02  0.7816164E-02  0.1300439E+00
        -11   -1    0    0    0    0  0.00000000000E+00  0.00000000000E+00  0.45593999997E+02  0.45594000000E+02  0.51100000000E-03 0.  1.
         11   -1    0    0    0    0 -0.00000000000E+00 -0.00000000000E+00 -0.45593999997E+02  0.45594000000E+02  0.51100000000E-03 0. -1.
    9900012    2    1    2    0    0  0.98812105519E+01  0.22056057603E+02 -0.32696444690E+02  0.50528862106E+02  0.30000006857E+02 0.  0.
        -12    1    1    2    0    0 -0.98812105519E+01 -0.22056057603E+02  0.32696444690E+02  0.40659137894E+02  0.00000000000E+00 0.  1.
         11    1    3    3    0    0  0.15706284309E+02  0.78776611275E+01 -0.20173742163E+02  0.26753033188E+02  0.51100000000E-03 0. -1.
        -11    1    3    3    0    0 -0.63470627576E+01  0.91061052914E+00 -0.67103757848E+01  0.92813555378E+01  0.51100000000E-03 0.  1.
         12    1    3    3    0    0  0.52198900091E+00  0.13267785946E+02 -0.58123267420E+01  0.14494473381E+02  0.00000000000E+00 0. -1.
</event>
<event>
 7    1  0.5155466E-011  0.5052887E+02  0.7816164E-02  0.1300439E+00
        -11   -1    0    0    0    0  0.00000000000E+00  0.00000000000E+00  0.45593999997E+02  0.45594000000E+02  0.51100000000E-03 0. -1.
         11   -1    0    0    0    0 -0.00000000000E+00 -0.00000000000E+00 -0.45593999997E+02  0.45594000000E+02  0.51100000000E-03 0.  1.
    9900012    2    1    2    0    0  0.16248328701E+02  0.31772562047E+02  0.19484887743E+02  0.50528871444E+02  0.30000035240E+02 0.  0.
        -12    1    1    2    0    0 -0.16248328701E+02 -0.31772562047E+02 -0.19484887743E+02  0.40659128556E+02  0.00000000000E+00 0.  1.
         11    1    3    3    0    0 -0.27696063491E+01  0.24178630115E+02  0.39058208163E+01  0.24648170522E+02  0.51100000000E-03 0. -1.
        -11    1    3    3    0    0  0.13539418730E+02  0.65459872036E+01  0.10548520228E+02  0.18369460724E+02  0.51100000000E-03 0.  1.
         12    1    3    3    0    0  0.54785163200E+01  0.10479447279E+01  0.50305466984E+01  0.75112401976E+01  0.00000000000E+00 0. -1.
</event>
<event>
 7    1  0.5155466E-011  0.5052886E+02  0.7816164E-02  0.1300439E+00
        -11   -1    0    0    0    0  0.00000000000E+00  0.00000000000E+00  0.45593999997E+02  0.45594000000E+02  0.51100000000E-03 0.  1.
         11   -1    0    0    0    0 -0.00000000000E+00 -0.00000000000E+00 -0.45593999997E+02  0.45594000000E+02  0.51100000000E-03 0. -1.
    9900012    2    1    2    0    0 -0.30090282567E+02 -0.41394230404E+00 -0.27341705293E+02  0.50528864477E+02  0.30000014063E+02 0.  0.
        -12    1    1    2    0    0  0.30090282567E+02  0.41394230404E+00  0.27341705293E+02  0.40659135523E+02  0.00000000000E+00 0.  1.
         11    1    3    3    0    0 -0.19098819592E+02  0.49576181145E+01 -0.22388914735E+02  0.29843029177E+02  0.51100000000E-03 0. -1.
        -11    1    3    3    0    0  0.18582231410E+01 -0.55300679917E+01 -0.52258789995E+01  0.78322702209E+01  0.51100000000E-03 0.  1.
         12    1    3    3    0    0 -0.12849686116E+02  0.15850757317E+00  0.27308844200E+00  0.12853565079E+02  0.00000000000E+00 0. -1.
</event>
<event>
 7    1  0.5155466E-011  0.5052886E+02  0.7816164E-02  0.1300439E+00
        -11   -1    0    0    0    0  0.00000000000E+00  0.00000000000E+00  0.45593999997E+02  0.45594000000E+02  0.51100000000E-03 0.  1.
         11   -1    0    0    0    0 -0.00000000000E+00 -0.00000000000E+00 -0.45593999997E+02  0.45594000000E+02  0.51100000000E-03 0. -1.
    9900012    2    1    2    0    0  0.15612486673E+02  0.84010147274E+01 -0.36590142339E+02  0.50528864434E+02  0.30000013935E+02 0.  0.
        -12    1    1    2    0    0 -0.15612486673E+02 -0.84010147274E+01  0.36590142339E+02  0.40659135566E+02  0.00000000000E+00 0.  1.
         11    1    3    3    0    0  0.15062515709E+02  0.14869701895E+02 -0.23171279113E+02  0.31383046218E+02  0.51100000000E-03 0. -1.
        -11    1    3    3    0    0  0.40352560075E+01 -0.61717106446E+01 -0.26703415572E+01  0.78424503582E+01  0.51100000000E-03 0.  1.
        -12    1    3    3    0    0 -0.34852850430E+01 -0.29697652298E+00 -0.10748521668E+02  0.11303367858E+02  0.00000000000E+00 0.  1.
</event>
<event>
 7    1  0.5155466E-011  0.5052886E+02  0.7816164E-02  0.1300439E+00
        -11   -1    0    0    0    0  0.00000000000E+00  0.00000000000E+00  0.45593999997E+02  0.45594000000E+02  0.51100000000E-03 0.  1.
         11   -1    0    0    0    0 -0.00000000000E+00 -0.00000000000E+00 -0.45593999997E+02  0.45594000000E+02  0.51100000000E-03 0. -1.
    9900012    2    1    2    0    0  0.89405639152E+01 -0.22702342183E+01 -0.39598968550E+02  0.50528856419E+02  0.29999989572E+02 0.  0.
        -12    1    1    2    0    0 -0.89405639152E+01  0.22702342183E+01  0.39598968550E+02  0.40659143581E+02  0.00000000000E+00 0.  1.
         11    1    3    3    0    0  0.26656091866E+01  0.14419306047E+01  0.10746536368E+01  0.32155119196E+01  0.51100000000E-03 0. -1.
        -11    1    3    3    0    0  0.10333299454E+02 -0.76182007609E+01 -0.39534386406E+02  0.41566594390E+02  0.51100000000E-03 0.  1.
        -12    1    3    3    0    0 -0.40583447251E+01  0.39060359379E+01 -0.11392357800E+01  0.57467501093E+01  0.00000000000E+00 0.  1.
</event>
<event>
 7    1  0.5155466E-011  0.5052885E+02  0.7816164E-02  0.1300439E+00
        -11   -1    0    0    0    0  0.00000000000E+00  0.00000000000E+00  0.45593999997E+02  0.45594000000E+02  0.51100000000E-03 0. -1.
         11   -1    0    0    0    0 -0.00000000000E+00 -0.00000000000E+00 -0.45593999997E+02  0.45594000000E+02  0.51100000000E-03 0.  1.
    9900012    2    1    2    0    0  0.32206407405E+02  0.91060978961E+01  0.23086639329E+02  0.50528848357E+02  0.29999965066E+02 0.  0.
        -12    1    1    2    0    0 -0.32206407405E+02 -0.91060978961E+01 -0.23086639329E+02  0.40659151643E+02  0.00000000000E+00 0.  1.
         11    1    3    3    0    0  0.23665970036E+02  0.11023116028E+02  0.14095046831E+02  0.29669134975E+02  0.51100000000E-03 0. -1.
        -11    1    3    3    0    0  0.71730055058E+01 -0.83454636964E+01  0.18582829251E+01  0.11160286196E+02  0.51100000000E-03 0.  1.
        -12    1    3    3    0    0  0.13674318627E+01  0.64284455645E+01  0.71333095725E+01  0.96994271857E+01  0.00000000000E+00 0.  1.
</event>
<event>
 7    1  0.5155466E-011  0.5052886E+02  0.7816164E-02  0.1300439E+00
        -11   -1    0    0    0    0  0.00000000000E+00  0.00000000000E+00  0.45593999997E+02  0.45594000000E+02  0.51100000000E-03 0.  1.
         11   -1    0    0    0    0 -0.00000000000E+00 -0.00000000000E+00 -0.45593999997E+02  0.45594000000E+02  0.51100000000E-03 0. -1.
    9900012    2    1    2    0    0 -0.56218311294E+01  0.10391824633E+02 -0.38904635890E+02  0.50528859598E+02  0.29999999236E+02 0.  0.
        -12    1    1    2    0    0  0.56218311294E+01 -0.10391824633E+02  0.38904635890E+02  0.40659140402E+02  0.00000000000E+00 0.  1.
         11    1    3    3    0    0  0.42072116343E+01  0.75007072704E+01 -0.26311227389E+02  0.27681075237E+02  0.51100000000E-03 0. -1.
        -11    1    3    3    0    0 -0.26822147621E+01 -0.52025119608E+01  0.50237756749E+00  0.58747587366E+01  0.51100000000E-03 0.  1.
         12    1    3    3    0    0 -0.71468280016E+01  0.80936293238E+01 -0.13095786068E+02  0.16973025625E+02  0.00000000000E+00 0. -1.
</event>
<event>
 7    1  0.5155466E-011  0.5052888E+02  0.7816164E-02  0.1300439E+00
        -11   -1    0    0    0    0  0.00000000000E+00  0.00000000000E+00  0.45593999997E+02  0.45594000000E+02  0.51100000000E-03 0.  1.
         11   -1    0    0    0    0 -0.00000000000E+00 -0.00000000000E+00 -0.45593999997E+02  0.45594000000E+02  0.51100000000E-03 0. -1.
    9900012    2    1    2    0    0  0.28637422416E+02 -0.13671135976E+02 -0.25419721354E+02  0.50528878573E+02  0.30000056912E+02 0.  0.
        -12    1    1    2    0    0 -0.28637422416E+02  0.13671135976E+02  0.25419721354E+02  0.40659121427E+02  0.00000000000E+00 0.  1.
         11    1    3    3    0    0  0.98467913889E+01 -0.15819189252E+02 -0.60316497805E+01  0.19585373333E+02  0.51100000000E-03 0.  1.
        -11    1    3    3    0    0  0.59434802349E+01  0.17197711254E+01  0.15463692492E+01  0.63776036364E+01  0.51100000000E-03 0. -1.
         12    1    3    3    0    0  0.12847150792E+02  0.42828215124E+00 -0.20934440822E+02  0.24565901604E+02  0.00000000000E+00 0. -1.
</event>
<event>
 7    1  0.5155466E-011  0.5052886E+02  0.7816164E-02  0.1300439E+00
        -11   -1    0    0    0    0  0.00000000000E+00  0.00000000000E+00  0.45593999997E+02  0.45594000000E+02  0.51100000000E-03 0.  1.
         11   -1    0    0    0    0 -0.00000000000E+00 -0.00000000000E+00 -0.45593999997E+02  0.45594000000E+02  0.51100000000E-03 0. -1.
    9900012    2    1    2    0    0 -0.39287627128E+02 -0.99898220028E+01 -0.31387301201E+01  0.50528858153E+02  0.29999994842E+02 0.  0.
        -12    1    1    2    0    0  0.39287627128E+02  0.99898220028E+01  0.31387301201E+01  0.40659141847E+02  0.00000000000E+00 0.  1.
         11    1    3    3    0    0 -0.27132015991E+02 -0.66044481019E+01 -0.56733622222E+01  0.28494772602E+02  0.51100000000E-03 0. -1.
        -11    1    3    3    0    0  0.40084818127E+01 -0.39908727968E+01  0.13503370811E+01  0.58153591993E+01  0.51100000000E-03 0.  1.
        -12    1    3    3    0    0 -0.16164092949E+02  0.60549889584E+00  0.11842950211E+01  0.16218726352E+02  0.00000000000E+00 0.  1.
</event>
<event>
 7    1  0.5155466E-011  0.5052887E+02  0.7816164E-02  0.1300439E+00
        -11   -1    0    0    0    0  0.00000000000E+00  0.00000000000E+00  0.45593999997E+02  0.45594000000E+02  0.51100000000E-03 0.  1.
         11   -1    0    0    0    0 -0.00000000000E+00 -0.00000000000E+00 -0.45593999997E+02  0.45594000000E+02  0.51100000000E-03 0. -1.
    9900012    2    1    2    0    0 -0.19561950995E+02 -0.40477803536E+01 -0.35413417199E+02  0.50528873470E+02  0.30000041399E+02 0.  0.
        -12    1    1    2    0    0  0.19561950995E+02  0.40477803536E+01  0.35413417199E+02  0.40659126530E+02  0.00000000000E+00 0.  1.
         11    1    3    3    0    0  0.38161103895E+01 -0.48996996181E+00 -0.40577945214E+01  0.55918213229E+01  0.51100000000E-03 0. -1.
        -11    1    3    3    0    0 -0.15033899061E+02 -0.11937801158E+01 -0.32840923455E+02  0.36138199811E+02  0.51100000000E-03 0.  1.
        -12    1    3    3    0    0 -0.83441623236E+01 -0.23640302760E+01  0.14853007782E+01  0.87988523359E+01  0.00000000000E+00 0.  1.
</event>
<event>
 7    1  0.5155466E-011  0.5052886E+02  0.7816164E-02  0.1300439E+00
        -11   -1    0    0    0    0  0.00000000000E+00  0.00000000000E+00  0.45593999997E+02  0.45594000000E+02  0.51100000000E-03 0. -1.
         11   -1    0    0    0    0 -0.00000000000E+00 -0.00000000000E+00 -0.45593999997E+02  0.45594000000E+02  0.51100000000E-03 0.  1.
    9900012    2    1    2    0    0  0.15469332792E+02  0.34771331697E+02  0.14311525985E+02  0.50528861531E+02  0.30000005109E+02 0.  0.
        -12    1    1    2    0    0 -0.15469332792E+02 -0.34771331697E+02 -0.14311525985E+02  0.40659138469E+02  0.00000000000E+00 0.  1.
         11    1    3    3    0    0 -0.66517597543E+01  0.16320738840E+02  0.96405034176E+01  0.20088597027E+02  0.51100000000E-03 0. -1.
        -11    1    3    3    0    0  0.59839043665E+01  0.74042476082E+00  0.18957659066E+01  0.63205434044E+01  0.51100000000E-03 0.  1.
         12    1    3    3    0    0  0.16137188180E+02  0.17710168096E+02  0.27752566610E+01  0.24119721099E+02  0.00000000000E+00 0. -1.
</event>
<event>
 7    1  0.5155466E-011  0.5052889E+02  0.7816164E-02  0.1300439E+00
        -11   -1    0    0    0    0  0.00000000000E+00  0.00000000000E+00  0.45593999997E+02  0.45594000000E+02  0.51100000000E-03 0.  1.
         11   -1    0    0    0    0 -0.00000000000E+00 -0.00000000000E+00 -0.45593999997E+02  0.45594000000E+02  0.51100000000E-03 0. -1.
    9900012    2    1    2    0    0 -0.23124057019E+02  0.28209439083E+02 -0.17962984102E+02  0.50528889529E+02  0.30000090213E+02 0.  0.
        -12    1    1    2    0    0  0.23124057019E+02 -0.28209439083E+02  0.17962984102E+02  0.40659110471E+02  0.00000000000E+00 0.  1.
         11    1    3    3    0    0 -0.71064039856E+01  0.98255799337E+01 -0.87107474424E+01  0.14930509700E+02  0.51100000000E-03 0. -1.
        -11    1    3    3    0    0 -0.10124569896E+02 -0.19573698817E+01 -0.10058630241E+02  0.14405355081E+02  0.51100000000E-03 0.  1.
        -12    1    3    3    0    0 -0.58930831383E+01  0.20341229031E+02  0.80639358145E+00  0.21193024748E+02  0.00000000000E+00 0.  1.
</event>
<event>
 7    1  0.5155466E-011  0.5052886E+02  0.7816164E-02  0.1300439E+00
        -11   -1    0    0    0    0  0.00000000000E+00  0.00000000000E+00  0.45593999997E+02  0.45594000000E+02  0.51100000000E-03 0. -1.
         11   -1    0    0    0    0 -0.00000000000E+00 -0.00000000000E+00 -0.45593999997E+02  0.45594000000E+02  0.51100000000E-03 0.  1.
    9900012    2    1    2    0    0  0.19921083007E+02 -0.26336337003E+02  0.23721581664E+02  0.50528860418E+02  0.30000001727E+02 0.  0.
        -12    1    1    2    0    0 -0.19921083007E+02  0.26336337003E+02 -0.23721581664E+02  0.40659139582E+02  0.00000000000E+00 0.  1.
         11    1    3    3    0    0  0.10001338445E+02  0.27435888223E+01  0.66535063551E+01  0.12321655627E+02  0.51100000000E-03 0. -1.
        -11    1    3    3    0    0  0.79145361144E+01 -0.19138909856E+02  0.30933580356E+01  0.20940549577E+02  0.51100000000E-03 0.  1.
         12    1    3    3    0    0  0.20052084473E+01 -0.99410159689E+01  0.13974717273E+02  0.17266655214E+02  0.00000000000E+00 0. -1.
</event>
<event>
 7    1  0.5155466E-011  0.5052882E+02  0.7816164E-02  0.1300439E+00
        -11   -1    0    0    0    0  0.00000000000E+00  0.00000000000E+00  0.45593999997E+02  0.45594000000E+02  0.51100000000E-03 0.  1.
         11   -1    0    0    0    0 -0.00000000000E+00 -0.00000000000E+00 -0.45593999997E+02  0.45594000000E+02  0.51100000000E-03 0. -1.
    9900012    2    1    2    0    0  0.14783907282E+01  0.36022300922E+02 -0.18798321138E+02  0.50528822924E+02  0.29999887761E+02 0.  0.
        -12    1    1    2    0    0 -0.14783907282E+01 -0.36022300922E+02  0.18798321138E+02  0.40659177076E+02  0.00000000000E+00 0.  1.
         11    1    3    3    0    0  0.35457095591E+01  0.21125855526E+02 -0.22592262398E+02  0.31133328581E+02  0.51100000000E-03 0. -1.
        -11    1    3    3    0    0 -0.62299269095E+01  0.13051670736E+02  0.26870791702E+01  0.14709809415E+02  0.51100000000E-03 0.  1.
         12    1    3    3    0    0  0.41626080786E+01  0.18447746603E+01  0.11068620906E+01  0.46856849287E+01  0.00000000000E+00 0. -1.
</event>
<event>
 7    1  0.5155466E-011  0.5052886E+02  0.7816164E-02  0.1300439E+00
        -11   -1    0    0    0    0  0.00000000000E+00  0.00000000000E+00  0.45593999997E+02  0.45594000000E+02  0.51100000000E-03 0. -1.
         11   -1    0    0    0    0 -0.00000000000E+00 -0.00000000000E+00 -0.45593999997E+02  0.45594000000E+02  0.51100000000E-03 0.  1.
    9900012    2    1    2    0    0  0.28949192046E+01 -0.40498896244E+02 -0.21505281855E+01  0.50528856801E+02  0.29999990732E+02 0.  0.
        -12    1    1    2    0    0 -0.28949192046E+01  0.40498896244E+02  0.21505281855E+01  0.40659143199E+02  0.00000000000E+00 0.  1.
         11    1    3    3    0    0 -0.18960740917E+01 -0.16419261305E+01 -0.89989900189E+01  0.93419933633E+01  0.51100000000E-03 0.  1.
        -11    1    3    3    0    0  0.96984505317E+00 -0.15644597233E+02  0.80706467598E+01  0.17630353411E+02  0.51100000000E-03 0. -1.
         12    1    3    3    0    0  0.38211482431E+01 -0.23212372881E+02 -0.12221849264E+01  0.23556510027E+02  0.00000000000E+00 0. -1.
</event>
<event>
 7    1  0.5155466E-011  0.5052886E+02  0.7816164E-02  0.1300439E+00
        -11   -1    0    0    0    0  0.00000000000E+00  0.00000000000E+00  0.45593999997E+02  0.45594000000E+02  0.51100000000E-03 0. -1.
         11   -1    0    0    0    0 -0.00000000000E+00 -0.00000000000E+00 -0.45593999997E+02  0.45594000000E+02  0.51100000000E-03 0.  1.
    9900012    2    1    2    0    0  0.37241112048E+01  0.40207821386E+02 -0.47568947504E+01  0.50528856470E+02  0.29999989727E+02 0.  0.
        -12    1    1    2    0    0 -0.37241112048E+01 -0.40207821386E+02  0.47568947504E+01  0.40659143530E+02  0.00000000000E+00 0.  1.
         11    1    3    3    0    0  0.96230882246E+00  0.35667337797E+02 -0.11026029297E+02  0.37345124797E+02  0.51100000000E-03 0. -1.
        -11    1    3    3    0    0 -0.74183102440E+00  0.36465130577E+01  0.82574712336E+01  0.90572182365E+01  0.51100000000E-03 0.  1.
         12    1    3    3    0    0  0.35036334068E+01  0.89397053151E+00 -0.19883366874E+01  0.41265134367E+01  0.00000000000E+00 0. -1.
</event>
<event>
 7    1  0.5155466E-011  0.5052885E+02  0.7816164E-02  0.1300439E+00
        -11   -1    0    0    0    0  0.00000000000E+00  0.00000000000E+00  0.45593999997E+02  0.45594000000E+02  0.51100000000E-03 0.  1.
         11   -1    0    0    0    0 -0.00000000000E+00 -0.00000000000E+00 -0.45593999997E+02  0.45594000000E+02  0.51100000000E-03 0. -1.
    9900012    2    1    2    0    0  0.98078395596E+01 -0.82128549825E+01 -0.38594319949E+02  0.50528852983E+02  0.29999979128E+02 0.  0.
        -12    1    1    2    0    0 -0.98078395596E+01  0.82128549825E+01  0.38594319949E+02  0.40659147017E+02  0.00000000000E+00 0.  1.
         11    1    3    3    0    0 -0.32594547864E+01  0.58083991765E+01 -0.26346452459E+02  0.27175303198E+02  0.51100000000E-03 0. -1.
        -11    1    3    3    0    0  0.80099353964E+01 -0.11997154995E+02 -0.85347877127E+01  0.16761067824E+02  0.51100000000E-03 0.  1.
        -12    1    3    3    0    0  0.50573589496E+01 -0.20240991638E+01 -0.37130797779E+01  0.65924819611E+01  0.00000000000E+00 0.  1.
</event>
<event>
 7    1  0.5155466E-011  0.5052887E+02  0.7816164E-02  0.1300439E+00
        -11   -1    0    0    0    0  0.00000000000E+00  0.00000000000E+00  0.45593999997E+02  0.45594000000E+02  0.51100000000E-03 0. -1.
         11   -1    0    0    0    0 -0.00000000000E+00 -0.00000000000E+00 -0.45593999997E+02  0.45594000000E+02  0.51100000000E-03 0.  1.
    9900012    2    1    2    0    0  0.12890493114E+02 -0.18145922264E+02  0.34025371899E+02  0.50528865228E+02  0.30000016348E+02 0.  0.
        -12    1    1    2    0    0 -0.12890493114E+02  0.18145922264E+02 -0.34025371899E+02  0.40659134772E+02  0.00000000000E+00 0.  1.
         11    1    3    3    0    0  0.12234448253E+02 -0.15429152928E+02  0.98538292340E+01  0.22019047094E+02  0.51100000000E-03 0. -1.
        -11    1    3    3    0    0 -0.54728972255E+01  0.32760514983E+01  0.12444353524E+02  0.13983813942E+02  0.51100000000E-03 0.  1.
        -12    1    3    3    0    0  0.61289420866E+01 -0.59928208345E+01  0.11727189141E+02  0.14526004192E+02  0.00000000000E+00 0.  1.
</event>
<event>
 7    1  0.5155466E-011  0.5052886E+02  0.7816164E-02  0.1300439E+00
        -11   -1    0    0    0    0  0.00000000000E+00  0.00000000000E+00  0.45593999997E+02  0.45594000000E+02  0.51100000000E-03 0.  1.
         11   -1    0    0    0    0 -0.00000000000E+00 -0.00000000000E+00 -0.45593999997E+02  0.45594000000E+02  0.51100000000E-03 0. -1.
    9900012    2    1    2    0    0  0.22447318159E+01 -0.31212270542E+02 -0.25959984358E+02  0.50528862759E+02  0.30000008842E+02 0.  0.
        -12    1    1    2    0    0 -0.22447318159E+01  0.31212270542E+02  0.25959984358E+02  0.40659137241E+02  0.00000000000E+00 0.  1.
         11    1    3    3    0    0 -0.95100170568E+01 -0.31706406312E+01 -0.70761280186E+00  0.10049582209E+02  0.51100000000E-03 0. -1.
        -11    1    3    3    0    0  0.57365998627E+01 -0.13875235974E+02 -0.18071480093E+02  0.23494874853E+02  0.51100000000E-03 0.  1.
         12    1    3    3    0    0  0.60181490100E+01 -0.14166393937E+02 -0.71808914627E+01  0.16984405697E+02  0.00000000000E+00 0. -1.
</event>
<event>
 7    1  0.5155466E-011  0.5052887E+02  0.7816164E-02  0.1300439E+00
        -11   -1    0    0    0    0  0.00000000000E+00  0.00000000000E+00  0.45593999997E+02  0.45594000000E+02  0.51100000000E-03 0. -1.
         11   -1    0    0    0    0 -0.00000000000E+00 -0.00000000000E+00 -0.45593999997E+02  0.45594000000E+02  0.51100000000E-03 0.  1.
    9900012    2    1    2    0    0  0.20153719680E+01 -0.15365324938E+02  0.37590025252E+02  0.50528869007E+02  0.30000027834E+02 0.  0.
        -12    1    1    2    0    0 -0.20153719680E+01  0.15365324938E+02 -0.37590025252E+02  0.40659130993E+02  0.00000000000E+00 0.  1.
         11    1    3    3    0    0 -0.82386108869E+00  0.79179381014E+01  0.10216565881E+02  0.12951861238E+02  0.51100000000E-03 0. -1.
        -11    1    3    3    0    0  0.56372030734E+01 -0.11874330307E+02  0.96186701349E+01  0.16287927865E+02  0.51100000000E-03 0.  1.
         12    1    3    3    0    0 -0.27979700167E+01 -0.11408932733E+02  0.17754789237E+02  0.21289079904E+02  0.00000000000E+00 0. -1.
</event>
<event>
 7    1  0.5155466E-011  0.5052886E+02  0.7816164E-02  0.1300439E+00
        -11   -1    0    0    0    0  0.00000000000E+00  0.00000000000E+00  0.45593999997E+02  0.45594000000E+02  0.51100000000E-03 0. -1.
         11   -1    0    0    0    0 -0.00000000000E+00 -0.00000000000E+00 -0.45593999997E+02  0.45594000000E+02  0.51100000000E-03 0.  1.
    9900012    2    1    2    0    0 -0.22196750031E+02 -0.33248784595E+02 -0.74154061168E+01  0.50528860353E+02  0.30000001528E+02 0.  0.
        -12    1    1    2    0    0  0.22196750031E+02  0.33248784595E+02  0.74154061168E+01  0.40659139647E+02  0.00000000000E+00 0.  1.
         11    1    3    3    0    0  0.68420462867E+00 -0.10803040532E+01  0.31612369404E+01  0.34100750836E+01  0.51100000000E-03 0. -1.
        -11    1    3    3    0    0 -0.99469178412E+01 -0.15387714394E+02 -0.16984693144E+02  0.24984049517E+02  0.51100000000E-03 0.  1.
        -12    1    3    3    0    0 -0.12934036819E+02 -0.16780766147E+02  0.64080500865E+01  0.22134735752E+02  0.00000000000E+00 0.  1.
</event>
<event>
 7    1  0.5155466E-011  0.5052884E+02  0.7816164E-02  0.1300439E+00
        -11   -1    0    0    0    0  0.00000000000E+00  0.00000000000E+00  0.45593999997E+02  0.45594000000E+02  0.51100000000E-03 0.  1.
         11   -1    0    0    0    0 -0.00000000000E+00 -0.00000000000E+00 -0.45593999997E+02  0.45594000000E+02  0.51100000000E-03 0. -1.
    9900012    2    1    2    0    0 -0.45927589780E+00  0.40473764273E+02 -0.38511201800E+01  0.50528835530E+02  0.29999926077E+02 0.  0.
        -12    1    1    2    0    0  0.45927589780E+00 -0.40473764273E+02  0.38511201800E+01  0.40659164470E+02  0.00000000000E+00 0.  1.
         11    1    3    3    0    0  0.49917339639E+01  0.11706473670E+02  0.19580351400E+01  0.12876056680E+02  0.51100000000E-03 0. -1.
        -11    1    3    3    0    0 -0.10087116095E+02  0.30593603780E+02 -0.48106590876E+01  0.32570860358E+02  0.51100000000E-03 0.  1.
        -12    1    3    3    0    0  0.46361062332E+01 -0.18263131778E+01 -0.99849623246E+00  0.50819184916E+01  0.00000000000E+00 0.  1.
</event>
<event>
 7    1  0.5155466E-011  0.5052885E+02  0.7816164E-02  0.1300439E+00
        -11   -1    0    0    0    0  0.00000000000E+00  0.00000000000E+00  0.45593999997E+02  0.45594000000E+02  0.51100000000E-03 0.  1.
         11   -1    0    0    0    0 -0.00000000000E+00 -0.00000000000E+00 -0.45593999997E+02  0.45594000000E+02  0.51100000000E-03 0. -1.
    9900012    2    1    2    0    0  0.21744853103E+02  0.30170391634E+02 -0.16433957164E+02  0.50528854462E+02  0.29999983623E+02 0.  0.
        -12    1    1    2    0    0 -0.21744853103E+02 -0.30170391634E+02  0.16433957164E+02  0.40659145538E+02  0.00000000000E+00 0.  1.
         11    1    3    3    0    0  0.19309420656E+02  0.18722762078E+02 -0.48220840248E+01  0.27324861216E+02  0.51100000000E-03 0. -1.
        -11    1    3    3    0    0 -0.69702622625E+00 -0.31360297481E+01  0.13096211336E+01  0.34692414035E+01  0.51100000000E-03 0.  1.
         12    1    3    3    0    0  0.31324586728E+01  0.14583659304E+02 -0.12921494273E+02  0.19734751842E+02  0.00000000000E+00 0. -1.
</event>
<event>
 7    1  0.5155466E-011  0.5052886E+02  0.7816164E-02  0.1300439E+00
        -11   -1    0    0    0    0  0.00000000000E+00  0.00000000000E+00  0.45593999997E+02  0.45594000000E+02  0.51100000000E-03 0.  1.
         11   -1    0    0    0    0 -0.00000000000E+00 -0.00000000000E+00 -0.45593999997E+02  0.45594000000E+02  0.51100000000E-03 0. -1.
    9900012    2    1    2    0    0 -0.50038753570E+01 -0.30825920958E+02 -0.26036311645E+02  0.50528859630E+02  0.29999999333E+02 0.  0.
        -12    1    1    2    0    0  0.50038753570E+01  0.30825920958E+02  0.26036311645E+02  0.40659140370E+02  0.00000000000E+00 0.  1.
         11    1    3    3    0    0  0.98868406309E+01 -0.11242842443E+02 -0.17090716312E+02  0.22720997078E+02  0.51100000000E-03 0. -1.
        -11    1    3    3    0    0 -0.14710798378E+02 -0.20566069099E+02 -0.89039708787E+01  0.26807675855E+02  0.51100000000E-03 0.  1.
        -12    1    3    3    0    0 -0.17991761008E+00  0.98299058419E+00 -0.41624454299E-01  0.10001866977E+01  0.00000000000E+00 0.  1.
</event>
<event>
 7    1  0.5155466E-011  0.5052886E+02  0.7816164E-02  0.1300439E+00
        -11   -1    0    0    0    0  0.00000000000E+00  0.00000000000E+00  0.45593999997E+02  0.45594000000E+02  0.51100000000E-03 0.  1.
         11   -1    0    0    0    0 -0.00000000000E+00 -0.00000000000E+00 -0.45593999997E+02  0.45594000000E+02  0.51100000000E-03 0. -1.
    9900012    2    1    2    0    0 -0.21159389132E+02  0.87319177118E+01 -0.33603560431E+02  0.50528863155E+02  0.30000010045E+02 0.  0.
        -12    1    1    2    0    0  0.21159389132E+02 -0.87319177118E+01  0.33603560431E+02  0.40659136845E+02  0.00000000000E+00 0.  1.
         11    1    3    3    0    0 -0.37339673235E+01 -0.49264939080E+01 -0.18432383857E+02  0.19441338152E+02  0.51100000000E-03 0. -1.
        -11    1    3    3    0    0 -0.13685845136E+02  0.53628763667E+01 -0.16264605983E+02  0.21922595833E+02  0.51100000000E-03 0.  1.
         12    1    3    3    0    0 -0.37395766724E+01  0.82955352530E+01  0.10934294088E+01  0.91649291702E+01  0.00000000000E+00 0. -1.
</event>
<event>
 7    1  0.5155466E-011  0.5052886E+02  0.7816164E-02  0.1300439E+00
        -11   -1    0    0    0    0  0.00000000000E+00  0.00000000000E+00  0.45593999997E+02  0.45594000000E+02  0.51100000000E-03 0. -1.
         11   -1    0    0    0    0 -0.00000000000E+00 -0.00000000000E+00 -0.45593999997E+02  0.45594000000E+02  0.51100000000E-03 0.  1.
    9900012    2    1    2    0    0  0.37926948812E+02 -0.13006081269E+02 -0.67493545283E+01  0.50528863478E+02  0.30000011027E+02 0.  0.
        -12    1    1    2    0    0 -0.37926948812E+02  0.13006081269E+02  0.67493545283E+01  0.40659136522E+02  0.00000000000E+00 0.  1.
         11    1    3    3    0    0  0.15329670593E+02  0.74418583122E+01 -0.79667350603E+01  0.18810872479E+02  0.51100000000E-03 0. -1.
        -11    1    3    3    0    0  0.18487043152E+02 -0.19575146735E+02 -0.10459027389E+01  0.26945334420E+02  0.51100000000E-03 0.  1.
        -12    1    3    3    0    0  0.41102350670E+01 -0.87279284641E+00  0.22632832708E+01  0.47726565792E+01  0.00000000000E+00 0.  1.
</event>
<event>
 7    1  0.5155466E-011  0.5052890E+02  0.7816164E-02  0.1300439E+00
        -11   -1    0    0    0    0  0.00000000000E+00  0.00000000000E+00  0.45593999997E+02  0.45594000000E+02  0.51100000000E-03 0. -1.
         11   -1    0    0    0    0 -0.00000000000E+00 -0.00000000000E+00 -0.45593999997E+02  0.45594000000E+02  0.51100000000E-03 0.  1.
    9900012    2    1    2    0    0 -0.34331188961E+02  0.18926059217E+02  0.10785927954E+02  0.50528898992E+02  0.30000118976E+02 0.  0.
        -12    1    1    2    0    0  0.34331188961E+02 -0.18926059217E+02 -0.10785927954E+02  0.40659101008E+02  0.00000000000E+00 0.  1.
         11    1    3    3    0    0 -0.16528653728E+02  0.81679823422E-01  0.24748363569E+01  0.16713105065E+02  0.51100000000E-03 0. -1.
        -11    1    3    3    0    0 -0.79879401850E+01  0.15886539092E+02  0.13500870919E+02  0.22326281117E+02  0.51100000000E-03 0.  1.
        -12    1    3    3    0    0 -0.98145950481E+01  0.29578403016E+01 -0.51897793211E+01  0.11489512810E+02  0.00000000000E+00 0.  1.
</event>
<event>
 7    1  0.5155466E-011  0.5052886E+02  0.7816164E-02  0.1300439E+00
        -11   -1    0    0    0    0  0.00000000000E+00  0.00000000000E+00  0.45593999997E+02  0.45594000000E+02  0.51100000000E-03 0.  1.
         11   -1    0    0    0    0 -0.00000000000E+00 -0.00000000000E+00 -0.45593999997E+02  0.45594000000E+02  0.51100000000E-03 0. -1.
    9900012    2    1    2    0    0  0.16071954607E+02 -0.11774140341E+02 -0.35443295502E+02  0.50528864475E+02  0.30000014057E+02 0.  0.
        -12    1    1    2    0    0 -0.16071954607E+02  0.11774140341E+02  0.35443295502E+02  0.40659135525E+02  0.00000000000E+00 0.  1.
         11    1    3    3    0    0  0.22413780707E+02 -0.11091313597E+02 -0.36103420075E+02  0.43918694702E+02  0.51100000000E-03 0. -1.
        -11    1    3    3    0    0 -0.37846907475E+01  0.21809843340E-01  0.10536783889E+01  0.39286891111E+01  0.51100000000E-03 0.  1.
         12    1    3    3    0    0 -0.25571353533E+01 -0.70463658687E+00 -0.39355381579E+00  0.26814806619E+01  0.00000000000E+00 0. -1.
</event>
<event>
 7    1  0.5155466E-011  0.5052885E+02  0.7816164E-02  0.1300439E+00
        -11   -1    0    0    0    0  0.00000000000E+00  0.00000000000E+00  0.45593999997E+02  0.45594000000E+02  0.51100000000E-03 0. -1.
         11   -1    0    0    0    0 -0.00000000000E+00 -0.00000000000E+00 -0.45593999997E+02  0.45594000000E+02  0.51100000000E-03 0.  1.
    9900012    2    1    2    0    0  0.36961587486E+02 -0.62510234975E+01  0.15745853683E+02  0.50528854012E+02  0.29999982256E+02 0.  0.
        -12    1    1    2    0    0 -0.36961587486E+02  0.62510234975E+01 -0.15745853683E+02  0.40659145988E+02  0.00000000000E+00 0.  1.
         11    1    3    3    0    0  0.20546685614E+02 -0.42039750860E+01 -0.56381788326E+01  0.21717015381E+02  0.51100000000E-03 0.  1.
        -11    1    3    3    0    0  0.15411745855E+02 -0.29933024056E+01  0.13197281757E+02  0.20509754158E+02  0.51100000000E-03 0. -1.
        -12    1    3    3    0    0  0.10031560166E+01  0.94625399405E+00  0.81867507589E+01  0.83020844734E+01  0.00000000000E+00 0.  1.
</event>
<event>
 7    1  0.5155466E-011  0.5052886E+02  0.7816164E-02  0.1300439E+00
        -11   -1    0    0    0    0  0.00000000000E+00  0.00000000000E+00  0.45593999997E+02  0.45594000000E+02  0.51100000000E-03 0.  1.
         11   -1    0    0    0    0 -0.00000000000E+00 -0.00000000000E+00 -0.45593999997E+02  0.45594000000E+02  0.51100000000E-03 0. -1.
    9900012    2    1    2    0    0  0.30959449701E+02  0.21427224853E-01 -0.26356735036E+02  0.50528862446E+02  0.30000007890E+02 0.  0.
        -12    1    1    2    0    0 -0.30959449701E+02 -0.21427224853E-01  0.26356735036E+02  0.40659137554E+02  0.00000000000E+00 0.  1.
         11    1    3    3    0    0  0.25148417955E+02  0.76740057816E+01 -0.23105826865E+02  0.35003035951E+02  0.51100000000E-03 0. -1.
        -11    1    3    3    0    0 -0.28827088057E+01 -0.17156336368E+01 -0.36928532604E+01  0.49890454295E+01  0.51100000000E-03 0.  1.
         12    1    3    3    0    0  0.86937405514E+01 -0.59369449199E+01  0.44194508953E+00  0.10536781065E+02  0.00000000000E+00 0. -1.
</event>
<event>
 7    1  0.5155466E-011  0.5052887E+02  0.7816164E-02  0.1300439E+00
        -11   -1    0    0    0    0  0.00000000000E+00  0.00000000000E+00  0.45593999997E+02  0.45594000000E+02  0.51100000000E-03 0.  1.
         11   -1    0    0    0    0 -0.00000000000E+00 -0.00000000000E+00 -0.45593999997E+02  0.45594000000E+02  0.51100000000E-03 0. -1.
    9900012    2    1    2    0    0  0.13612322547E+02  0.31187726104E+02 -0.22252975013E+02  0.50528874560E+02  0.30000044711E+02 0.  0.
        -12    1    1    2    0    0 -0.13612322547E+02 -0.31187726104E+02  0.22252975013E+02  0.40659125440E+02  0.00000000000E+00 0.  1.
         11    1    3    3    0    0  0.35486036562E+01  0.16551906530E+02 -0.14517850942E+02  0.22300811508E+02  0.51100000000E-03 0. -1.
        -11    1    3    3    0    0  0.17437109212E+01  0.76884286433E+01  0.65823719916E+01  0.10270349754E+02  0.51100000000E-03 0.  1.
        -12    1    3    3    0    0  0.83200079694E+01  0.69473909301E+01 -0.14317496063E+02  0.17957713297E+02  0.00000000000E+00 0.  1.
</event>
<event>
 7    1  0.5155466E-011  0.5052886E+02  0.7816164E-02  0.1300439E+00
        -11   -1    0    0    0    0  0.00000000000E+00  0.00000000000E+00  0.45593999997E+02  0.45594000000E+02  0.51100000000E-03 0.  1.
         11   -1    0    0    0    0 -0.00000000000E+00 -0.00000000000E+00 -0.45593999997E+02  0.45594000000E+02  0.51100000000E-03 0. -1.
    9900012    2    1    2    0    0 -0.14552599906E+01  0.24637942024E+02 -0.32311293661E+02  0.50528859984E+02  0.30000000406E+02 0.  0.
        -12    1    1    2    0    0  0.14552599906E+01 -0.24637942024E+02  0.32311293661E+02  0.40659140016E+02  0.00000000000E+00 0.  1.
         11    1    3    3    0    0 -0.75294924579E+01  0.23635058848E+02 -0.29248162015E+02  0.38350544259E+02  0.51100000000E-03 0. -1.
        -11    1    3    3    0    0  0.38796901506E+00 -0.38365169382E+01 -0.26910198278E+01  0.47022303377E+01  0.51100000000E-03 0.  1.
        -12    1    3    3    0    0  0.56862634523E+01  0.48394001140E+01 -0.37211181836E+00  0.74760853872E+01  0.00000000000E+00 0.  1.
</event>
<event>
 7    1  0.5155466E-011  0.5052877E+02  0.7816164E-02  0.1300439E+00
        -11   -1    0    0    0    0  0.00000000000E+00  0.00000000000E+00  0.45593999997E+02  0.45594000000E+02  0.51100000000E-03 0. -1.
         11   -1    0    0    0    0 -0.00000000000E+00 -0.00000000000E+00 -0.45593999997E+02  0.45594000000E+02  0.51100000000E-03 0.  1.
    9900012    2    1    2    0    0 -0.17704423241E+02 -0.35032586161E+02  0.10603958185E+02  0.50528774421E+02  0.29999740330E+02 0.  0.
        -12    1    1    2    0    0  0.17704423241E+02  0.35032586161E+02 -0.10603958185E+02  0.40659225579E+02  0.00000000000E+00 0.  1.
         11    1    3    3    0    0 -0.46532043637E+01 -0.49221127578E+01  0.10635773049E+02  0.12609487439E+02  0.51100000000E-03 0. -1.
        -11    1    3    3    0    0 -0.42926767114E+01 -0.16644440932E+02 -0.91243418361E+01  0.19460680910E+02  0.51100000000E-03 0.  1.
        -12    1    3    3    0    0 -0.87585421662E+01 -0.13466032472E+02  0.90925269722E+01  0.18458606073E+02  0.00000000000E+00 0.  1.
</event>
<event>
 7    1  0.5155466E-011  0.5052886E+02  0.7816164E-02  0.1300439E+00
        -11   -1    0    0    0    0  0.00000000000E+00  0.00000000000E+00  0.45593999997E+02  0.45594000000E+02  0.51100000000E-03 0.  1.
         11   -1    0    0    0    0 -0.00000000000E+00 -0.00000000000E+00 -0.45593999997E+02  0.45594000000E+02  0.51100000000E-03 0. -1.
    9900012    2    1    2    0    0  0.50178437257E+01  0.39658885441E+02 -0.74269673115E+01  0.50528858426E+02  0.29999995671E+02 0.  0.
        -12    1    1    2    0    0 -0.50178437257E+01 -0.39658885441E+02  0.74269673115E+01  0.40659141574E+02  0.00000000000E+00 0.  1.
         11    1    3    3    0    0  0.10762306363E+02  0.20711107859E+02 -0.21167018089E+01  0.23436246581E+02  0.51100000000E-03 0. -1.
        -11    1    3    3    0    0 -0.12063194324E+02  0.14371121270E+02 -0.39036851617E+01  0.19164773464E+02  0.51100000000E-03 0.  1.
        -12    1    3    3    0    0  0.63187316864E+01  0.45766563124E+01 -0.14065803409E+01  0.79278383801E+01  0.00000000000E+00 0.  1.
</event>
<event>
 7    1  0.5155466E-011  0.5052885E+02  0.7816164E-02  0.1300439E+00
        -11   -1    0    0    0    0  0.00000000000E+00  0.00000000000E+00  0.45593999997E+02  0.45594000000E+02  0.51100000000E-03 0.  1.
         11   -1    0    0    0    0 -0.00000000000E+00 -0.00000000000E+00 -0.45593999997E+02  0.45594000000E+02  0.51100000000E-03 0. -1.
    9900012    2    1    2    0    0 -0.32091993765E+02 -0.14805954075E+02  0.20101096470E+02  0.50528850732E+02  0.29999972286E+02 0.  0.
        -12    1    1    2    0    0  0.32091993765E+02  0.14805954075E+02 -0.20101096470E+02  0.40659149268E+02  0.00000000000E+00 0.  1.
         11    1    3    3    0    0 -0.69681986797E+01 -0.99238944232E+01 -0.40320104335E+01  0.12778755094E+02  0.51100000000E-03 0. -1.
        -11    1    3    3    0    0 -0.11409360582E+02  0.39624098484E+01  0.14216477942E+02  0.18654287605E+02  0.51100000000E-03 0.  1.
        -12    1    3    3    0    0 -0.13714434503E+02 -0.88444695004E+01  0.99166289617E+01  0.19095808033E+02  0.00000000000E+00 0.  1.
</event>
<event>
 7    1  0.5155466E-011  0.5052886E+02  0.7816164E-02  0.1300439E+00
        -11   -1    0    0    0    0  0.00000000000E+00  0.00000000000E+00  0.45593999997E+02  0.45594000000E+02  0.51100000000E-03 0.  1.
         11   -1    0    0    0    0 -0.00000000000E+00 -0.00000000000E+00 -0.45593999997E+02  0.45594000000E+02  0.51100000000E-03 0. -1.
    9900012    2    1    2    0    0  0.12781140698E+02 -0.62891464535E+01 -0.38082211796E+02  0.50528858642E+02  0.29999996329E+02 0.  0.
        -12    1    1    2    0    0 -0.12781140698E+02  0.62891464535E+01  0.38082211796E+02  0.40659141358E+02  0.00000000000E+00 0.  1.
         11    1    3    3    0    0  0.11883385765E+00 -0.57402260041E+01  0.40362476490E+00  0.57556258804E+01  0.51100000000E-03 0. -1.
        -11    1    3    3    0    0  0.65928767434E+01 -0.70436385216E+01 -0.32874720842E+02  0.34261146187E+02  0.51100000000E-03 0.  1.
        -12    1    3    3    0    0  0.60694300964E+01  0.64947180722E+01 -0.56111157197E+01  0.10512086575E+02  0.00000000000E+00 0.  1.
</event>
<event>
 7    1  0.5155466E-011  0.5052885E+02  0.7816164E-02  0.1300439E+00
        -11   -1    0    0    0    0  0.00000000000E+00  0.00000000000E+00  0.45593999997E+02  0.45594000000E+02  0.51100000000E-03 0.  1.
         11   -1    0    0    0    0 -0.00000000000E+00 -0.00000000000E+00 -0.45593999997E+02  0.45594000000E+02  0.51100000000E-03 0. -1.
    9900012    2    1    2    0    0 -0.20605182092E+02  0.15420764154E+02 -0.31476858407E+02  0.50528854518E+02  0.29999983793E+02 0.  0.
        -12    1    1    2    0    0  0.20605182092E+02 -0.15420764154E+02  0.31476858407E+02  0.40659145482E+02  0.00000000000E+00 0.  1.
         11    1    3    3    0    0 -0.15222390050E+02 -0.37544765516E+01 -0.18916353747E+02  0.24569202110E+02  0.51100000000E-03 0. -1.
        -11    1    3    3    0    0 -0.81695427208E+01  0.10585936395E+02 -0.95841070459E+01  0.16451704646E+02  0.51100000000E-03 0.  1.
         12    1    3    3    0    0  0.27867506782E+01  0.85893043105E+01 -0.29763976144E+01  0.95079477617E+01  0.00000000000E+00 0. -1.
</event>
<event>
 7    1  0.5155466E-011  0.5052886E+02  0.7816164E-02  0.1300439E+00
        -11   -1    0    0    0    0  0.00000000000E+00  0.00000000000E+00  0.45593999997E+02  0.45594000000E+02  0.51100000000E-03 0.  1.
         11   -1    0    0    0    0 -0.00000000000E+00 -0.00000000000E+00 -0.45593999997E+02  0.45594000000E+02  0.51100000000E-03 0. -1.
    9900012    2    1    2    0    0 -0.21010818231E+02  0.31645272717E+02 -0.14501304430E+02  0.50528860828E+02  0.30000002972E+02 0.  0.
        -12    1    1    2    0    0  0.21010818231E+02 -0.31645272717E+02  0.14501304430E+02  0.40659139172E+02  0.00000000000E+00 0.  1.
         11    1    3    3    0    0 -0.16865086259E+02  0.13812932382E+02 -0.13903199061E+02  0.25855892557E+02  0.51100000000E-03 0. -1.
        -11    1    3    3    0    0  0.38852043694E+01  0.15084531728E+02 -0.29750955299E+01  0.15858407994E+02  0.51100000000E-03 0.  1.
         12    1    3    3    0    0 -0.80309363411E+01  0.27478086067E+01  0.23769901603E+01  0.88145602769E+01  0.00000000000E+00 0. -1.
</event>
<event>
 7    1  0.5155466E-011  0.5052886E+02  0.7816164E-02  0.1300439E+00
        -11   -1    0    0    0    0  0.00000000000E+00  0.00000000000E+00  0.45593999997E+02  0.45594000000E+02  0.51100000000E-03 0.  1.
         11   -1    0    0    0    0 -0.00000000000E+00 -0.00000000000E+00 -0.45593999997E+02  0.45594000000E+02  0.51100000000E-03 0. -1.
    9900012    2    1    2    0    0  0.39481478987E+02  0.47809966497E+01  0.84569602188E+01  0.50528864642E+02  0.30000014565E+02 0.  0.
        -12    1    1    2    0    0 -0.39481478987E+02 -0.47809966497E+01 -0.84569602188E+01  0.40659135358E+02  0.00000000000E+00 0.  1.
         11    1    3    3    0    0  0.38521620835E+02  0.27890072192E+01  0.54691716415E+01  0.39007764250E+02  0.51100000000E-03 0. -1.
        -11    1    3    3    0    0  0.16402592180E+01  0.57502674126E+01  0.44264877291E+01  0.74397459295E+01  0.51100000000E-03 0.  1.
         12    1    3    3    0    0 -0.68040106676E+00 -0.37582779820E+01 -0.14386991517E+01  0.40813544628E+01  0.00000000000E+00 0. -1.
</event>
<event>
 7    1  0.5155466E-011  0.5052886E+02  0.7816164E-02  0.1300439E+00
        -11   -1    0    0    0    0  0.00000000000E+00  0.00000000000E+00  0.45593999997E+02  0.45594000000E+02  0.51100000000E-03 0.  1.
         11   -1    0    0    0    0 -0.00000000000E+00 -0.00000000000E+00 -0.45593999997E+02  0.45594000000E+02  0.51100000000E-03 0. -1.
    9900012    2    1    2    0    0 -0.10964673715E+02 -0.12075549693E+02 -0.37244098683E+02  0.50528857648E+02  0.29999993307E+02 0.  0.
        -12    1    1    2    0    0  0.10964673715E+02  0.12075549693E+02  0.37244098683E+02  0.40659142352E+02  0.00000000000E+00 0.  1.
         11    1    3    3    0    0 -0.96602737655E+01 -0.45883154786E+01 -0.39152341945E+02  0.40586690038E+02  0.51100000000E-03 0. -1.
        -11    1    3    3    0    0  0.20350114633E+01 -0.16454126228E+01  0.18642135471E+01  0.32130899093E+01  0.51100000000E-03 0.  1.
         12    1    3    3    0    0 -0.33394114131E+01 -0.58418215913E+01  0.44029715128E-01  0.67290777010E+01  0.00000000000E+00 0. -1.
</event>
<event>
 7    1  0.5155466E-011  0.5052886E+02  0.7816164E-02  0.1300439E+00
        -11   -1    0    0    0    0  0.00000000000E+00  0.00000000000E+00  0.45593999997E+02  0.45594000000E+02  0.51100000000E-03 0. -1.
         11   -1    0    0    0    0 -0.00000000000E+00 -0.00000000000E+00 -0.45593999997E+02  0.45594000000E+02  0.51100000000E-03 0.  1.
    9900012    2    1    2    0    0 -0.17325985046E+02 -0.32011476097E+02  0.18117431933E+02  0.50528859582E+02  0.29999999184E+02 0.  0.
        -12    1    1    2    0    0  0.17325985046E+02  0.32011476097E+02 -0.18117431933E+02  0.40659140418E+02  0.00000000000E+00 0.  1.
         11    1    3    3    0    0 -0.69577893301E+01 -0.30559097229E+02  0.20372011348E+02  0.37380317046E+02  0.51100000000E-03 0. -1.
        -11    1    3    3    0    0  0.35085388418E+00 -0.19922733106E+01  0.46716132193E+00  0.20761722843E+01  0.51100000000E-03 0.  1.
         12    1    3    3    0    0 -0.10719049600E+02  0.53989444270E+00 -0.27217407376E+01  0.11072370251E+02  0.00000000000E+00 0. -1.
</event>
<event>
 7    1  0.5155466E-011  0.5052886E+02  0.7816164E-02  0.1300439E+00
        -11   -1    0    0    0    0  0.00000000000E+00  0.00000000000E+00  0.45593999997E+02  0.45594000000E+02  0.51100000000E-03 0.  1.
         11   -1    0    0    0    0 -0.00000000000E+00 -0.00000000000E+00 -0.45593999997E+02  0.45594000000E+02  0.51100000000E-03 0. -1.
    9900012    2    1    2    0    0  0.16296599092E+02  0.11683693308E+02 -0.35370582730E+02  0.50528856453E+02  0.29999989675E+02 0.  0.
        -12    1    1    2    0    0 -0.16296599092E+02 -0.11683693308E+02  0.35370582730E+02  0.40659143547E+02  0.00000000000E+00 0.  1.
         11    1    3    3    0    0  0.37527125379E+01  0.88708718499E+00  0.40863557563E+01  0.56185477389E+01  0.51100000000E-03 0. -1.
        -11    1    3    3    0    0  0.78589145204E+00  0.52716161576E+01 -0.24616331652E+02  0.25186729573E+02  0.51100000000E-03 0.  1.
        -12    1    3    3    0    0  0.11757995102E+02  0.55249899658E+01 -0.14840606834E+02  0.19723579142E+02  0.00000000000E+00 0.  1.
</event>
<event>
 7    1  0.5155466E-011  0.5052886E+02  0.7816164E-02  0.1300439E+00
        -11   -1    0    0    0    0  0.00000000000E+00  0.00000000000E+00  0.45593999997E+02  0.45594000000E+02  0.51100000000E-03 0.  1.
         11   -1    0    0    0    0 -0.00000000000E+00 -0.00000000000E+00 -0.45593999997E+02  0.45594000000E+02  0.51100000000E-03 0. -1.
    9900012    2    1    2    0    0  0.13166409196E+02  0.61087263880E+01 -0.37980190568E+02  0.50528859025E+02  0.29999997494E+02 0.  0.
        -12    1    1    2    0    0 -0.13166409196E+02 -0.61087263880E+01  0.37980190568E+02  0.40659140975E+02  0.00000000000E+00 0.  1.
         11    1    3    3    0    0  0.98449965916E+01 -0.35058704134E+01 -0.26741906168E+02  0.28711402456E+02  0.51100000000E-03 0. -1.
        -11    1    3    3    0    0  0.15332789081E+01  0.21276006933E+01  0.39781624243E+01  0.47648090681E+01  0.51100000000E-03 0.  1.
        -12    1    3    3    0    0  0.17881336965E+01  0.74869961081E+01 -0.15216446824E+02  0.17052647501E+02  0.00000000000E+00 0.  1.
</event>
<event>
 7    1  0.5155466E-011  0.5052887E+02  0.7816164E-02  0.1300439E+00
        -11   -1    0    0    0    0  0.00000000000E+00  0.00000000000E+00  0.45593999997E+02  0.45594000000E+02  0.51100000000E-03 0. -1.
         11   -1    0    0    0    0 -0.00000000000E+00 -0.00000000000E+00 -0.45593999997E+02  0.45594000000E+02  0.51100000000E-03 0.  1.
    9900012    2    1    2    0    0  0.64544125549E+01  0.37884182899E+02 -0.13277571442E+02  0.50528872381E+02  0.30000038090E+02 0.  0.
        -12    1    1    2    0    0 -0.64544125549E+01 -0.37884182899E+02  0.13277571442E+02  0.40659127619E+02  0.00000000000E+00 0.  1.
         11    1    3    3    0    0  0.40738304030E+01  0.95314366752E+01  0.49673869234E+01  0.11494316524E+02  0.51100000000E-03 0. -1.
        -11    1    3    3    0    0 -0.81022166216E+01  0.79345903471E+01 -0.81251206365E+01  0.13950671087E+02  0.51100000000E-03 0.  1.
        -12    1    3    3    0    0  0.10482798773E+02  0.20418155876E+02 -0.10119837729E+02  0.25083884770E+02  0.00000000000E+00 0.  1.
</event>
<event>
 7    1  0.5155466E-011  0.5052886E+02  0.7816164E-02  0.1300439E+00
        -11   -1    0    0    0    0  0.00000000000E+00  0.00000000000E+00  0.45593999997E+02  0.45594000000E+02  0.51100000000E-03 0.  1.
         11   -1    0    0    0    0 -0.00000000000E+00 -0.00000000000E+00 -0.45593999997E+02  0.45594000000E+02  0.51100000000E-03 0. -1.
    9900012    2    1    2    0    0 -0.33054829553E+02  0.14470855561E+02 -0.18738687141E+02  0.50528858184E+02  0.29999994937E+02 0.  0.
        -12    1    1    2    0    0  0.33054829553E+02 -0.14470855561E+02  0.18738687141E+02  0.40659141816E+02  0.00000000000E+00 0.  1.
         11    1    3    3    0    0 -0.31084374829E+02  0.13095385489E+02 -0.13162159721E+02  0.36207318712E+02  0.51100000000E-03 0. -1.
        -11    1    3    3    0    0  0.19156774769E+01 -0.14314539294E+01  0.33931536075E+01  0.41511892528E+01  0.51100000000E-03 0.  1.
         12    1    3    3    0    0 -0.38861322014E+01  0.28069240018E+01 -0.89696810276E+01  0.10170350219E+02  0.00000000000E+00 0. -1.
</event>
<event>
 7    1  0.5155466E-011  0.5052888E+02  0.7816164E-02  0.1300439E+00
        -11   -1    0    0    0    0  0.00000000000E+00  0.00000000000E+00  0.45593999997E+02  0.45594000000E+02  0.51100000000E-03 0.  1.
         11   -1    0    0    0    0 -0.00000000000E+00 -0.00000000000E+00 -0.45593999997E+02  0.45594000000E+02  0.51100000000E-03 0. -1.
    9900012    2    1    2    0    0 -0.22227445350E+02  0.27978175069E+02 -0.19399134843E+02  0.50528879994E+02  0.30000061229E+02 0.  0.
        -12    1    1    2    0    0  0.22227445350E+02 -0.27978175069E+02  0.19399134843E+02  0.40659120006E+02  0.00000000000E+00 0.  1.
         11    1    3    3    0    0 -0.28473545015E+02  0.21659696046E+02 -0.20208126823E+02  0.41088363176E+02  0.51100000000E-03 0. -1.
        -11    1    3    3    0    0  0.60786669415E+01  0.61664151999E+01  0.60938336656E-01  0.86590173776E+01  0.51100000000E-03 0.  1.
         12    1    3    3    0    0  0.16743272266E+00  0.15206382285E+00  0.74805364283E+00  0.78149944043E+00  0.00000000000E+00 0. -1.
</event>
<event>
 7    1  0.5155466E-011  0.5052886E+02  0.7816164E-02  0.1300439E+00
        -11   -1    0    0    0    0  0.00000000000E+00  0.00000000000E+00  0.45593999997E+02  0.45594000000E+02  0.51100000000E-03 0.  1.
         11   -1    0    0    0    0 -0.00000000000E+00 -0.00000000000E+00 -0.45593999997E+02  0.45594000000E+02  0.51100000000E-03 0. -1.
    9900012    2    1    2    0    0  0.23829316715E+02 -0.11004390233E+02 -0.31052096266E+02  0.50528860535E+02  0.30000002083E+02 0.  0.
        -12    1    1    2    0    0 -0.23829316715E+02  0.11004390233E+02  0.31052096266E+02  0.40659139465E+02  0.00000000000E+00 0.  1.
         11    1    3    3    0    0  0.39837041614E+00  0.11026444688E+01 -0.53925663694E+01  0.55185411227E+01  0.51100000000E-03 0. -1.
        -11    1    3    3    0    0  0.27474969382E+02 -0.38054770866E+01 -0.19666072892E+02  0.34001617927E+02  0.51100000000E-03 0.  1.
        -12    1    3    3    0    0 -0.40440230831E+01 -0.83015576155E+01 -0.59934570043E+01  0.11008701486E+02  0.00000000000E+00 0.  1.
</event>
<event>
 7    1  0.5155466E-011  0.5052886E+02  0.7816164E-02  0.1300439E+00
        -11   -1    0    0    0    0  0.00000000000E+00  0.00000000000E+00  0.45593999997E+02  0.45594000000E+02  0.51100000000E-03 0.  1.
         11   -1    0    0    0    0 -0.00000000000E+00 -0.00000000000E+00 -0.45593999997E+02  0.45594000000E+02  0.51100000000E-03 0. -1.
    9900012    2    1    2    0    0  0.20227688727E+02 -0.27989014184E+02 -0.21462093303E+02  0.50528858897E+02  0.29999997104E+02 0.  0.
        -12    1    1    2    0    0 -0.20227688727E+02  0.27989014184E+02  0.21462093303E+02  0.40659141103E+02  0.00000000000E+00 0.  1.
         11    1    3    3    0    0 -0.48474973330E+00 -0.12332757078E+02 -0.22671354892E+00  0.12344362225E+02  0.51100000000E-03 0. -1.
        -11    1    3    3    0    0  0.17275425332E+02 -0.10152220465E+02 -0.49298430643E+01  0.20635194539E+02  0.51100000000E-03 0.  1.
         12    1    3    3    0    0  0.34370131277E+01 -0.55040366414E+01 -0.16305536690E+02  0.17549302133E+02  0.00000000000E+00 0. -1.
</event>
<event>
 7    1  0.5155466E-011  0.5052885E+02  0.7816164E-02  0.1300439E+00
        -11   -1    0    0    0    0  0.00000000000E+00  0.00000000000E+00  0.45593999997E+02  0.45594000000E+02  0.51100000000E-03 0. -1.
         11   -1    0    0    0    0 -0.00000000000E+00 -0.00000000000E+00 -0.45593999997E+02  0.45594000000E+02  0.51100000000E-03 0.  1.
    9900012    2    1    2    0    0 -0.55741144514E+01 -0.37419825598E+02 -0.14894696229E+02  0.50528854959E+02  0.29999985134E+02 0.  0.
        -12    1    1    2    0    0  0.55741144514E+01  0.37419825598E+02  0.14894696229E+02  0.40659145041E+02  0.00000000000E+00 0.  1.
         11    1    3    3    0    0 -0.23271150088E+01 -0.28663788862E+01  0.74662287987E+01  0.83292355544E+01  0.51100000000E-03 0. -1.
        -11    1    3    3    0    0  0.21492715804E+01 -0.22238991375E+02 -0.13831582913E+02  0.26277457865E+02  0.51100000000E-03 0.  1.
         12    1    3    3    0    0 -0.53962710230E+01 -0.12314455336E+02 -0.85293421153E+01  0.15922161540E+02  0.00000000000E+00 0. -1.
</event>
<event>
 7    1  0.5155466E-011  0.5052886E+02  0.7816164E-02  0.1300439E+00
        -11   -1    0    0    0    0  0.00000000000E+00  0.00000000000E+00  0.45593999997E+02  0.45594000000E+02  0.51100000000E-03 0. -1.
         11   -1    0    0    0    0 -0.00000000000E+00 -0.00000000000E+00 -0.45593999997E+02  0.45594000000E+02  0.51100000000E-03 0.  1.
    9900012    2    1    2    0    0  0.34334170762E+02  0.21629618800E+02 -0.25475657662E+01  0.50528858559E+02  0.29999996077E+02 0.  0.
        -12    1    1    2    0    0 -0.34334170762E+02 -0.21629618800E+02  0.25475657662E+01  0.40659141441E+02  0.00000000000E+00 0.  1.
         11    1    3    3    0    0  0.16796225764E+02  0.47797280464E+01  0.75731037577E+01  0.19034466131E+02  0.51100000000E-03 0. -1.
        -11    1    3    3    0    0 -0.17595856905E+01  0.41764878543E+01 -0.67970200165E+01  0.81693741477E+01  0.51100000000E-03 0.  1.
         12    1    3    3    0    0  0.19297530689E+02  0.12673402899E+02 -0.33236495075E+01  0.23325018281E+02  0.00000000000E+00 0. -1.
</event>
<event>
 7    1  0.5155466E-011  0.5052885E+02  0.7816164E-02  0.1300439E+00
        -11   -1    0    0    0    0  0.00000000000E+00  0.00000000000E+00  0.45593999997E+02  0.45594000000E+02  0.51100000000E-03 0.  1.
         11   -1    0    0    0    0 -0.00000000000E+00 -0.00000000000E+00 -0.45593999997E+02  0.45594000000E+02  0.51100000000E-03 0. -1.
    9900012    2    1    2    0    0  0.31170064737E+02 -0.23933564038E+02 -0.10429652869E+02  0.50528854876E+02  0.29999984881E+02 0.  0.
        -12    1    1    2    0    0 -0.31170064737E+02  0.23933564038E+02  0.10429652869E+02  0.40659145124E+02  0.00000000000E+00 0.  1.
         11    1    3    3    0    0  0.80316532631E+01  0.39099761685E+01 -0.47297537140E+01  0.10107716767E+02  0.51100000000E-03 0.  1.
        -11    1    3    3    0    0  0.25421215762E+02 -0.23993114736E+02 -0.72203088381E+01  0.35693705685E+02  0.51100000000E-03 0. -1.
         12    1    3    3    0    0 -0.22828042886E+01 -0.38504254699E+01  0.15204096830E+01  0.47274324240E+01  0.00000000000E+00 0. -1.
</event>
<event>
 7    1  0.5155466E-011  0.5052883E+02  0.7816164E-02  0.1300439E+00
        -11   -1    0    0    0    0  0.00000000000E+00  0.00000000000E+00  0.45593999997E+02  0.45594000000E+02  0.51100000000E-03 0.  1.
         11   -1    0    0    0    0 -0.00000000000E+00 -0.00000000000E+00 -0.45593999997E+02  0.45594000000E+02  0.51100000000E-03 0. -1.
    9900012    2    1    2    0    0 -0.20972111701E+02  0.32064973845E+02 -0.13607927982E+02  0.50528834726E+02  0.29999923632E+02 0.  0.
        -12    1    1    2    0    0  0.20972111701E+02 -0.32064973845E+02  0.13607927982E+02  0.40659165274E+02  0.00000000000E+00 0.  1.
         11    1    3    3    0    0 -0.18796242754E+02  0.12266465091E+02 -0.15577310967E+02  0.27320642831E+02  0.51100000000E-03 0. -1.
        -11    1    3    3    0    0  0.32132490178E+01  0.12331756414E+02  0.47329153021E+01  0.13594030786E+02  0.51100000000E-03 0.  1.
         12    1    3    3    0    0 -0.53891179645E+01  0.74667523404E+01 -0.27635323177E+01  0.96141611084E+01  0.00000000000E+00 0. -1.
</event>
<event>
 7    1  0.5155466E-011  0.5052886E+02  0.7816164E-02  0.1300439E+00
        -11   -1    0    0    0    0  0.00000000000E+00  0.00000000000E+00  0.45593999997E+02  0.45594000000E+02  0.51100000000E-03 0.  1.
         11   -1    0    0    0    0 -0.00000000000E+00 -0.00000000000E+00 -0.45593999997E+02  0.45594000000E+02  0.51100000000E-03 0. -1.
    9900012    2    1    2    0    0  0.28840313272E+02  0.20327474505E+02 -0.20203853010E+02  0.50528861226E+02  0.30000004182E+02 0.  0.
        -12    1    1    2    0    0 -0.28840313272E+02 -0.20327474505E+02  0.20203853010E+02  0.40659138774E+02  0.00000000000E+00 0.  1.
         11    1    3    3    0    0  0.93490538316E+01  0.10395442151E+02 -0.19296424734E+02  0.23829016615E+02  0.51100000000E-03 0. -1.
        -11    1    3    3    0    0  0.11868980043E+02  0.56117700240E+01  0.70169503493E+01  0.14886310574E+02  0.51100000000E-03 0.  1.
        -12    1    3    3    0    0  0.76222793983E+01  0.43202623303E+01 -0.79243786256E+01  0.11813534036E+02  0.00000000000E+00 0.  1.
</event>
<event>
 7    1  0.5155466E-011  0.5052886E+02  0.7816164E-02  0.1300439E+00
        -11   -1    0    0    0    0  0.00000000000E+00  0.00000000000E+00  0.45593999997E+02  0.45594000000E+02  0.51100000000E-03 0.  1.
         11   -1    0    0    0    0 -0.00000000000E+00 -0.00000000000E+00 -0.45593999997E+02  0.45594000000E+02  0.51100000000E-03 0. -1.
    9900012    2    1    2    0    0  0.15516252503E+02  0.49025792441E+01 -0.37260917548E+02  0.50528863862E+02  0.30000012195E+02 0.  0.
        -12    1    1    2    0    0 -0.15516252503E+02 -0.49025792441E+01  0.37260917548E+02  0.40659136138E+02  0.00000000000E+00 0.  1.
         11    1    3    3    0    0 -0.59822707672E+01 -0.74041007009E+00 -0.63359634489E+01  0.87452960894E+01  0.51100000000E-03 0. -1.
        -11    1    3    3    0    0  0.16500767415E+02  0.11712881751E+02 -0.22365347804E+02  0.30160830673E+02  0.51100000000E-03 0.  1.
        -12    1    3    3    0    0  0.49977558544E+01 -0.60698924366E+01 -0.85596062951E+01  0.11622737100E+02  0.00000000000E+00 0.  1.
</event>
<event>
 7    1  0.5155466E-011  0.5052886E+02  0.7816164E-02  0.1300439E+00
        -11   -1    0    0    0    0  0.00000000000E+00  0.00000000000E+00  0.45593999997E+02  0.45594000000E+02  0.51100000000E-03 0. -1.
         11   -1    0    0    0    0 -0.00000000000E+00 -0.00000000000E+00 -0.45593999997E+02  0.45594000000E+02  0.51100000000E-03 0.  1.
    9900012    2    1    2    0    0 -0.71914578939E+01  0.10296779246E+02  0.38670724393E+02  0.50528860135E+02  0.30000000865E+02 0.  0.
        -12    1    1    2    0    0  0.71914578939E+01 -0.10296779246E+02 -0.38670724393E+02  0.40659139865E+02  0.00000000000E+00 0.  1.
         11    1    3    3    0    0  0.77716487333E+01  0.79896855121E+01  0.24155157253E+02  0.26602729574E+02  0.51100000000E-03 0.  1.
        -11    1    3    3    0    0 -0.14496158012E+02  0.29428253217E+01  0.69916698552E+01  0.16360998307E+02  0.51100000000E-03 0. -1.
         12    1    3    3    0    0 -0.46694861565E+00 -0.63573158730E+00  0.75238972851E+01  0.75651322538E+01  0.00000000000E+00 0. -1.
</event>
<event>
 7    1  0.5155466E-011  0.5052887E+02  0.7816164E-02  0.1300439E+00
        -11   -1    0    0    0    0  0.00000000000E+00  0.00000000000E+00  0.45593999997E+02  0.45594000000E+02  0.51100000000E-03 0.  1.
         11   -1    0    0    0    0 -0.00000000000E+00 -0.00000000000E+00 -0.45593999997E+02  0.45594000000E+02  0.51100000000E-03 0. -1.
    9900012    2    1    2    0    0 -0.11084212847E+02  0.21094211017E+02 -0.32944494540E+02  0.50528865315E+02  0.30000016610E+02 0.  0.
        -12    1    1    2    0    0  0.11084212847E+02 -0.21094211017E+02  0.32944494540E+02  0.40659134685E+02  0.00000000000E+00 0.  1.
         11    1    3    3    0    0 -0.20916224879E+01 -0.34777922572E+01 -0.19972231153E+02  0.20380381280E+02  0.51100000000E-03 0. -1.
        -11    1    3    3    0    0 -0.37792223939E+01  0.19766375896E+02 -0.95512573873E+01  0.22275965881E+02  0.51100000000E-03 0.  1.
        -12    1    3    3    0    0 -0.52133679654E+01  0.48056273781E+01 -0.34210059998E+01  0.78725181543E+01  0.00000000000E+00 0.  1.
</event>
<event>
 7    1  0.5155466E-011  0.5052886E+02  0.7816164E-02  0.1300439E+00
        -11   -1    0    0    0    0  0.00000000000E+00  0.00000000000E+00  0.45593999997E+02  0.45594000000E+02  0.51100000000E-03 0. -1.
         11   -1    0    0    0    0 -0.00000000000E+00 -0.00000000000E+00 -0.45593999997E+02  0.45594000000E+02  0.51100000000E-03 0.  1.
    9900012    2    1    2    0    0  0.12076480382E+02  0.18112312786E+02  0.34340476620E+02  0.50528860962E+02  0.30000003379E+02 0.  0.
        -12    1    1    2    0    0 -0.12076480382E+02 -0.18112312786E+02 -0.34340476620E+02  0.40659139038E+02  0.00000000000E+00 0.  1.
         11    1    3    3    0    0  0.65335246645E+01 -0.27105796638E+01  0.41576462986E+01  0.82048893753E+01  0.51100000000E-03 0. -1.
        -11    1    3    3    0    0  0.40252675969E+01  0.24791050186E+02  0.27750585455E+02  0.37428517763E+02  0.51100000000E-03 0.  1.
        -12    1    3    3    0    0  0.15176881208E+01 -0.39681577361E+01  0.24322448659E+01  0.48954538235E+01  0.00000000000E+00 0.  1.
</event>
<event>
 7    1  0.5155466E-011  0.5052886E+02  0.7816164E-02  0.1300439E+00
        -11   -1    0    0    0    0  0.00000000000E+00  0.00000000000E+00  0.45593999997E+02  0.45594000000E+02  0.51100000000E-03 0. -1.
         11   -1    0    0    0    0 -0.00000000000E+00 -0.00000000000E+00 -0.45593999997E+02  0.45594000000E+02  0.51100000000E-03 0.  1.
    9900012    2    1    2    0    0 -0.12394148205E+02  0.15113739804E+02  0.35652848906E+02  0.50528859875E+02  0.30000000076E+02 0.  0.
        -12    1    1    2    0    0  0.12394148205E+02 -0.15113739804E+02 -0.35652848906E+02  0.40659140125E+02  0.00000000000E+00 0.  1.
         11    1    3    3    0    0 -0.12880477906E+02  0.11931704234E+02  0.27364425897E+02  0.32512829498E+02  0.51100000000E-03 0. -1.
        -11    1    3    3    0    0  0.61711634989E+01 -0.35029875583E+00 -0.13062689142E+01  0.63176187670E+01  0.51100000000E-03 0.  1.
        -12    1    3    3    0    0 -0.56848337970E+01  0.35323343265E+01  0.95946919229E+01  0.11698411610E+02  0.00000000000E+00 0.  1.
</event>
<event>
 7    1  0.5155466E-011  0.5052885E+02  0.7816164E-02  0.1300439E+00
        -11   -1    0    0    0    0  0.00000000000E+00  0.00000000000E+00  0.45593999997E+02  0.45594000000E+02  0.51100000000E-03 0. -1.
         11   -1    0    0    0    0 -0.00000000000E+00 -0.00000000000E+00 -0.45593999997E+02  0.45594000000E+02  0.51100000000E-03 0.  1.
    9900012    2    1    2    0    0 -0.37899979869E+02  0.76912242798E+00  0.14702593169E+02  0.50528852575E+02  0.29999977888E+02 0.  0.
        -12    1    1    2    0    0  0.37899979869E+02 -0.76912242798E+00 -0.14702593169E+02  0.40659147425E+02  0.00000000000E+00 0.  1.
         11    1    3    3    0    0 -0.83276429281E+01  0.76503679564E+01  0.26293750626E+01  0.11609968996E+02  0.51100000000E-03 0. -1.
        -11    1    3    3    0    0 -0.15963680704E+02 -0.12919677034E+02  0.13694420592E+01  0.20582335341E+02  0.51100000000E-03 0.  1.
        -12    1    3    3    0    0 -0.13608656237E+02  0.60384315053E+01  0.10703776047E+02  0.18336548238E+02  0.00000000000E+00 0.  1.
</event>
<event>
 7    1  0.5155466E-011  0.5052884E+02  0.7816164E-02  0.1300439E+00
        -11   -1    0    0    0    0  0.00000000000E+00  0.00000000000E+00  0.45593999997E+02  0.45594000000E+02  0.51100000000E-03 0.  1.
         11   -1    0    0    0    0 -0.00000000000E+00 -0.00000000000E+00 -0.45593999997E+02  0.45594000000E+02  0.51100000000E-03 0. -1.
    9900012    2    1    2    0    0 -0.26577554145E+02 -0.28168131486E+02 -0.12383749612E+02  0.50528840267E+02  0.29999940477E+02 0.  0.
        -12    1    1    2    0    0  0.26577554145E+02  0.28168131486E+02  0.12383749612E+02  0.40659159733E+02  0.00000000000E+00 0.  1.
         11    1    3    3    0    0 -0.88534526631E+01 -0.26588271420E+02 -0.92820661537E+01  0.29520781723E+02  0.51100000000E-03 0. -1.
        -11    1    3    3    0    0 -0.78390417170E+01 -0.35196031520E+01  0.31501705593E+01  0.91521448963E+01  0.51100000000E-03 0.  1.
         12    1    3    3    0    0 -0.98850597645E+01  0.19397430863E+01 -0.62518540175E+01  0.11855913649E+02  0.00000000000E+00 0. -1.
</event>
<event>
 7    1  0.5155466E-011  0.5052884E+02  0.7816164E-02  0.1300439E+00
        -11   -1    0    0    0    0  0.00000000000E+00  0.00000000000E+00  0.45593999997E+02  0.45594000000E+02  0.51100000000E-03 0.  1.
         11   -1    0    0    0    0 -0.00000000000E+00 -0.00000000000E+00 -0.45593999997E+02  0.45594000000E+02  0.51100000000E-03 0. -1.
    9900012    2    1    2    0    0  0.22055612904E+01  0.20120995078E+02 -0.35262559009E+02  0.50528843449E+02  0.29999950148E+02 0.  0.
        -12    1    1    2    0    0 -0.22055612904E+01 -0.20120995078E+02  0.35262559009E+02  0.40659156551E+02  0.00000000000E+00 0.  1.
         11    1    3    3    0    0  0.21370487148E+01  0.18851342930E+01  0.29099346105E+01  0.40728894179E+01  0.51100000000E-03 0.  1.
        -11    1    3    3    0    0  0.20789795295E+01  0.15996413251E+02 -0.39863748518E+02  0.43003788659E+02  0.51100000000E-03 0. -1.
         12    1    3    3    0    0 -0.20104669539E+01  0.22394475337E+01  0.16912548985E+01  0.34521653727E+01  0.00000000000E+00 0. -1.
</event>
<event>
 7    1  0.5155466E-011  0.5052888E+02  0.7816164E-02  0.1300439E+00
        -11   -1    0    0    0    0  0.00000000000E+00  0.00000000000E+00  0.45593999997E+02  0.45594000000E+02  0.51100000000E-03 0. -1.
         11   -1    0    0    0    0 -0.00000000000E+00 -0.00000000000E+00 -0.45593999997E+02  0.45594000000E+02  0.51100000000E-03 0.  1.
    9900012    2    1    2    0    0 -0.39263846239E+02 -0.55473444825E+01  0.89856023883E+01  0.50528884140E+02  0.30000073831E+02 0.  0.
        -12    1    1    2    0    0  0.39263846239E+02  0.55473444825E+01 -0.89856023883E+01  0.40659115860E+02  0.00000000000E+00 0.  1.
         11    1    3    3    0    0 -0.30581368914E+02 -0.77678670187E+01  0.13748015334E+02  0.34417550879E+02  0.51100000000E-03 0. -1.
        -11    1    3    3    0    0  0.34742694199E+00 -0.41001832473E+01 -0.27190956968E-01  0.41149663122E+01  0.51100000000E-03 0.  1.
         12    1    3    3    0    0 -0.90299042672E+01  0.63207057835E+01 -0.47352219883E+01  0.11996366948E+02  0.00000000000E+00 0. -1.
</event>
<event>
 7    1  0.5155466E-011  0.5052886E+02  0.7816164E-02  0.1300439E+00
        -11   -1    0    0    0    0  0.00000000000E+00  0.00000000000E+00  0.45593999997E+02  0.45594000000E+02  0.51100000000E-03 0.  1.
         11   -1    0    0    0    0 -0.00000000000E+00 -0.00000000000E+00 -0.45593999997E+02  0.45594000000E+02  0.51100000000E-03 0. -1.
    9900012    2    1    2    0    0 -0.11927415135E+02  0.89061208885E+01 -0.37836267392E+02  0.50528863865E+02  0.30000012204E+02 0.  0.
        -12    1    1    2    0    0  0.11927415135E+02 -0.89061208885E+01  0.37836267392E+02  0.40659136135E+02  0.00000000000E+00 0.  1.
         11    1    3    3    0    0 -0.13529618572E+02  0.58920187420E+01 -0.27394299581E+02  0.31116139114E+02  0.51100000000E-03 0. -1.
        -11    1    3    3    0    0  0.37182842152E+01 -0.35208365706E+01  0.17561790223E+01  0.54135101997E+01  0.51100000000E-03 0.  1.
         12    1    3    3    0    0 -0.21160807782E+01  0.65349387171E+01 -0.12198146833E+02  0.13999214551E+02  0.00000000000E+00 0. -1.
</event>
<event>
 7    1  0.5155466E-011  0.5052889E+02  0.7816164E-02  0.1300439E+00
        -11   -1    0    0    0    0  0.00000000000E+00  0.00000000000E+00  0.45593999997E+02  0.45594000000E+02  0.51100000000E-03 0. -1.
         11   -1    0    0    0    0 -0.00000000000E+00 -0.00000000000E+00 -0.45593999997E+02  0.45594000000E+02  0.51100000000E-03 0.  1.
    9900012    2    1    2    0    0 -0.12419925181E+02  0.38715720672E+02 -0.42689817760E-01  0.50528887970E+02  0.30000085472E+02 0.  0.
        -12    1    1    2    0    0  0.12419925181E+02 -0.38715720672E+02  0.42689817760E-01  0.40659112030E+02  0.00000000000E+00 0.  1.
         11    1    3    3    0    0 -0.81168777876E+01  0.35868908070E+02  0.67642069337E+01  0.37392736819E+02  0.51100000000E-03 0. -1.
        -11    1    3    3    0    0 -0.77498063956E+00  0.51644558600E+01 -0.72023928190E+01  0.88964409683E+01  0.51100000000E-03 0.  1.
         12    1    3    3    0    0 -0.35280667541E+01 -0.23176432572E+01  0.39549606753E+00  0.42397101821E+01  0.00000000000E+00 0. -1.
</event>
<event>
 7    1  0.5155466E-011  0.5052887E+02  0.7816164E-02  0.1300439E+00
        -11   -1    0    0    0    0  0.00000000000E+00  0.00000000000E+00  0.45593999997E+02  0.45594000000E+02  0.51100000000E-03 0. -1.
         11   -1    0    0    0    0 -0.00000000000E+00 -0.00000000000E+00 -0.45593999997E+02  0.45594000000E+02  0.51100000000E-03 0.  1.
    9900012    2    1    2    0    0  0.11052042940E+02  0.33293215642E+02 -0.20556735645E+02  0.50528865217E+02  0.30000016315E+02 0.  0.
        -12    1    1    2    0    0 -0.11052042940E+02 -0.33293215642E+02  0.20556735645E+02  0.40659134783E+02  0.00000000000E+00 0.  1.
         11    1    3    3    0    0  0.37117928593E+01  0.24515538287E+02 -0.11997938843E+02  0.27545227544E+02  0.51100000000E-03 0. -1.
        -11    1    3    3    0    0  0.44631589158E+01 -0.52358097851E+01 -0.15462391434E+01  0.70515492882E+01  0.51100000000E-03 0.  1.
        -12    1    3    3    0    0  0.28770911648E+01  0.14013487140E+02 -0.70125576582E+01  0.15932088385E+02  0.00000000000E+00 0.  1.
</event>
<event>
 7    1  0.5155466E-011  0.5052888E+02  0.7816164E-02  0.1300439E+00
        -11   -1    0    0    0    0  0.00000000000E+00  0.00000000000E+00  0.45593999997E+02  0.45594000000E+02  0.51100000000E-03 0.  1.
         11   -1    0    0    0    0 -0.00000000000E+00 -0.00000000000E+00 -0.45593999997E+02  0.45594000000E+02  0.51100000000E-03 0. -1.
    9900012    2    1    2    0    0  0.22685088051E+02  0.28296281757E+02 -0.18381274271E+02  0.50528880174E+02  0.30000061778E+02 0.  0.
        -12    1    1    2    0    0 -0.22685088051E+02 -0.28296281757E+02  0.18381274271E+02  0.40659119826E+02  0.00000000000E+00 0.  1.
         11    1    3    3    0    0  0.17970668405E+02  0.16362513581E+02 -0.11565793209E+02  0.26915503829E+02  0.51100000000E-03 0. -1.
        -11    1    3    3    0    0 -0.14238388623E+01  0.15420348639E+01 -0.10723683168E+02  0.10927148282E+02  0.51100000000E-03 0.  1.
        -12    1    3    3    0    0  0.61382585086E+01  0.10391733313E+02  0.39082021054E+01  0.12686228063E+02  0.00000000000E+00 0.  1.
</event>
<event>
 7    1  0.5155466E-011  0.5052886E+02  0.7816164E-02  0.1300439E+00
        -11   -1    0    0    0    0  0.00000000000E+00  0.00000000000E+00  0.45593999997E+02  0.45594000000E+02  0.51100000000E-03 0.  1.
         11   -1    0    0    0    0 -0.00000000000E+00 -0.00000000000E+00 -0.45593999997E+02  0.45594000000E+02  0.51100000000E-03 0. -1.
    9900012    2    1    2    0    0 -0.53344122809E+01 -0.40069459959E+02  0.43758734827E+01  0.50528857799E+02  0.29999993767E+02 0.  0.
        -12    1    1    2    0    0  0.53344122809E+01  0.40069459959E+02 -0.43758734827E+01  0.40659142201E+02  0.00000000000E+00 0.  1.
         11    1    3    3    0    0 -0.11328787757E+01 -0.25876682833E+02  0.10782531648E+02  0.28056177890E+02  0.51100000000E-03 0. -1.
        -11    1    3    3    0    0  0.26671142181E+01  0.12849455967E+01 -0.45630034423E+01  0.54392631959E+01  0.51100000000E-03 0.  1.
         12    1    3    3    0    0 -0.68686477233E+01 -0.15477722722E+02 -0.18436547228E+01  0.17033416714E+02  0.00000000000E+00 0. -1.
</event>
<event>
 7    1  0.5155466E-011  0.5052886E+02  0.7816164E-02  0.1300439E+00
        -11   -1    0    0    0    0  0.00000000000E+00  0.00000000000E+00  0.45593999997E+02  0.45594000000E+02  0.51100000000E-03 0.  1.
         11   -1    0    0    0    0 -0.00000000000E+00 -0.00000000000E+00 -0.45593999997E+02  0.45594000000E+02  0.51100000000E-03 0. -1.
    9900012    2    1    2    0    0  0.14383017513E+02 -0.83049711673E+01 -0.37112283830E+02  0.50528863880E+02  0.30000012251E+02 0.  0.
        -12    1    1    2    0    0 -0.14383017513E+02  0.83049711673E+01  0.37112283830E+02  0.40659136120E+02  0.00000000000E+00 0.  1.
         11    1    3    3    0    0  0.62112465546E+01 -0.12549309327E+02 -0.14082139893E+02  0.19858786785E+02  0.51100000000E-03 0. -1.
        -11    1    3    3    0    0 -0.64649871711E-01  0.46313721934E+01  0.14380390629E+01  0.48499221238E+01  0.51100000000E-03 0.  1.
        -12    1    3    3    0    0  0.82364208304E+01 -0.38703403417E+00 -0.24468183000E+02  0.25820154972E+02  0.00000000000E+00 0.  1.
</event>
<event>
 7    1  0.5155466E-011  0.5052885E+02  0.7816164E-02  0.1300439E+00
        -11   -1    0    0    0    0  0.00000000000E+00  0.00000000000E+00  0.45593999997E+02  0.45594000000E+02  0.51100000000E-03 0.  1.
         11   -1    0    0    0    0 -0.00000000000E+00 -0.00000000000E+00 -0.45593999997E+02  0.45594000000E+02  0.51100000000E-03 0. -1.
    9900012    2    1    2    0    0  0.19587499767E+01  0.48663892853E+01 -0.40319325571E+02  0.50528850223E+02  0.29999970736E+02 0.  0.
        -12    1    1    2    0    0 -0.19587499767E+01 -0.48663892853E+01  0.40319325571E+02  0.40659149777E+02  0.00000000000E+00 0.  1.
         11    1    3    3    0    0 -0.71773639676E+01  0.81081721840E+01 -0.22506985658E+02  0.24976417145E+02  0.51100000000E-03 0. -1.
        -11    1    3    3    0    0  0.12734875594E+02  0.21671135594E+00 -0.96283206669E+01  0.15966482998E+02  0.51100000000E-03 0.  1.
         12    1    3    3    0    0 -0.35987616497E+01 -0.34584942546E+01 -0.81840192454E+01  0.95859500797E+01  0.00000000000E+00 0. -1.
</event>
<event>
 7    1  0.6812969E-011  0.5052886E+02  0.7816164E-02  0.1300439E+00
        -11   -1    0    0    0    0  0.00000000000E+00  0.00000000000E+00  0.45593999997E+02  0.45594000000E+02  0.51100000000E-03 0. -1.
         11   -1    0    0    0    0 -0.00000000000E+00 -0.00000000000E+00 -0.45593999997E+02  0.45594000000E+02  0.51100000000E-03 0.  1.
    9900012    2    1    2    0    0  0.17199521508E+01  0.38548854249E+02 -0.12813788947E+02  0.50528860972E+02  0.30000003412E+02 0.  0.
        -12    1    1    2    0    0 -0.17199521508E+01 -0.38548854249E+02  0.12813788947E+02  0.40659139028E+02  0.00000000000E+00 0.  1.
         11    1    3    3    0    0  0.42986719013E+01  0.33973845641E+02 -0.32396902829E+01  0.34397621446E+02  0.51100000000E-03 0. -1.
        -11    1    3    3    0    0  0.31764950901E+01  0.33582497927E+01 -0.91282263807E+01  0.10231934316E+02  0.51100000000E-03 0.  1.
        -12    1    3    3    0    0 -0.57552148406E+01  0.12167588152E+01 -0.44587228379E+00  0.58993052107E+01  0.00000000000E+00 0.  1.
</event>
<event>
 7    1  0.5155466E-011  0.5052889E+02  0.7816164E-02  0.1300439E+00
        -11   -1    0    0    0    0  0.00000000000E+00  0.00000000000E+00  0.45593999997E+02  0.45594000000E+02  0.51100000000E-03 0. -1.
         11   -1    0    0    0    0 -0.00000000000E+00 -0.00000000000E+00 -0.45593999997E+02  0.45594000000E+02  0.51100000000E-03 0.  1.
    9900012    2    1    2    0    0 -0.27817683681E+00  0.37128100423E+02  0.16570757871E+02  0.50528889830E+02  0.30000091128E+02 0.  0.
        -12    1    1    2    0    0  0.27817683681E+00 -0.37128100423E+02 -0.16570757871E+02  0.40659110170E+02  0.00000000000E+00 0.  1.
         11    1    3    3    0    0 -0.13039904104E+02  0.16344597273E+02  0.54729609165E+01  0.21613381515E+02  0.51100000000E-03 0. -1.
        -11    1    3    3    0    0  0.14666854236E+02  0.18347737637E+02  0.88881149412E+01  0.25114829823E+02  0.51100000000E-03 0.  1.
        -12    1    3    3    0    0 -0.19051269690E+01  0.24357655133E+01  0.22096820134E+01  0.38006784926E+01  0.00000000000E+00 0.  1.
</event>
<event>
 7    1  0.5155466E-011  0.5052884E+02  0.7816164E-02  0.1300439E+00
        -11   -1    0    0    0    0  0.00000000000E+00  0.00000000000E+00  0.45593999997E+02  0.45594000000E+02  0.51100000000E-03 0.  1.
         11   -1    0    0    0    0 -0.00000000000E+00 -0.00000000000E+00 -0.45593999997E+02  0.45594000000E+02  0.51100000000E-03 0. -1.
    9900012    2    1    2    0    0 -0.15252338438E+02 -0.32535046305E+02 -0.19026399917E+02  0.50528844085E+02  0.29999952082E+02 0.  0.
        -12    1    1    2    0    0  0.15252338438E+02  0.32535046305E+02  0.19026399917E+02  0.40659155915E+02  0.00000000000E+00 0.  1.
         11    1    3    3    0    0 -0.52111594708E+01 -0.20655287425E+02 -0.19982807112E+02  0.29208041050E+02  0.51100000000E-03 0. -1.
        -11    1    3    3    0    0 -0.13746046736E+02 -0.10189934613E+02  0.16487674258E+01  0.17190317117E+02  0.51100000000E-03 0.  1.
         12    1    3    3    0    0  0.37048677685E+01 -0.16898242663E+01 -0.69236023056E+00  0.41304859184E+01  0.00000000000E+00 0. -1.
</event>
<event>
 7    1  0.5155466E-011  0.5052886E+02  0.7816164E-02  0.1300439E+00
        -11   -1    0    0    0    0  0.00000000000E+00  0.00000000000E+00  0.45593999997E+02  0.45594000000E+02  0.51100000000E-03 0.  1.
         11   -1    0    0    0    0 -0.00000000000E+00 -0.00000000000E+00 -0.45593999997E+02  0.45594000000E+02  0.51100000000E-03 0. -1.
    9900012    2    1    2    0    0  0.37879159257E+02 -0.12360627931E+02 -0.80962744687E+01  0.50528862170E+02  0.30000007051E+02 0.  0.
        -12    1    1    2    0    0 -0.37879159257E+02  0.12360627931E+02  0.80962744687E+01  0.40659137830E+02  0.00000000000E+00 0.  1.
         11    1    3    3    0    0  0.21859884788E+02 -0.11576444300E+02 -0.88896130459E+01  0.26284859633E+02  0.51100000000E-03 0. -1.
        -11    1    3    3    0    0  0.53927473966E+01 -0.43379339472E+01  0.82621870063E+01  0.10777900065E+02  0.51100000000E-03 0.  1.
         12    1    3    3    0    0  0.10626527072E+02  0.35537503159E+01 -0.74688484292E+01  0.13466102472E+02  0.00000000000E+00 0. -1.
</event>
<event>
 7    1  0.5155466E-011  0.5052886E+02  0.7816164E-02  0.1300439E+00
        -11   -1    0    0    0    0  0.00000000000E+00  0.00000000000E+00  0.45593999997E+02  0.45594000000E+02  0.51100000000E-03 0.  1.
         11   -1    0    0    0    0 -0.00000000000E+00 -0.00000000000E+00 -0.45593999997E+02  0.45594000000E+02  0.51100000000E-03 0. -1.
    9900012    2    1    2    0    0 -0.69297113078E+01  0.25577242764E+02 -0.30837465777E+02  0.50528861522E+02  0.30000005083E+02 0.  0.
        -12    1    1    2    0    0  0.69297113078E+01 -0.25577242764E+02  0.30837465777E+02  0.40659138478E+02  0.00000000000E+00 0.  1.
         11    1    3    3    0    0  0.79603990333E+01  0.19685659057E+01 -0.86513315589E+01  0.11920098259E+02  0.51100000000E-03 0. -1.
        -11    1    3    3    0    0 -0.94324545635E+01  0.24319484496E+02 -0.17961576492E+02  0.31670597651E+02  0.51100000000E-03 0.  1.
        -12    1    3    3    0    0 -0.54576557777E+01 -0.71080763727E+00 -0.42245577263E+01  0.69381656126E+01  0.00000000000E+00 0.  1.
</event>
<event>
 7    1  0.5155466E-011  0.5052886E+02  0.7816164E-02  0.1300439E+00
        -11   -1    0    0    0    0  0.00000000000E+00  0.00000000000E+00  0.45593999997E+02  0.45594000000E+02  0.51100000000E-03 0.  1.
         11   -1    0    0    0    0 -0.00000000000E+00 -0.00000000000E+00 -0.45593999997E+02  0.45594000000E+02  0.51100000000E-03 0. -1.
    9900012    2    1    2    0    0 -0.16532267347E+02 -0.36076221638E+02  0.88518826226E+01  0.50528862561E+02  0.30000008240E+02 0.  0.
        -12    1    1    2    0    0  0.16532267347E+02  0.36076221638E+02 -0.88518826226E+01  0.40659137439E+02  0.00000000000E+00 0.  1.
         11    1    3    3    0    0 -0.31106402726E+01  0.29367473644E+01  0.17703230402E+01  0.46297529000E+01  0.51100000000E-03 0. -1.
        -11    1    3    3    0    0 -0.15705539838E+02 -0.22722069480E+02  0.96308831626E+01  0.29252526965E+02  0.51100000000E-03 0.  1.
         12    1    3    3    0    0  0.22839127630E+01 -0.16290899522E+02 -0.25493235802E+01  0.16646582696E+02  0.00000000000E+00 0. -1.
</event>
<event>
 7    1  0.5155466E-011  0.5052886E+02  0.7816164E-02  0.1300439E+00
        -11   -1    0    0    0    0  0.00000000000E+00  0.00000000000E+00  0.45593999997E+02  0.45594000000E+02  0.51100000000E-03 0.  1.
         11   -1    0    0    0    0 -0.00000000000E+00 -0.00000000000E+00 -0.45593999997E+02  0.45594000000E+02  0.51100000000E-03 0. -1.
    9900012    2    1    2    0    0 -0.26586153438E+02  0.27493147633E+02 -0.13801042246E+02  0.50528862177E+02  0.30000007074E+02 0.  0.
        -12    1    1    2    0    0  0.26586153438E+02 -0.27493147633E+02  0.13801042246E+02  0.40659137823E+02  0.00000000000E+00 0.  1.
         11    1    3    3    0    0  0.42213760083E+01  0.20387577724E+00  0.21748803717E+01  0.47530711785E+01  0.51100000000E-03 0.  1.
        -11    1    3    3    0    0 -0.22332050676E+02  0.13461396804E+02 -0.60746180878E+01  0.26773693740E+02  0.51100000000E-03 0. -1.
         12    1    3    3    0    0 -0.84754787706E+01  0.13827875052E+02 -0.99013045296E+01  0.19002097259E+02  0.00000000000E+00 0. -1.
</event>
<event>
 7    1  0.5155466E-011  0.5052885E+02  0.7816164E-02  0.1300439E+00
        -11   -1    0    0    0    0  0.00000000000E+00  0.00000000000E+00  0.45593999997E+02  0.45594000000E+02  0.51100000000E-03 0.  1.
         11   -1    0    0    0    0 -0.00000000000E+00 -0.00000000000E+00 -0.45593999997E+02  0.45594000000E+02  0.51100000000E-03 0. -1.
    9900012    2    1    2    0    0  0.68482696795E+00  0.55563218116E+01 -0.40271882891E+02  0.50528852793E+02  0.29999978549E+02 0.  0.
        -12    1    1    2    0    0 -0.68482696795E+00 -0.55563218116E+01  0.40271882891E+02  0.40659147207E+02  0.00000000000E+00 0.  1.
         11    1    3    3    0    0  0.10526886470E+02  0.56962554136E+01 -0.34200668143E+02  0.36234629379E+02  0.51100000000E-03 0. -1.
        -11    1    3    3    0    0 -0.73812608675E+01 -0.38189805749E+01 -0.51381438566E+01  0.97707802747E+01  0.51100000000E-03 0.  1.
         12    1    3    3    0    0 -0.24607986347E+01  0.36790469729E+01 -0.93307089057E+00  0.45234431395E+01  0.00000000000E+00 0. -1.
</event>
<event>
 7    1  0.5155466E-011  0.5052877E+02  0.7816164E-02  0.1300439E+00
        -11   -1    0    0    0    0  0.00000000000E+00  0.00000000000E+00  0.45593999997E+02  0.45594000000E+02  0.51100000000E-03 0.  1.
         11   -1    0    0    0    0 -0.00000000000E+00 -0.00000000000E+00 -0.45593999997E+02  0.45594000000E+02  0.51100000000E-03 0. -1.
    9900012    2    1    2    0    0 -0.36796975124E+02  0.29190708762E+01 -0.17048005760E+02  0.50528771608E+02  0.29999731778E+02 0.  0.
        -12    1    1    2    0    0  0.36796975124E+02 -0.29190708762E+01  0.17048005760E+02  0.40659228392E+02  0.00000000000E+00 0.  1.
         11    1    3    3    0    0 -0.23839794514E+02 -0.10556693786E+02 -0.15676184620E+01  0.26119667189E+02  0.51100000000E-03 0. -1.
        -11    1    3    3    0    0 -0.10622440827E+02  0.12108872746E+02 -0.13898812357E+02  0.21275291619E+02  0.51100000000E-03 0.  1.
         12    1    3    3    0    0 -0.23347397835E+01  0.13668919165E+01 -0.15815749418E+01  0.31338127999E+01  0.00000000000E+00 0. -1.
</event>
<event>
 7    1  0.5155466E-011  0.5052887E+02  0.7816164E-02  0.1300439E+00
        -11   -1    0    0    0    0  0.00000000000E+00  0.00000000000E+00  0.45593999997E+02  0.45594000000E+02  0.51100000000E-03 0.  1.
         11   -1    0    0    0    0 -0.00000000000E+00 -0.00000000000E+00 -0.45593999997E+02  0.45594000000E+02  0.51100000000E-03 0. -1.
    9900012    2    1    2    0    0  0.36741549839E+02  0.11318716255E+02 -0.13232904916E+02  0.50528873168E+02  0.30000040482E+02 0.  0.
        -12    1    1    2    0    0 -0.36741549839E+02 -0.11318716255E+02  0.13232904916E+02  0.40659126832E+02  0.00000000000E+00 0.  1.
         11    1    3    3    0    0  0.16389677860E+02  0.81275290674E+01 -0.24139312263E+01  0.18452786601E+02  0.51100000000E-03 0. -1.
        -11    1    3    3    0    0 -0.45049103217E+01 -0.10399109477E+01  0.38310872091E-01  0.46235375817E+01  0.51100000000E-03 0.  1.
        -12    1    3    3    0    0  0.24856782300E+02  0.42310981349E+01 -0.10857284562E+02  0.27452548986E+02  0.00000000000E+00 0.  1.
</event>
<event>
 7    1  0.5155466E-011  0.5052886E+02  0.7816164E-02  0.1300439E+00
        -11   -1    0    0    0    0  0.00000000000E+00  0.00000000000E+00  0.45593999997E+02  0.45594000000E+02  0.51100000000E-03 0.  1.
         11   -1    0    0    0    0 -0.00000000000E+00 -0.00000000000E+00 -0.45593999997E+02  0.45594000000E+02  0.51100000000E-03 0. -1.
    9900012    2    1    2    0    0 -0.34117369972E+02 -0.13177888080E+02 -0.17762722520E+02  0.50528856141E+02  0.29999988725E+02 0.  0.
        -12    1    1    2    0    0  0.34117369972E+02  0.13177888080E+02  0.17762722520E+02  0.40659143859E+02  0.00000000000E+00 0.  1.
         11    1    3    3    0    0 -0.10751894379E+02 -0.20654792099E+01 -0.10347131252E+02  0.15064281015E+02  0.51100000000E-03 0. -1.
        -11    1    3    3    0    0 -0.37933772530E+01 -0.51173535561E+01  0.77186240442E+01  0.10007705821E+02  0.51100000000E-03 0.  1.
        -12    1    3    3    0    0 -0.19572098340E+02 -0.59950553137E+01 -0.15134215312E+02  0.25456869304E+02  0.00000000000E+00 0.  1.
</event>
<event>
 7    1  0.5155466E-011  0.5052888E+02  0.7816164E-02  0.1300439E+00
        -11   -1    0    0    0    0  0.00000000000E+00  0.00000000000E+00  0.45593999997E+02  0.45594000000E+02  0.51100000000E-03 0.  1.
         11   -1    0    0    0    0 -0.00000000000E+00 -0.00000000000E+00 -0.45593999997E+02  0.45594000000E+02  0.51100000000E-03 0. -1.
    9900012    2    1    2    0    0 -0.26054883905E+01 -0.36249909592E+02  0.18229631042E+02  0.50528880935E+02  0.30000064090E+02 0.  0.
        -12    1    1    2    0    0  0.26054883905E+01  0.36249909592E+02 -0.18229631042E+02  0.40659119065E+02  0.00000000000E+00 0.  1.
         11    1    3    3    0    0 -0.31217629822E+01 -0.44596161583E+01 -0.69938850839E+01  0.88627314765E+01  0.51100000000E-03 0. -1.
        -11    1    3    3    0    0  0.33528344745E+01 -0.64649855296E+01  0.30848126980E+01  0.79090837999E+01  0.51100000000E-03 0.  1.
         12    1    3    3    0    0 -0.28365598829E+01 -0.25325307905E+02  0.22138703428E+02  0.33757065659E+02  0.00000000000E+00 0. -1.
</event>
<event>
 7    1  0.5155466E-011  0.5052886E+02  0.7816164E-02  0.1300439E+00
        -11   -1    0    0    0    0  0.00000000000E+00  0.00000000000E+00  0.45593999997E+02  0.45594000000E+02  0.51100000000E-03 0.  1.
         11   -1    0    0    0    0 -0.00000000000E+00 -0.00000000000E+00 -0.45593999997E+02  0.45594000000E+02  0.51100000000E-03 0. -1.
    9900012    2    1    2    0    0 -0.83517840940E+01  0.30604599690E+02 -0.25431702404E+02  0.50528864410E+02  0.30000013861E+02 0.  0.
        -12    1    1    2    0    0  0.83517840940E+01 -0.30604599690E+02  0.25431702404E+02  0.40659135590E+02  0.00000000000E+00 0.  1.
         11    1    3    3    0    0  0.17639773874E+01 -0.25258887374E+01 -0.11088201399E+02  0.11508255327E+02  0.51100000000E-03 0.  1.
        -11    1    3    3    0    0 -0.78122153265E+01  0.25692404198E+02 -0.15714939379E+02  0.31114139257E+02  0.51100000000E-03 0. -1.
         12    1    3    3    0    0 -0.23035461550E+01  0.74380842299E+01  0.13714383742E+01  0.79064698262E+01  0.00000000000E+00 0. -1.
</event>
<event>
 7    1  0.5155466E-011  0.5052879E+02  0.7816164E-02  0.1300439E+00
        -11   -1    0    0    0    0  0.00000000000E+00  0.00000000000E+00  0.45593999997E+02  0.45594000000E+02  0.51100000000E-03 0.  1.
         11   -1    0    0    0    0 -0.00000000000E+00 -0.00000000000E+00 -0.45593999997E+02  0.45594000000E+02  0.51100000000E-03 0. -1.
    9900012    2    1    2    0    0  0.13335233191E+02 -0.26217065160E+02 -0.28071490656E+02  0.50528787790E+02  0.29999780966E+02 0.  0.
        -12    1    1    2    0    0 -0.13335233191E+02  0.26217065160E+02  0.28071490656E+02  0.40659212210E+02  0.00000000000E+00 0.  1.
         11    1    3    3    0    0  0.16261974926E+02 -0.16378781851E+02 -0.10853315214E+02  0.25505112718E+02  0.51100000000E-03 0. -1.
        -11    1    3    3    0    0 -0.14123783665E+01  0.37274329379E+01 -0.16370868439E+01  0.43091324594E+01  0.51100000000E-03 0.  1.
         12    1    3    3    0    0 -0.15143633678E+01 -0.13565716247E+02 -0.15581088599E+02  0.20714542612E+02  0.00000000000E+00 0. -1.
</event>
<event>
 7    1  0.5155466E-011  0.5052886E+02  0.7816164E-02  0.1300439E+00
        -11   -1    0    0    0    0  0.00000000000E+00  0.00000000000E+00  0.45593999997E+02  0.45594000000E+02  0.51100000000E-03 0.  1.
         11   -1    0    0    0    0 -0.00000000000E+00 -0.00000000000E+00 -0.45593999997E+02  0.45594000000E+02  0.51100000000E-03 0. -1.
    9900012    2    1    2    0    0 -0.14437762135E+02  0.41998089278E+01 -0.37776688933E+02  0.50528860839E+02  0.30000003007E+02 0.  0.
        -12    1    1    2    0    0  0.14437762135E+02 -0.41998089278E+01  0.37776688933E+02  0.40659139161E+02  0.00000000000E+00 0.  1.
         11    1    3    3    0    0 -0.24129871751E+01 -0.79028625351E+01 -0.91765483480E+00  0.83138338938E+01  0.51100000000E-03 0. -1.
        -11    1    3    3    0    0 -0.12081195684E+00  0.47305339907E+01 -0.18672837179E+02  0.19263109717E+02  0.51100000000E-03 0.  1.
         12    1    3    3    0    0 -0.11903963003E+02  0.73721374723E+01 -0.18186196919E+02  0.22951917229E+02  0.00000000000E+00 0. -1.
</event>
<event>
 7    1  0.5155466E-011  0.5052884E+02  0.7816164E-02  0.1300439E+00
        -11   -1    0    0    0    0  0.00000000000E+00  0.00000000000E+00  0.45593999997E+02  0.45594000000E+02  0.51100000000E-03 0. -1.
         11   -1    0    0    0    0 -0.00000000000E+00 -0.00000000000E+00 -0.45593999997E+02  0.45594000000E+02  0.51100000000E-03 0.  1.
    9900012    2    1    2    0    0  0.15657431307E+02 -0.51160854945E+01  0.37173075343E+02  0.50528843388E+02  0.29999949963E+02 0.  0.
        -12    1    1    2    0    0 -0.15657431307E+02  0.51160854945E+01 -0.37173075343E+02  0.40659156612E+02  0.00000000000E+00 0.  1.
         11    1    3    3    0    0  0.10610178720E+02 -0.13639185990E+02  0.30087177390E+02  0.34696419563E+02  0.51100000000E-03 0. -1.
        -11    1    3    3    0    0  0.37764012675E+01  0.95865646419E+01  0.87251242130E+01  0.13501526616E+02  0.51100000000E-03 0.  1.
        -12    1    3    3    0    0  0.12708513195E+01 -0.10634641468E+01 -0.16392262604E+01  0.23308972094E+01  0.00000000000E+00 0.  1.
</event>
<event>
 7    1  0.5155466E-011  0.5052892E+02  0.7816164E-02  0.1300439E+00
        -11   -1    0    0    0    0  0.00000000000E+00  0.00000000000E+00  0.45593999997E+02  0.45594000000E+02  0.51100000000E-03 0.  1.
         11   -1    0    0    0    0 -0.00000000000E+00 -0.00000000000E+00 -0.45593999997E+02  0.45594000000E+02  0.51100000000E-03 0. -1.
    9900012    2    1    2    0    0  0.86613192222E+01  0.23447546409E+02 -0.32067966875E+02  0.50528924965E+02  0.30000197922E+02 0.  0.
        -12    1    1    2    0    0 -0.86613192222E+01 -0.23447546409E+02  0.32067966875E+02  0.40659075035E+02  0.00000000000E+00 0.  1.
         11    1    3    3    0    0 -0.48567835068E+01  0.10024409545E+02 -0.50155235906E+01  0.12216079973E+02  0.51100000000E-03 0. -1.
        -11    1    3    3    0    0  0.10775854812E+02  0.11114250687E+01 -0.22376058863E+02  0.24860457017E+02  0.51100000000E-03 0.  1.
        -12    1    3    3    0    0  0.27422479171E+01  0.12311711795E+02 -0.46763844214E+01  0.13452387975E+02  0.00000000000E+00 0.  1.
</event>
<event>
 7    1  0.5155466E-011  0.5052886E+02  0.7816164E-02  0.1300439E+00
        -11   -1    0    0    0    0  0.00000000000E+00  0.00000000000E+00  0.45593999997E+02  0.45594000000E+02  0.51100000000E-03 0. -1.
         11   -1    0    0    0    0 -0.00000000000E+00 -0.00000000000E+00 -0.45593999997E+02  0.45594000000E+02  0.51100000000E-03 0.  1.
    9900012    2    1    2    0    0  0.80778027620E+01  0.12854796515E+02  0.37718286412E+02  0.50528858091E+02  0.29999994653E+02 0.  0.
        -12    1    1    2    0    0 -0.80778027620E+01 -0.12854796515E+02 -0.37718286412E+02  0.40659141909E+02  0.00000000000E+00 0.  1.
         11    1    3    3    0    0  0.18862039072E+01  0.93737745236E+01  0.68156602944E+01  0.11742173543E+02  0.51100000000E-03 0. -1.
        -11    1    3    3    0    0  0.14995351446E+00 -0.36491784281E+01  0.29025501764E+02  0.29254379880E+02  0.51100000000E-03 0.  1.
        -12    1    3    3    0    0  0.60416453404E+01  0.71302004198E+01  0.18771243535E+01  0.95323046680E+01  0.00000000000E+00 0.  1.
</event>
<event>
 7    1  0.5476626E-011  0.5052886E+02  0.7816164E-02  0.1300439E+00
        -11   -1    0    0    0    0  0.00000000000E+00  0.00000000000E+00  0.45593999997E+02  0.45594000000E+02  0.51100000000E-03 0. -1.
         11   -1    0    0    0    0 -0.00000000000E+00 -0.00000000000E+00 -0.45593999997E+02  0.45594000000E+02  0.51100000000E-03 0.  1.
    9900012    2    1    2    0    0 -0.20184415925E+02  0.29882822078E+02  0.18782213960E+02  0.50528864952E+02  0.30000015509E+02 0.  0.
        -12    1    1    2    0    0  0.20184415925E+02 -0.29882822078E+02 -0.18782213960E+02  0.40659135048E+02  0.00000000000E+00 0.  1.
         11    1    3    3    0    0 -0.13203405043E+02  0.29142211885E+02  0.13397977051E+02  0.34685792590E+02  0.51100000000E-03 0. -1.
        -11    1    3    3    0    0 -0.65547093689E+01  0.88641074265E+00  0.95698794856E+01  0.11633251160E+02  0.51100000000E-03 0.  1.
        -12    1    3    3    0    0 -0.42630151278E+00 -0.14580054897E+00 -0.41856425767E+01  0.42098212029E+01  0.00000000000E+00 0.  1.
</event>
<event>
 7    1  0.5155466E-011  0.5052885E+02  0.7816164E-02  0.1300439E+00
        -11   -1    0    0    0    0  0.00000000000E+00  0.00000000000E+00  0.45593999997E+02  0.45594000000E+02  0.51100000000E-03 0. -1.
         11   -1    0    0    0    0 -0.00000000000E+00 -0.00000000000E+00 -0.45593999997E+02  0.45594000000E+02  0.51100000000E-03 0.  1.
    9900012    2    1    2    0    0 -0.72351208872E+01 -0.39604784914E+02 -0.56815746953E+01  0.50528852772E+02  0.29999978485E+02 0.  0.
        -12    1    1    2    0    0  0.72351208872E+01  0.39604784914E+02  0.56815746953E+01  0.40659147228E+02  0.00000000000E+00 0.  1.
         11    1    3    3    0    0 -0.89716560346E+01 -0.14483408762E+01 -0.71683456584E+01  0.11574691488E+02  0.51100000000E-03 0. -1.
        -11    1    3    3    0    0  0.21919985181E+00  0.12657600899E+00  0.57722937188E+00  0.63028887819E+00  0.51100000000E-03 0.  1.
         12    1    3    3    0    0  0.15173352956E+01 -0.38283020046E+02  0.90954159123E+00  0.38323872406E+02  0.00000000000E+00 0. -1.
</event>
<event>
 7    1  0.5155466E-011  0.5052885E+02  0.7816164E-02  0.1300439E+00
        -11   -1    0    0    0    0  0.00000000000E+00  0.00000000000E+00  0.45593999997E+02  0.45594000000E+02  0.51100000000E-03 0.  1.
         11   -1    0    0    0    0 -0.00000000000E+00 -0.00000000000E+00 -0.45593999997E+02  0.45594000000E+02  0.51100000000E-03 0. -1.
    9900012    2    1    2    0    0 -0.24155409152E+01 -0.38390350704E+02 -0.13172432829E+02  0.50528845413E+02  0.29999956118E+02 0.  0.
        -12    1    1    2    0    0  0.24155409152E+01  0.38390350704E+02  0.13172432829E+02  0.40659154587E+02  0.00000000000E+00 0.  1.
         11    1    3    3    0    0 -0.28031266249E+01 -0.30295341415E+02  0.88735235240E+00  0.30437684288E+02  0.51100000000E-03 0. -1.
        -11    1    3    3    0    0  0.52710158080E+01 -0.96881123480E+00 -0.33052587228E+01  0.62965814806E+01  0.51100000000E-03 0.  1.
         12    1    3    3    0    0 -0.48834300983E+01 -0.71261980537E+01 -0.10754526459E+02  0.13794579645E+02  0.00000000000E+00 0. -1.
</event>
<event>
 7    1  0.5155466E-011  0.5052886E+02  0.7816164E-02  0.1300439E+00
        -11   -1    0    0    0    0  0.00000000000E+00  0.00000000000E+00  0.45593999997E+02  0.45594000000E+02  0.51100000000E-03 0. -1.
         11   -1    0    0    0    0 -0.00000000000E+00 -0.00000000000E+00 -0.45593999997E+02  0.45594000000E+02  0.51100000000E-03 0.  1.
    9900012    2    1    2    0    0 -0.20862166148E+02 -0.29928739522E+02 -0.17950104513E+02  0.50528859849E+02  0.29999999998E+02 0.  0.
        -12    1    1    2    0    0  0.20862166148E+02  0.29928739522E+02  0.17950104513E+02  0.40659140151E+02  0.00000000000E+00 0.  1.
         11    1    3    3    0    0 -0.73107802206E+01 -0.58070984578E+01 -0.16510144170E+01  0.94813368677E+01  0.51100000000E-03 0. -1.
        -11    1    3    3    0    0 -0.29236544355E+01 -0.14489149252E+02 -0.21239931614E+02  0.25876976186E+02  0.51100000000E-03 0.  1.
        -12    1    3    3    0    0 -0.10627731492E+02 -0.96324918115E+01  0.49408415176E+01  0.15170546795E+02  0.00000000000E+00 0.  1.
</event>
<event>
 7    1  0.5155466E-011  0.5052889E+02  0.7816164E-02  0.1300439E+00
        -11   -1    0    0    0    0  0.00000000000E+00  0.00000000000E+00  0.45593999997E+02  0.45594000000E+02  0.51100000000E-03 0. -1.
         11   -1    0    0    0    0 -0.00000000000E+00 -0.00000000000E+00 -0.45593999997E+02  0.45594000000E+02  0.51100000000E-03 0.  1.
    9900012    2    1    2    0    0  0.20708806003E+02 -0.26510957534E+02  0.22835883879E+02  0.50528891451E+02  0.30000096056E+02 0.  0.
        -12    1    1    2    0    0 -0.20708806003E+02  0.26510957534E+02 -0.22835883879E+02  0.40659108549E+02  0.00000000000E+00 0.  1.
         11    1    3    3    0    0  0.18317005944E+02 -0.17416989306E+02  0.67184211143E+01  0.26153420537E+02  0.51100000000E-03 0. -1.
        -11    1    3    3    0    0 -0.36951086695E+01 -0.10101852735E+01 -0.14549523388E+01  0.40977053256E+01  0.51100000000E-03 0.  1.
         12    1    3    3    0    0  0.60869087284E+01 -0.80837829546E+01  0.17572415103E+02  0.20277765589E+02  0.00000000000E+00 0. -1.
</event>
<event>
 7    1  0.6189776E-011  0.5052882E+02  0.7816164E-02  0.1300439E+00
        -11   -1    0    0    0    0  0.00000000000E+00  0.00000000000E+00  0.45593999997E+02  0.45594000000E+02  0.51100000000E-03 0. -1.
         11   -1    0    0    0    0 -0.00000000000E+00 -0.00000000000E+00 -0.45593999997E+02  0.45594000000E+02  0.51100000000E-03 0.  1.
    9900012    2    1    2    0    0  0.13178098957E+02 -0.35454130909E+02  0.14916805803E+02  0.50528821627E+02  0.29999883818E+02 0.  0.
        -12    1    1    2    0    0 -0.13178098957E+02  0.35454130909E+02 -0.14916805803E+02  0.40659178373E+02  0.00000000000E+00 0.  1.
         11    1    3    3    0    0  0.49323775525E+01 -0.24330701553E+02  0.87343697224E+01  0.26317306114E+02  0.51100000000E-03 0. -1.
        -11    1    3    3    0    0  0.56195815570E+01  0.17827909660E+01 -0.43669531126E+01  0.73367786019E+01  0.51100000000E-03 0.  1.
        -12    1    3    3    0    0  0.26261398471E+01 -0.12906220322E+02  0.10549389193E+02  0.16874736911E+02  0.00000000000E+00 0.  1.
</event>
<event>
 7    1  0.5155466E-011  0.5052880E+02  0.7816164E-02  0.1300439E+00
        -11   -1    0    0    0    0  0.00000000000E+00  0.00000000000E+00  0.45593999997E+02  0.45594000000E+02  0.51100000000E-03 0. -1.
         11   -1    0    0    0    0 -0.00000000000E+00 -0.00000000000E+00 -0.45593999997E+02  0.45594000000E+02  0.51100000000E-03 0.  1.
    9900012    2    1    2    0    0  0.18055246402E+02  0.25890075684E+02  0.25629726525E+02  0.50528796573E+02  0.29999807663E+02 0.  0.
        -12    1    1    2    0    0 -0.18055246402E+02 -0.25890075684E+02 -0.25629726525E+02  0.40659203427E+02  0.00000000000E+00 0.  1.
         11    1    3    3    0    0 -0.62196771444E+01  0.14500417132E+02  0.91698425803E+01  0.18249177899E+02  0.51100000000E-03 0. -1.
        -11    1    3    3    0    0  0.80586637346E+01  0.18856611376E+01  0.18685213997E+01  0.84846421018E+01  0.51100000000E-03 0.  1.
         12    1    3    3    0    0  0.16216259812E+02  0.95039974142E+01  0.14591362545E+02  0.23794976572E+02  0.00000000000E+00 0. -1.
</event>
<event>
 7    1  0.5155466E-011  0.5052886E+02  0.7816164E-02  0.1300439E+00
        -11   -1    0    0    0    0  0.00000000000E+00  0.00000000000E+00  0.45593999997E+02  0.45594000000E+02  0.51100000000E-03 0.  1.
         11   -1    0    0    0    0 -0.00000000000E+00 -0.00000000000E+00 -0.45593999997E+02  0.45594000000E+02  0.51100000000E-03 0. -1.
    9900012    2    1    2    0    0  0.30394635833E+02  0.12493652097E+02 -0.23942444185E+02  0.50528857563E+02  0.29999993048E+02 0.  0.
        -12    1    1    2    0    0 -0.30394635833E+02 -0.12493652097E+02  0.23942444185E+02  0.40659142437E+02  0.00000000000E+00 0.  1.
         11    1    3    3    0    0  0.13961979910E+02  0.16542871003E+02 -0.22921614012E+02  0.31527826649E+02  0.51100000000E-03 0. -1.
        -11    1    3    3    0    0 -0.69277099514E+00  0.15606118087E-01 -0.12150262873E+01  0.13987366953E+01  0.51100000000E-03 0.  1.
         12    1    3    3    0    0  0.17125426918E+02 -0.40648250243E+01  0.19419611470E+00  0.17602294218E+02  0.00000000000E+00 0. -1.
</event>
<event>
 7    1  0.5155466E-011  0.5052887E+02  0.7816164E-02  0.1300439E+00
        -11   -1    0    0    0    0  0.00000000000E+00  0.00000000000E+00  0.45593999997E+02  0.45594000000E+02  0.51100000000E-03 0.  1.
         11   -1    0    0    0    0 -0.00000000000E+00 -0.00000000000E+00 -0.45593999997E+02  0.45594000000E+02  0.51100000000E-03 0. -1.
    9900012    2    1    2    0    0  0.18041816505E+02 -0.10266302126E+02 -0.34960847575E+02  0.50528868611E+02  0.30000026631E+02 0.  0.
        -12    1    1    2    0    0 -0.18041816505E+02  0.10266302126E+02  0.34960847575E+02  0.40659131389E+02  0.00000000000E+00 0.  1.
         11    1    3    3    0    0  0.11301716506E+01 -0.13000218799E+02 -0.23539047347E+02  0.26914117616E+02  0.51100000000E-03 0. -1.
        -11    1    3    3    0    0  0.82470838838E+01 -0.43520192943E+00  0.80498141357E+00  0.82976977918E+01  0.51100000000E-03 0.  1.
         12    1    3    3    0    0  0.86645609711E+01  0.31691186024E+01 -0.12226781641E+02  0.15317053203E+02  0.00000000000E+00 0. -1.
</event>
<event>
 7    1  0.5155466E-011  0.5052886E+02  0.7816164E-02  0.1300439E+00
        -11   -1    0    0    0    0  0.00000000000E+00  0.00000000000E+00  0.45593999997E+02  0.45594000000E+02  0.51100000000E-03 0.  1.
         11   -1    0    0    0    0 -0.00000000000E+00 -0.00000000000E+00 -0.45593999997E+02  0.45594000000E+02  0.51100000000E-03 0. -1.
    9900012    2    1    2    0    0 -0.30572881267E+02 -0.11325006136E+01 -0.26780247691E+02  0.50528864581E+02  0.30000014380E+02 0.  0.
        -12    1    1    2    0    0  0.30572881267E+02  0.11325006136E+01  0.26780247691E+02  0.40659135419E+02  0.00000000000E+00 0.  1.
         11    1    3    3    0    0 -0.58763627707E+01  0.36466157753E+01 -0.15348428423E+02  0.16834598342E+02  0.51100000000E-03 0. -1.
        -11    1    3    3    0    0 -0.18563509096E+02 -0.17933383387E+01  0.18720244189E+01  0.18743649806E+02  0.51100000000E-03 0.  1.
         12    1    3    3    0    0 -0.61330094004E+01 -0.29857780502E+01 -0.13303843687E+02  0.14950616433E+02  0.00000000000E+00 0. -1.
</event>
<event>
 7    1  0.5155466E-011  0.5052886E+02  0.7816164E-02  0.1300439E+00
        -11   -1    0    0    0    0  0.00000000000E+00  0.00000000000E+00  0.45593999997E+02  0.45594000000E+02  0.51100000000E-03 0.  1.
         11   -1    0    0    0    0 -0.00000000000E+00 -0.00000000000E+00 -0.45593999997E+02  0.45594000000E+02  0.51100000000E-03 0. -1.
    9900012    2    1    2    0    0 -0.13436585928E+01 -0.34905244460E+02 -0.20808278676E+02  0.50528856247E+02  0.29999989049E+02 0.  0.
        -12    1    1    2    0    0  0.13436585928E+01  0.34905244460E+02  0.20808278676E+02  0.40659143753E+02  0.00000000000E+00 0.  1.
         11    1    3    3    0    0  0.34431300059E+01 -0.10494452151E+00 -0.10265692675E+02  0.10828231801E+02  0.51100000000E-03 0.  1.
        -11    1    3    3    0    0  0.15176103131E+01 -0.63948751058E+01  0.34403830422E+01  0.74184772304E+01  0.51100000000E-03 0. -1.
         12    1    3    3    0    0 -0.63043989118E+01 -0.28405424833E+02 -0.13982969043E+02  0.32282147216E+02  0.00000000000E+00 0. -1.
</event>
<event>
 7    1  0.5155466E-011  0.5052886E+02  0.7816164E-02  0.1300439E+00
        -11   -1    0    0    0    0  0.00000000000E+00  0.00000000000E+00  0.45593999997E+02  0.45594000000E+02  0.51100000000E-03 0. -1.
         11   -1    0    0    0    0 -0.00000000000E+00 -0.00000000000E+00 -0.45593999997E+02  0.45594000000E+02  0.51100000000E-03 0.  1.
    9900012    2    1    2    0    0  0.13774985263E+02  0.16695080304E+02 -0.34419318569E+02  0.50528863067E+02  0.30000009778E+02 0.  0.
        -12    1    1    2    0    0 -0.13774985263E+02 -0.16695080304E+02  0.34419318569E+02  0.40659136933E+02  0.00000000000E+00 0.  1.
         11    1    3    3    0    0  0.16774605596E+01  0.18724150050E+02 -0.99038815974E+01  0.21248400880E+02  0.51100000000E-03 0. -1.
        -11    1    3    3    0    0  0.39215668430E+01  0.34236898096E+01 -0.41130370023E+01  0.66345619343E+01  0.51100000000E-03 0.  1.
         12    1    3    3    0    0  0.81759578605E+01 -0.54527595554E+01 -0.20402399970E+02  0.22645900252E+02  0.00000000000E+00 0. -1.
</event>
<event>
 7    1  0.5155466E-011  0.5052886E+02  0.7816164E-02  0.1300439E+00
        -11   -1    0    0    0    0  0.00000000000E+00  0.00000000000E+00  0.45593999997E+02  0.45594000000E+02  0.51100000000E-03 0. -1.
         11   -1    0    0    0    0 -0.00000000000E+00 -0.00000000000E+00 -0.45593999997E+02  0.45594000000E+02  0.51100000000E-03 0.  1.
    9900012    2    1    2    0    0  0.27265175799E+02  0.14758771777E+02  0.26305027135E+02  0.50528860704E+02  0.30000002595E+02 0.  0.
        -12    1    1    2    0    0 -0.27265175799E+02 -0.14758771777E+02 -0.26305027135E+02  0.40659139296E+02  0.00000000000E+00 0.  1.
         11    1    3    3    0    0  0.11163015121E+02  0.21259509483E+02  0.18385758077E+02  0.30242614808E+02  0.51100000000E-03 0. -1.
        -11    1    3    3    0    0  0.12252076127E+02 -0.27359370855E+01  0.28127081993E+01  0.12865070883E+02  0.51100000000E-03 0.  1.
         12    1    3    3    0    0  0.38500845518E+01 -0.37648006209E+01  0.51065608586E+01  0.74211750130E+01  0.00000000000E+00 0. -1.
</event>
<event>
 7    1  0.5155466E-011  0.5052886E+02  0.7816164E-02  0.1300439E+00
        -11   -1    0    0    0    0  0.00000000000E+00  0.00000000000E+00  0.45593999997E+02  0.45594000000E+02  0.51100000000E-03 0.  1.
         11   -1    0    0    0    0 -0.00000000000E+00 -0.00000000000E+00 -0.45593999997E+02  0.45594000000E+02  0.51100000000E-03 0. -1.
    9900012    2    1    2    0    0  0.43318023669E+01  0.31874542725E+02 -0.24867950788E+02  0.50528856354E+02  0.29999989373E+02 0.  0.
        -12    1    1    2    0    0 -0.43318023669E+01 -0.31874542725E+02  0.24867950788E+02  0.40659143646E+02  0.00000000000E+00 0.  1.
         11    1    3    3    0    0  0.59222064621E+01 -0.11837488672E+01 -0.94711495321E+01  0.11232829763E+02  0.51100000000E-03 0. -1.
        -11    1    3    3    0    0 -0.67487054636E+01  0.27769789015E+02 -0.10563937005E+02  0.30468064800E+02  0.51100000000E-03 0.  1.
        -12    1    3    3    0    0  0.51583013684E+01  0.52885025768E+01 -0.48328642507E+01  0.88279617907E+01  0.00000000000E+00 0.  1.
</event>
<event>
 7    1  0.5155466E-011  0.5052886E+02  0.7816164E-02  0.1300439E+00
        -11   -1    0    0    0    0  0.00000000000E+00  0.00000000000E+00  0.45593999997E+02  0.45594000000E+02  0.51100000000E-03 0. -1.
         11   -1    0    0    0    0 -0.00000000000E+00 -0.00000000000E+00 -0.45593999997E+02  0.45594000000E+02  0.51100000000E-03 0.  1.
    9900012    2    1    2    0    0  0.22854334524E+02 -0.26660361499E+02  0.20495619106E+02  0.50528857309E+02  0.29999992277E+02 0.  0.
        -12    1    1    2    0    0 -0.22854334524E+02  0.26660361499E+02 -0.20495619106E+02  0.40659142691E+02  0.00000000000E+00 0.  1.
         11    1    3    3    0    0  0.27673126219E+02 -0.21710775748E+02  0.18675669677E+02  0.39823866417E+02  0.51100000000E-03 0. -1.
        -11    1    3    3    0    0 -0.34129083963E+01 -0.47634891235E+01 -0.23400715951E+01  0.63098896728E+01  0.51100000000E-03 0.  1.
         12    1    3    3    0    0 -0.14058832984E+01 -0.18609662831E+00  0.41600210244E+01  0.43951012192E+01  0.00000000000E+00 0. -1.
</event>
<event>
 7    1  0.5155466E-011  0.5052886E+02  0.7816164E-02  0.1300439E+00
        -11   -1    0    0    0    0  0.00000000000E+00  0.00000000000E+00  0.45593999997E+02  0.45594000000E+02  0.51100000000E-03 0.  1.
         11   -1    0    0    0    0 -0.00000000000E+00 -0.00000000000E+00 -0.45593999997E+02  0.45594000000E+02  0.51100000000E-03 0. -1.
    9900012    2    1    2    0    0  0.76700134381E+01  0.32036630564E+02 -0.23832559345E+02  0.50528859712E+02  0.29999999580E+02 0.  0.
        -12    1    1    2    0    0 -0.76700134381E+01 -0.32036630564E+02  0.23832559345E+02  0.40659140288E+02  0.00000000000E+00 0.  1.
         11    1    3    3    0    0  0.12229042665E+02  0.60420316125E+01 -0.63256562736E+01  0.15035609667E+02  0.51100000000E-03 0. -1.
        -11    1    3    3    0    0 -0.95986173602E+01  0.21826570968E+02 -0.10969398839E+02  0.26246149558E+02  0.51100000000E-03 0.  1.
        -12    1    3    3    0    0  0.50395881329E+01  0.41680279836E+01 -0.65375042323E+01  0.92471004866E+01  0.00000000000E+00 0.  1.
</event>
<event>
 7    1  0.5155466E-011  0.5052886E+02  0.7816164E-02  0.1300439E+00
        -11   -1    0    0    0    0  0.00000000000E+00  0.00000000000E+00  0.45593999997E+02  0.45594000000E+02  0.51100000000E-03 0.  1.
         11   -1    0    0    0    0 -0.00000000000E+00 -0.00000000000E+00 -0.45593999997E+02  0.45594000000E+02  0.51100000000E-03 0. -1.
    9900012    2    1    2    0    0 -0.23977073489E+00 -0.15742601676E+02 -0.37487042825E+02  0.50528863545E+02  0.30000011230E+02 0.  0.
        -12    1    1    2    0    0  0.23977073489E+00  0.15742601676E+02  0.37487042825E+02  0.40659136455E+02  0.00000000000E+00 0.  1.
         11    1    3    3    0    0  0.38274413091E+01 -0.14748129918E+01 -0.52854763433E+01  0.66903393615E+01  0.51100000000E-03 0. -1.
        -11    1    3    3    0    0 -0.67428436288E+01  0.54977264019E+01 -0.47694218412E+01  0.99216087784E+01  0.51100000000E-03 0.  1.
        -12    1    3    3    0    0  0.26756315848E+01 -0.19765515086E+02 -0.27432144641E+02  0.33916915405E+02  0.00000000000E+00 0.  1.
</event>
<event>
 7    1  0.5155466E-011  0.5052886E+02  0.7816164E-02  0.1300439E+00
        -11   -1    0    0    0    0  0.00000000000E+00  0.00000000000E+00  0.45593999997E+02  0.45594000000E+02  0.51100000000E-03 0. -1.
         11   -1    0    0    0    0 -0.00000000000E+00 -0.00000000000E+00 -0.45593999997E+02  0.45594000000E+02  0.51100000000E-03 0.  1.
    9900012    2    1    2    0    0 -0.36691532939E+02 -0.13522180815E+01  0.17466219562E+02  0.50528857006E+02  0.29999991357E+02 0.  0.
        -12    1    1    2    0    0  0.36691532939E+02  0.13522180815E+01 -0.17466219562E+02  0.40659142994E+02  0.00000000000E+00 0.  1.
         11    1    3    3    0    0 -0.34059595188E+02 -0.41844787496E+00  0.97424376642E+01  0.35428042775E+02  0.51100000000E-03 0. -1.
        -11    1    3    3    0    0  0.50210688044E+01  0.21354024095E+00  0.17387292796E+01  0.53178859655E+01  0.51100000000E-03 0.  1.
        -12    1    3    3    0    0 -0.76530065556E+01 -0.11473104475E+01  0.59850526185E+01  0.97829282656E+01  0.00000000000E+00 0.  1.
</event>
<event>
 7    1  0.5155466E-011  0.5052886E+02  0.7816164E-02  0.1300439E+00
        -11   -1    0    0    0    0  0.00000000000E+00  0.00000000000E+00  0.45593999997E+02  0.45594000000E+02  0.51100000000E-03 0.  1.
         11   -1    0    0    0    0 -0.00000000000E+00 -0.00000000000E+00 -0.45593999997E+02  0.45594000000E+02  0.51100000000E-03 0. -1.
    9900012    2    1    2    0    0  0.14525348497E+02 -0.13725438451E+02 -0.35408927989E+02  0.50528860917E+02  0.30000003243E+02 0.  0.
        -12    1    1    2    0    0 -0.14525348497E+02  0.13725438451E+02  0.35408927989E+02  0.40659139083E+02  0.00000000000E+00 0.  1.
         11    1    3    3    0    0  0.10569471278E+02 -0.19773562707E+02 -0.33622188310E+02  0.40412362617E+02  0.51100000000E-03 0. -1.
        -11    1    3    3    0    0  0.43330533837E+01  0.37524048981E+01  0.16514324525E+01  0.59651591388E+01  0.51100000000E-03 0.  1.
         12    1    3    3    0    0 -0.37717616517E+00  0.22957193573E+01 -0.34381721315E+01  0.41513391614E+01  0.00000000000E+00 0. -1.
</event>
<event>
 7    1  0.5155466E-011  0.5052880E+02  0.7816164E-02  0.1300439E+00
        -11   -1    0    0    0    0  0.00000000000E+00  0.00000000000E+00  0.45593999997E+02  0.45594000000E+02  0.51100000000E-03 0.  1.
         11   -1    0    0    0    0 -0.00000000000E+00 -0.00000000000E+00 -0.45593999997E+02  0.45594000000E+02  0.51100000000E-03 0. -1.
    9900012    2    1    2    0    0 -0.80507677591E+01 -0.43258721817E+01 -0.39618709088E+02  0.50528804958E+02  0.29999833150E+02 0.  0.
        -12    1    1    2    0    0  0.80507677591E+01  0.43258721817E+01  0.39618709088E+02  0.40659195042E+02  0.00000000000E+00 0.  1.
         11    1    3    3    0    0  0.52604740646E+01  0.77353138288E+00 -0.13288076841E+02  0.14312369636E+02  0.51100000000E-03 0. -1.
        -11    1    3    3    0    0 -0.15973066164E+02 -0.84252069289E+01 -0.13080789180E+02  0.22298654675E+02  0.51100000000E-03 0.  1.
        -12    1    3    3    0    0  0.26618243408E+01  0.33258033643E+01 -0.13249843067E+02  0.13917780647E+02  0.00000000000E+00 0.  1.
</event>
<event>
 7    1  0.5155466E-011  0.5052880E+02  0.7816164E-02  0.1300439E+00
        -11   -1    0    0    0    0  0.00000000000E+00  0.00000000000E+00  0.45593999997E+02  0.45594000000E+02  0.51100000000E-03 0.  1.
         11   -1    0    0    0    0 -0.00000000000E+00 -0.00000000000E+00 -0.45593999997E+02  0.45594000000E+02  0.51100000000E-03 0. -1.
    9900012    2    1    2    0    0 -0.18501472704E+02  0.35382820230E+02 -0.76760673098E+01  0.50528800930E+02  0.29999820907E+02 0.  0.
        -12    1    1    2    0    0  0.18501472704E+02 -0.35382820230E+02  0.76760673098E+01  0.40659199070E+02  0.00000000000E+00 0.  1.
         11    1    3    3    0    0 -0.23032551210E+02  0.24063483765E+02 -0.43468036235E+01  0.33592326030E+02  0.51100000000E-03 0. -1.
        -11    1    3    3    0    0  0.12671669508E+01 -0.18675265938E+01  0.12756565582E+01  0.25924250376E+01  0.51100000000E-03 0.  1.
         12    1    3    3    0    0  0.32639115555E+01  0.13186863059E+02 -0.46049202446E+01  0.14344049862E+02  0.00000000000E+00 0. -1.
</event>
<event>
 7    1  0.5155466E-011  0.5052887E+02  0.7816164E-02  0.1300439E+00
        -11   -1    0    0    0    0  0.00000000000E+00  0.00000000000E+00  0.45593999997E+02  0.45594000000E+02  0.51100000000E-03 0.  1.
         11   -1    0    0    0    0 -0.00000000000E+00 -0.00000000000E+00 -0.45593999997E+02  0.45594000000E+02  0.51100000000E-03 0. -1.
    9900012    2    1    2    0    0  0.16324614672E+02  0.91491376125E+00 -0.37226797762E+02  0.50528873313E+02  0.30000040922E+02 0.  0.
        -12    1    1    2    0    0 -0.16324614672E+02 -0.91491376125E+00  0.37226797762E+02  0.40659126687E+02  0.00000000000E+00 0.  1.
         11    1    3    3    0    0  0.21447057543E+02  0.73388404564E+01 -0.16025117311E+02  0.27760389795E+02  0.51100000000E-03 0. -1.
        -11    1    3    3    0    0 -0.33026909079E+01 -0.34636504770E+01 -0.13361370422E+02  0.14192634064E+02  0.51100000000E-03 0.  1.
         12    1    3    3    0    0 -0.18197519633E+01 -0.29602762182E+01 -0.78403100286E+01  0.85758494530E+01  0.00000000000E+00 0. -1.
</event>
<event>
 7    1  0.5155466E-011  0.5052887E+02  0.7816164E-02  0.1300439E+00
        -11   -1    0    0    0    0  0.00000000000E+00  0.00000000000E+00  0.45593999997E+02  0.45594000000E+02  0.51100000000E-03 0.  1.
         11   -1    0    0    0    0 -0.00000000000E+00 -0.00000000000E+00 -0.45593999997E+02  0.45594000000E+02  0.51100000000E-03 0. -1.
    9900012    2    1    2    0    0 -0.36332382462E+02  0.17533833949E+02  0.50682692587E+01  0.50528871853E+02  0.30000036486E+02 0.  0.
        -12    1    1    2    0    0  0.36332382462E+02 -0.17533833949E+02 -0.50682692587E+01  0.40659128147E+02  0.00000000000E+00 0.  1.
         11    1    3    3    0    0 -0.24719881003E+02  0.10238131843E+02  0.97826297725E+01  0.28488448640E+02  0.51100000000E-03 0. -1.
        -11    1    3    3    0    0  0.28572120963E+01 -0.22057733656E+01 -0.29094480920E+01  0.46361606491E+01  0.51100000000E-03 0.  1.
         12    1    3    3    0    0 -0.14469713556E+02  0.95014754722E+01 -0.18049124218E+01  0.17404262564E+02  0.00000000000E+00 0. -1.
</event>
<event>
 7    1  0.5155466E-011  0.5052886E+02  0.7816164E-02  0.1300439E+00
        -11   -1    0    0    0    0  0.00000000000E+00  0.00000000000E+00  0.45593999997E+02  0.45594000000E+02  0.51100000000E-03 0. -1.
         11   -1    0    0    0    0 -0.00000000000E+00 -0.00000000000E+00 -0.45593999997E+02  0.45594000000E+02  0.51100000000E-03 0.  1.
    9900012    2    1    2    0    0  0.33925776643E+02 -0.17796923617E+02  0.13618979879E+02  0.50528862970E+02  0.30000009483E+02 0.  0.
        -12    1    1    2    0    0 -0.33925776643E+02  0.17796923617E+02 -0.13618979879E+02  0.40659137030E+02  0.00000000000E+00 0.  1.
         11    1    3    3    0    0  0.98400347356E+01 -0.12861564960E+02  0.32362497150E+01  0.16514219609E+02  0.51100000000E-03 0. -1.
        -11    1    3    3    0    0  0.59519174524E+01  0.76919649184E+01  0.31204028257E+00  0.97308280770E+01  0.51100000000E-03 0.  1.
         12    1    3    3    0    0  0.18133824455E+02 -0.12627323576E+02  0.10070689881E+02  0.24283815284E+02  0.00000000000E+00 0. -1.
</event>
<event>
 7    1  0.5155466E-011  0.5052886E+02  0.7816164E-02  0.1300439E+00
        -11   -1    0    0    0    0  0.00000000000E+00  0.00000000000E+00  0.45593999997E+02  0.45594000000E+02  0.51100000000E-03 0.  1.
         11   -1    0    0    0    0 -0.00000000000E+00 -0.00000000000E+00 -0.45593999997E+02  0.45594000000E+02  0.51100000000E-03 0. -1.
    9900012    2    1    2    0    0  0.16860353732E+02 -0.36952405045E+02  0.18477278798E+01  0.50528857549E+02  0.29999993004E+02 0.  0.
        -12    1    1    2    0    0 -0.16860353732E+02  0.36952405045E+02 -0.18477278798E+01  0.40659142451E+02  0.00000000000E+00 0.  1.
         11    1    3    3    0    0  0.46951862720E+01 -0.20288489972E+02  0.96869096789E+01  0.22967451292E+02  0.51100000000E-03 0. -1.
        -11    1    3    3    0    0  0.55161001586E+01 -0.16254549236E+01 -0.94265615022E+01  0.11042170379E+02  0.51100000000E-03 0.  1.
        -12    1    3    3    0    0  0.66490673016E+01 -0.15038460149E+02  0.15873797031E+01  0.16519235877E+02  0.00000000000E+00 0.  1.
</event>
<event>
 7    1  0.5155466E-011  0.5052889E+02  0.7816164E-02  0.1300439E+00
        -11   -1    0    0    0    0  0.00000000000E+00  0.00000000000E+00  0.45593999997E+02  0.45594000000E+02  0.51100000000E-03 0. -1.
         11   -1    0    0    0    0 -0.00000000000E+00 -0.00000000000E+00 -0.45593999997E+02  0.45594000000E+02  0.51100000000E-03 0.  1.
    9900012    2    1    2    0    0  0.17492574855E+02  0.27727428006E+02  0.24049175333E+02  0.50528889421E+02  0.30000089884E+02 0.  0.
        -12    1    1    2    0    0 -0.17492574855E+02 -0.27727428006E+02 -0.24049175333E+02  0.40659110579E+02  0.00000000000E+00 0.  1.
         11    1    3    3    0    0 -0.38641705024E+01  0.12004091274E+02  0.83820598996E+01  0.15142290098E+02  0.51100000000E-03 0. -1.
        -11    1    3    3    0    0  0.20108490650E+02  0.14275126011E+02  0.57963280866E+01  0.25332351616E+02  0.51100000000E-03 0.  1.
        -12    1    3    3    0    0  0.12482547071E+01  0.14482107211E+01  0.98707873471E+01  0.10054247707E+02  0.00000000000E+00 0.  1.
</event>
<event>
 7    1  0.5155466E-011  0.5052885E+02  0.7816164E-02  0.1300439E+00
        -11   -1    0    0    0    0  0.00000000000E+00  0.00000000000E+00  0.45593999997E+02  0.45594000000E+02  0.51100000000E-03 0.  1.
         11   -1    0    0    0    0 -0.00000000000E+00 -0.00000000000E+00 -0.45593999997E+02  0.45594000000E+02  0.51100000000E-03 0. -1.
    9900012    2    1    2    0    0  0.15765798943E+01 -0.24770011452E+02 -0.32204458506E+02  0.50528853192E+02  0.29999979762E+02 0.  0.
        -12    1    1    2    0    0 -0.15765798943E+01  0.24770011452E+02  0.32204458506E+02  0.40659146808E+02  0.00000000000E+00 0.  1.
         11    1    3    3    0    0  0.15727008623E+01 -0.17468232466E+01 -0.79254892275E+01  0.82666897374E+01  0.51100000000E-03 0. -1.
        -11    1    3    3    0    0 -0.83818180208E+01 -0.26524805255E+01  0.86394981353E+00  0.88338516975E+01  0.51100000000E-03 0.  1.
        -12    1    3    3    0    0  0.83856970528E+01 -0.20370707680E+02 -0.25142919092E+02  0.33428311757E+02  0.00000000000E+00 0.  1.
</event>
<event>
 7    1  0.5155466E-011  0.5052886E+02  0.7816164E-02  0.1300439E+00
        -11   -1    0    0    0    0  0.00000000000E+00  0.00000000000E+00  0.45593999997E+02  0.45594000000E+02  0.51100000000E-03 0.  1.
         11   -1    0    0    0    0 -0.00000000000E+00 -0.00000000000E+00 -0.45593999997E+02  0.45594000000E+02  0.51100000000E-03 0. -1.
    9900012    2    1    2    0    0  0.17231158465E+02 -0.26648466128E+02 -0.25418729165E+02  0.50528863740E+02  0.30000011825E+02 0.  0.
        -12    1    1    2    0    0 -0.17231158465E+02  0.26648466128E+02  0.25418729165E+02  0.40659136260E+02  0.00000000000E+00 0.  1.
         11    1    3    3    0    0  0.24487273675E+01 -0.82657615062E+01 -0.69643738176E+01  0.11082489880E+02  0.51100000000E-03 0. -1.
        -11    1    3    3    0    0  0.15103036009E+02 -0.11788805086E+02  0.71447684098E+00  0.19172587187E+02  0.51100000000E-03 0.  1.
        -12    1    3    3    0    0 -0.32060491169E+00 -0.65938995354E+01 -0.19168832189E+02  0.20273786673E+02  0.00000000000E+00 0.  1.
</event>
<event>
 7    1  0.5155466E-011  0.5052887E+02  0.7816164E-02  0.1300439E+00
        -11   -1    0    0    0    0  0.00000000000E+00  0.00000000000E+00  0.45593999997E+02  0.45594000000E+02  0.51100000000E-03 0.  1.
         11   -1    0    0    0    0 -0.00000000000E+00 -0.00000000000E+00 -0.45593999997E+02  0.45594000000E+02  0.51100000000E-03 0. -1.
    9900012    2    1    2    0    0  0.25854911698E+02  0.23526206765E+02 -0.20765505855E+02  0.50528866991E+02  0.30000021705E+02 0.  0.
        -12    1    1    2    0    0 -0.25854911698E+02 -0.23526206765E+02  0.20765505855E+02  0.40659133009E+02  0.00000000000E+00 0.  1.
         11    1    3    3    0    0  0.19792884002E+02  0.11165033379E+02 -0.18718156565E+02  0.29441223020E+02  0.51100000000E-03 0. -1.
        -11    1    3    3    0    0 -0.34246301440E+01  0.94100471912E+01 -0.43038202838E+01  0.10899538938E+02  0.51100000000E-03 0.  1.
        -12    1    3    3    0    0  0.94866578407E+01  0.29511261944E+01  0.22564709946E+01  0.10188105032E+02  0.00000000000E+00 0.  1.
</event>
<event>
 7    1  0.5155466E-011  0.5052886E+02  0.7816164E-02  0.1300439E+00
        -11   -1    0    0    0    0  0.00000000000E+00  0.00000000000E+00  0.45593999997E+02  0.45594000000E+02  0.51100000000E-03 0.  1.
         11   -1    0    0    0    0 -0.00000000000E+00 -0.00000000000E+00 -0.45593999997E+02  0.45594000000E+02  0.51100000000E-03 0. -1.
    9900012    2    1    2    0    0 -0.20420444713E+02 -0.35095556973E+02 -0.21149927438E+01  0.50528857414E+02  0.29999992595E+02 0.  0.
        -12    1    1    2    0    0  0.20420444713E+02  0.35095556973E+02  0.21149927438E+01  0.40659142586E+02  0.00000000000E+00 0.  1.
         11    1    3    3    0    0 -0.15756036616E+02 -0.10383386650E+02 -0.10658128893E+02  0.21671712436E+02  0.51100000000E-03 0. -1.
        -11    1    3    3    0    0  0.27722438114E+01 -0.85258212402E+01  0.61782774059E+01  0.10887886642E+02  0.51100000000E-03 0.  1.
        -12    1    3    3    0    0 -0.74366519082E+01 -0.16186349084E+02  0.23648587430E+01  0.17969258336E+02  0.00000000000E+00 0.  1.
</event>
<event>
 7    1  0.5155466E-011  0.5052886E+02  0.7816164E-02  0.1300439E+00
        -11   -1    0    0    0    0  0.00000000000E+00  0.00000000000E+00  0.45593999997E+02  0.45594000000E+02  0.51100000000E-03 0. -1.
         11   -1    0    0    0    0 -0.00000000000E+00 -0.00000000000E+00 -0.45593999997E+02  0.45594000000E+02  0.51100000000E-03 0.  1.
    9900012    2    1    2    0    0  0.27179468659E+02 -0.18586355135E+02  0.23853504592E+02  0.50528858407E+02  0.29999995613E+02 0.  0.
        -12    1    1    2    0    0 -0.27179468659E+02  0.18586355135E+02 -0.23853504592E+02  0.40659141593E+02  0.00000000000E+00 0.  1.
         11    1    3    3    0    0  0.40725498191E+01 -0.15398436166E+02  0.64094775872E+00  0.15940775159E+02  0.51100000000E-03 0. -1.
        -11    1    3    3    0    0  0.11299009016E+02 -0.42657023933E+01  0.54941443875E+01  0.13268362539E+02  0.51100000000E-03 0.  1.
         12    1    3    3    0    0  0.11807909824E+02  0.10777834242E+01  0.17718412446E+02  0.21319720709E+02  0.00000000000E+00 0. -1.
</event>
<event>
 7    1  0.5155466E-011  0.5052893E+02  0.7816164E-02  0.1300439E+00
        -11   -1    0    0    0    0  0.00000000000E+00  0.00000000000E+00  0.45593999997E+02  0.45594000000E+02  0.51100000000E-03 0.  1.
         11   -1    0    0    0    0 -0.00000000000E+00 -0.00000000000E+00 -0.45593999997E+02  0.45594000000E+02  0.51100000000E-03 0. -1.
    9900012    2    1    2    0    0  0.33032799175E+01  0.38130248449E+02 -0.13723424743E+02  0.50528931003E+02  0.30000216276E+02 0.  0.
        -12    1    1    2    0    0 -0.33032799175E+01 -0.38130248449E+02  0.13723424743E+02  0.40659068997E+02  0.00000000000E+00 0.  1.
         11    1    3    3    0    0 -0.16888206090E+01  0.26206069775E+02 -0.22581461514E+02  0.34634269337E+02  0.51100000000E-03 0. -1.
        -11    1    3    3    0    0  0.28278678991E+01  0.45696530088E+01  0.48737111868E+01  0.72547657763E+01  0.51100000000E-03 0.  1.
         12    1    3    3    0    0  0.21642326273E+01  0.73545256655E+01  0.39843255842E+01  0.86398958900E+01  0.00000000000E+00 0. -1.
</event>
<event>
 7    1  0.5155466E-011  0.5052887E+02  0.7816164E-02  0.1300439E+00
        -11   -1    0    0    0    0  0.00000000000E+00  0.00000000000E+00  0.45593999997E+02  0.45594000000E+02  0.51100000000E-03 0.  1.
         11   -1    0    0    0    0 -0.00000000000E+00 -0.00000000000E+00 -0.45593999997E+02  0.45594000000E+02  0.51100000000E-03 0. -1.
    9900012    2    1    2    0    0  0.11901750444E+02 -0.13271269346E+01 -0.38855529678E+02  0.50528866756E+02  0.30000020993E+02 0.  0.
        -12    1    1    2    0    0 -0.11901750444E+02  0.13271269346E+01  0.38855529678E+02  0.40659133244E+02  0.00000000000E+00 0.  1.
         11    1    3    3    0    0  0.13508778948E+02  0.10169076346E+02 -0.16731834407E+02  0.23787633453E+02  0.51100000000E-03 0. -1.
        -11    1    3    3    0    0  0.57112432810E+00 -0.59459068350E+01 -0.29502852655E+01  0.66621448871E+01  0.51100000000E-03 0.  1.
         12    1    3    3    0    0 -0.21781528324E+01 -0.55502964453E+01 -0.19173410006E+02  0.20079088417E+02  0.00000000000E+00 0. -1.
</event>
<event>
 7    1  0.5155466E-011  0.5052887E+02  0.7816164E-02  0.1300439E+00
        -11   -1    0    0    0    0  0.00000000000E+00  0.00000000000E+00  0.45593999997E+02  0.45594000000E+02  0.51100000000E-03 0.  1.
         11   -1    0    0    0    0 -0.00000000000E+00 -0.00000000000E+00 -0.45593999997E+02  0.45594000000E+02  0.51100000000E-03 0. -1.
    9900012    2    1    2    0    0 -0.13032251316E+02 -0.37972627047E+02  0.64346904736E+01  0.50528865470E+02  0.30000017083E+02 0.  0.
        -12    1    1    2    0    0  0.13032251316E+02  0.37972627047E+02 -0.64346904736E+01  0.40659134530E+02  0.00000000000E+00 0.  1.
         11    1    3    3    0    0 -0.10534568495E+02 -0.17745343467E+02  0.71333574239E+00  0.20649048314E+02  0.51100000000E-03 0. -1.
        -11    1    3    3    0    0  0.89375335866E+01 -0.11173122623E+02  0.53925086941E+01  0.15290432500E+02  0.51100000000E-03 0.  1.
        -12    1    3    3    0    0 -0.11435216407E+02 -0.90541609576E+01  0.32884603713E+00  0.14589384656E+02  0.00000000000E+00 0.  1.
</event>
<event>
 7    1  0.5155466E-011  0.5052886E+02  0.7816164E-02  0.1300439E+00
        -11   -1    0    0    0    0  0.00000000000E+00  0.00000000000E+00  0.45593999997E+02  0.45594000000E+02  0.51100000000E-03 0.  1.
         11   -1    0    0    0    0 -0.00000000000E+00 -0.00000000000E+00 -0.45593999997E+02  0.45594000000E+02  0.51100000000E-03 0. -1.
    9900012    2    1    2    0    0 -0.68949887985E+01 -0.22003838590E+02 -0.33488141811E+02  0.50528862956E+02  0.30000009440E+02 0.  0.
        -12    1    1    2    0    0  0.68949887985E+01  0.22003838590E+02  0.33488141811E+02  0.40659137044E+02  0.00000000000E+00 0.  1.
         11    1    3    3    0    0 -0.56322569032E+01 -0.11846301244E+02 -0.62264681210E+01  0.14519851119E+02  0.51100000000E-03 0. -1.
        -11    1    3    3    0    0 -0.96147161778E+00 -0.34889282247E+01 -0.28907947839E+02  0.29133597381E+02  0.51100000000E-03 0.  1.
        -12    1    3    3    0    0 -0.30126027753E+00 -0.66686091214E+01  0.16462741487E+01  0.68754144560E+01  0.00000000000E+00 0.  1.
</event>
<event>
 7    1  0.5155466E-011  0.5052885E+02  0.7816164E-02  0.1300439E+00
        -11   -1    0    0    0    0  0.00000000000E+00  0.00000000000E+00  0.45593999997E+02  0.45594000000E+02  0.51100000000E-03 0.  1.
         11   -1    0    0    0    0 -0.00000000000E+00 -0.00000000000E+00 -0.45593999997E+02  0.45594000000E+02  0.51100000000E-03 0. -1.
    9900012    2    1    2    0    0  0.24672001218E+02  0.11527997469E+02 -0.30192115832E+02  0.50528853081E+02  0.29999979424E+02 0.  0.
        -12    1    1    2    0    0 -0.24672001218E+02 -0.11527997469E+02  0.30192115832E+02  0.40659146919E+02  0.00000000000E+00 0.  1.
         11    1    3    3    0    0  0.25152587276E+01 -0.68101474077E+01 -0.86525169683E+01  0.11294719312E+02  0.51100000000E-03 0.  1.
        -11    1    3    3    0    0  0.12964051215E+02  0.19100927966E+02 -0.18296642606E+02  0.29456394959E+02  0.51100000000E-03 0. -1.
         12    1    3    3    0    0  0.91926912763E+01 -0.76278308976E+00 -0.32429562583E+01  0.97777388100E+01  0.00000000000E+00 0. -1.
</event>
<event>
 7    1  0.5155466E-011  0.5052885E+02  0.7816164E-02  0.1300439E+00
        -11   -1    0    0    0    0  0.00000000000E+00  0.00000000000E+00  0.45593999997E+02  0.45594000000E+02  0.51100000000E-03 0.  1.
         11   -1    0    0    0    0 -0.00000000000E+00 -0.00000000000E+00 -0.45593999997E+02  0.45594000000E+02  0.51100000000E-03 0. -1.
    9900012    2    1    2    0    0  0.14260842012E+02 -0.21194387111E+02 -0.31632145294E+02  0.50528852495E+02  0.29999977644E+02 0.  0.
        -12    1    1    2    0    0 -0.14260842012E+02  0.21194387111E+02  0.31632145294E+02  0.40659147505E+02  0.00000000000E+00 0.  1.
         11    1    3    3    0    0  0.48620938882E+01  0.14260038424E+01 -0.18865477063E+02  0.19534064324E+02  0.51100000000E-03 0. -1.
        -11    1    3    3    0    0  0.12109217619E+02 -0.14742990250E+02 -0.12198172807E+02  0.22644741838E+02  0.51100000000E-03 0.  1.
        -12    1    3    3    0    0 -0.27104694944E+01 -0.78774007031E+01 -0.56849542493E+00  0.83500463331E+01  0.00000000000E+00 0.  1.
</event>
<event>
 7    1  0.5155466E-011  0.5052888E+02  0.7816164E-02  0.1300439E+00
        -11   -1    0    0    0    0  0.00000000000E+00  0.00000000000E+00  0.45593999997E+02  0.45594000000E+02  0.51100000000E-03 0.  1.
         11   -1    0    0    0    0 -0.00000000000E+00 -0.00000000000E+00 -0.45593999997E+02  0.45594000000E+02  0.51100000000E-03 0. -1.
    9900012    2    1    2    0    0 -0.30356546105E+02 -0.24330823569E+02 -0.11817586187E+02  0.50528877896E+02  0.30000054853E+02 0.  0.
        -12    1    1    2    0    0  0.30356546105E+02  0.24330823569E+02  0.11817586187E+02  0.40659122104E+02  0.00000000000E+00 0.  1.
         11    1    3    3    0    0 -0.26051374767E+02 -0.15421076738E+02  0.28872422454E+01  0.30410851732E+02  0.51100000000E-03 0. -1.
        -11    1    3    3    0    0 -0.35120028432E+01 -0.10967135325E+02 -0.12601581617E+02  0.17070796136E+02  0.51100000000E-03 0.  1.
        -12    1    3    3    0    0 -0.79316849446E+00  0.20573884942E+01 -0.21032468155E+01  0.30472300280E+01  0.00000000000E+00 0.  1.
</event>
<event>
 7    1  0.5155466E-011  0.5052886E+02  0.7816164E-02  0.1300439E+00
        -11   -1    0    0    0    0  0.00000000000E+00  0.00000000000E+00  0.45593999997E+02  0.45594000000E+02  0.51100000000E-03 0.  1.
         11   -1    0    0    0    0 -0.00000000000E+00 -0.00000000000E+00 -0.45593999997E+02  0.45594000000E+02  0.51100000000E-03 0. -1.
    9900012    2    1    2    0    0  0.19650004525E+02  0.69472261777E+01 -0.34911018974E+02  0.50528857422E+02  0.29999992619E+02 0.  0.
        -12    1    1    2    0    0 -0.19650004525E+02 -0.69472261777E+01  0.34911018974E+02  0.40659142578E+02  0.00000000000E+00 0.  1.
         11    1    3    3    0    0  0.76758279613E+01 -0.71186495009E+01 -0.29360852280E+02  0.31171351471E+02  0.51100000000E-03 0. -1.
        -11    1    3    3    0    0  0.26182779111E+01  0.41499568501E+01 -0.16660444807E+01  0.51820097983E+01  0.51100000000E-03 0.  1.
         12    1    3    3    0    0  0.93558986527E+01  0.99159188285E+01 -0.38841222129E+01  0.14175496153E+02  0.00000000000E+00 0. -1.
</event>
<event>
 7    1  0.5155466E-011  0.5052885E+02  0.7816164E-02  0.1300439E+00
        -11   -1    0    0    0    0  0.00000000000E+00  0.00000000000E+00  0.45593999997E+02  0.45594000000E+02  0.51100000000E-03 0.  1.
         11   -1    0    0    0    0 -0.00000000000E+00 -0.00000000000E+00 -0.45593999997E+02  0.45594000000E+02  0.51100000000E-03 0. -1.
    9900012    2    1    2    0    0  0.90016461182E+01 -0.37943793202E+02 -0.11506739366E+02  0.50528854335E+02  0.29999983237E+02 0.  0.
        -12    1    1    2    0    0 -0.90016461182E+01  0.37943793202E+02  0.11506739366E+02  0.40659145665E+02  0.00000000000E+00 0.  1.
         11    1    3    3    0    0  0.11689055543E+02 -0.42286780123E+02 -0.10586204808E+02  0.45131735233E+02  0.51100000000E-03 0. -1.
        -11    1    3    3    0    0 -0.10690738891E+01  0.18437460312E+01  0.35017771341E+00  0.21598479345E+01  0.51100000000E-03 0.  1.
         12    1    3    3    0    0 -0.16183355357E+01  0.24992408903E+01 -0.12707122710E+01  0.32372711671E+01  0.00000000000E+00 0. -1.
</event>
<event>
 7    1  0.5155466E-011  0.5052887E+02  0.7816164E-02  0.1300439E+00
        -11   -1    0    0    0    0  0.00000000000E+00  0.00000000000E+00  0.45593999997E+02  0.45594000000E+02  0.51100000000E-03 0.  1.
         11   -1    0    0    0    0 -0.00000000000E+00 -0.00000000000E+00 -0.45593999997E+02  0.45594000000E+02  0.51100000000E-03 0. -1.
    9900012    2    1    2    0    0  0.37647896641E+02  0.14210885616E+02  0.58181996945E+01  0.50528870162E+02  0.30000031345E+02 0.  0.
        -12    1    1    2    0    0 -0.37647896641E+02 -0.14210885616E+02 -0.58181996945E+01  0.40659129838E+02  0.00000000000E+00 0.  1.
         11    1    3    3    0    0  0.11889875150E+02  0.11455151933E+02 -0.75320338439E+01  0.18147208352E+02  0.51100000000E-03 0. -1.
        -11    1    3    3    0    0  0.17271409593E+02  0.13786860020E+01  0.15792753010E+02  0.23443835274E+02  0.51100000000E-03 0.  1.
        -12    1    3    3    0    0  0.84866118981E+01  0.13770476809E+01 -0.24425194720E+01  0.89378265364E+01  0.00000000000E+00 0.  1.
</event>
<event>
 7    1  0.5155466E-011  0.5052885E+02  0.7816164E-02  0.1300439E+00
        -11   -1    0    0    0    0  0.00000000000E+00  0.00000000000E+00  0.45593999997E+02  0.45594000000E+02  0.51100000000E-03 0.  1.
         11   -1    0    0    0    0 -0.00000000000E+00 -0.00000000000E+00 -0.45593999997E+02  0.45594000000E+02  0.51100000000E-03 0. -1.
    9900012    2    1    2    0    0 -0.10346594860E+02  0.31261505376E+02 -0.23850208287E+02  0.50528853687E+02  0.29999981267E+02 0.  0.
        -12    1    1    2    0    0  0.10346594860E+02 -0.31261505376E+02  0.23850208287E+02  0.40659146313E+02  0.00000000000E+00 0.  1.
         11    1    3    3    0    0  0.34970954398E+01  0.22470626132E+02 -0.28451151144E+01  0.22918407352E+02  0.51100000000E-03 0. -1.
        -11    1    3    3    0    0 -0.53557519524E+01  0.38685726259E+01 -0.14223339942E+02  0.15682899365E+02  0.51100000000E-03 0.  1.
         12    1    3    3    0    0 -0.84879383478E+01  0.49223066178E+01 -0.67817532307E+01  0.11927546970E+02  0.00000000000E+00 0. -1.
</event>
<event>
 7    1  0.5155466E-011  0.5052886E+02  0.7816164E-02  0.1300439E+00
        -11   -1    0    0    0    0  0.00000000000E+00  0.00000000000E+00  0.45593999997E+02  0.45594000000E+02  0.51100000000E-03 0.  1.
         11   -1    0    0    0    0 -0.00000000000E+00 -0.00000000000E+00 -0.45593999997E+02  0.45594000000E+02  0.51100000000E-03 0. -1.
    9900012    2    1    2    0    0  0.15045317403E+02 -0.74759952877E+01 -0.37025851639E+02  0.50528858705E+02  0.29999996518E+02 0.  0.
        -12    1    1    2    0    0 -0.15045317403E+02  0.74759952877E+01  0.37025851639E+02  0.40659141295E+02  0.00000000000E+00 0.  1.
         11    1    3    3    0    0  0.10392171344E+02  0.27107036811E+01 -0.23134194215E+01  0.10986220887E+02  0.51100000000E-03 0. -1.
        -11    1    3    3    0    0  0.37287953229E+00 -0.10773796745E+02 -0.10859905483E+02  0.15302002575E+02  0.51100000000E-03 0.  1.
         12    1    3    3    0    0  0.42802665265E+01  0.58709777654E+00 -0.23852526735E+02  0.24240635243E+02  0.00000000000E+00 0. -1.
</event>
<event>
 7    1  0.5155466E-011  0.5052886E+02  0.7816164E-02  0.1300439E+00
        -11   -1    0    0    0    0  0.00000000000E+00  0.00000000000E+00  0.45593999997E+02  0.45594000000E+02  0.51100000000E-03 0. -1.
         11   -1    0    0    0    0 -0.00000000000E+00 -0.00000000000E+00 -0.45593999997E+02  0.45594000000E+02  0.51100000000E-03 0.  1.
    9900012    2    1    2    0    0  0.21985919268E+02  0.37229666355E+01  0.33998892129E+02  0.50528858437E+02  0.29999995706E+02 0.  0.
        -12    1    1    2    0    0 -0.21985919268E+02 -0.37229666355E+01 -0.33998892129E+02  0.40659141563E+02  0.00000000000E+00 0.  1.
         11    1    3    3    0    0  0.13959557028E+02  0.14040232395E+02  0.29480484507E+02  0.35511918072E+02  0.51100000000E-03 0. -1.
        -11    1    3    3    0    0  0.49085191609E+01 -0.99389714591E+01  0.27843363652E+01  0.11429315083E+02  0.51100000000E-03 0.  1.
         12    1    3    3    0    0  0.31178430789E+01 -0.37829430035E+00  0.17340712567E+01  0.35876252822E+01  0.00000000000E+00 0. -1.
</event>
<event>
 7    1  0.5155466E-011  0.5052886E+02  0.7816164E-02  0.1300439E+00
        -11   -1    0    0    0    0  0.00000000000E+00  0.00000000000E+00  0.45593999997E+02  0.45594000000E+02  0.51100000000E-03 0. -1.
         11   -1    0    0    0    0 -0.00000000000E+00 -0.00000000000E+00 -0.45593999997E+02  0.45594000000E+02  0.51100000000E-03 0.  1.
    9900012    2    1    2    0    0 -0.29066961744E+02  0.26280576592E+02  0.10844772491E+02  0.50528855132E+02  0.29999985659E+02 0.  0.
        -12    1    1    2    0    0  0.29066961744E+02 -0.26280576592E+02 -0.10844772491E+02  0.40659144868E+02  0.00000000000E+00 0.  1.
         11    1    3    3    0    0 -0.14604314247E+02  0.18624383797E+02  0.11925540005E+02  0.26502305015E+02  0.51100000000E-03 0. -1.
        -11    1    3    3    0    0 -0.13911897075E+02  0.13409810991E+00  0.45242269049E+01  0.14629678461E+02  0.51100000000E-03 0.  1.
         12    1    3    3    0    0 -0.55075042196E+00  0.75220946851E+01 -0.56049944188E+01  0.93968716557E+01  0.00000000000E+00 0. -1.
</event>
<event>
 7    1  0.5155466E-011  0.5052885E+02  0.7816164E-02  0.1300439E+00
        -11   -1    0    0    0    0  0.00000000000E+00  0.00000000000E+00  0.45593999997E+02  0.45594000000E+02  0.51100000000E-03 0.  1.
         11   -1    0    0    0    0 -0.00000000000E+00 -0.00000000000E+00 -0.45593999997E+02  0.45594000000E+02  0.51100000000E-03 0. -1.
    9900012    2    1    2    0    0 -0.39214867571E+02  0.90195558920E+00 -0.10702670685E+02  0.50528849464E+02  0.29999968432E+02 0.  0.
        -12    1    1    2    0    0  0.39214867571E+02 -0.90195558920E+00  0.10702670685E+02  0.40659150536E+02  0.00000000000E+00 0.  1.
         11    1    3    3    0    0 -0.30546686337E+02 -0.66959618596E+01  0.37297541931E+01  0.31493602811E+02  0.51100000000E-03 0. -1.
        -11    1    3    3    0    0 -0.77883056343E+01  0.80252322935E+01 -0.14112213965E+02  0.18006016808E+02  0.51100000000E-03 0.  1.
        -12    1    3    3    0    0 -0.87987559934E+00 -0.42731484470E+00 -0.32021091313E+00  0.10292298459E+01  0.00000000000E+00 0.  1.
</event>
<event>
 7    1  0.5155466E-011  0.5052887E+02  0.7816164E-02  0.1300439E+00
        -11   -1    0    0    0    0  0.00000000000E+00  0.00000000000E+00  0.45593999997E+02  0.45594000000E+02  0.51100000000E-03 0. -1.
         11   -1    0    0    0    0 -0.00000000000E+00 -0.00000000000E+00 -0.45593999997E+02  0.45594000000E+02  0.51100000000E-03 0.  1.
    9900012    2    1    2    0    0 -0.32253752959E+02  0.56317205269E+01  0.24106924495E+02  0.50528872308E+02  0.30000037869E+02 0.  0.
        -12    1    1    2    0    0  0.32253752959E+02 -0.56317205269E+01 -0.24106924495E+02  0.40659127692E+02  0.00000000000E+00 0.  1.
         11    1    3    3    0    0 -0.94102029718E+00  0.54457891949E+01  0.17518465308E+02  0.18369506422E+02  0.51100000000E-03 0. -1.
        -11    1    3    3    0    0 -0.17570057903E+02 -0.13542124031E+01  0.30376472186E+01  0.17882061593E+02  0.51100000000E-03 0.  1.
         12    1    3    3    0    0 -0.13742674759E+02  0.15401437352E+01  0.35508119682E+01  0.14277304293E+02  0.00000000000E+00 0. -1.
</event>
<event>
 7    1  0.5155466E-011  0.5052886E+02  0.7816164E-02  0.1300439E+00
        -11   -1    0    0    0    0  0.00000000000E+00  0.00000000000E+00  0.45593999997E+02  0.45594000000E+02  0.51100000000E-03 0. -1.
         11   -1    0    0    0    0 -0.00000000000E+00 -0.00000000000E+00 -0.45593999997E+02  0.45594000000E+02  0.51100000000E-03 0.  1.
    9900012    2    1    2    0    0 -0.28549014695E+02  0.14586833500E+02  0.25006874998E+02  0.50528858976E+02  0.29999997344E+02 0.  0.
        -12    1    1    2    0    0  0.28549014695E+02 -0.14586833500E+02 -0.25006874998E+02  0.40659141024E+02  0.00000000000E+00 0.  1.
         11    1    3    3    0    0 -0.26395209803E+02  0.20070493885E+02  0.17664635606E+02  0.37570882032E+02  0.51100000000E-03 0. -1.
        -11    1    3    3    0    0 -0.17185547144E+01 -0.35712517726E+01 -0.12414010067E+01  0.41531128386E+01  0.51100000000E-03 0.  1.
         12    1    3    3    0    0 -0.43525017789E+00 -0.19124086124E+01  0.85836403985E+01  0.88048641051E+01  0.00000000000E+00 0. -1.
</event>
<event>
 7    1  0.5155466E-011  0.5052886E+02  0.7816164E-02  0.1300439E+00
        -11   -1    0    0    0    0  0.00000000000E+00  0.00000000000E+00  0.45593999997E+02  0.45594000000E+02  0.51100000000E-03 0. -1.
         11   -1    0    0    0    0 -0.00000000000E+00 -0.00000000000E+00 -0.45593999997E+02  0.45594000000E+02  0.51100000000E-03 0.  1.
    9900012    2    1    2    0    0 -0.74542406139E+01  0.38390546420E+02  0.11125019478E+02  0.50528858150E+02  0.29999994834E+02 0.  0.
        -12    1    1    2    0    0  0.74542406139E+01 -0.38390546420E+02 -0.11125019478E+02  0.40659141850E+02  0.00000000000E+00 0.  1.
         11    1    3    3    0    0 -0.45539988678E+00  0.31299473271E+02 -0.26951757449E+01  0.31418599406E+02  0.51100000000E-03 0. -1.
        -11    1    3    3    0    0 -0.83764046630E+01  0.31775368166E+01  0.83685336855E+01  0.12259414815E+02  0.51100000000E-03 0.  1.
         12    1    3    3    0    0  0.13775639358E+01  0.39135363330E+01  0.54516615373E+01  0.68508439293E+01  0.00000000000E+00 0. -1.
</event>
<event>
 7    1  0.5155466E-011  0.5052886E+02  0.7816164E-02  0.1300439E+00
        -11   -1    0    0    0    0  0.00000000000E+00  0.00000000000E+00  0.45593999997E+02  0.45594000000E+02  0.51100000000E-03 0.  1.
         11   -1    0    0    0    0 -0.00000000000E+00 -0.00000000000E+00 -0.45593999997E+02  0.45594000000E+02  0.51100000000E-03 0. -1.
    9900012    2    1    2    0    0 -0.16714796219E+02 -0.18607172959E+02 -0.32055483819E+02  0.50528863991E+02  0.30000012586E+02 0.  0.
        -12    1    1    2    0    0  0.16714796219E+02  0.18607172959E+02  0.32055483819E+02  0.40659136009E+02  0.00000000000E+00 0.  1.
         11    1    3    3    0    0  0.13855518420E+01 -0.12027950405E+01 -0.14375279420E+02  0.14491898719E+02  0.51100000000E-03 0.  1.
        -11    1    3    3    0    0 -0.10378203341E+02 -0.24932570314E+01  0.12336362550E+01  0.10744547169E+02  0.51100000000E-03 0. -1.
        -12    1    3    3    0    0 -0.77221447200E+01 -0.14911120887E+02 -0.18913840654E+02  0.25292418102E+02  0.00000000000E+00 0.  1.
</event>
<event>
 7    1  0.5155466E-011  0.5052887E+02  0.7816164E-02  0.1300439E+00
        -11   -1    0    0    0    0  0.00000000000E+00  0.00000000000E+00  0.45593999997E+02  0.45594000000E+02  0.51100000000E-03 0. -1.
         11   -1    0    0    0    0 -0.00000000000E+00 -0.00000000000E+00 -0.45593999997E+02  0.45594000000E+02  0.51100000000E-03 0.  1.
    9900012    2    1    2    0    0 -0.33663532040E+02  0.19708858232E+02  0.11467029137E+02  0.50528865240E+02  0.30000016382E+02 0.  0.
        -12    1    1    2    0    0  0.33663532040E+02 -0.19708858232E+02 -0.11467029137E+02  0.40659134760E+02  0.00000000000E+00 0.  1.
         11    1    3    3    0    0 -0.20769454717E+02 -0.39652259826E+01  0.36935878494E+01  0.21464758508E+02  0.51100000000E-03 0. -1.
        -11    1    3    3    0    0  0.34890170908E+00  0.54829091714E+01  0.18400182918E+01  0.57939358781E+01  0.51100000000E-03 0.  1.
         12    1    3    3    0    0 -0.13242979032E+02  0.18191175043E+02  0.59334229957E+01  0.23270170853E+02  0.00000000000E+00 0. -1.
</event>
<event>
 7    1  0.5155466E-011  0.5052886E+02  0.7816164E-02  0.1300439E+00
        -11   -1    0    0    0    0  0.00000000000E+00  0.00000000000E+00  0.45593999997E+02  0.45594000000E+02  0.51100000000E-03 0. -1.
         11   -1    0    0    0    0 -0.00000000000E+00 -0.00000000000E+00 -0.45593999997E+02  0.45594000000E+02  0.51100000000E-03 0.  1.
    9900012    2    1    2    0    0 -0.19704483619E+02 -0.31874078689E+01  0.35422297514E+02  0.50528863207E+02  0.30000010203E+02 0.  0.
        -12    1    1    2    0    0  0.19704483619E+02  0.31874078689E+01 -0.35422297514E+02  0.40659136793E+02  0.00000000000E+00 0.  1.
         11    1    3    3    0    0 -0.44855506284E+01 -0.10250565158E+00  0.96038191149E+01  0.10600189324E+02  0.51100000000E-03 0. -1.
        -11    1    3    3    0    0 -0.63443041096E+01 -0.10961050997E+02  0.13519118276E+01  0.12736659666E+02  0.51100000000E-03 0.  1.
        -12    1    3    3    0    0 -0.88746288806E+01  0.78761487797E+01  0.24466566572E+02  0.27192014217E+02  0.00000000000E+00 0.  1.
</event>
<event>
 7    1  0.5155466E-011  0.5052886E+02  0.7816164E-02  0.1300439E+00
        -11   -1    0    0    0    0  0.00000000000E+00  0.00000000000E+00  0.45593999997E+02  0.45594000000E+02  0.51100000000E-03 0.  1.
         11   -1    0    0    0    0 -0.00000000000E+00 -0.00000000000E+00 -0.45593999997E+02  0.45594000000E+02  0.51100000000E-03 0. -1.
    9900012    2    1    2    0    0 -0.20660728047E+02 -0.24974939773E+02 -0.24546938354E+02  0.50528862249E+02  0.30000007292E+02 0.  0.
        -12    1    1    2    0    0  0.20660728047E+02  0.24974939773E+02  0.24546938354E+02  0.40659137751E+02  0.00000000000E+00 0.  1.
         11    1    3    3    0    0 -0.17748175533E+02 -0.15088629802E+02 -0.40231928616E-01  0.23295194847E+02  0.51100000000E-03 0. -1.
        -11    1    3    3    0    0  0.84614561623E+00  0.14574583603E+00 -0.40663998417E+01  0.41560572886E+01  0.51100000000E-03 0.  1.
         12    1    3    3    0    0 -0.37586981302E+01 -0.10032055807E+02 -0.20440306583E+02  0.23077610114E+02  0.00000000000E+00 0. -1.
</event>
<event>
 7    1  0.5155466E-011  0.5052886E+02  0.7816164E-02  0.1300439E+00
        -11   -1    0    0    0    0  0.00000000000E+00  0.00000000000E+00  0.45593999997E+02  0.45594000000E+02  0.51100000000E-03 0.  1.
         11   -1    0    0    0    0 -0.00000000000E+00 -0.00000000000E+00 -0.45593999997E+02  0.45594000000E+02  0.51100000000E-03 0. -1.
    9900012    2    1    2    0    0  0.63261748336E+01  0.40133901173E+02  0.15541581858E+01  0.50528856882E+02  0.29999990979E+02 0.  0.
        -12    1    1    2    0    0 -0.63261748336E+01 -0.40133901173E+02 -0.15541581858E+01  0.40659143118E+02  0.00000000000E+00 0.  1.
         11    1    3    3    0    0  0.16411285924E+02  0.18384530594E+02  0.31901718011E+01  0.24849516439E+02  0.51100000000E-03 0. -1.
        -11    1    3    3    0    0 -0.98186580053E+00  0.18591305343E+01  0.26563820011E+01  0.33877414882E+01  0.51100000000E-03 0.  1.
         12    1    3    3    0    0 -0.91032452901E+01  0.19890240045E+02 -0.42923956164E+01  0.22291598955E+02  0.00000000000E+00 0. -1.
</event>
<event>
 7    1  0.5155466E-011  0.5052886E+02  0.7816164E-02  0.1300439E+00
        -11   -1    0    0    0    0  0.00000000000E+00  0.00000000000E+00  0.45593999997E+02  0.45594000000E+02  0.51100000000E-03 0.  1.
         11   -1    0    0    0    0 -0.00000000000E+00 -0.00000000000E+00 -0.45593999997E+02  0.45594000000E+02  0.51100000000E-03 0. -1.
    9900012    2    1    2    0    0 -0.12822575851E+02 -0.29097835520E+02 -0.25338967595E+02  0.50528858812E+02  0.29999996845E+02 0.  0.
        -12    1    1    2    0    0  0.12822575851E+02  0.29097835520E+02  0.25338967595E+02  0.40659141188E+02  0.00000000000E+00 0.  1.
         11    1    3    3    0    0  0.39522950006E+01  0.35623637506E+01 -0.62829263932E+01  0.82332396774E+01  0.51100000000E-03 0. -1.
        -11    1    3    3    0    0 -0.46604530880E-01 -0.45889807920E+01 -0.25704871954E+00  0.45964106646E+01  0.51100000000E-03 0.  1.
         12    1    3    3    0    0 -0.16728266320E+02 -0.28071218478E+02 -0.18798992482E+02  0.37699208470E+02  0.00000000000E+00 0. -1.
</event>
<event>
 7    1  0.5155466E-011  0.5052885E+02  0.7816164E-02  0.1300439E+00
        -11   -1    0    0    0    0  0.00000000000E+00  0.00000000000E+00  0.45593999997E+02  0.45594000000E+02  0.51100000000E-03 0.  1.
         11   -1    0    0    0    0 -0.00000000000E+00 -0.00000000000E+00 -0.45593999997E+02  0.45594000000E+02  0.51100000000E-03 0. -1.
    9900012    2    1    2    0    0 -0.27688787260E+02 -0.29401487525E+02  0.46957246204E+01  0.50528852956E+02  0.29999979046E+02 0.  0.
        -12    1    1    2    0    0  0.27688787260E+02  0.29401487525E+02 -0.46957246204E+01  0.40659147044E+02  0.00000000000E+00 0.  1.
         11    1    3    3    0    0 -0.26459007629E+02 -0.19602018694E+02  0.10759931481E+02  0.34642377911E+02  0.51100000000E-03 0. -1.
        -11    1    3    3    0    0 -0.20749837355E+01 -0.72337613820E+01 -0.91093724463E+01  0.11815816851E+02  0.51100000000E-03 0.  1.
        -12    1    3    3    0    0  0.84520410434E+00 -0.25657074485E+01  0.30451655859E+01  0.40706581943E+01  0.00000000000E+00 0.  1.
</event>
<event>
 7    1  0.5155466E-011  0.5052887E+02  0.7816164E-02  0.1300439E+00
        -11   -1    0    0    0    0  0.00000000000E+00  0.00000000000E+00  0.45593999997E+02  0.45594000000E+02  0.51100000000E-03 0.  1.
         11   -1    0    0    0    0 -0.00000000000E+00 -0.00000000000E+00 -0.45593999997E+02  0.45594000000E+02  0.51100000000E-03 0. -1.
    9900012    2    1    2    0    0 -0.29140671851E+02 -0.23721308605E+02 -0.15533361025E+02  0.50528873809E+02  0.30000042431E+02 0.  0.
        -12    1    1    2    0    0  0.29140671851E+02  0.23721308605E+02  0.15533361025E+02  0.40659126191E+02  0.00000000000E+00 0.  1.
         11    1    3    3    0    0 -0.86640259509E+01 -0.72008434045E+01  0.13269533705E+01  0.11343645663E+02  0.51100000000E-03 0. -1.
        -11    1    3    3    0    0 -0.21020559805E+02 -0.53167311196E+01 -0.17624946876E+02  0.27942267570E+02  0.51100000000E-03 0.  1.
        -12    1    3    3    0    0  0.54391390516E+00 -0.11203734081E+02  0.76463248046E+00  0.11242960577E+02  0.00000000000E+00 0.  1.
</event>
<event>
 7    1  0.5155466E-011  0.5052886E+02  0.7816164E-02  0.1300439E+00
        -11   -1    0    0    0    0  0.00000000000E+00  0.00000000000E+00  0.45593999997E+02  0.45594000000E+02  0.51100000000E-03 0. -1.
         11   -1    0    0    0    0 -0.00000000000E+00 -0.00000000000E+00 -0.45593999997E+02  0.45594000000E+02  0.51100000000E-03 0.  1.
    9900012    2    1    2    0    0 -0.25093328534E+02 -0.28168944190E+02  0.15165792534E+02  0.50528858139E+02  0.29999994799E+02 0.  0.
        -12    1    1    2    0    0  0.25093328534E+02  0.28168944190E+02 -0.15165792534E+02  0.40659141861E+02  0.00000000000E+00 0.  1.
         11    1    3    3    0    0 -0.30515859125E+01 -0.26223335605E+00  0.62364582710E+01  0.69479748806E+01  0.51100000000E-03 0. -1.
        -11    1    3    3    0    0 -0.22190828485E+02 -0.23776672428E+02 -0.12989891956E+01  0.32549199588E+02  0.51100000000E-03 0.  1.
        -12    1    3    3    0    0  0.14908586357E+00 -0.41300384056E+01  0.10228323459E+02  0.11031683670E+02  0.00000000000E+00 0.  1.
</event>
<event>
 7    1  0.5155466E-011  0.5052889E+02  0.7816164E-02  0.1300439E+00
        -11   -1    0    0    0    0  0.00000000000E+00  0.00000000000E+00  0.45593999997E+02  0.45594000000E+02  0.51100000000E-03 0.  1.
         11   -1    0    0    0    0 -0.00000000000E+00 -0.00000000000E+00 -0.45593999997E+02  0.45594000000E+02  0.51100000000E-03 0. -1.
    9900012    2    1    2    0    0 -0.39108168181E+02  0.92920245192E-01  0.11122322528E+02  0.50528886494E+02  0.30000080988E+02 0.  0.
        -12    1    1    2    0    0  0.39108168181E+02 -0.92920245192E-01 -0.11122322528E+02  0.40659113506E+02  0.00000000000E+00 0.  1.
         11    1    3    3    0    0 -0.29785276522E+02  0.14402585508E+01  0.20494208637E+02  0.36183554691E+02  0.51100000000E-03 0. -1.
        -11    1    3    3    0    0 -0.96007066032E+01 -0.21025059434E+01 -0.76841175444E+01  0.12475566569E+02  0.51100000000E-03 0.  1.
         12    1    3    3    0    0  0.27781494377E+00  0.75516763786E+00 -0.16877685644E+01  0.18697652342E+01  0.00000000000E+00 0. -1.
</event>
<event>
 7    1  0.5155466E-011  0.5052886E+02  0.7816164E-02  0.1300439E+00
        -11   -1    0    0    0    0  0.00000000000E+00  0.00000000000E+00  0.45593999997E+02  0.45594000000E+02  0.51100000000E-03 0.  1.
         11   -1    0    0    0    0 -0.00000000000E+00 -0.00000000000E+00 -0.45593999997E+02  0.45594000000E+02  0.51100000000E-03 0. -1.
    9900012    2    1    2    0    0  0.16236437532E+02  0.29811465723E+02 -0.22379007629E+02  0.50528863576E+02  0.30000011326E+02 0.  0.
        -12    1    1    2    0    0 -0.16236437532E+02 -0.29811465723E+02  0.22379007629E+02  0.40659136424E+02  0.00000000000E+00 0.  1.
         11    1    3    3    0    0  0.13211191111E+02  0.30273818660E+02 -0.91347304661E+01  0.34270730482E+02  0.51100000000E-03 0. -1.
        -11    1    3    3    0    0  0.60385233018E+00 -0.70148216430E+00 -0.13743200782E+02  0.13774334207E+02  0.51100000000E-03 0.  1.
         12    1    3    3    0    0  0.24213940909E+01  0.23912922687E+00  0.49892361928E+00  0.24837988865E+01  0.00000000000E+00 0. -1.
</event>
<event>
 7    1  0.5155466E-011  0.5052886E+02  0.7816164E-02  0.1300439E+00
        -11   -1    0    0    0    0  0.00000000000E+00  0.00000000000E+00  0.45593999997E+02  0.45594000000E+02  0.51100000000E-03 0.  1.
         11   -1    0    0    0    0 -0.00000000000E+00 -0.00000000000E+00 -0.45593999997E+02  0.45594000000E+02  0.51100000000E-03 0. -1.
    9900012    2    1    2    0    0  0.25518708886E+00 -0.18015847801E+02 -0.36448999537E+02  0.50528862531E+02  0.30000008150E+02 0.  0.
        -12    1    1    2    0    0 -0.25518708886E+00  0.18015847801E+02  0.36448999537E+02  0.40659137469E+02  0.00000000000E+00 0.  1.
         11    1    3    3    0    0  0.10503089478E+02 -0.21273317522E+01 -0.65033585039E+01  0.12535314159E+02  0.51100000000E-03 0. -1.
        -11    1    3    3    0    0 -0.53367603502E+01 -0.60857387975E+01 -0.24398225222E+02  0.25705848012E+02  0.51100000000E-03 0.  1.
        -12    1    3    3    0    0 -0.49111420392E+01 -0.98027772518E+01 -0.55474158111E+01  0.12287700361E+02  0.00000000000E+00 0.  1.
</event>
<event>
 7    1  0.5155466E-011  0.5052886E+02  0.7816164E-02  0.1300439E+00
        -11   -1    0    0    0    0  0.00000000000E+00  0.00000000000E+00  0.45593999997E+02  0.45594000000E+02  0.51100000000E-03 0.  1.
         11   -1    0    0    0    0 -0.00000000000E+00 -0.00000000000E+00 -0.45593999997E+02  0.45594000000E+02  0.51100000000E-03 0. -1.
    9900012    2    1    2    0    0  0.69477654114E+01  0.10525800537E+02 -0.38653613777E+02  0.50528858603E+02  0.29999996208E+02 0.  0.
        -12    1    1    2    0    0 -0.69477654114E+01 -0.10525800537E+02  0.38653613777E+02  0.40659141397E+02  0.00000000000E+00 0.  1.
         11    1    3    3    0    0 -0.36951704921E+01 -0.75477362348E+00 -0.62312443555E+01  0.72837061080E+01  0.51100000000E-03 0. -1.
        -11    1    3    3    0    0  0.17159326239E+02  0.20159780064E+01 -0.18946163193E+02  0.25641055835E+02  0.51100000000E-03 0.  1.
        -12    1    3    3    0    0 -0.65163903358E+01  0.92645961541E+01 -0.13476206228E+02  0.17604096660E+02  0.00000000000E+00 0.  1.
</event>
<event>
 7    1  0.5155466E-011  0.5052884E+02  0.7816164E-02  0.1300439E+00
        -11   -1    0    0    0    0  0.00000000000E+00  0.00000000000E+00  0.45593999997E+02  0.45594000000E+02  0.51100000000E-03 0.  1.
         11   -1    0    0    0    0 -0.00000000000E+00 -0.00000000000E+00 -0.45593999997E+02  0.45594000000E+02  0.51100000000E-03 0. -1.
    9900012    2    1    2    0    0 -0.23730032677E+02 -0.23118060345E+02 -0.23571344410E+02  0.50528838151E+02  0.29999934045E+02 0.  0.
        -12    1    1    2    0    0  0.23730032677E+02  0.23118060345E+02  0.23571344410E+02  0.40659161849E+02  0.00000000000E+00 0.  1.
         11    1    3    3    0    0 -0.66880727836E+01 -0.14957583338E+02 -0.14203903387E+02  0.21684337402E+02  0.51100000000E-03 0. -1.
        -11    1    3    3    0    0 -0.78400328213E+01  0.30551020286E+01  0.38184094549E+01  0.92401306306E+01  0.51100000000E-03 0.  1.
        -12    1    3    3    0    0 -0.92019270716E+01 -0.11215579035E+02 -0.13185850478E+02  0.19604370119E+02  0.00000000000E+00 0.  1.
</event>
<event>
 7    1  0.5155466E-011  0.5052885E+02  0.7816164E-02  0.1300439E+00
        -11   -1    0    0    0    0  0.00000000000E+00  0.00000000000E+00  0.45593999997E+02  0.45594000000E+02  0.51100000000E-03 0. -1.
         11   -1    0    0    0    0 -0.00000000000E+00 -0.00000000000E+00 -0.45593999997E+02  0.45594000000E+02  0.51100000000E-03 0.  1.
    9900012    2    1    2    0    0 -0.40898373396E+01  0.40223346772E+02 -0.43036986260E+01  0.50528853220E+02  0.29999979848E+02 0.  0.
        -12    1    1    2    0    0  0.40898373396E+01 -0.40223346772E+02  0.43036986260E+01  0.40659146780E+02  0.00000000000E+00 0.  1.
         11    1    3    3    0    0  0.76133874577E+01  0.11612149190E+02 -0.11135437807E+02  0.17798978982E+02  0.51100000000E-03 0. -1.
        -11    1    3    3    0    0 -0.11446008164E+02  0.21230958156E+02  0.76404335683E+01  0.25301006156E+02  0.51100000000E-03 0.  1.
        -12    1    3    3    0    0 -0.25721663364E+00  0.73802394254E+01 -0.80869438705E+00  0.74288680823E+01  0.00000000000E+00 0.  1.
</event>
<event>
 7    1  0.5155466E-011  0.5052886E+02  0.7816164E-02  0.1300439E+00
        -11   -1    0    0    0    0  0.00000000000E+00  0.00000000000E+00  0.45593999997E+02  0.45594000000E+02  0.51100000000E-03 0.  1.
         11   -1    0    0    0    0 -0.00000000000E+00 -0.00000000000E+00 -0.45593999997E+02  0.45594000000E+02  0.51100000000E-03 0. -1.
    9900012    2    1    2    0    0 -0.34181846505E+02  0.21608845214E+02 -0.42219455032E+01  0.50528860243E+02  0.30000001194E+02 0.  0.
        -12    1    1    2    0    0  0.34181846505E+02 -0.21608845214E+02  0.42219455032E+01  0.40659139757E+02  0.00000000000E+00 0.  1.
         11    1    3    3    0    0 -0.50680450020E+01  0.25218432239E+01 -0.10609360472E+02  0.12025111362E+02  0.51100000000E-03 0. -1.
        -11    1    3    3    0    0 -0.77952977836E+01  0.18878756535E+01  0.76491193927E+01  0.11083310415E+02  0.51100000000E-03 0.  1.
         12    1    3    3    0    0 -0.21318503719E+02  0.17199126337E+02 -0.12617044239E+01  0.27420438465E+02  0.00000000000E+00 0. -1.
</event>
<event>
 7    1  0.5155466E-011  0.5052887E+02  0.7816164E-02  0.1300439E+00
        -11   -1    0    0    0    0  0.00000000000E+00  0.00000000000E+00  0.45593999997E+02  0.45594000000E+02  0.51100000000E-03 0. -1.
         11   -1    0    0    0    0 -0.00000000000E+00 -0.00000000000E+00 -0.45593999997E+02  0.45594000000E+02  0.51100000000E-03 0.  1.
    9900012    2    1    2    0    0 -0.39226779849E+02 -0.22724902726E+01  0.10452787517E+02  0.50528865279E+02  0.30000016503E+02 0.  0.
        -12    1    1    2    0    0  0.39226779849E+02  0.22724902726E+01 -0.10452787517E+02  0.40659134721E+02  0.00000000000E+00 0.  1.
         11    1    3    3    0    0 -0.13261025771E+02  0.11441929141E+02  0.69493994941E+01  0.18843213647E+02  0.51100000000E-03 0. -1.
        -11    1    3    3    0    0  0.43548749828E+00 -0.19422503723E+01 -0.13070008195E+01  0.23812260021E+01  0.51100000000E-03 0.  1.
         12    1    3    3    0    0 -0.26401241576E+02 -0.11772169041E+02  0.48103888427E+01  0.29304425630E+02  0.00000000000E+00 0. -1.
</event>
<event>
 7    1  0.5155466E-011  0.5052886E+02  0.7816164E-02  0.1300439E+00
        -11   -1    0    0    0    0  0.00000000000E+00  0.00000000000E+00  0.45593999997E+02  0.45594000000E+02  0.51100000000E-03 0.  1.
         11   -1    0    0    0    0 -0.00000000000E+00 -0.00000000000E+00 -0.45593999997E+02  0.45594000000E+02  0.51100000000E-03 0. -1.
    9900012    2    1    2    0    0  0.14911355431E+01 -0.17583307576E+02 -0.36630169116E+02  0.50528862282E+02  0.30000007391E+02 0.  0.
        -12    1    1    2    0    0 -0.14911355431E+01  0.17583307576E+02  0.36630169116E+02  0.40659137718E+02  0.00000000000E+00 0.  1.
         11    1    3    3    0    0 -0.18166551836E+01 -0.19938423394E+01 -0.13477685889E+01  0.30153148693E+01  0.51100000000E-03 0. -1.
        -11    1    3    3    0    0  0.69705482247E+01 -0.22379236104E+01 -0.32599141346E+02  0.33411088899E+02  0.51100000000E-03 0.  1.
        -12    1    3    3    0    0 -0.36627574980E+01 -0.13351541627E+02 -0.26832591811E+01  0.14102458514E+02  0.00000000000E+00 0.  1.
</event>
<event>
 7    1  0.5155466E-011  0.5052885E+02  0.7816164E-02  0.1300439E+00
        -11   -1    0    0    0    0  0.00000000000E+00  0.00000000000E+00  0.45593999997E+02  0.45594000000E+02  0.51100000000E-03 0.  1.
         11   -1    0    0    0    0 -0.00000000000E+00 -0.00000000000E+00 -0.45593999997E+02  0.45594000000E+02  0.51100000000E-03 0. -1.
    9900012    2    1    2    0    0  0.35764954545E+01 -0.23545447748E+02 -0.32954314710E+02  0.50528852353E+02  0.29999977212E+02 0.  0.
        -12    1    1    2    0    0 -0.35764954545E+01  0.23545447748E+02  0.32954314710E+02  0.40659147647E+02  0.00000000000E+00 0.  1.
         11    1    3    3    0    0  0.27360734674E+00 -0.27526683516E+02 -0.31037945641E+02  0.41486711562E+02  0.51100000000E-03 0. -1.
        -11    1    3    3    0    0  0.12054917226E+01  0.45840417667E+01 -0.38653908595E+01  0.61161994710E+01  0.51100000000E-03 0.  1.
         12    1    3    3    0    0  0.20973963852E+01 -0.60280599836E+00  0.19490217904E+01  0.29259413199E+01  0.00000000000E+00 0. -1.
</event>
<event>
 7    1  0.5155466E-011  0.5052880E+02  0.7816164E-02  0.1300439E+00
        -11   -1    0    0    0    0  0.00000000000E+00  0.00000000000E+00  0.45593999997E+02  0.45594000000E+02  0.51100000000E-03 0.  1.
         11   -1    0    0    0    0 -0.00000000000E+00 -0.00000000000E+00 -0.45593999997E+02  0.45594000000E+02  0.51100000000E-03 0. -1.
    9900012    2    1    2    0    0 -0.28135662482E+02  0.40571935197E+01 -0.29070504592E+02  0.50528799814E+02  0.29999817513E+02 0.  0.
        -12    1    1    2    0    0  0.28135662482E+02 -0.40571935197E+01  0.29070504592E+02  0.40659200186E+02  0.00000000000E+00 0.  1.
         11    1    3    3    0    0 -0.13305522527E+02  0.34844222521E+01 -0.12103138278E+02  0.18321137644E+02  0.51100000000E-03 0. -1.
        -11    1    3    3    0    0 -0.36903419797E+01  0.19151127235E+01  0.56177392578E+01  0.69889394975E+01  0.51100000000E-03 0.  1.
        -12    1    3    3    0    0 -0.11139797976E+02 -0.13423414559E+01 -0.22585105572E+02  0.25218722672E+02  0.00000000000E+00 0.  1.
</event>
<event>
 7    1  0.5155466E-011  0.5052885E+02  0.7816164E-02  0.1300439E+00
        -11   -1    0    0    0    0  0.00000000000E+00  0.00000000000E+00  0.45593999997E+02  0.45594000000E+02  0.51100000000E-03 0. -1.
         11   -1    0    0    0    0 -0.00000000000E+00 -0.00000000000E+00 -0.45593999997E+02  0.45594000000E+02  0.51100000000E-03 0.  1.
    9900012    2    1    2    0    0 -0.21855186980E+02 -0.80874267015E+00  0.34276272595E+02  0.50528854342E+02  0.29999983257E+02 0.  0.
        -12    1    1    2    0    0  0.21855186980E+02  0.80874267015E+00 -0.34276272595E+02  0.40659145658E+02  0.00000000000E+00 0.  1.
         11    1    3    3    0    0 -0.12896777715E+02  0.99168220838E+00  0.60586841478E+01  0.14283485670E+02  0.51100000000E-03 0. -1.
        -11    1    3    3    0    0  0.15133320388E+01 -0.88714803144E+01  0.64360738128E+01  0.11064193744E+02  0.51100000000E-03 0.  1.
        -12    1    3    3    0    0 -0.10471741304E+02  0.70710554359E+01  0.21781514635E+02  0.25181174927E+02  0.00000000000E+00 0.  1.
</event>
<event>
 7    1  0.5155466E-011  0.5052886E+02  0.7816164E-02  0.1300439E+00
        -11   -1    0    0    0    0  0.00000000000E+00  0.00000000000E+00  0.45593999997E+02  0.45594000000E+02  0.51100000000E-03 0.  1.
         11   -1    0    0    0    0 -0.00000000000E+00 -0.00000000000E+00 -0.45593999997E+02  0.45594000000E+02  0.51100000000E-03 0. -1.
    9900012    2    1    2    0    0 -0.17453599191E+02  0.33562095573E+02 -0.14903789901E+02  0.50528864035E+02  0.30000012722E+02 0.  0.
        -12    1    1    2    0    0  0.17453599191E+02 -0.33562095573E+02  0.14903789901E+02  0.40659135965E+02  0.00000000000E+00 0.  1.
         11    1    3    3    0    0 -0.16140966148E+02  0.16486742749E+02 -0.16548167522E+02  0.28393402812E+02  0.51100000000E-03 0. -1.
        -11    1    3    3    0    0  0.56288088470E+01  0.12614773048E+02  0.13451056151E+01  0.13878951599E+02  0.51100000000E-03 0.  1.
        -12    1    3    3    0    0 -0.69414418902E+01  0.44605797756E+01  0.29927200519E+00  0.82565096246E+01  0.00000000000E+00 0.  1.
</event>
<event>
 7    1  0.5155466E-011  0.5052883E+02  0.7816164E-02  0.1300439E+00
        -11   -1    0    0    0    0  0.00000000000E+00  0.00000000000E+00  0.45593999997E+02  0.45594000000E+02  0.51100000000E-03 0.  1.
         11   -1    0    0    0    0 -0.00000000000E+00 -0.00000000000E+00 -0.45593999997E+02  0.45594000000E+02  0.51100000000E-03 0. -1.
    9900012    2    1    2    0    0  0.10775343837E+02 -0.31335518443E+02 -0.23561525741E+02  0.50528828266E+02  0.29999903997E+02 0.  0.
        -12    1    1    2    0    0 -0.10775343837E+02  0.31335518443E+02  0.23561525741E+02  0.40659171734E+02  0.00000000000E+00 0.  1.
         11    1    3    3    0    0  0.10985790721E+02 -0.31599079490E+02 -0.19439505155E+02  0.38692166950E+02  0.51100000000E-03 0. -1.
        -11    1    3    3    0    0  0.30638964558E+01  0.44786745462E+01 -0.35136207157E+01  0.64646359509E+01  0.51100000000E-03 0.  1.
         12    1    3    3    0    0 -0.32743433401E+01 -0.42151134986E+01 -0.60839987034E+00  0.53720253646E+01  0.00000000000E+00 0. -1.
</event>
<event>
 7    1  0.5155466E-011  0.5052886E+02  0.7816164E-02  0.1300439E+00
        -11   -1    0    0    0    0  0.00000000000E+00  0.00000000000E+00  0.45593999997E+02  0.45594000000E+02  0.51100000000E-03 0. -1.
         11   -1    0    0    0    0 -0.00000000000E+00 -0.00000000000E+00 -0.45593999997E+02  0.45594000000E+02  0.51100000000E-03 0.  1.
    9900012    2    1    2    0    0  0.15472951311E+02 -0.24883266149E+02  0.28188229406E+02  0.50528862853E+02  0.30000009127E+02 0.  0.
        -12    1    1    2    0    0 -0.15472951311E+02  0.24883266149E+02 -0.28188229406E+02  0.40659137147E+02  0.00000000000E+00 0.  1.
         11    1    3    3    0    0  0.67106845099E+01 -0.12772962863E+02  0.26563557259E+02  0.30229198491E+02  0.51100000000E-03 0. -1.
        -11    1    3    3    0    0  0.75962217828E+01 -0.22972981727E+00 -0.19357749564E+01  0.78423584530E+01  0.51100000000E-03 0.  1.
         12    1    3    3    0    0  0.11660450184E+01 -0.11880573468E+02  0.35604471038E+01  0.12457305908E+02  0.00000000000E+00 0. -1.
</event>
<event>
 7    1  0.5155466E-011  0.5052887E+02  0.7816164E-02  0.1300439E+00
        -11   -1    0    0    0    0  0.00000000000E+00  0.00000000000E+00  0.45593999997E+02  0.45594000000E+02  0.51100000000E-03 0.  1.
         11   -1    0    0    0    0 -0.00000000000E+00 -0.00000000000E+00 -0.45593999997E+02  0.45594000000E+02  0.51100000000E-03 0. -1.
    9900012    2    1    2    0    0  0.38436762793E+02 -0.12602145127E+02 -0.41189661474E+01  0.50528872145E+02  0.30000037373E+02 0.  0.
        -12    1    1    2    0    0 -0.38436762793E+02  0.12602145127E+02  0.41189661474E+01  0.40659127855E+02  0.00000000000E+00 0.  1.
         11    1    3    3    0    0  0.17253217052E+02 -0.15477748495E+02  0.24206505983E+00  0.23179577064E+02  0.51100000000E-03 0. -1.
        -11    1    3    3    0    0  0.55448919018E+01  0.59980541892E+01  0.42689349348E+01  0.92166309462E+01  0.51100000000E-03 0.  1.
        -12    1    3    3    0    0  0.15638653839E+02 -0.31224508217E+01 -0.86299661420E+01  0.18132664135E+02  0.00000000000E+00 0.  1.
</event>
<event>
 7    1  0.5155466E-011  0.5052888E+02  0.7816164E-02  0.1300439E+00
        -11   -1    0    0    0    0  0.00000000000E+00  0.00000000000E+00  0.45593999997E+02  0.45594000000E+02  0.51100000000E-03 0.  1.
         11   -1    0    0    0    0 -0.00000000000E+00 -0.00000000000E+00 -0.45593999997E+02  0.45594000000E+02  0.51100000000E-03 0. -1.
    9900012    2    1    2    0    0 -0.29780537255E+02 -0.14600444064E+02 -0.23518305993E+02  0.50528879463E+02  0.30000059615E+02 0.  0.
        -12    1    1    2    0    0  0.29780537255E+02  0.14600444064E+02  0.23518305993E+02  0.40659120537E+02  0.00000000000E+00 0.  1.
         11    1    3    3    0    0 -0.28819017103E+01 -0.11985803928E+02  0.16878788779E+01  0.12442418922E+02  0.51100000000E-03 0. -1.
        -11    1    3    3    0    0  0.17105258939E+00  0.62039915246E+00  0.33796656425E+00  0.72689459785E+00  0.51100000000E-03 0.  1.
         12    1    3    3    0    0 -0.27069688134E+02 -0.32350392886E+01 -0.25544151436E+02  0.37359565943E+02  0.00000000000E+00 0. -1.
</event>
<event>
 7    1  0.5155466E-011  0.5052886E+02  0.7816164E-02  0.1300439E+00
        -11   -1    0    0    0    0  0.00000000000E+00  0.00000000000E+00  0.45593999997E+02  0.45594000000E+02  0.51100000000E-03 0.  1.
         11   -1    0    0    0    0 -0.00000000000E+00 -0.00000000000E+00 -0.45593999997E+02  0.45594000000E+02  0.51100000000E-03 0. -1.
    9900012    2    1    2    0    0 -0.15463750880E+02  0.36231366592E+02 -0.10066109219E+02  0.50528855012E+02  0.29999985293E+02 0.  0.
        -12    1    1    2    0    0  0.15463750880E+02 -0.36231366592E+02  0.10066109219E+02  0.40659144988E+02  0.00000000000E+00 0.  1.
         11    1    3    3    0    0 -0.16332602078E+02  0.76423694884E+01 -0.55273544577E+01  0.18860311493E+02  0.51100000000E-03 0. -1.
        -11    1    3    3    0    0  0.68648608178E+00  0.59514808978E+01 -0.66277452804E+01  0.89341141576E+01  0.51100000000E-03 0.  1.
         12    1    3    3    0    0  0.18236511640E+00  0.22637516205E+02  0.20889905194E+01  0.22734429361E+02  0.00000000000E+00 0. -1.
</event>
<event>
 7    1  0.5155466E-011  0.5052886E+02  0.7816164E-02  0.1300439E+00
        -11   -1    0    0    0    0  0.00000000000E+00  0.00000000000E+00  0.45593999997E+02  0.45594000000E+02  0.51100000000E-03 0.  1.
         11   -1    0    0    0    0 -0.00000000000E+00 -0.00000000000E+00 -0.45593999997E+02  0.45594000000E+02  0.51100000000E-03 0. -1.
    9900012    2    1    2    0    0 -0.40920168690E+01  0.33127861244E+00 -0.40451340045E+02  0.50528864999E+02  0.30000015650E+02 0.  0.
        -12    1    1    2    0    0  0.40920168690E+01 -0.33127861244E+00  0.40451340045E+02  0.40659135001E+02  0.00000000000E+00 0.  1.
         11    1    3    3    0    0  0.14937225957E+01  0.31187394727E+01 -0.21065844562E+02  0.21347776242E+02  0.51100000000E-03 0. -1.
        -11    1    3    3    0    0 -0.13518368648E+02 -0.21954851932E+01 -0.13933498232E+02  0.19537369818E+02  0.51100000000E-03 0.  1.
        -12    1    3    3    0    0  0.79326291836E+01 -0.59197566703E+00 -0.54519972514E+01  0.96437189395E+01  0.00000000000E+00 0.  1.
</event>
<event>
 7    1  0.5155466E-011  0.5052890E+02  0.7816164E-02  0.1300439E+00
        -11   -1    0    0    0    0  0.00000000000E+00  0.00000000000E+00  0.45593999997E+02  0.45594000000E+02  0.51100000000E-03 0.  1.
         11   -1    0    0    0    0 -0.00000000000E+00 -0.00000000000E+00 -0.45593999997E+02  0.45594000000E+02  0.51100000000E-03 0. -1.
    9900012    2    1    2    0    0 -0.12158564549E+02 -0.20598763252E+02 -0.32878914268E+02  0.50528895941E+02  0.30000109703E+02 0.  0.
        -12    1    1    2    0    0  0.12158564549E+02  0.20598763252E+02  0.32878914268E+02  0.40659104059E+02  0.00000000000E+00 0.  1.
         11    1    3    3    0    0 -0.83431175460E-01 -0.45549612603E+01 -0.41396715356E+01  0.61556082987E+01  0.51100000000E-03 0. -1.
        -11    1    3    3    0    0  0.58934592997E+01 -0.28997871705E+01  0.15825439968E+01  0.67561878241E+01  0.51100000000E-03 0.  1.
        -12    1    3    3    0    0 -0.17968592673E+02 -0.13144014821E+02 -0.30321786729E+02  0.37617099818E+02  0.00000000000E+00 0.  1.
</event>
<event>
 7    1  0.5155466E-011  0.5052886E+02  0.7816164E-02  0.1300439E+00
        -11   -1    0    0    0    0  0.00000000000E+00  0.00000000000E+00  0.45593999997E+02  0.45594000000E+02  0.51100000000E-03 0.  1.
         11   -1    0    0    0    0 -0.00000000000E+00 -0.00000000000E+00 -0.45593999997E+02  0.45594000000E+02  0.51100000000E-03 0. -1.
    9900012    2    1    2    0    0 -0.54252937624E+01  0.28511452881E+02 -0.28475060259E+02  0.50528858168E+02  0.29999994887E+02 0.  0.
        -12    1    1    2    0    0  0.54252937624E+01 -0.28511452881E+02  0.28475060259E+02  0.40659141832E+02  0.00000000000E+00 0.  1.
         11    1    3    3    0    0 -0.91686981253E+01  0.15534884683E+02 -0.99220601674E+01  0.20587494885E+02  0.51100000000E-03 0. -1.
        -11    1    3    3    0    0  0.58922771743E+01  0.57250194190E+01 -0.20539482239E+02  0.22121598237E+02  0.51100000000E-03 0.  1.
        -12    1    3    3    0    0 -0.21488728113E+01  0.72515487789E+01  0.19864821473E+01  0.78197650459E+01  0.00000000000E+00 0.  1.
</event>
<event>
 7    1  0.5155466E-011  0.5052886E+02  0.7816164E-02  0.1300439E+00
        -11   -1    0    0    0    0  0.00000000000E+00  0.00000000000E+00  0.45593999997E+02  0.45594000000E+02  0.51100000000E-03 0.  1.
         11   -1    0    0    0    0 -0.00000000000E+00 -0.00000000000E+00 -0.45593999997E+02  0.45594000000E+02  0.51100000000E-03 0. -1.
    9900012    2    1    2    0    0 -0.22430965799E+02 -0.26979026460E+02 -0.20546281292E+02  0.50528858712E+02  0.29999996540E+02 0.  0.
        -12    1    1    2    0    0  0.22430965799E+02  0.26979026460E+02  0.20546281292E+02  0.40659141288E+02  0.00000000000E+00 0.  1.
         11    1    3    3    0    0 -0.64417126444E+01  0.22218276263E+01 -0.53548809245E+01  0.86664254322E+01  0.51100000000E-03 0. -1.
        -11    1    3    3    0    0 -0.17207473558E+02 -0.30424005914E+02 -0.17411869791E+02  0.39049846248E+02  0.51100000000E-03 0.  1.
        -12    1    3    3    0    0  0.12182204037E+01  0.12231518286E+01  0.22204694234E+01  0.28125870312E+01  0.00000000000E+00 0.  1.
</event>
<event>
 7    1  0.5155466E-011  0.5052888E+02  0.7816164E-02  0.1300439E+00
        -11   -1    0    0    0    0  0.00000000000E+00  0.00000000000E+00  0.45593999997E+02  0.45594000000E+02  0.51100000000E-03 0.  1.
         11   -1    0    0    0    0 -0.00000000000E+00 -0.00000000000E+00 -0.45593999997E+02  0.45594000000E+02  0.51100000000E-03 0. -1.
    9900012    2    1    2    0    0  0.71128246112E+01 -0.21116057223E+02 -0.34010060332E+02  0.50528876173E+02  0.30000049614E+02 0.  0.
        -12    1    1    2    0    0 -0.71128246112E+01  0.21116057223E+02  0.34010060332E+02  0.40659123827E+02  0.00000000000E+00 0.  1.
         11    1    3    3    0    0 -0.19437592098E+01  0.42643515586E+01 -0.14906822003E+02  0.15626139528E+02  0.51100000000E-03 0.  1.
        -11    1    3    3    0    0  0.85703260344E+01 -0.11913208280E+02 -0.52770034987E+01  0.15595569437E+02  0.51100000000E-03 0. -1.
        -12    1    3    3    0    0  0.48625778663E+00 -0.13467200502E+02 -0.13826234831E+02  0.19307167208E+02  0.00000000000E+00 0.  1.
</event>
<event>
 7    1  0.5155466E-011  0.5052887E+02  0.7816164E-02  0.1300439E+00
        -11   -1    0    0    0    0  0.00000000000E+00  0.00000000000E+00  0.45593999997E+02  0.45594000000E+02  0.51100000000E-03 0.  1.
         11   -1    0    0    0    0 -0.00000000000E+00 -0.00000000000E+00 -0.45593999997E+02  0.45594000000E+02  0.51100000000E-03 0. -1.
    9900012    2    1    2    0    0  0.24213360778E+02 -0.70693411844E+01 -0.31888909044E+02  0.50528868861E+02  0.30000027391E+02 0.  0.
        -12    1    1    2    0    0 -0.24213360778E+02  0.70693411844E+01  0.31888909044E+02  0.40659131139E+02  0.00000000000E+00 0.  1.
         11    1    3    3    0    0  0.10274751288E+02 -0.89966646957E+01 -0.17250057970E+02  0.22001704250E+02  0.51100000000E-03 0. -1.
        -11    1    3    3    0    0  0.94848570753E+01 -0.28935871922E+01  0.24556877864E+01  0.10215956311E+02  0.51100000000E-03 0.  1.
        -12    1    3    3    0    0  0.44537524152E+01  0.48209107035E+01 -0.17094538860E+02  0.18311208300E+02  0.00000000000E+00 0.  1.
</event>
<event>
 7    1  0.5155466E-011  0.5052887E+02  0.7816164E-02  0.1300439E+00
        -11   -1    0    0    0    0  0.00000000000E+00  0.00000000000E+00  0.45593999997E+02  0.45594000000E+02  0.51100000000E-03 0. -1.
         11   -1    0    0    0    0 -0.00000000000E+00 -0.00000000000E+00 -0.45593999997E+02  0.45594000000E+02  0.51100000000E-03 0.  1.
    9900012    2    1    2    0    0  0.15909260620E+01  0.40517109269E+02  0.29995745349E+01  0.50528872652E+02  0.30000038914E+02 0.  0.
        -12    1    1    2    0    0 -0.15909260620E+01 -0.40517109269E+02 -0.29995745349E+01  0.40659127348E+02  0.00000000000E+00 0.  1.
         11    1    3    3    0    0 -0.69751946168E+01  0.26066709306E+02 -0.51375871564E+01  0.27468554313E+02  0.51100000000E-03 0. -1.
        -11    1    3    3    0    0  0.73477869345E+01  0.39841579646E+00  0.16805086202E+01  0.75480340133E+01  0.51100000000E-03 0.  1.
         12    1    3    3    0    0  0.12183337442E+01  0.14051984167E+02  0.64566530711E+01  0.15512284326E+02  0.00000000000E+00 0. -1.
</event>
<event>
 7    1  0.5155466E-011  0.5052887E+02  0.7816164E-02  0.1300439E+00
        -11   -1    0    0    0    0  0.00000000000E+00  0.00000000000E+00  0.45593999997E+02  0.45594000000E+02  0.51100000000E-03 0. -1.
         11   -1    0    0    0    0 -0.00000000000E+00 -0.00000000000E+00 -0.45593999997E+02  0.45594000000E+02  0.51100000000E-03 0.  1.
    9900012    2    1    2    0    0 -0.17101634858E+02  0.36815288268E+02 -0.23094715349E+01  0.50528867891E+02  0.30000024442E+02 0.  0.
        -12    1    1    2    0    0  0.17101634858E+02 -0.36815288268E+02  0.23094715349E+01  0.40659132109E+02  0.00000000000E+00 0.  1.
         11    1    3    3    0    0 -0.88992618930E+01  0.24620303085E+02 -0.10780414934E+02  0.28312073973E+02  0.51100000000E-03 0. -1.
        -11    1    3    3    0    0 -0.42852889412E+01  0.61730477398E+01  0.12041983158E+02  0.14194350227E+02  0.51100000000E-03 0.  1.
        -12    1    3    3    0    0 -0.39170840234E+01  0.60219374432E+01 -0.35710397590E+01  0.80224436910E+01  0.00000000000E+00 0.  1.
</event>
<event>
 7    1  0.5155466E-011  0.5052887E+02  0.7816164E-02  0.1300439E+00
        -11   -1    0    0    0    0  0.00000000000E+00  0.00000000000E+00  0.45593999997E+02  0.45594000000E+02  0.51100000000E-03 0. -1.
         11   -1    0    0    0    0 -0.00000000000E+00 -0.00000000000E+00 -0.45593999997E+02  0.45594000000E+02  0.51100000000E-03 0.  1.
    9900012    2    1    2    0    0  0.32130704705E+02 -0.18686179297E+02 -0.16480580664E+02  0.50528867931E+02  0.30000024563E+02 0.  0.
        -12    1    1    2    0    0 -0.32130704705E+02  0.18686179297E+02  0.16480580664E+02  0.40659132069E+02  0.00000000000E+00 0.  1.
         11    1    3    3    0    0  0.25730866116E+02 -0.24187722012E+02 -0.60677640579E+01  0.35832124248E+02  0.51100000000E-03 0.  1.
        -11    1    3    3    0    0  0.55476454583E+01  0.66595342213E+01 -0.75565043335E+01  0.11498979267E+02  0.51100000000E-03 0. -1.
        -12    1    3    3    0    0  0.85219313119E+00 -0.11579915061E+01 -0.28563122729E+01  0.31977644162E+01  0.00000000000E+00 0.  1.
</event>
<event>
 7    1  0.5155466E-011  0.5052888E+02  0.7816164E-02  0.1300439E+00
        -11   -1    0    0    0    0  0.00000000000E+00  0.00000000000E+00  0.45593999997E+02  0.45594000000E+02  0.51100000000E-03 0.  1.
         11   -1    0    0    0    0 -0.00000000000E+00 -0.00000000000E+00 -0.45593999997E+02  0.45594000000E+02  0.51100000000E-03 0. -1.
    9900012    2    1    2    0    0  0.29394187349E+02 -0.61639441008E+01 -0.27407150576E+02  0.50528876062E+02  0.30000049277E+02 0.  0.
        -12    1    1    2    0    0 -0.29394187349E+02  0.61639441008E+01  0.27407150576E+02  0.40659123938E+02  0.00000000000E+00 0.  1.
         11    1    3    3    0    0  0.58802815043E+01 -0.73389608087E+01 -0.19227031235E+02  0.21403662927E+02  0.51100000000E-03 0. -1.
        -11    1    3    3    0    0  0.24244853194E+02 -0.12881014564E+01 -0.96943332408E+01  0.26142918908E+02  0.51100000000E-03 0.  1.
         12    1    3    3    0    0 -0.73094734957E+00  0.24631181643E+01  0.15142139004E+01  0.29822942268E+01  0.00000000000E+00 0. -1.
</event>
<event>
 7    1  0.5155466E-011  0.5052885E+02  0.7816164E-02  0.1300439E+00
        -11   -1    0    0    0    0  0.00000000000E+00  0.00000000000E+00  0.45593999997E+02  0.45594000000E+02  0.51100000000E-03 0.  1.
         11   -1    0    0    0    0 -0.00000000000E+00 -0.00000000000E+00 -0.45593999997E+02  0.45594000000E+02  0.51100000000E-03 0. -1.
    9900012    2    1    2    0    0 -0.61571672396E+01 -0.10057066550E+02 -0.38911579778E+02  0.50528851745E+02  0.29999975364E+02 0.  0.
        -12    1    1    2    0    0  0.61571672396E+01  0.10057066550E+02  0.38911579778E+02  0.40659148255E+02  0.00000000000E+00 0.  1.
         11    1    3    3    0    0 -0.11268765579E+02 -0.15650639395E+02 -0.15145422790E+02  0.24521652124E+02  0.51100000000E-03 0. -1.
        -11    1    3    3    0    0  0.57060251439E+01  0.86735278536E+00 -0.12099424292E+02  0.13405487393E+02  0.51100000000E-03 0.  1.
         12    1    3    3    0    0 -0.59442680407E+00  0.47262200591E+01 -0.11666732696E+02  0.12601712227E+02  0.00000000000E+00 0. -1.
</event>
<event>
 7    1  0.5155466E-011  0.5052886E+02  0.7816164E-02  0.1300439E+00
        -11   -1    0    0    0    0  0.00000000000E+00  0.00000000000E+00  0.45593999997E+02  0.45594000000E+02  0.51100000000E-03 0. -1.
         11   -1    0    0    0    0 -0.00000000000E+00 -0.00000000000E+00 -0.45593999997E+02  0.45594000000E+02  0.51100000000E-03 0.  1.
    9900012    2    1    2    0    0  0.33536461192E+02  0.37950001577E+01 -0.22673094781E+02  0.50528862252E+02  0.30000007300E+02 0.  0.
        -12    1    1    2    0    0 -0.33536461192E+02 -0.37950001577E+01  0.22673094781E+02  0.40659137748E+02  0.00000000000E+00 0.  1.
         11    1    3    3    0    0  0.18440822162E+02  0.32748069366E+01 -0.39630084837E+01  0.19144025673E+02  0.51100000000E-03 0. -1.
        -11    1    3    3    0    0 -0.76779569303E+00  0.57561909966E+01 -0.12096272935E+02  0.13418012677E+02  0.51100000000E-03 0.  1.
        -12    1    3    3    0    0  0.15863434723E+02 -0.52359977754E+01 -0.66138133629E+01  0.17966823902E+02  0.00000000000E+00 0.  1.
</event>
<event>
 7    1  0.5155466E-011  0.5052885E+02  0.7816164E-02  0.1300439E+00
        -11   -1    0    0    0    0  0.00000000000E+00  0.00000000000E+00  0.45593999997E+02  0.45594000000E+02  0.51100000000E-03 0. -1.
         11   -1    0    0    0    0 -0.00000000000E+00 -0.00000000000E+00 -0.45593999997E+02  0.45594000000E+02  0.51100000000E-03 0.  1.
    9900012    2    1    2    0    0  0.50651529901E+01  0.13870693525E+02  0.37882902578E+02  0.50528853164E+02  0.29999979677E+02 0.  0.
        -12    1    1    2    0    0 -0.50651529901E+01 -0.13870693525E+02 -0.37882902578E+02  0.40659146836E+02  0.00000000000E+00 0.  1.
         11    1    3    3    0    0 -0.55115713409E+01  0.12352697368E+02  0.45974055705E+01  0.14286451244E+02  0.51100000000E-03 0. -1.
        -11    1    3    3    0    0  0.47702140503E+01  0.10921989978E+01  0.27852347445E+02  0.28278986884E+02  0.51100000000E-03 0.  1.
         12    1    3    3    0    0  0.58065102808E+01  0.42579715974E+00  0.54331495629E+01  0.79634150359E+01  0.00000000000E+00 0. -1.
</event>
<event>
 7    1  0.5155466E-011  0.5052887E+02  0.7816164E-02  0.1300439E+00
        -11   -1    0    0    0    0  0.00000000000E+00  0.00000000000E+00  0.45593999997E+02  0.45594000000E+02  0.51100000000E-03 0.  1.
         11   -1    0    0    0    0 -0.00000000000E+00 -0.00000000000E+00 -0.45593999997E+02  0.45594000000E+02  0.51100000000E-03 0. -1.
    9900012    2    1    2    0    0  0.12621210189E+02 -0.24500930006E+02 -0.29892711902E+02  0.50528871349E+02  0.30000034953E+02 0.  0.
        -12    1    1    2    0    0 -0.12621210189E+02  0.24500930006E+02  0.29892711902E+02  0.40659128651E+02  0.00000000000E+00 0.  1.
         11    1    3    3    0    0 -0.36764295568E+01 -0.54130551819E+01 -0.71707719512E+01  0.97075883373E+01  0.51100000000E-03 0. -1.
        -11    1    3    3    0    0  0.20510084833E+02 -0.97679683954E+01 -0.10924186332E+02  0.25207432113E+02  0.51100000000E-03 0.  1.
        -12    1    3    3    0    0 -0.42124450873E+01 -0.93199064291E+01 -0.11797753618E+02  0.15613850899E+02  0.00000000000E+00 0.  1.
</event>
<event>
 7    1  0.5155466E-011  0.5052886E+02  0.7816164E-02  0.1300439E+00
        -11   -1    0    0    0    0  0.00000000000E+00  0.00000000000E+00  0.45593999997E+02  0.45594000000E+02  0.51100000000E-03 0.  1.
         11   -1    0    0    0    0 -0.00000000000E+00 -0.00000000000E+00 -0.45593999997E+02  0.45594000000E+02  0.51100000000E-03 0. -1.
    9900012    2    1    2    0    0  0.43215516748E+01  0.40427528865E+02 -0.32334521140E+00  0.50528862637E+02  0.30000008470E+02 0.  0.
        -12    1    1    2    0    0 -0.43215516748E+01 -0.40427528865E+02  0.32334521140E+00  0.40659137363E+02  0.00000000000E+00 0.  1.
         11    1    3    3    0    0  0.13670065470E+01 -0.16307771037E+01 -0.26686600944E+01  0.34131932002E+01  0.51100000000E-03 0. -1.
        -11    1    3    3    0    0  0.55119533723E+01  0.36679904028E+02  0.90175634377E+01  0.38172155298E+02  0.51100000000E-03 0.  1.
        -12    1    3    3    0    0 -0.25574082446E+01  0.53784019403E+01 -0.66722485547E+01  0.89435141380E+01  0.00000000000E+00 0.  1.
</event>
<event>
 7    1  0.5155466E-011  0.5052883E+02  0.7816164E-02  0.1300439E+00
        -11   -1    0    0    0    0  0.00000000000E+00  0.00000000000E+00  0.45593999997E+02  0.45594000000E+02  0.51100000000E-03 0. -1.
         11   -1    0    0    0    0 -0.00000000000E+00 -0.00000000000E+00 -0.45593999997E+02  0.45594000000E+02  0.51100000000E-03 0.  1.
    9900012    2    1    2    0    0  0.12482161127E+02 -0.19322539453E+02  0.33526155988E+02  0.50528831137E+02  0.29999912725E+02 0.  0.
        -12    1    1    2    0    0 -0.12482161127E+02  0.19322539453E+02 -0.33526155988E+02  0.40659168863E+02  0.00000000000E+00 0.  1.
         11    1    3    3    0    0  0.34554727829E+01 -0.18625597359E+02  0.32353413622E+02  0.37491286219E+02  0.51100000000E-03 0. -1.
        -11    1    3    3    0    0  0.64294334037E+01 -0.38811676145E+00 -0.37571080641E+01  0.74568163300E+01  0.51100000000E-03 0.  1.
         12    1    3    3    0    0  0.25972549400E+01 -0.30882533201E+00  0.49298504304E+01  0.55807285882E+01  0.00000000000E+00 0. -1.
</event>
<event>
 7    1  0.5155466E-011  0.5052884E+02  0.7816164E-02  0.1300439E+00
        -11   -1    0    0    0    0  0.00000000000E+00  0.00000000000E+00  0.45593999997E+02  0.45594000000E+02  0.51100000000E-03 0.  1.
         11   -1    0    0    0    0 -0.00000000000E+00 -0.00000000000E+00 -0.45593999997E+02  0.45594000000E+02  0.51100000000E-03 0. -1.
    9900012    2    1    2    0    0 -0.67608954601E+01 -0.10647501226E+02 -0.38653436574E+02  0.50528841761E+02  0.29999945015E+02 0.  0.
        -12    1    1    2    0    0  0.67608954601E+01  0.10647501226E+02  0.38653436574E+02  0.40659158239E+02  0.00000000000E+00 0.  1.
         11    1    3    3    0    0 -0.44254312876E+01 -0.14863613369E+01 -0.21027285148E+02  0.21539276521E+02  0.51100000000E-03 0. -1.
        -11    1    3    3    0    0 -0.39975588475E+00 -0.14911343589E+02 -0.64060626701E+01  0.16234087951E+02  0.51100000000E-03 0.  1.
        -12    1    3    3    0    0 -0.19357082877E+01  0.57502037000E+01 -0.11220088756E+02  0.12755477288E+02  0.00000000000E+00 0.  1.
</event>
<event>
 7    1  0.5155466E-011  0.5052883E+02  0.7816164E-02  0.1300439E+00
        -11   -1    0    0    0    0  0.00000000000E+00  0.00000000000E+00  0.45593999997E+02  0.45594000000E+02  0.51100000000E-03 0.  1.
         11   -1    0    0    0    0 -0.00000000000E+00 -0.00000000000E+00 -0.45593999997E+02  0.45594000000E+02  0.51100000000E-03 0. -1.
    9900012    2    1    2    0    0 -0.31965515583E+02  0.15541823040E+01 -0.25079038950E+02  0.50528832967E+02  0.29999918287E+02 0.  0.
        -12    1    1    2    0    0  0.31965515583E+02 -0.15541823040E+01  0.25079038950E+02  0.40659167033E+02  0.00000000000E+00 0.  1.
         11    1    3    3    0    0 -0.24621661067E+02 -0.43028231471E+01 -0.25963087749E+02  0.36039178771E+02  0.51100000000E-03 0. -1.
        -11    1    3    3    0    0 -0.52120928187E+01  0.87730215968E+01  0.25402421594E+01  0.10515923639E+02  0.51100000000E-03 0.  1.
        -12    1    3    3    0    0 -0.21317616973E+01 -0.29160161457E+01 -0.16561933605E+01  0.39737305575E+01  0.00000000000E+00 0.  1.
</event>
<event>
 7    1  0.5155466E-011  0.5052885E+02  0.7816164E-02  0.1300439E+00
        -11   -1    0    0    0    0  0.00000000000E+00  0.00000000000E+00  0.45593999997E+02  0.45594000000E+02  0.51100000000E-03 0. -1.
         11   -1    0    0    0    0 -0.00000000000E+00 -0.00000000000E+00 -0.45593999997E+02  0.45594000000E+02  0.51100000000E-03 0.  1.
    9900012    2    1    2    0    0 -0.36668398431E+01  0.36316702826E+02  0.17911380481E+02  0.50528853804E+02  0.29999981624E+02 0.  0.
        -12    1    1    2    0    0  0.36668398431E+01 -0.36316702826E+02 -0.17911380481E+02  0.40659146196E+02  0.00000000000E+00 0.  1.
         11    1    3    3    0    0  0.81003565782E+01  0.26270985660E+01  0.57160354480E+01  0.10256241274E+02  0.51100000000E-03 0. -1.
        -11    1    3    3    0    0 -0.72774727451E+01  0.13341850557E+02 -0.16015726943E+01  0.15281741432E+02  0.51100000000E-03 0.  1.
         12    1    3    3    0    0 -0.44897236762E+01  0.20347753703E+02  0.13796917728E+02  0.24990871098E+02  0.00000000000E+00 0. -1.
</event>
<event>
 7    1  0.5155466E-011  0.5052885E+02  0.7816164E-02  0.1300439E+00
        -11   -1    0    0    0    0  0.00000000000E+00  0.00000000000E+00  0.45593999997E+02  0.45594000000E+02  0.51100000000E-03 0.  1.
         11   -1    0    0    0    0 -0.00000000000E+00 -0.00000000000E+00 -0.45593999997E+02  0.45594000000E+02  0.51100000000E-03 0. -1.
    9900012    2    1    2    0    0 -0.27698368339E+01  0.30893932906E+02 -0.26288006293E+02  0.50528851443E+02  0.29999974447E+02 0.  0.
        -12    1    1    2    0    0  0.27698368339E+01 -0.30893932906E+02  0.26288006293E+02  0.40659148557E+02  0.00000000000E+00 0.  1.
         11    1    3    3    0    0 -0.45470504914E+01  0.31992719315E+01 -0.15708508091E+02  0.16663380082E+02  0.51100000000E-03 0. -1.
        -11    1    3    3    0    0  0.60389634888E+01  0.25264069565E+02 -0.12200677376E+02  0.28698411449E+02  0.51100000000E-03 0.  1.
         12    1    3    3    0    0 -0.42617498313E+01  0.24305914090E+01  0.16211791729E+01  0.51670599118E+01  0.00000000000E+00 0. -1.
</event>
<event>
 7    1  0.5155466E-011  0.5052883E+02  0.7816164E-02  0.1300439E+00
        -11   -1    0    0    0    0  0.00000000000E+00  0.00000000000E+00  0.45593999997E+02  0.45594000000E+02  0.51100000000E-03 0.  1.
         11   -1    0    0    0    0 -0.00000000000E+00 -0.00000000000E+00 -0.45593999997E+02  0.45594000000E+02  0.51100000000E-03 0. -1.
    9900012    2    1    2    0    0  0.33331926028E+02 -0.18962391864E+02 -0.13512173019E+02  0.50528826157E+02  0.29999897585E+02 0.  0.
        -12    1    1    2    0    0 -0.33331926028E+02  0.18962391864E+02  0.13512173019E+02  0.40659173843E+02  0.00000000000E+00 0.  1.
         11    1    3    3    0    0  0.13662551500E+02 -0.43717369596E+01 -0.12358344958E+02  0.18934256993E+02  0.51100000000E-03 0. -1.
        -11    1    3    3    0    0  0.23093084658E+02 -0.10726284717E+02  0.20060123714E+01  0.25541492297E+02  0.51100000000E-03 0.  1.
        -12    1    3    3    0    0 -0.34237101296E+01 -0.38643701869E+01 -0.31598404323E+01  0.60530768664E+01  0.00000000000E+00 0.  1.
</event>
<event>
 7    1  0.5155466E-011  0.5052884E+02  0.7816164E-02  0.1300439E+00
        -11   -1    0    0    0    0  0.00000000000E+00  0.00000000000E+00  0.45593999997E+02  0.45594000000E+02  0.51100000000E-03 0. -1.
         11   -1    0    0    0    0 -0.00000000000E+00 -0.00000000000E+00 -0.45593999997E+02  0.45594000000E+02  0.51100000000E-03 0.  1.
    9900012    2    1    2    0    0 -0.85816804897E+00 -0.17981381811E+02  0.36456838922E+02  0.50528835616E+02  0.29999926340E+02 0.  0.
        -12    1    1    2    0    0  0.85816804897E+00  0.17981381811E+02 -0.36456838922E+02  0.40659164384E+02  0.00000000000E+00 0.  1.
         11    1    3    3    0    0  0.86428607773E+01 -0.88754161951E+01  0.25656996466E+02  0.28491288545E+02  0.51100000000E-03 0. -1.
        -11    1    3    3    0    0 -0.39307040916E+00 -0.37619070428E+01 -0.28814042116E+01  0.47548858490E+01  0.51100000000E-03 0.  1.
         12    1    3    3    0    0 -0.91079584171E+01 -0.53440585728E+01  0.13681246667E+02  0.17282661222E+02  0.00000000000E+00 0. -1.
</event>
<event>
 7    1  0.5155466E-011  0.5052886E+02  0.7816164E-02  0.1300439E+00
        -11   -1    0    0    0    0  0.00000000000E+00  0.00000000000E+00  0.45593999997E+02  0.45594000000E+02  0.51100000000E-03 0.  1.
         11   -1    0    0    0    0 -0.00000000000E+00 -0.00000000000E+00 -0.45593999997E+02  0.45594000000E+02  0.51100000000E-03 0. -1.
    9900012    2    1    2    0    0  0.34077271307E+02  0.16307487383E+02 -0.15032338632E+02  0.50528858725E+02  0.29999996579E+02 0.  0.
        -12    1    1    2    0    0 -0.34077271307E+02 -0.16307487383E+02  0.15032338632E+02  0.40659141275E+02  0.00000000000E+00 0.  1.
         11    1    3    3    0    0  0.18310887685E+02  0.14665628757E+01 -0.13807011451E+02  0.22979838554E+02  0.51100000000E-03 0. -1.
        -11    1    3    3    0    0  0.12041805254E+02  0.34975965721E+01  0.56699329591E+01  0.13761772981E+02  0.51100000000E-03 0.  1.
         12    1    3    3    0    0  0.37245783677E+01  0.11343327936E+02 -0.68952601397E+01  0.13787247190E+02  0.00000000000E+00 0. -1.
</event>
<event>
 7    1  0.5155466E-011  0.5052886E+02  0.7816164E-02  0.1300439E+00
        -11   -1    0    0    0    0  0.00000000000E+00  0.00000000000E+00  0.45593999997E+02  0.45594000000E+02  0.51100000000E-03 0.  1.
         11   -1    0    0    0    0 -0.00000000000E+00 -0.00000000000E+00 -0.45593999997E+02  0.45594000000E+02  0.51100000000E-03 0. -1.
    9900012    2    1    2    0    0 -0.15496367293E+01 -0.16616236624E+02 -0.37076470902E+02  0.50528863412E+02  0.30000010828E+02 0.  0.
        -12    1    1    2    0    0  0.15496367293E+01  0.16616236624E+02  0.37076470902E+02  0.40659136588E+02  0.00000000000E+00 0.  1.
         11    1    3    3    0    0  0.90383956315E+01 -0.52326263019E+01 -0.18326746422E+02  0.21093662752E+02  0.51100000000E-03 0.  1.
        -11    1    3    3    0    0 -0.83564664432E+01 -0.47998655512E+01 -0.21451914629E+00  0.96392561670E+01  0.51100000000E-03 0. -1.
         12    1    3    3    0    0 -0.22315659176E+01 -0.65837447705E+01 -0.18535205333E+02  0.19795944493E+02  0.00000000000E+00 0. -1.
</event>
<event>
 7    1  0.5155466E-011  0.5052887E+02  0.7816164E-02  0.1300439E+00
        -11   -1    0    0    0    0  0.00000000000E+00  0.00000000000E+00  0.45593999997E+02  0.45594000000E+02  0.51100000000E-03 0.  1.
         11   -1    0    0    0    0 -0.00000000000E+00 -0.00000000000E+00 -0.45593999997E+02  0.45594000000E+02  0.51100000000E-03 0. -1.
    9900012    2    1    2    0    0 -0.10746803327E+02  0.13196410544E+02 -0.36925949267E+02  0.50528871108E+02  0.30000034219E+02 0.  0.
        -12    1    1    2    0    0  0.10746803327E+02 -0.13196410544E+02  0.36925949267E+02  0.40659128892E+02  0.00000000000E+00 0.  1.
         11    1    3    3    0    0 -0.69718888017E+01  0.93017605734E+01 -0.23095446745E+02  0.25855940204E+02  0.51100000000E-03 0. -1.
        -11    1    3    3    0    0  0.77151275359E+01  0.23141879893E+01 -0.24385671720E+01  0.84157750124E+01  0.51100000000E-03 0.  1.
        -12    1    3    3    0    0 -0.11490042061E+02  0.15804619817E+01 -0.11391935351E+02  0.16257155891E+02  0.00000000000E+00 0.  1.
</event>
<event>
 7    1  0.5155466E-011  0.5052886E+02  0.7816164E-02  0.1300439E+00
        -11   -1    0    0    0    0  0.00000000000E+00  0.00000000000E+00  0.45593999997E+02  0.45594000000E+02  0.51100000000E-03 0.  1.
         11   -1    0    0    0    0 -0.00000000000E+00 -0.00000000000E+00 -0.45593999997E+02  0.45594000000E+02  0.51100000000E-03 0. -1.
    9900012    2    1    2    0    0 -0.13173897198E+02  0.36232861782E+01 -0.38294726939E+02  0.50528857345E+02  0.29999992386E+02 0.  0.
        -12    1    1    2    0    0  0.13173897198E+02 -0.36232861782E+01  0.38294726939E+02  0.40659142655E+02  0.00000000000E+00 0.  1.
         11    1    3    3    0    0 -0.69268701713E+01 -0.81598509752E+00 -0.22747945035E+02  0.23793199987E+02  0.51100000000E-03 0. -1.
        -11    1    3    3    0    0 -0.96474041677E+01  0.75479661792E+01 -0.19804184695E+01  0.12408314075E+02  0.51100000000E-03 0.  1.
        -12    1    3    3    0    0  0.34003771406E+01 -0.31086949034E+01 -0.13566363435E+02  0.14327343283E+02  0.00000000000E+00 0.  1.
</event>
<event>
 7    1  0.5155466E-011  0.5052885E+02  0.7816164E-02  0.1300439E+00
        -11   -1    0    0    0    0  0.00000000000E+00  0.00000000000E+00  0.45593999997E+02  0.45594000000E+02  0.51100000000E-03 0. -1.
         11   -1    0    0    0    0 -0.00000000000E+00 -0.00000000000E+00 -0.45593999997E+02  0.45594000000E+02  0.51100000000E-03 0.  1.
    9900012    2    1    2    0    0  0.14826620886E+02 -0.24749810345E+02  0.28649339408E+02  0.50528850383E+02  0.29999971225E+02 0.  0.
        -12    1    1    2    0    0 -0.14826620886E+02  0.24749810345E+02 -0.28649339408E+02  0.40659149617E+02  0.00000000000E+00 0.  1.
         11    1    3    3    0    0 -0.40098478010E+01 -0.71284485934E+01 -0.15255860583E+01  0.83199201810E+01  0.51100000000E-03 0. -1.
        -11    1    3    3    0    0  0.11707521504E+02 -0.18523370680E+02  0.25566522859E+02  0.33672368679E+02  0.51100000000E-03 0.  1.
        -12    1    3    3    0    0  0.71289471832E+01  0.90200892808E+00  0.46084026074E+01  0.85365615232E+01  0.00000000000E+00 0.  1.
</event>
<event>
 7    1  0.5155466E-011  0.5052887E+02  0.7816164E-02  0.1300439E+00
        -11   -1    0    0    0    0  0.00000000000E+00  0.00000000000E+00  0.45593999997E+02  0.45594000000E+02  0.51100000000E-03 0.  1.
         11   -1    0    0    0    0 -0.00000000000E+00 -0.00000000000E+00 -0.45593999997E+02  0.45594000000E+02  0.51100000000E-03 0. -1.
    9900012    2    1    2    0    0  0.52295715927E+01 -0.10921362459E+02 -0.38814178232E+02  0.50528868076E+02  0.30000025002E+02 0.  0.
        -12    1    1    2    0    0 -0.52295715927E+01  0.10921362459E+02  0.38814178232E+02  0.40659131924E+02  0.00000000000E+00 0.  1.
         11    1    3    3    0    0 -0.54253216031E+01 -0.16027863702E+02 -0.20841648020E+02  0.26845871597E+02  0.51100000000E-03 0. -1.
        -11    1    3    3    0    0 -0.62819418821E+00  0.38281378452E+01 -0.62980311935E+01  0.73969226355E+01  0.51100000000E-03 0.  1.
         12    1    3    3    0    0  0.11283087384E+02  0.12783633976E+01 -0.11674499019E+02  0.16286073843E+02  0.00000000000E+00 0. -1.
</event>
<event>
 7    1  0.5155466E-011  0.5052886E+02  0.7816164E-02  0.1300439E+00
        -11   -1    0    0    0    0  0.00000000000E+00  0.00000000000E+00  0.45593999997E+02  0.45594000000E+02  0.51100000000E-03 0.  1.
         11   -1    0    0    0    0 -0.00000000000E+00 -0.00000000000E+00 -0.45593999997E+02  0.45594000000E+02  0.51100000000E-03 0. -1.
    9900012    2    1    2    0    0  0.93023080487E+01  0.27534796297E+02 -0.28433566376E+02  0.50528860326E+02  0.30000001446E+02 0.  0.
        -12    1    1    2    0    0 -0.93023080487E+01 -0.27534796297E+02  0.28433566376E+02  0.40659139674E+02  0.00000000000E+00 0.  1.
         11    1    3    3    0    0 -0.21785187845E+01 -0.15508342538E+01 -0.48195153073E+01  0.55116929373E+01  0.51100000000E-03 0. -1.
        -11    1    3    3    0    0  0.18152781471E+02  0.19679047678E+02 -0.15814193988E+02  0.31094647842E+02  0.51100000000E-03 0.  1.
        -12    1    3    3    0    0 -0.66719546378E+01  0.94065828732E+01 -0.77998570810E+01  0.13922519547E+02  0.00000000000E+00 0.  1.
</event>
<event>
 7    1  0.5197071E-011  0.5052886E+02  0.7816164E-02  0.1300439E+00
        -11   -1    0    0    0    0  0.00000000000E+00  0.00000000000E+00  0.45593999997E+02  0.45594000000E+02  0.51100000000E-03 0.  1.
         11   -1    0    0    0    0 -0.00000000000E+00 -0.00000000000E+00 -0.45593999997E+02  0.45594000000E+02  0.51100000000E-03 0. -1.
    9900012    2    1    2    0    0  0.13925608139E+02 -0.33998965612E+02 -0.17415895775E+02  0.50528860187E+02  0.30000001023E+02 0.  0.
        -12    1    1    2    0    0 -0.13925608139E+02  0.33998965612E+02  0.17415895775E+02  0.40659139813E+02  0.00000000000E+00 0.  1.
         11    1    3    3    0    0  0.20483223911E+01 -0.23688928355E+02 -0.10452399671E+02  0.25973324977E+02  0.51100000000E-03 0. -1.
        -11    1    3    3    0    0  0.22232309196E+01 -0.32793361097E+01  0.58333071398E+01  0.70515440501E+01  0.51100000000E-03 0.  1.
        -12    1    3    3    0    0  0.96540548288E+01 -0.70307011472E+01 -0.12796803243E+02  0.17503991159E+02  0.00000000000E+00 0.  1.
</event>
<event>
 7    1  0.5155466E-011  0.5052886E+02  0.7816164E-02  0.1300439E+00
        -11   -1    0    0    0    0  0.00000000000E+00  0.00000000000E+00  0.45593999997E+02  0.45594000000E+02  0.51100000000E-03 0.  1.
         11   -1    0    0    0    0 -0.00000000000E+00 -0.00000000000E+00 -0.45593999997E+02  0.45594000000E+02  0.51100000000E-03 0. -1.
    9900012    2    1    2    0    0 -0.20435111501E+02  0.34931694402E+02  0.39177448865E+01  0.50528858582E+02  0.29999996146E+02 0.  0.
        -12    1    1    2    0    0  0.20435111501E+02 -0.34931694402E+02 -0.39177448865E+01  0.40659141418E+02  0.00000000000E+00 0.  1.
         11    1    3    3    0    0  0.85660524590E+00  0.14763888178E+02 -0.29077247459E+01  0.15071862199E+02  0.51100000000E-03 0. -1.
        -11    1    3    3    0    0 -0.11680626588E+02  0.13380669471E+02  0.13149170141E+02  0.22099321905E+02  0.51100000000E-03 0.  1.
         12    1    3    3    0    0 -0.96110901591E+01  0.67871367525E+01 -0.63237005087E+01  0.13357674478E+02  0.00000000000E+00 0. -1.
</event>
<event>
 7    1  0.5155466E-011  0.5052884E+02  0.7816164E-02  0.1300439E+00
        -11   -1    0    0    0    0  0.00000000000E+00  0.00000000000E+00  0.45593999997E+02  0.45594000000E+02  0.51100000000E-03 0. -1.
         11   -1    0    0    0    0 -0.00000000000E+00 -0.00000000000E+00 -0.45593999997E+02  0.45594000000E+02  0.51100000000E-03 0.  1.
    9900012    2    1    2    0    0 -0.21444095137E+02  0.17420501408E+02 -0.29830262114E+02  0.50528835925E+02  0.29999927277E+02 0.  0.
        -12    1    1    2    0    0  0.21444095137E+02 -0.17420501408E+02  0.29830262114E+02  0.40659164075E+02  0.00000000000E+00 0.  1.
         11    1    3    3    0    0 -0.46874784048E+01  0.19927637494E+02 -0.84081448691E+01  0.22130975810E+02  0.51100000000E-03 0. -1.
        -11    1    3    3    0    0 -0.16683660838E+02 -0.39811657855E+01 -0.20011700146E+02  0.26356448224E+02  0.51100000000E-03 0.  1.
        -12    1    3    3    0    0 -0.72955893533E-01  0.14740296992E+01 -0.14104170987E+01  0.20414118910E+01  0.00000000000E+00 0.  1.
</event>
<event>
 7    1  0.5155466E-011  0.5052885E+02  0.7816164E-02  0.1300439E+00
        -11   -1    0    0    0    0  0.00000000000E+00  0.00000000000E+00  0.45593999997E+02  0.45594000000E+02  0.51100000000E-03 0. -1.
         11   -1    0    0    0    0 -0.00000000000E+00 -0.00000000000E+00 -0.45593999997E+02  0.45594000000E+02  0.51100000000E-03 0.  1.
    9900012    2    1    2    0    0 -0.31714360485E+02  0.12821738209E+02  0.21976550348E+02  0.50528851006E+02  0.29999973119E+02 0.  0.
        -12    1    1    2    0    0  0.31714360485E+02 -0.12821738209E+02 -0.21976550348E+02  0.40659148994E+02  0.00000000000E+00 0.  1.
         11    1    3    3    0    0 -0.31869075624E+01 -0.15160338541E+01  0.13673918682E+02  0.14121996701E+02  0.51100000000E-03 0. -1.
        -11    1    3    3    0    0 -0.15264811383E+02 -0.80681921114E+00  0.43311225938E+01  0.15887858477E+02  0.51100000000E-03 0.  1.
         12    1    3    3    0    0 -0.13262641539E+02  0.15144591275E+02  0.39715090726E+01  0.20518995828E+02  0.00000000000E+00 0. -1.
</event>
<event>
 7    1  0.5155466E-011  0.5052886E+02  0.7816164E-02  0.1300439E+00
        -11   -1    0    0    0    0  0.00000000000E+00  0.00000000000E+00  0.45593999997E+02  0.45594000000E+02  0.51100000000E-03 0. -1.
         11   -1    0    0    0    0 -0.00000000000E+00 -0.00000000000E+00 -0.45593999997E+02  0.45594000000E+02  0.51100000000E-03 0.  1.
    9900012    2    1    2    0    0 -0.96804248672E+01  0.69113685008E+01  0.38880436072E+02  0.50528856510E+02  0.29999989848E+02 0.  0.
        -12    1    1    2    0    0  0.96804248672E+01 -0.69113685008E+01 -0.38880436072E+02  0.40659143490E+02  0.00000000000E+00 0.  1.
         11    1    3    3    0    0 -0.78302003260E+01  0.44479830593E+01  0.13392977297E+02  0.16139034407E+02  0.51100000000E-03 0. -1.
        -11    1    3    3    0    0  0.51592600855E+01  0.93959889709E+01  0.53757279671E+01  0.11991706501E+02  0.51100000000E-03 0.  1.
        -12    1    3    3    0    0 -0.70094846267E+01 -0.69326035294E+01  0.20111730808E+02  0.22398115602E+02  0.00000000000E+00 0.  1.
</event>
<event>
 7    1  0.5155466E-011  0.5052885E+02  0.7816164E-02  0.1300439E+00
        -11   -1    0    0    0    0  0.00000000000E+00  0.00000000000E+00  0.45593999997E+02  0.45594000000E+02  0.51100000000E-03 0.  1.
         11   -1    0    0    0    0 -0.00000000000E+00 -0.00000000000E+00 -0.45593999997E+02  0.45594000000E+02  0.51100000000E-03 0. -1.
    9900012    2    1    2    0    0  0.11995445331E+02 -0.18722703729E+01 -0.38804253737E+02  0.50528853266E+02  0.29999979987E+02 0.  0.
        -12    1    1    2    0    0 -0.11995445331E+02  0.18722703729E+01  0.38804253737E+02  0.40659146734E+02  0.00000000000E+00 0.  1.
         11    1    3    3    0    0 -0.36963904932E+01 -0.35958426992E+01 -0.89966008677E+01  0.10369774097E+02  0.51100000000E-03 0. -1.
        -11    1    3    3    0    0  0.11080923862E+02 -0.49006227421E+01 -0.34564951455E+01  0.12599616496E+02  0.51100000000E-03 0.  1.
        -12    1    3    3    0    0  0.46109119622E+01  0.66241950683E+01 -0.26351157724E+02  0.27559462673E+02  0.00000000000E+00 0.  1.
</event>
<event>
 7    1  0.5155466E-011  0.5052887E+02  0.7816164E-02  0.1300439E+00
        -11   -1    0    0    0    0  0.00000000000E+00  0.00000000000E+00  0.45593999997E+02  0.45594000000E+02  0.51100000000E-03 0.  1.
         11   -1    0    0    0    0 -0.00000000000E+00 -0.00000000000E+00 -0.45593999997E+02  0.45594000000E+02  0.51100000000E-03 0. -1.
    9900012    2    1    2    0    0 -0.14768637708E+02 -0.64765039167E+01 -0.37324354479E+02  0.50528865724E+02  0.30000017856E+02 0.  0.
        -12    1    1    2    0    0  0.14768637708E+02  0.64765039167E+01  0.37324354479E+02  0.40659134276E+02  0.00000000000E+00 0.  1.
         11    1    3    3    0    0  0.18754167125E+01 -0.70058313849E+01 -0.73115866104E+01  0.10298454266E+02  0.51100000000E-03 0. -1.
        -11    1    3    3    0    0 -0.66696666498E+01  0.25894063933E+01 -0.29143040525E+02  0.30008436980E+02  0.51100000000E-03 0.  1.
        -12    1    3    3    0    0 -0.99743877709E+01 -0.20600789251E+01 -0.86972734380E+00  0.10221974478E+02  0.00000000000E+00 0.  1.
</event>
<event>
 7    1  0.5155466E-011  0.5052886E+02  0.7816164E-02  0.1300439E+00
        -11   -1    0    0    0    0  0.00000000000E+00  0.00000000000E+00  0.45593999997E+02  0.45594000000E+02  0.51100000000E-03 0.  1.
         11   -1    0    0    0    0 -0.00000000000E+00 -0.00000000000E+00 -0.45593999997E+02  0.45594000000E+02  0.51100000000E-03 0. -1.
    9900012    2    1    2    0    0 -0.32073085527E+01  0.76521729846E+01 -0.39803554440E+02  0.50528861721E+02  0.30000005686E+02 0.  0.
        -12    1    1    2    0    0  0.32073085527E+01 -0.76521729846E+01  0.39803554440E+02  0.40659138279E+02  0.00000000000E+00 0.  1.
         11    1    3    3    0    0  0.17609917869E+01  0.50198773166E+01 -0.37993779514E+02  0.38364404627E+02  0.51100000000E-03 0. -1.
        -11    1    3    3    0    0 -0.34367709916E+01 -0.38311355483E+01 -0.19939631576E+01  0.55195003192E+01  0.51100000000E-03 0.  1.
         12    1    3    3    0    0 -0.15315293479E+01  0.64634312163E+01  0.18418823171E+00  0.66449567746E+01  0.00000000000E+00 0. -1.
</event>
<event>
 7    1  0.5155466E-011  0.5052886E+02  0.7816164E-02  0.1300439E+00
        -11   -1    0    0    0    0  0.00000000000E+00  0.00000000000E+00  0.45593999997E+02  0.45594000000E+02  0.51100000000E-03 0.  1.
         11   -1    0    0    0    0 -0.00000000000E+00 -0.00000000000E+00 -0.45593999997E+02  0.45594000000E+02  0.51100000000E-03 0. -1.
    9900012    2    1    2    0    0 -0.15075145454E+02 -0.14275227295E+02 -0.34958886229E+02  0.50528857718E+02  0.29999993520E+02 0.  0.
        -12    1    1    2    0    0  0.15075145454E+02  0.14275227295E+02  0.34958886229E+02  0.40659142282E+02  0.00000000000E+00 0.  1.
         11    1    3    3    0    0 -0.26422693487E+01 -0.33126626454E+01 -0.61101171946E+01  0.74356474840E+01  0.51100000000E-03 0. -1.
        -11    1    3    3    0    0  0.43153613908E+01 -0.77532761962E+01 -0.23658691079E+02  0.25267950046E+02  0.51100000000E-03 0.  1.
        -12    1    3    3    0    0 -0.16748237496E+02 -0.32092884529E+01 -0.51900779551E+01  0.17825260188E+02  0.00000000000E+00 0.  1.
</event>
<event>
 7    1  0.5155466E-011  0.5052885E+02  0.7816164E-02  0.1300439E+00
        -11   -1    0    0    0    0  0.00000000000E+00  0.00000000000E+00  0.45593999997E+02  0.45594000000E+02  0.51100000000E-03 0.  1.
         11   -1    0    0    0    0 -0.00000000000E+00 -0.00000000000E+00 -0.45593999997E+02  0.45594000000E+02  0.51100000000E-03 0. -1.
    9900012    2    1    2    0    0  0.11854199810E+02 -0.18836202501E+02 -0.34027077377E+02  0.50528848845E+02  0.29999966550E+02 0.  0.
        -12    1    1    2    0    0 -0.11854199810E+02  0.18836202501E+02  0.34027077377E+02  0.40659151155E+02  0.00000000000E+00 0.  1.
         11    1    3    3    0    0 -0.23323434370E+01 -0.36318783069E+01 -0.50544985451E+01  0.66466774969E+01  0.51100000000E-03 0. -1.
        -11    1    3    3    0    0  0.99940266384E+01 -0.15047562933E+01 -0.27715087730E+02  0.29500355050E+02  0.51100000000E-03 0.  1.
        -12    1    3    3    0    0  0.41925166088E+01 -0.13699567900E+02 -0.12574911026E+01  0.14381816299E+02  0.00000000000E+00 0.  1.
</event>
<event>
 7    1  0.5155466E-011  0.5052887E+02  0.7816164E-02  0.1300439E+00
        -11   -1    0    0    0    0  0.00000000000E+00  0.00000000000E+00  0.45593999997E+02  0.45594000000E+02  0.51100000000E-03 0.  1.
         11   -1    0    0    0    0 -0.00000000000E+00 -0.00000000000E+00 -0.45593999997E+02  0.45594000000E+02  0.51100000000E-03 0. -1.
    9900012    2    1    2    0    0  0.28062541304E+02 -0.65654502764E+01 -0.28680194933E+02  0.50528868884E+02  0.30000027459E+02 0.  0.
        -12    1    1    2    0    0 -0.28062541304E+02  0.65654502764E+01  0.28680194933E+02  0.40659131116E+02  0.00000000000E+00 0.  1.
         11    1    3    3    0    0  0.16946207704E+02 -0.12486173091E+02 -0.30502974086E+01  0.21269292150E+02  0.51100000000E-03 0. -1.
        -11    1    3    3    0    0  0.21381625943E+01  0.45335369694E+01 -0.98250715378E+01  0.11029810865E+02  0.51100000000E-03 0.  1.
         12    1    3    3    0    0  0.89781710053E+01  0.13871858454E+01 -0.15804825987E+02  0.18229765869E+02  0.00000000000E+00 0. -1.
</event>
<event>
 7    1  0.5155466E-011  0.5052887E+02  0.7816164E-02  0.1300439E+00
        -11   -1    0    0    0    0  0.00000000000E+00  0.00000000000E+00  0.45593999997E+02  0.45594000000E+02  0.51100000000E-03 0.  1.
         11   -1    0    0    0    0 -0.00000000000E+00 -0.00000000000E+00 -0.45593999997E+02  0.45594000000E+02  0.51100000000E-03 0. -1.
    9900012    2    1    2    0    0 -0.25774545079E+02  0.10688919049E+02 -0.29573382570E+02  0.50528866695E+02  0.30000020808E+02 0.  0.
        -12    1    1    2    0    0  0.25774545079E+02 -0.10688919049E+02  0.29573382570E+02  0.40659133305E+02  0.00000000000E+00 0.  1.
         11    1    3    3    0    0 -0.48690627543E+01  0.15289915334E+02 -0.11720006693E+02  0.19870778550E+02  0.51100000000E-03 0. -1.
        -11    1    3    3    0    0 -0.16435903208E+02  0.17463265537E+01 -0.87758068010E+01  0.18713721062E+02  0.51100000000E-03 0.  1.
         12    1    3    3    0    0 -0.44695791165E+01 -0.63473228396E+01 -0.90775690754E+01  0.11944367084E+02  0.00000000000E+00 0. -1.
</event>
<event>
 7    1  0.5155466E-011  0.5052883E+02  0.7816164E-02  0.1300439E+00
        -11   -1    0    0    0    0  0.00000000000E+00  0.00000000000E+00  0.45593999997E+02  0.45594000000E+02  0.51100000000E-03 0. -1.
         11   -1    0    0    0    0 -0.00000000000E+00 -0.00000000000E+00 -0.45593999997E+02  0.45594000000E+02  0.51100000000E-03 0.  1.
    9900012    2    1    2    0    0 -0.19648151720E+02  0.56758668902E+00  0.35592083813E+02  0.50528825749E+02  0.29999896345E+02 0.  0.
        -12    1    1    2    0    0  0.19648151720E+02 -0.56758668902E+00 -0.35592083813E+02  0.40659174251E+02  0.00000000000E+00 0.  1.
         11    1    3    3    0    0 -0.98063739855E+01 -0.52373088361E+01  0.22114627364E+02  0.24751790203E+02  0.51100000000E-03 0. -1.
        -11    1    3    3    0    0 -0.11544168854E+02  0.96304678180E+01  0.15079930066E+02  0.21293614911E+02  0.51100000000E-03 0.  1.
        -12    1    3    3    0    0  0.17023911194E+01 -0.38255722929E+01 -0.16024736166E+01  0.44834206342E+01  0.00000000000E+00 0.  1.
</event>
<event>
 7    1  0.5155466E-011  0.5052891E+02  0.7816164E-02  0.1300439E+00
        -11   -1    0    0    0    0  0.00000000000E+00  0.00000000000E+00  0.45593999997E+02  0.45594000000E+02  0.51100000000E-03 0. -1.
         11   -1    0    0    0    0 -0.00000000000E+00 -0.00000000000E+00 -0.45593999997E+02  0.45594000000E+02  0.51100000000E-03 0.  1.
    9900012    2    1    2    0    0  0.29337236486E+02 -0.28071281003E+02 -0.21192597553E+01  0.50528910934E+02  0.30000155274E+02 0.  0.
        -12    1    1    2    0    0 -0.29337236486E+02  0.28071281003E+02  0.21192597553E+01  0.40659089066E+02  0.00000000000E+00 0.  1.
         11    1    3    3    0    0  0.20140370071E+02 -0.12036048712E+02 -0.35407485492E+01  0.23728419158E+02  0.51100000000E-03 0. -1.
        -11    1    3    3    0    0 -0.22178587800E+01 -0.59232390710E+01 -0.69558037877E+01  0.94014288943E+01  0.51100000000E-03 0.  1.
        -12    1    3    3    0    0  0.11414725195E+02 -0.10111993220E+02  0.83772925815E+01  0.17399062882E+02  0.00000000000E+00 0.  1.
</event>
<event>
 7    1  0.5155466E-011  0.5052886E+02  0.7816164E-02  0.1300439E+00
        -11   -1    0    0    0    0  0.00000000000E+00  0.00000000000E+00  0.45593999997E+02  0.45594000000E+02  0.51100000000E-03 0.  1.
         11   -1    0    0    0    0 -0.00000000000E+00 -0.00000000000E+00 -0.45593999997E+02  0.45594000000E+02  0.51100000000E-03 0. -1.
    9900012    2    1    2    0    0 -0.11275806606E+02  0.36392935282E+02 -0.14197745208E+02  0.50528861764E+02  0.30000005818E+02 0.  0.
        -12    1    1    2    0    0  0.11275806606E+02 -0.36392935282E+02  0.14197745208E+02  0.40659138236E+02  0.00000000000E+00 0.  1.
         11    1    3    3    0    0  0.19718991654E+01  0.11480894008E+02 -0.17938686291E+02  0.21389150980E+02  0.51100000000E-03 0. -1.
        -11    1    3    3    0    0 -0.52368085587E+01  0.47844287046E+01  0.21781383867E+01  0.74201892834E+01  0.51100000000E-03 0.  1.
         12    1    3    3    0    0 -0.80108972132E+01  0.20127612570E+02  0.15628026964E+01  0.21719521500E+02  0.00000000000E+00 0. -1.
</event>
<event>
 7    1  0.5155466E-011  0.5052888E+02  0.7816164E-02  0.1300439E+00
        -11   -1    0    0    0    0  0.00000000000E+00  0.00000000000E+00  0.45593999997E+02  0.45594000000E+02  0.51100000000E-03 0. -1.
         11   -1    0    0    0    0 -0.00000000000E+00 -0.00000000000E+00 -0.45593999997E+02  0.45594000000E+02  0.51100000000E-03 0.  1.
    9900012    2    1    2    0    0  0.13001665889E+02 -0.27104864152E+02  0.27376036032E+02  0.50528876480E+02  0.30000050548E+02 0.  0.
        -12    1    1    2    0    0 -0.13001665889E+02  0.27104864152E+02 -0.27376036032E+02  0.40659123520E+02  0.00000000000E+00 0.  1.
         11    1    3    3    0    0 -0.10469254225E+01 -0.15612370971E+02  0.34450426499E+01  0.16022187718E+02  0.51100000000E-03 0.  1.
        -11    1    3    3    0    0 -0.41738000920E+00  0.36260778860E+01  0.56213178600E+01  0.67023773134E+01  0.51100000000E-03 0. -1.
        -12    1    3    3    0    0  0.14465971321E+02 -0.15118571068E+02  0.18309675522E+02  0.27804311448E+02  0.00000000000E+00 0.  1.
</event>
<event>
 7    1  0.5155466E-011  0.5052887E+02  0.7816164E-02  0.1300439E+00
        -11   -1    0    0    0    0  0.00000000000E+00  0.00000000000E+00  0.45593999997E+02  0.45594000000E+02  0.51100000000E-03 0.  1.
         11   -1    0    0    0    0 -0.00000000000E+00 -0.00000000000E+00 -0.45593999997E+02  0.45594000000E+02  0.51100000000E-03 0. -1.
    9900012    2    1    2    0    0  0.11529770019E+02  0.38366921735E+02 -0.69432181823E+01  0.50528873609E+02  0.30000041822E+02 0.  0.
        -12    1    1    2    0    0 -0.11529770019E+02 -0.38366921735E+02  0.69432181823E+01  0.40659126391E+02  0.00000000000E+00 0.  1.
         11    1    3    3    0    0  0.67152774842E+01  0.33374398604E+02 -0.10891590377E+02  0.35743141651E+02  0.51100000000E-03 0. -1.
        -11    1    3    3    0    0 -0.31414904209E+00 -0.22776619853E+01 -0.27969609118E+01  0.36206939035E+01  0.51100000000E-03 0.  1.
        -12    1    3    3    0    0  0.51286415769E+01  0.72701851168E+01  0.67453331061E+01  0.11165038055E+02  0.00000000000E+00 0.  1.
</event>
<event>
 7    1  0.5155466E-011  0.5052886E+02  0.7816164E-02  0.1300439E+00
        -11   -1    0    0    0    0  0.00000000000E+00  0.00000000000E+00  0.45593999997E+02  0.45594000000E+02  0.51100000000E-03 0.  1.
         11   -1    0    0    0    0 -0.00000000000E+00 -0.00000000000E+00 -0.45593999997E+02  0.45594000000E+02  0.51100000000E-03 0. -1.
    9900012    2    1    2    0    0  0.28182426178E+02  0.55281135247E+01 -0.28781187414E+02  0.50528856706E+02  0.29999990445E+02 0.  0.
        -12    1    1    2    0    0 -0.28182426178E+02 -0.55281135247E+01  0.28781187414E+02  0.40659143294E+02  0.00000000000E+00 0.  1.
         11    1    3    3    0    0  0.23918543730E+02  0.51921158359E+00 -0.33213995328E+02  0.40933309183E+02  0.51100000000E-03 0. -1.
        -11    1    3    3    0    0  0.28439999731E+01  0.59250331025E+01  0.25086755113E+01  0.70347570104E+01  0.51100000000E-03 0.  1.
         12    1    3    3    0    0  0.14198824751E+01 -0.91613116140E+00  0.19241324023E+01  0.25607905127E+01  0.00000000000E+00 0. -1.
</event>
<event>
 7    1  0.5155466E-011  0.5052885E+02  0.7816164E-02  0.1300439E+00
        -11   -1    0    0    0    0  0.00000000000E+00  0.00000000000E+00  0.45593999997E+02  0.45594000000E+02  0.51100000000E-03 0. -1.
         11   -1    0    0    0    0 -0.00000000000E+00 -0.00000000000E+00 -0.45593999997E+02  0.45594000000E+02  0.51100000000E-03 0.  1.
    9900012    2    1    2    0    0  0.18806904234E+00  0.39655926823E+02 -0.89743132050E+01  0.50528853432E+02  0.29999980491E+02 0.  0.
        -12    1    1    2    0    0 -0.18806904234E+00 -0.39655926823E+02  0.89743132050E+01  0.40659146568E+02  0.00000000000E+00 0.  1.
         11    1    3    3    0    0  0.21847940106E+01  0.35579847184E+02 -0.32083879207E+01  0.35790957011E+02  0.51100000000E-03 0. -1.
        -11    1    3    3    0    0  0.51364051557E+01 -0.84471863579E-01 -0.33538840108E+01  0.61350086910E+01  0.51100000000E-03 0.  1.
         12    1    3    3    0    0 -0.71331301240E+01  0.41605515031E+01 -0.24120412734E+01  0.86028877292E+01  0.00000000000E+00 0. -1.
</event>
<event>
 7    1  0.5155466E-011  0.5052886E+02  0.7816164E-02  0.1300439E+00
        -11   -1    0    0    0    0  0.00000000000E+00  0.00000000000E+00  0.45593999997E+02  0.45594000000E+02  0.51100000000E-03 0. -1.
         11   -1    0    0    0    0 -0.00000000000E+00 -0.00000000000E+00 -0.45593999997E+02  0.45594000000E+02  0.51100000000E-03 0.  1.
    9900012    2    1    2    0    0 -0.85635409900E+01  0.17729333111E+00  0.39746698069E+02  0.50528859889E+02  0.30000000119E+02 0.  0.
        -12    1    1    2    0    0  0.85635409900E+01 -0.17729333111E+00 -0.39746698069E+02  0.40659140111E+02  0.00000000000E+00 0.  1.
         11    1    3    3    0    0  0.12164433675E+01  0.75028081710E+01  0.20174649304E+02  0.21558950339E+02  0.51100000000E-03 0. -1.
        -11    1    3    3    0    0 -0.12566974282E+02 -0.11030083723E+02  0.15476514652E+02  0.22784075482E+02  0.51100000000E-03 0.  1.
        -12    1    3    3    0    0  0.27869899248E+01  0.37045688830E+01  0.40955341133E+01  0.61858340685E+01  0.00000000000E+00 0.  1.
</event>
<event>
 7    1  0.5155466E-011  0.5052887E+02  0.7816164E-02  0.1300439E+00
        -11   -1    0    0    0    0  0.00000000000E+00  0.00000000000E+00  0.45593999997E+02  0.45594000000E+02  0.51100000000E-03 0.  1.
         11   -1    0    0    0    0 -0.00000000000E+00 -0.00000000000E+00 -0.45593999997E+02  0.45594000000E+02  0.51100000000E-03 0. -1.
    9900012    2    1    2    0    0 -0.32218874773E+02  0.13397385931E+02 -0.20871481487E+02  0.50528873339E+02  0.30000041002E+02 0.  0.
        -12    1    1    2    0    0  0.32218874773E+02 -0.13397385931E+02  0.20871481487E+02  0.40659126661E+02  0.00000000000E+00 0.  1.
         11    1    3    3    0    0 -0.24286257171E+02  0.10227028722E+02 -0.24045311695E+02  0.35673399314E+02  0.51100000000E-03 0. -1.
        -11    1    3    3    0    0  0.84753945604E+00 -0.34230136429E+01  0.95460313961E+00  0.36533016497E+01  0.51100000000E-03 0.  1.
        -12    1    3    3    0    0 -0.87801570579E+01  0.65933708514E+01  0.22192270689E+01  0.11202172375E+02  0.00000000000E+00 0.  1.
</event>
<event>
 7    1  0.5155466E-011  0.5052886E+02  0.7816164E-02  0.1300439E+00
        -11   -1    0    0    0    0  0.00000000000E+00  0.00000000000E+00  0.45593999997E+02  0.45594000000E+02  0.51100000000E-03 0.  1.
         11   -1    0    0    0    0 -0.00000000000E+00 -0.00000000000E+00 -0.45593999997E+02  0.45594000000E+02  0.51100000000E-03 0. -1.
    9900012    2    1    2    0    0  0.31227226700E+02  0.51237578965E+01 -0.25529854167E+02  0.50528855442E+02  0.29999986602E+02 0.  0.
        -12    1    1    2    0    0 -0.31227226700E+02 -0.51237578965E+01  0.25529854167E+02  0.40659144558E+02  0.00000000000E+00 0.  1.
         11    1    3    3    0    0  0.23993924134E+01  0.18931664935E+01 -0.70864632011E+00  0.31374102686E+01  0.51100000000E-03 0. -1.
        -11    1    3    3    0    0  0.12095570454E+02  0.15439086104E+02 -0.10944673117E+02  0.22460055081E+02  0.51100000000E-03 0.  1.
        -12    1    3    3    0    0  0.16732263833E+02 -0.12208494701E+02 -0.13876534730E+02  0.24931390093E+02  0.00000000000E+00 0.  1.
</event>
<event>
 7    1  0.5155466E-011  0.5052890E+02  0.7816164E-02  0.1300439E+00
        -11   -1    0    0    0    0  0.00000000000E+00  0.00000000000E+00  0.45593999997E+02  0.45594000000E+02  0.51100000000E-03 0. -1.
         11   -1    0    0    0    0 -0.00000000000E+00 -0.00000000000E+00 -0.45593999997E+02  0.45594000000E+02  0.51100000000E-03 0.  1.
    9900012    2    1    2    0    0 -0.53696078737E+00 -0.30504986871E+02 -0.26876005941E+02  0.50528902049E+02  0.30000128268E+02 0.  0.
        -12    1    1    2    0    0  0.53696078737E+00  0.30504986871E+02  0.26876005941E+02  0.40659097951E+02  0.00000000000E+00 0.  1.
         11    1    3    3    0    0 -0.57867828811E+01 -0.11340138306E+02 -0.35634998637E+00  0.12736270195E+02  0.51100000000E-03 0. -1.
        -11    1    3    3    0    0  0.41031464062E+01 -0.15974657068E+02 -0.29156290050E+02  0.33497980963E+02  0.51100000000E-03 0.  1.
        -12    1    3    3    0    0  0.11466756875E+01 -0.31901914975E+01  0.26366340956E+01  0.42946508912E+01  0.00000000000E+00 0.  1.
</event>
<event>
 7    1  0.5155466E-011  0.5052886E+02  0.7816164E-02  0.1300439E+00
        -11   -1    0    0    0    0  0.00000000000E+00  0.00000000000E+00  0.45593999997E+02  0.45594000000E+02  0.51100000000E-03 0.  1.
         11   -1    0    0    0    0 -0.00000000000E+00 -0.00000000000E+00 -0.45593999997E+02  0.45594000000E+02  0.51100000000E-03 0. -1.
    9900012    2    1    2    0    0  0.14555304338E+02 -0.31414021993E+02 -0.21318249936E+02  0.50528862743E+02  0.30000008793E+02 0.  0.
        -12    1    1    2    0    0 -0.14555304338E+02  0.31414021993E+02  0.21318249936E+02  0.40659137257E+02  0.00000000000E+00 0.  1.
         11    1    3    3    0    0 -0.46529068389E+01 -0.89703976407E+01 -0.12064541704E+01  0.10177087393E+02  0.51100000000E-03 0. -1.
        -11    1    3    3    0    0  0.15762237856E+02 -0.17181053564E+02 -0.48093504926E+01  0.23806860277E+02  0.51100000000E-03 0.  1.
        -12    1    3    3    0    0  0.34459733212E+01 -0.52625707880E+01 -0.15302445273E+02  0.16544915073E+02  0.00000000000E+00 0.  1.
</event>
<event>
 7    1  0.5155466E-011  0.5052887E+02  0.7816164E-02  0.1300439E+00
        -11   -1    0    0    0    0  0.00000000000E+00  0.00000000000E+00  0.45593999997E+02  0.45594000000E+02  0.51100000000E-03 0.  1.
         11   -1    0    0    0    0 -0.00000000000E+00 -0.00000000000E+00 -0.45593999997E+02  0.45594000000E+02  0.51100000000E-03 0. -1.
    9900012    2    1    2    0    0 -0.20429411975E+02 -0.12107052159E+02 -0.33003381167E+02  0.50528871208E+02  0.30000034524E+02 0.  0.
        -12    1    1    2    0    0  0.20429411975E+02  0.12107052159E+02  0.33003381167E+02  0.40659128792E+02  0.00000000000E+00 0.  1.
         11    1    3    3    0    0 -0.17745901219E+02 -0.14000423245E+02 -0.10088750620E+02  0.24753014977E+02  0.51100000000E-03 0. -1.
        -11    1    3    3    0    0 -0.18055242049E+01  0.66612350078E+01 -0.14649053962E+02  0.16193416926E+02  0.51100000000E-03 0.  1.
         12    1    3    3    0    0 -0.87798655136E+00 -0.47678639221E+01 -0.82655765847E+01  0.95824393054E+01  0.00000000000E+00 0. -1.
</event>
<event>
 7    1  0.5155466E-011  0.5052886E+02  0.7816164E-02  0.1300439E+00
        -11   -1    0    0    0    0  0.00000000000E+00  0.00000000000E+00  0.45593999997E+02  0.45594000000E+02  0.51100000000E-03 0. -1.
         11   -1    0    0    0    0 -0.00000000000E+00 -0.00000000000E+00 -0.45593999997E+02  0.45594000000E+02  0.51100000000E-03 0.  1.
    9900012    2    1    2    0    0  0.38661894594E+02  0.34004362327E+01  0.12118611373E+02  0.50528858325E+02  0.29999995364E+02 0.  0.
        -12    1    1    2    0    0 -0.38661894594E+02 -0.34004362327E+01 -0.12118611373E+02  0.40659141675E+02  0.00000000000E+00 0.  1.
         11    1    3    3    0    0  0.15883061887E+02 -0.64646689104E+01  0.22061569056E+01  0.17289613286E+02  0.51100000000E-03 0. -1.
        -11    1    3    3    0    0  0.11230571716E+02  0.10814870677E+02 -0.30136638409E+01  0.15879840643E+02  0.51100000000E-03 0.  1.
        -12    1    3    3    0    0  0.11548260991E+02 -0.94976553368E+00  0.12926118308E+02  0.17359404396E+02  0.00000000000E+00 0.  1.
</event>
<event>
 7    1  0.5155466E-011  0.5052886E+02  0.7816164E-02  0.1300439E+00
        -11   -1    0    0    0    0  0.00000000000E+00  0.00000000000E+00  0.45593999997E+02  0.45594000000E+02  0.51100000000E-03 0. -1.
         11   -1    0    0    0    0 -0.00000000000E+00 -0.00000000000E+00 -0.45593999997E+02  0.45594000000E+02  0.51100000000E-03 0.  1.
    9900012    2    1    2    0    0  0.33680626543E+02  0.22252677475E+02  0.48579581406E+01  0.50528855684E+02  0.29999987338E+02 0.  0.
        -12    1    1    2    0    0 -0.33680626543E+02 -0.22252677475E+02 -0.48579581406E+01  0.40659144316E+02  0.00000000000E+00 0.  1.
         11    1    3    3    0    0  0.21375769265E+02 -0.27435122379E+01  0.17590392226E+01  0.21622779431E+02  0.51100000000E-03 0. -1.
        -11    1    3    3    0    0  0.91787689689E+00  0.65506893248E+01 -0.14139801671E+01  0.67641236536E+01  0.51100000000E-03 0.  1.
         12    1    3    3    0    0  0.11386980382E+02  0.18445500388E+02  0.45128990851E+01  0.22141952600E+02  0.00000000000E+00 0. -1.
</event>
<event>
 7    1  0.5155466E-011  0.5052886E+02  0.7816164E-02  0.1300439E+00
        -11   -1    0    0    0    0  0.00000000000E+00  0.00000000000E+00  0.45593999997E+02  0.45594000000E+02  0.51100000000E-03 0.  1.
         11   -1    0    0    0    0 -0.00000000000E+00 -0.00000000000E+00 -0.45593999997E+02  0.45594000000E+02  0.51100000000E-03 0. -1.
    9900012    2    1    2    0    0 -0.71488197725E+01 -0.74735305334E+01 -0.39321835645E+02  0.50528855380E+02  0.29999986412E+02 0.  0.
        -12    1    1    2    0    0  0.71488197725E+01  0.74735305334E+01  0.39321835645E+02  0.40659144620E+02  0.00000000000E+00 0.  1.
         11    1    3    3    0    0  0.28439451516E+01 -0.70906974658E+01 -0.29203501738E+02  0.30186263906E+02  0.51100000000E-03 0. -1.
        -11    1    3    3    0    0 -0.50090382673E+01 -0.73167209132E+01 -0.68285402376E+01  0.11191685812E+02  0.51100000000E-03 0.  1.
         12    1    3    3    0    0 -0.49837266568E+01  0.69338878456E+01 -0.32897936696E+01  0.91509056619E+01  0.00000000000E+00 0. -1.
</event>
<event>
 7    1  0.5155466E-011  0.5052883E+02  0.7816164E-02  0.1300439E+00
        -11   -1    0    0    0    0  0.00000000000E+00  0.00000000000E+00  0.45593999997E+02  0.45594000000E+02  0.51100000000E-03 0.  1.
         11   -1    0    0    0    0 -0.00000000000E+00 -0.00000000000E+00 -0.45593999997E+02  0.45594000000E+02  0.51100000000E-03 0. -1.
    9900012    2    1    2    0    0 -0.25652728403E+02  0.29125259131E+02 -0.12117131275E+02  0.50528830502E+02  0.29999910794E+02 0.  0.
        -12    1    1    2    0    0  0.25652728403E+02 -0.29125259131E+02  0.12117131275E+02  0.40659169498E+02  0.00000000000E+00 0.  1.
         11    1    3    3    0    0 -0.21729452911E+02  0.17031996841E+02 -0.17799491472E+02  0.32849352157E+02  0.51100000000E-03 0. -1.
        -11    1    3    3    0    0 -0.44576301801E+01  0.13240106707E+02  0.71894185608E+01  0.15711735485E+02  0.51100000000E-03 0.  1.
        -12    1    3    3    0    0  0.53435468888E+00 -0.11468444175E+01 -0.15070583637E+01  0.19677428600E+01  0.00000000000E+00 0.  1.
</event>
<event>
 7    1  0.5155466E-011  0.5052887E+02  0.7816164E-02  0.1300439E+00
        -11   -1    0    0    0    0  0.00000000000E+00  0.00000000000E+00  0.45593999997E+02  0.45594000000E+02  0.51100000000E-03 0.  1.
         11   -1    0    0    0    0 -0.00000000000E+00 -0.00000000000E+00 -0.45593999997E+02  0.45594000000E+02  0.51100000000E-03 0. -1.
    9900012    2    1    2    0    0  0.26099064962E+02  0.28946104793E+02 -0.11581321717E+02  0.50528865881E+02  0.30000018333E+02 0.  0.
        -12    1    1    2    0    0 -0.26099064962E+02 -0.28946104793E+02  0.11581321717E+02  0.40659134119E+02  0.00000000000E+00 0.  1.
         11    1    3    3    0    0  0.20824517647E+02  0.29250470389E+02 -0.10617428985E+02  0.37443028079E+02  0.51100000000E-03 0. -1.
        -11    1    3    3    0    0  0.71195547267E+01 -0.43943863123E-01  0.37285986753E+01  0.80369421369E+01  0.51100000000E-03 0.  1.
         12    1    3    3    0    0 -0.18450074124E+01 -0.26042173248E+00 -0.46924914077E+01  0.50488956656E+01  0.00000000000E+00 0. -1.
</event>
<event>
 7    1  0.5155466E-011  0.5052885E+02  0.7816164E-02  0.1300439E+00
        -11   -1    0    0    0    0  0.00000000000E+00  0.00000000000E+00  0.45593999997E+02  0.45594000000E+02  0.51100000000E-03 0. -1.
         11   -1    0    0    0    0 -0.00000000000E+00 -0.00000000000E+00 -0.45593999997E+02  0.45594000000E+02  0.51100000000E-03 0.  1.
    9900012    2    1    2    0    0  0.26512311585E+01  0.17861937266E+02  0.36429223610E+02  0.50528853890E+02  0.29999981886E+02 0.  0.
        -12    1    1    2    0    0 -0.26512311585E+01 -0.17861937266E+02 -0.36429223610E+02  0.40659146110E+02  0.00000000000E+00 0.  1.
         11    1    3    3    0    0 -0.94790886909E+01  0.10339204954E+02  0.26082743225E+02  0.29615228783E+02  0.51100000000E-03 0. -1.
        -11    1    3    3    0    0  0.11903944165E+02  0.97508243517E+01  0.10561838316E+02  0.18663731971E+02  0.51100000000E-03 0.  1.
        -12    1    3    3    0    0  0.22637568465E+00 -0.22280920393E+01 -0.21535793097E+00  0.22498931363E+01  0.00000000000E+00 0.  1.
</event>
<event>
 7    1  0.5155466E-011  0.5052889E+02  0.7816164E-02  0.1300439E+00
        -11   -1    0    0    0    0  0.00000000000E+00  0.00000000000E+00  0.45593999997E+02  0.45594000000E+02  0.51100000000E-03 0. -1.
         11   -1    0    0    0    0 -0.00000000000E+00 -0.00000000000E+00 -0.45593999997E+02  0.45594000000E+02  0.51100000000E-03 0.  1.
    9900012    2    1    2    0    0  0.49475803627E+01 -0.39447972121E+02 -0.85171482992E+01  0.50528894364E+02  0.30000104910E+02 0.  0.
        -12    1    1    2    0    0 -0.49475803627E+01  0.39447972121E+02  0.85171482992E+01  0.40659105636E+02  0.00000000000E+00 0.  1.
         11    1    3    3    0    0 -0.82310821766E+00 -0.28823259498E+02  0.68425623550E+01  0.29635763109E+02  0.51100000000E-03 0. -1.
        -11    1    3    3    0    0  0.31151814659E+01 -0.79010932987E+00 -0.70462581485E+01  0.77445711614E+01  0.51100000000E-03 0.  1.
        -12    1    3    3    0    0  0.26555071145E+01 -0.98346032937E+01 -0.83134525057E+01  0.13148560094E+02  0.00000000000E+00 0.  1.
</event>
<event>
 7    1  0.5155466E-011  0.5052886E+02  0.7816164E-02  0.1300439E+00
        -11   -1    0    0    0    0  0.00000000000E+00  0.00000000000E+00  0.45593999997E+02  0.45594000000E+02  0.51100000000E-03 0. -1.
         11   -1    0    0    0    0 -0.00000000000E+00 -0.00000000000E+00 -0.45593999997E+02  0.45594000000E+02  0.51100000000E-03 0.  1.
    9900012    2    1    2    0    0 -0.26320009008E+02  0.32223088570E+01  0.30822713690E+02  0.50528858005E+02  0.29999994393E+02 0.  0.
        -12    1    1    2    0    0  0.26320009008E+02 -0.32223088570E+01 -0.30822713690E+02  0.40659141995E+02  0.00000000000E+00 0.  1.
         11    1    3    3    0    0 -0.22453455726E+02 -0.14717423795E+01  0.23199436793E+02  0.32319306419E+02  0.51100000000E-03 0. -1.
        -11    1    3    3    0    0 -0.77893941477E+01  0.57264782970E+01  0.10688933854E+00  0.96684352646E+01  0.51100000000E-03 0.  1.
         12    1    3    3    0    0  0.39228408655E+01 -0.10324270605E+01  0.75163875586E+01  0.85411163218E+01  0.00000000000E+00 0. -1.
</event>
<event>
 7    1  0.5155466E-011  0.5052886E+02  0.7816164E-02  0.1300439E+00
        -11   -1    0    0    0    0  0.00000000000E+00  0.00000000000E+00  0.45593999997E+02  0.45594000000E+02  0.51100000000E-03 0.  1.
         11   -1    0    0    0    0 -0.00000000000E+00 -0.00000000000E+00 -0.45593999997E+02  0.45594000000E+02  0.51100000000E-03 0. -1.
    9900012    2    1    2    0    0 -0.78083674149E+01 -0.24218199758E+02 -0.31712358282E+02  0.50528862417E+02  0.30000007803E+02 0.  0.
        -12    1    1    2    0    0  0.78083674149E+01  0.24218199758E+02  0.31712358282E+02  0.40659137583E+02  0.00000000000E+00 0.  1.
         11    1    3    3    0    0 -0.72943147062E+01 -0.32241532778E+00 -0.10054259307E+01  0.73703365079E+01  0.51100000000E-03 0. -1.
        -11    1    3    3    0    0  0.35041979039E+00 -0.26335274530E+02 -0.30853688619E+02  0.40566236949E+02  0.51100000000E-03 0.  1.
         12    1    3    3    0    0 -0.86447249915E+00  0.24394900999E+01  0.14675626772E+00  0.25922889598E+01  0.00000000000E+00 0. -1.
</event>
<event>
 7    1  0.5155466E-011  0.5052886E+02  0.7816164E-02  0.1300439E+00
        -11   -1    0    0    0    0  0.00000000000E+00  0.00000000000E+00  0.45593999997E+02  0.45594000000E+02  0.51100000000E-03 0.  1.
         11   -1    0    0    0    0 -0.00000000000E+00 -0.00000000000E+00 -0.45593999997E+02  0.45594000000E+02  0.51100000000E-03 0. -1.
    9900012    2    1    2    0    0 -0.73504105177E+01  0.39588206892E+02 -0.56490005083E+01  0.50528857529E+02  0.29999992946E+02 0.  0.
        -12    1    1    2    0    0  0.73504105177E+01 -0.39588206892E+02  0.56490005083E+01  0.40659142471E+02  0.00000000000E+00 0.  1.
         11    1    3    3    0    0  0.51507965652E+01  0.16947335751E+02 -0.79117535197E+01  0.19399452011E+02  0.51100000000E-03 0. -1.
        -11    1    3    3    0    0 -0.14775029273E+02  0.13773549197E+02 -0.32267313820E+01  0.20455413542E+02  0.51100000000E-03 0.  1.
        -12    1    3    3    0    0  0.22738221899E+01  0.88673219440E+01  0.54894843935E+01  0.10673991977E+02  0.00000000000E+00 0.  1.
</event>
<event>
 7    1  0.5155466E-011  0.5052887E+02  0.7816164E-02  0.1300439E+00
        -11   -1    0    0    0    0  0.00000000000E+00  0.00000000000E+00  0.45593999997E+02  0.45594000000E+02  0.51100000000E-03 0.  1.
         11   -1    0    0    0    0 -0.00000000000E+00 -0.00000000000E+00 -0.45593999997E+02  0.45594000000E+02  0.51100000000E-03 0. -1.
    9900012    2    1    2    0    0  0.39240662790E+01  0.19275389676E+02 -0.35584071754E+02  0.50528866882E+02  0.30000021374E+02 0.  0.
        -12    1    1    2    0    0 -0.39240662790E+01 -0.19275389676E+02  0.35584071754E+02  0.40659133118E+02  0.00000000000E+00 0.  1.
         11    1    3    3    0    0 -0.18002686498E+01  0.51329445508E+01 -0.13893246688E+02  0.14920133739E+02  0.51100000000E-03 0. -1.
        -11    1    3    3    0    0  0.13408197321E+02  0.14951136513E+02 -0.12732637567E+02  0.23778904476E+02  0.51100000000E-03 0.  1.
        -12    1    3    3    0    0 -0.76838623919E+01 -0.80869138810E+00 -0.89581874990E+01  0.11829828667E+02  0.00000000000E+00 0.  1.
</event>
<event>
 7    1  0.5155466E-011  0.5052885E+02  0.7816164E-02  0.1300439E+00
        -11   -1    0    0    0    0  0.00000000000E+00  0.00000000000E+00  0.45593999997E+02  0.45594000000E+02  0.51100000000E-03 0.  1.
         11   -1    0    0    0    0 -0.00000000000E+00 -0.00000000000E+00 -0.45593999997E+02  0.45594000000E+02  0.51100000000E-03 0. -1.
    9900012    2    1    2    0    0  0.79707515295E+01 -0.28489425465E+02 -0.27892405735E+02  0.50528849235E+02  0.29999967733E+02 0.  0.
        -12    1    1    2    0    0 -0.79707515295E+01  0.28489425465E+02  0.27892405735E+02  0.40659150765E+02  0.00000000000E+00 0.  1.
         11    1    3    3    0    0  0.17760517537E+02 -0.12356583207E+02 -0.18455722141E+02  0.28438263163E+02  0.51100000000E-03 0. -1.
        -11    1    3    3    0    0 -0.27615308955E+01 -0.46527449884E+00 -0.14132209690E+01  0.31368339156E+01  0.51100000000E-03 0.  1.
         12    1    3    3    0    0 -0.70282351122E+01 -0.15667567759E+02 -0.80234626255E+01  0.18953752156E+02  0.00000000000E+00 0. -1.
</event>
<event>
 7    1  0.5155466E-011  0.5052886E+02  0.7816164E-02  0.1300439E+00
        -11   -1    0    0    0    0  0.00000000000E+00  0.00000000000E+00  0.45593999997E+02  0.45594000000E+02  0.51100000000E-03 0.  1.
         11   -1    0    0    0    0 -0.00000000000E+00 -0.00000000000E+00 -0.45593999997E+02  0.45594000000E+02  0.51100000000E-03 0. -1.
    9900012    2    1    2    0    0  0.14282802355E+02  0.22291913078E+02 -0.30858354573E+02  0.50528857379E+02  0.29999992488E+02 0.  0.
        -12    1    1    2    0    0 -0.14282802355E+02 -0.22291913078E+02  0.30858354573E+02  0.40659142621E+02  0.00000000000E+00 0.  1.
         11    1    3    3    0    0  0.17263610126E+01  0.94245003382E+01 -0.44029889021E+01  0.10544564500E+02  0.51100000000E-03 0. -1.
        -11    1    3    3    0    0  0.49433388503E+01 -0.67267291685E+01 -0.11392379252E+02  0.14123448219E+02  0.51100000000E-03 0.  1.
        -12    1    3    3    0    0  0.76131024915E+01  0.19594141908E+02 -0.15062986419E+02  0.25860844660E+02  0.00000000000E+00 0.  1.
</event>
<event>
 7    1  0.5155466E-011  0.5052886E+02  0.7816164E-02  0.1300439E+00
        -11   -1    0    0    0    0  0.00000000000E+00  0.00000000000E+00  0.45593999997E+02  0.45594000000E+02  0.51100000000E-03 0. -1.
         11   -1    0    0    0    0 -0.00000000000E+00 -0.00000000000E+00 -0.45593999997E+02  0.45594000000E+02  0.51100000000E-03 0.  1.
    9900012    2    1    2    0    0 -0.16971949152E+02 -0.86137672593E+01  0.35929397094E+02  0.50528860561E+02  0.30000002160E+02 0.  0.
        -12    1    1    2    0    0  0.16971949152E+02  0.86137672593E+01 -0.35929397094E+02  0.40659139439E+02  0.00000000000E+00 0.  1.
         11    1    3    3    0    0 -0.36943994932E+01 -0.84487760851E+01  0.10082755908E+02  0.13663541705E+02  0.51100000000E-03 0. -1.
        -11    1    3    3    0    0 -0.16835930919E+02  0.59447477330E+00  0.79961923263E+01  0.18647816552E+02  0.51100000000E-03 0.  1.
        -12    1    3    3    0    0  0.35583812601E+01 -0.75946594757E+00  0.17850448860E+02  0.18217502304E+02  0.00000000000E+00 0.  1.
</event>
<event>
 7    1  0.5620773E-011  0.5052886E+02  0.7816164E-02  0.1300439E+00
        -11   -1    0    0    0    0  0.00000000000E+00  0.00000000000E+00  0.45593999997E+02  0.45594000000E+02  0.51100000000E-03 0. -1.
         11   -1    0    0    0    0 -0.00000000000E+00 -0.00000000000E+00 -0.45593999997E+02  0.45594000000E+02  0.51100000000E-03 0.  1.
    9900012    2    1    2    0    0  0.26328633125E+02 -0.30155024933E+02 -0.71164244818E+01  0.50528856522E+02  0.29999989885E+02 0.  0.
        -12    1    1    2    0    0 -0.26328633125E+02  0.30155024933E+02  0.71164244818E+01  0.40659143478E+02  0.00000000000E+00 0.  1.
         11    1    3    3    0    0  0.17158397007E+02 -0.34657572354E+01  0.11452426626E+01  0.17542338558E+02  0.51100000000E-03 0. -1.
        -11    1    3    3    0    0 -0.36312989455E+01 -0.86981025658E+01 -0.49887820803E+01  0.10664486260E+02  0.51100000000E-03 0.  1.
        -12    1    3    3    0    0  0.12801535063E+02 -0.17991165132E+02 -0.32728850641E+01  0.22322031704E+02  0.00000000000E+00 0.  1.
</event>
<event>
 7    1  0.5155466E-011  0.5052886E+02  0.7816164E-02  0.1300439E+00
        -11   -1    0    0    0    0  0.00000000000E+00  0.00000000000E+00  0.45593999997E+02  0.45594000000E+02  0.51100000000E-03 0.  1.
         11   -1    0    0    0    0 -0.00000000000E+00 -0.00000000000E+00 -0.45593999997E+02  0.45594000000E+02  0.51100000000E-03 0. -1.
    9900012    2    1    2    0    0  0.96620226872E+01  0.39163388903E+02 -0.51029155192E+01  0.50528862533E+02  0.30000008156E+02 0.  0.
        -12    1    1    2    0    0 -0.96620226872E+01 -0.39163388903E+02  0.51029155192E+01  0.40659137467E+02  0.00000000000E+00 0.  1.
         11    1    3    3    0    0  0.34464084175E+01  0.68845068816E+01 -0.90833924282E+01  0.11907232434E+02  0.51100000000E-03 0. -1.
        -11    1    3    3    0    0 -0.57645826171E+00  0.14664593392E+02  0.11146398822E+02  0.18428912351E+02  0.51100000000E-03 0.  1.
        -12    1    3    3    0    0  0.67920725313E+01  0.17614288629E+02 -0.71659219131E+01  0.20192717748E+02  0.00000000000E+00 0.  1.
</event>
<event>
 7    1  0.5155466E-011  0.5052886E+02  0.7816164E-02  0.1300439E+00
        -11   -1    0    0    0    0  0.00000000000E+00  0.00000000000E+00  0.45593999997E+02  0.45594000000E+02  0.51100000000E-03 0.  1.
         11   -1    0    0    0    0 -0.00000000000E+00 -0.00000000000E+00 -0.45593999997E+02  0.45594000000E+02  0.51100000000E-03 0. -1.
    9900012    2    1    2    0    0  0.35667990623E+02  0.18634223686E+02 -0.58073828027E+01  0.50528861514E+02  0.30000005056E+02 0.  0.
        -12    1    1    2    0    0 -0.35667990623E+02 -0.18634223686E+02  0.58073828027E+01  0.40659138486E+02  0.00000000000E+00 0.  1.
         11    1    3    3    0    0  0.19231089138E+02  0.21797126307E+02  0.25014537045E+00  0.29069091448E+02  0.51100000000E-03 0. -1.
        -11    1    3    3    0    0  0.41101577118E-01  0.12715886186E+01 -0.41824573760E+01  0.43716789587E+01  0.51100000000E-03 0.  1.
         12    1    3    3    0    0  0.16395799908E+02 -0.44344912393E+01 -0.18750707971E+01  0.17088091107E+02  0.00000000000E+00 0. -1.
</event>
<event>
 7    1  0.5155466E-011  0.5052886E+02  0.7816164E-02  0.1300439E+00
        -11   -1    0    0    0    0  0.00000000000E+00  0.00000000000E+00  0.45593999997E+02  0.45594000000E+02  0.51100000000E-03 0.  1.
         11   -1    0    0    0    0 -0.00000000000E+00 -0.00000000000E+00 -0.45593999997E+02  0.45594000000E+02  0.51100000000E-03 0. -1.
    9900012    2    1    2    0    0  0.20047003820E+02  0.31727302391E+02 -0.15641653349E+02  0.50528863282E+02  0.30000010432E+02 0.  0.
        -12    1    1    2    0    0 -0.20047003820E+02 -0.31727302391E+02  0.15641653349E+02  0.40659136718E+02  0.00000000000E+00 0.  1.
         11    1    3    3    0    0  0.13898178590E+02  0.51263999974E+01  0.65423504707E+00  0.14827925304E+02  0.51100000000E-03 0.  1.
        -11    1    3    3    0    0  0.30541926216E+01  0.24796331342E+02 -0.73159971779E+01  0.26032862992E+02  0.51100000000E-03 0. -1.
         12    1    3    3    0    0  0.30946326083E+01  0.18045710522E+01 -0.89798912178E+01  0.96680749866E+01  0.00000000000E+00 0. -1.
</event>
<event>
 7    1  0.5155466E-011  0.5052887E+02  0.7816164E-02  0.1300439E+00
        -11   -1    0    0    0    0  0.00000000000E+00  0.00000000000E+00  0.45593999997E+02  0.45594000000E+02  0.51100000000E-03 0. -1.
         11   -1    0    0    0    0 -0.00000000000E+00 -0.00000000000E+00 -0.45593999997E+02  0.45594000000E+02  0.51100000000E-03 0.  1.
    9900012    2    1    2    0    0  0.15284563549E+02 -0.64043339885E+01  0.37128585459E+02  0.50528865295E+02  0.30000016552E+02 0.  0.
        -12    1    1    2    0    0 -0.15284563549E+02  0.64043339885E+01 -0.37128585459E+02  0.40659134705E+02  0.00000000000E+00 0.  1.
         11    1    3    3    0    0  0.13117289172E+02 -0.10465945877E+02  0.15779315698E+02  0.23034454682E+02  0.51100000000E-03 0. -1.
        -11    1    3    3    0    0 -0.18017292858E+01  0.80842495565E+01  0.39037488690E+01  0.91564499018E+01  0.51100000000E-03 0.  1.
         12    1    3    3    0    0  0.39690036634E+01 -0.40226376679E+01  0.17445520892E+02  0.18337960712E+02  0.00000000000E+00 0. -1.
</event>
<event>
 7    1  0.5155466E-011  0.5052885E+02  0.7816164E-02  0.1300439E+00
        -11   -1    0    0    0    0  0.00000000000E+00  0.00000000000E+00  0.45593999997E+02  0.45594000000E+02  0.51100000000E-03 0.  1.
         11   -1    0    0    0    0 -0.00000000000E+00 -0.00000000000E+00 -0.45593999997E+02  0.45594000000E+02  0.51100000000E-03 0. -1.
    9900012    2    1    2    0    0 -0.12998983506E+02  0.71515657621E+01 -0.37855620627E+02  0.50528850007E+02  0.29999970083E+02 0.  0.
        -12    1    1    2    0    0  0.12998983506E+02 -0.71515657621E+01  0.37855620627E+02  0.40659149993E+02  0.00000000000E+00 0.  1.
         11    1    3    3    0    0 -0.11196999153E+02 -0.54864776401E+01 -0.17181571869E+02  0.21229240191E+02  0.51100000000E-03 0. -1.
        -11    1    3    3    0    0  0.50434936567E+00  0.16039491877E+02 -0.18979319902E+02  0.24854260242E+02  0.51100000000E-03 0.  1.
         12    1    3    3    0    0 -0.23063337185E+01 -0.34014484747E+01 -0.16947288562E+01  0.44453495749E+01  0.00000000000E+00 0. -1.
</event>
<event>
 7    1  0.6304821E-011  0.5052886E+02  0.7816164E-02  0.1300439E+00
        -11   -1    0    0    0    0  0.00000000000E+00  0.00000000000E+00  0.45593999997E+02  0.45594000000E+02  0.51100000000E-03 0. -1.
         11   -1    0    0    0    0 -0.00000000000E+00 -0.00000000000E+00 -0.45593999997E+02  0.45594000000E+02  0.51100000000E-03 0.  1.
    9900012    2    1    2    0    0  0.25796803375E+02 -0.30398756216E+01  0.31280176907E+02  0.50528863567E+02  0.30000011297E+02 0.  0.
        -12    1    1    2    0    0 -0.25796803375E+02  0.30398756216E+01 -0.31280176907E+02  0.40659136433E+02  0.00000000000E+00 0.  1.
         11    1    3    3    0    0  0.37568090676E+01 -0.24177542975E+01  0.80542030714E+01  0.92102843382E+01  0.51100000000E-03 0. -1.
        -11    1    3    3    0    0  0.10190707306E+01  0.86218523163E+01  0.35027536299E-01  0.86819392826E+01  0.51100000000E-03 0.  1.
        -12    1    3    3    0    0  0.21020923577E+02 -0.92439736404E+01  0.23190946299E+02  0.32636639946E+02  0.00000000000E+00 0.  1.
</event>
<event>
 7    1  0.5155466E-011  0.5052888E+02  0.7816164E-02  0.1300439E+00
        -11   -1    0    0    0    0  0.00000000000E+00  0.00000000000E+00  0.45593999997E+02  0.45594000000E+02  0.51100000000E-03 0.  1.
         11   -1    0    0    0    0 -0.00000000000E+00 -0.00000000000E+00 -0.45593999997E+02  0.45594000000E+02  0.51100000000E-03 0. -1.
    9900012    2    1    2    0    0 -0.30962820401E+01  0.30829436738E+02 -0.26327221869E+02  0.50528883637E+02  0.30000072303E+02 0.  0.
        -12    1    1    2    0    0  0.30962820401E+01 -0.30829436738E+02  0.26327221869E+02  0.40659116363E+02  0.00000000000E+00 0.  1.
         11    1    3    3    0    0  0.76618367676E+01 -0.14612333630E+01 -0.51808720138E+01  0.93637802558E+01  0.51100000000E-03 0. -1.
        -11    1    3    3    0    0 -0.91158354457E+01  0.15786493063E+02 -0.75992462838E+01  0.19749945910E+02  0.51100000000E-03 0.  1.
         12    1    3    3    0    0 -0.16422833620E+01  0.16504177038E+02 -0.13547103572E+02  0.21415157472E+02  0.00000000000E+00 0. -1.
</event>
<event>
 7    1  0.5155466E-011  0.5052885E+02  0.7816164E-02  0.1300439E+00
        -11   -1    0    0    0    0  0.00000000000E+00  0.00000000000E+00  0.45593999997E+02  0.45594000000E+02  0.51100000000E-03 0. -1.
         11   -1    0    0    0    0 -0.00000000000E+00 -0.00000000000E+00 -0.45593999997E+02  0.45594000000E+02  0.51100000000E-03 0.  1.
    9900012    2    1    2    0    0 -0.34614321991E+02 -0.19438854048E+02  0.87832932051E+01  0.50528848839E+02  0.29999966532E+02 0.  0.
        -12    1    1    2    0    0  0.34614321991E+02  0.19438854048E+02 -0.87832932051E+01  0.40659151161E+02  0.00000000000E+00 0.  1.
         11    1    3    3    0    0 -0.68464781335E+00 -0.11401176766E+02  0.53641899831E+01  0.12618641318E+02  0.51100000000E-03 0. -1.
        -11    1    3    3    0    0 -0.25529600295E+02  0.32924975007E+00  0.47831984089E+01  0.25975909684E+02  0.51100000000E-03 0.  1.
        -12    1    3    3    0    0 -0.84000738825E+01 -0.83669270324E+01 -0.13640951868E+01  0.11934297838E+02  0.00000000000E+00 0.  1.
</event>
<event>
 7    1  0.6202840E-011  0.5052885E+02  0.7816164E-02  0.1300439E+00
        -11   -1    0    0    0    0  0.00000000000E+00  0.00000000000E+00  0.45593999997E+02  0.45594000000E+02  0.51100000000E-03 0.  1.
         11   -1    0    0    0    0 -0.00000000000E+00 -0.00000000000E+00 -0.45593999997E+02  0.45594000000E+02  0.51100000000E-03 0. -1.
    9900012    2    1    2    0    0  0.28155107316E+02 -0.29280336068E+02 -0.17657817097E+01  0.50528854248E+02  0.29999982972E+02 0.  0.
        -12    1    1    2    0    0 -0.28155107316E+02  0.29280336068E+02  0.17657817097E+01  0.40659145752E+02  0.00000000000E+00 0.  1.
         11    1    3    3    0    0  0.75818117578E+01 -0.13852900204E+02 -0.92320842166E+00  0.15818945212E+02  0.51100000000E-03 0. -1.
        -11    1    3    3    0    0 -0.22908077106E+01  0.30574085851E+01 -0.35093270217E+01  0.51875739638E+01  0.51100000000E-03 0.  1.
        -12    1    3    3    0    0  0.22864103269E+02 -0.18484844449E+02  0.26667537338E+01  0.29522335072E+02  0.00000000000E+00 0.  1.
</event>
<event>
 7    1  0.5155466E-011  0.5052886E+02  0.7816164E-02  0.1300439E+00
        -11   -1    0    0    0    0  0.00000000000E+00  0.00000000000E+00  0.45593999997E+02  0.45594000000E+02  0.51100000000E-03 0. -1.
         11   -1    0    0    0    0 -0.00000000000E+00 -0.00000000000E+00 -0.45593999997E+02  0.45594000000E+02  0.51100000000E-03 0.  1.
    9900012    2    1    2    0    0  0.34753265307E+02 -0.20673897107E+02 -0.42386600898E+01  0.50528859448E+02  0.29999998777E+02 0.  0.
        -12    1    1    2    0    0 -0.34753265307E+02  0.20673897107E+02  0.42386600898E+01  0.40659140552E+02  0.00000000000E+00 0.  1.
         11    1    3    3    0    0  0.21397797155E+02 -0.60535544428E+01  0.59042111356E+00  0.22245445418E+02  0.51100000000E-03 0. -1.
        -11    1    3    3    0    0  0.18802738754E+01 -0.12369459451E+02 -0.94811977292E+01  0.15698154911E+02  0.51100000000E-03 0.  1.
        -12    1    3    3    0    0  0.11475194277E+02 -0.22508832133E+01  0.46521165259E+01  0.12585259119E+02  0.00000000000E+00 0.  1.
</event>
<event>
 7    1  0.5155466E-011  0.5052887E+02  0.7816164E-02  0.1300439E+00
        -11   -1    0    0    0    0  0.00000000000E+00  0.00000000000E+00  0.45593999997E+02  0.45594000000E+02  0.51100000000E-03 0. -1.
         11   -1    0    0    0    0 -0.00000000000E+00 -0.00000000000E+00 -0.45593999997E+02  0.45594000000E+02  0.51100000000E-03 0.  1.
    9900012    2    1    2    0    0  0.19529025367E+02  0.30177788116E+02 -0.19002194814E+02  0.50528866523E+02  0.30000020284E+02 0.  0.
        -12    1    1    2    0    0 -0.19529025367E+02 -0.30177788116E+02  0.19002194814E+02  0.40659133477E+02  0.00000000000E+00 0.  1.
         11    1    3    3    0    0  0.44476085811E+01  0.12289133819E+01 -0.36730137551E+01  0.58976673776E+01  0.51100000000E-03 0. -1.
        -11    1    3    3    0    0  0.77295136306E+01  0.31097616031E+02 -0.60685187357E+01  0.32613402516E+02  0.51100000000E-03 0.  1.
        -12    1    3    3    0    0  0.73519031552E+01 -0.21487412968E+01 -0.92606623234E+01  0.12017796630E+02  0.00000000000E+00 0.  1.
</event>
<event>
 7    1  0.5155466E-011  0.5052886E+02  0.7816164E-02  0.1300439E+00
        -11   -1    0    0    0    0  0.00000000000E+00  0.00000000000E+00  0.45593999997E+02  0.45594000000E+02  0.51100000000E-03 0.  1.
         11   -1    0    0    0    0 -0.00000000000E+00 -0.00000000000E+00 -0.45593999997E+02  0.45594000000E+02  0.51100000000E-03 0. -1.
    9900012    2    1    2    0    0 -0.12046499024E+01  0.24946770273E+02 -0.32083846460E+02  0.50528859181E+02  0.29999997967E+02 0.  0.
        -12    1    1    2    0    0  0.12046499024E+01 -0.24946770273E+02  0.32083846460E+02  0.40659140819E+02  0.00000000000E+00 0.  1.
         11    1    3    3    0    0 -0.58834051432E+01  0.23077321367E+02 -0.20939519613E+02  0.31711838475E+02  0.51100000000E-03 0. -1.
        -11    1    3    3    0    0 -0.12364635401E+01 -0.46953907747E+01 -0.35158365261E+00  0.48681770653E+01  0.51100000000E-03 0.  1.
        -12    1    3    3    0    0  0.59152187809E+01  0.65648396807E+01 -0.10792743195E+02  0.13948843641E+02  0.00000000000E+00 0.  1.
</event>
<event>
 7    1  0.5155466E-011  0.5052885E+02  0.7816164E-02  0.1300439E+00
        -11   -1    0    0    0    0  0.00000000000E+00  0.00000000000E+00  0.45593999997E+02  0.45594000000E+02  0.51100000000E-03 0. -1.
         11   -1    0    0    0    0 -0.00000000000E+00 -0.00000000000E+00 -0.45593999997E+02  0.45594000000E+02  0.51100000000E-03 0.  1.
    9900012    2    1    2    0    0 -0.84409099229E+01  0.38645771502E+02 -0.94032791095E+01  0.50528852526E+02  0.29999977737E+02 0.  0.
        -12    1    1    2    0    0  0.84409099229E+01 -0.38645771502E+02  0.94032791095E+01  0.40659147474E+02  0.00000000000E+00 0.  1.
         11    1    3    3    0    0 -0.41026672112E+01  0.22205321868E+00  0.38969285060E+01  0.56627941796E+01  0.51100000000E-03 0. -1.
        -11    1    3    3    0    0  0.39379368172E+01  0.21740266117E+02 -0.14126791984E+02  0.26224278240E+02  0.51100000000E-03 0.  1.
        -12    1    3    3    0    0 -0.82761795288E+01  0.16683452167E+02  0.82658436889E+00  0.18641780106E+02  0.00000000000E+00 0.  1.
</event>
<event>
 7    1  0.5155466E-011  0.5052885E+02  0.7816164E-02  0.1300439E+00
        -11   -1    0    0    0    0  0.00000000000E+00  0.00000000000E+00  0.45593999997E+02  0.45594000000E+02  0.51100000000E-03 0.  1.
         11   -1    0    0    0    0 -0.00000000000E+00 -0.00000000000E+00 -0.45593999997E+02  0.45594000000E+02  0.51100000000E-03 0. -1.
    9900012    2    1    2    0    0 -0.21293363833E+02  0.14142432771E+02 -0.31618831563E+02  0.50528852722E+02  0.29999978333E+02 0.  0.
        -12    1    1    2    0    0  0.21293363833E+02 -0.14142432771E+02  0.31618831563E+02  0.40659147278E+02  0.00000000000E+00 0.  1.
         11    1    3    3    0    0 -0.21941890007E+02  0.56134789881E+01 -0.10267371495E+02  0.24867179195E+02  0.51100000000E-03 0. -1.
        -11    1    3    3    0    0  0.86484835728E+00 -0.27432932883E+01 -0.32888512471E+01  0.43692291692E+01  0.51100000000E-03 0.  1.
         12    1    3    3    0    0 -0.21632218270E+00  0.11272247071E+02 -0.18062608821E+02  0.21292444358E+02  0.00000000000E+00 0. -1.
</event>
<event>
 7    1  0.5155466E-011  0.5052887E+02  0.7816164E-02  0.1300439E+00
        -11   -1    0    0    0    0  0.00000000000E+00  0.00000000000E+00  0.45593999997E+02  0.45594000000E+02  0.51100000000E-03 0.  1.
         11   -1    0    0    0    0 -0.00000000000E+00 -0.00000000000E+00 -0.45593999997E+02  0.45594000000E+02  0.51100000000E-03 0. -1.
    9900012    2    1    2    0    0 -0.25068823978E+02  0.19820440347E+02 -0.25137013317E+02  0.50528865360E+02  0.30000016748E+02 0.  0.
        -12    1    1    2    0    0  0.25068823978E+02 -0.19820440347E+02  0.25137013317E+02  0.40659134640E+02  0.00000000000E+00 0.  1.
         11    1    3    3    0    0 -0.21017919779E+02  0.78581293752E+01 -0.89188755299E+01  0.24146417748E+02  0.51100000000E-03 0. -1.
        -11    1    3    3    0    0  0.21827751349E+01 -0.15520876596E+01 -0.98269094667E+01  0.10185363681E+02  0.51100000000E-03 0.  1.
        -12    1    3    3    0    0 -0.62336793339E+01  0.13514398631E+02 -0.63912283207E+01  0.16197083930E+02  0.00000000000E+00 0.  1.
</event>
<event>
 7    1  0.5155466E-011  0.5052886E+02  0.7816164E-02  0.1300439E+00
        -11   -1    0    0    0    0  0.00000000000E+00  0.00000000000E+00  0.45593999997E+02  0.45594000000E+02  0.51100000000E-03 0.  1.
         11   -1    0    0    0    0 -0.00000000000E+00 -0.00000000000E+00 -0.45593999997E+02  0.45594000000E+02  0.51100000000E-03 0. -1.
    9900012    2    1    2    0    0  0.26731626439E+02 -0.29990831949E+02 -0.62558912960E+01  0.50528855530E+02  0.29999986870E+02 0.  0.
        -12    1    1    2    0    0 -0.26731626439E+02  0.29990831949E+02  0.62558912960E+01  0.40659144470E+02  0.00000000000E+00 0.  1.
         11    1    3    3    0    0  0.24930763690E+02 -0.20862949304E+02  0.36653718233E+01  0.32714531675E+02  0.51100000000E-03 0. -1.
        -11    1    3    3    0    0  0.19162088155E+01 -0.94908080983E+01 -0.12159732515E+02  0.15543692923E+02  0.51100000000E-03 0.  1.
         12    1    3    3    0    0 -0.11534606645E+00  0.36292545354E+00  0.22384693952E+01  0.22706309328E+01  0.00000000000E+00 0. -1.
</event>
<event>
 7    1  0.5155466E-011  0.5052889E+02  0.7816164E-02  0.1300439E+00
        -11   -1    0    0    0    0  0.00000000000E+00  0.00000000000E+00  0.45593999997E+02  0.45594000000E+02  0.51100000000E-03 0.  1.
         11   -1    0    0    0    0 -0.00000000000E+00 -0.00000000000E+00 -0.45593999997E+02  0.45594000000E+02  0.51100000000E-03 0. -1.
    9900012    2    1    2    0    0 -0.60139391687E+01 -0.10727248238E+02 -0.38754641257E+02  0.50528886163E+02  0.30000079980E+02 0.  0.
        -12    1    1    2    0    0  0.60139391687E+01  0.10727248238E+02  0.38754641257E+02  0.40659113837E+02  0.00000000000E+00 0.  1.
         11    1    3    3    0    0 -0.23942996752E+00 -0.82344498489E+01 -0.25566902482E+02  0.26861310352E+02  0.51100000000E-03 0. -1.
        -11    1    3    3    0    0 -0.89001143954E+01  0.53867781505E+01 -0.10484702724E+02  0.14770186409E+02  0.51100000000E-03 0.  1.
         12    1    3    3    0    0  0.31256051943E+01 -0.78795765397E+01 -0.27030360510E+01  0.88973894019E+01  0.00000000000E+00 0. -1.
</event>
<event>
 7    1  0.5155466E-011  0.5052886E+02  0.7816164E-02  0.1300439E+00
        -11   -1    0    0    0    0  0.00000000000E+00  0.00000000000E+00  0.45593999997E+02  0.45594000000E+02  0.51100000000E-03 0.  1.
         11   -1    0    0    0    0 -0.00000000000E+00 -0.00000000000E+00 -0.45593999997E+02  0.45594000000E+02  0.51100000000E-03 0. -1.
    9900012    2    1    2    0    0 -0.91444733164E+01  0.39068987956E+02 -0.65695137147E+01  0.50528859299E+02  0.29999998324E+02 0.  0.
        -12    1    1    2    0    0  0.91444733164E+01 -0.39068987956E+02  0.65695137147E+01  0.40659140701E+02  0.00000000000E+00 0.  1.
         11    1    3    3    0    0 -0.36014991886E+01  0.22817062442E+02  0.23938303878E+01  0.23223254705E+02  0.51100000000E-03 0. -1.
        -11    1    3    3    0    0 -0.97866986501E+01  0.11929162974E+02 -0.12873920456E+02  0.20095328509E+02  0.51100000000E-03 0.  1.
        -12    1    3    3    0    0  0.42437245223E+01  0.43227625397E+01  0.39105763536E+01  0.72102760844E+01  0.00000000000E+00 0.  1.
</event>
<event>
 7    1  0.5155466E-011  0.5052887E+02  0.7816164E-02  0.1300439E+00
        -11   -1    0    0    0    0  0.00000000000E+00  0.00000000000E+00  0.45593999997E+02  0.45594000000E+02  0.51100000000E-03 0.  1.
         11   -1    0    0    0    0 -0.00000000000E+00 -0.00000000000E+00 -0.45593999997E+02  0.45594000000E+02  0.51100000000E-03 0. -1.
    9900012    2    1    2    0    0 -0.30096322925E+02 -0.26942373626E+02  0.46351186070E+01  0.50528874644E+02  0.30000044968E+02 0.  0.
        -12    1    1    2    0    0  0.30096322925E+02  0.26942373626E+02 -0.46351186070E+01  0.40659125356E+02  0.00000000000E+00 0.  1.
         11    1    3    3    0    0 -0.36531783170E+01 -0.37433561770E+01  0.64666478736E+00  0.52703513064E+01  0.51100000000E-03 0. -1.
        -11    1    3    3    0    0 -0.18570084575E+02 -0.28736716580E+02  0.74736300386E+01  0.35021451528E+02  0.51100000000E-03 0.  1.
        -12    1    3    3    0    0 -0.78730600332E+01  0.55376991314E+01 -0.34851762190E+01  0.10237071810E+02  0.00000000000E+00 0.  1.
</event>
<event>
 7    1  0.5155466E-011  0.5052885E+02  0.7816164E-02  0.1300439E+00
        -11   -1    0    0    0    0  0.00000000000E+00  0.00000000000E+00  0.45593999997E+02  0.45594000000E+02  0.51100000000E-03 0. -1.
         11   -1    0    0    0    0 -0.00000000000E+00 -0.00000000000E+00 -0.45593999997E+02  0.45594000000E+02  0.51100000000E-03 0.  1.
    9900012    2    1    2    0    0 -0.30509789612E+02 -0.20352537672E+02  0.17552579764E+02  0.50528854556E+02  0.29999983909E+02 0.  0.
        -12    1    1    2    0    0  0.30509789612E+02  0.20352537672E+02 -0.17552579764E+02  0.40659145444E+02  0.00000000000E+00 0.  1.
         11    1    3    3    0    0 -0.11917054018E+02 -0.13708621378E+02  0.57977543444E+01  0.19067155851E+02  0.51100000000E-03 0. -1.
        -11    1    3    3    0    0  0.38480043554E+01 -0.40620297783E+00  0.65315604438E+01  0.75916678319E+01  0.51100000000E-03 0.  1.
        -12    1    3    3    0    0 -0.22440739949E+02 -0.62377133164E+01  0.52232649754E+01  0.23870030873E+02  0.00000000000E+00 0.  1.
</event>
<event>
 7    1  0.5155466E-011  0.5052886E+02  0.7816164E-02  0.1300439E+00
        -11   -1    0    0    0    0  0.00000000000E+00  0.00000000000E+00  0.45593999997E+02  0.45594000000E+02  0.51100000000E-03 0.  1.
         11   -1    0    0    0    0 -0.00000000000E+00 -0.00000000000E+00 -0.45593999997E+02  0.45594000000E+02  0.51100000000E-03 0. -1.
    9900012    2    1    2    0    0  0.39476227956E+02 -0.31858986862E+00 -0.97309753634E+01  0.50528856445E+02  0.29999989650E+02 0.  0.
        -12    1    1    2    0    0 -0.39476227956E+02  0.31858986862E+00  0.97309753634E+01  0.40659143555E+02  0.00000000000E+00 0.  1.
         11    1    3    3    0    0  0.36782079797E+02 -0.50932860573E+01 -0.63868949264E+01  0.37678314507E+02  0.51100000000E-03 0. -1.
        -11    1    3    3    0    0 -0.17332145934E+01  0.63635984446E+01 -0.45278224792E+01  0.80000371659E+01  0.51100000000E-03 0.  1.
        -12    1    3    3    0    0  0.44273627519E+01 -0.15889022560E+01  0.11837420422E+01  0.48505047716E+01  0.00000000000E+00 0.  1.
</event>
<event>
 7    1  0.5155466E-011  0.5052884E+02  0.7816164E-02  0.1300439E+00
        -11   -1    0    0    0    0  0.00000000000E+00  0.00000000000E+00  0.45593999997E+02  0.45594000000E+02  0.51100000000E-03 0.  1.
         11   -1    0    0    0    0 -0.00000000000E+00 -0.00000000000E+00 -0.45593999997E+02  0.45594000000E+02  0.51100000000E-03 0. -1.
    9900012    2    1    2    0    0 -0.32342396919E+02 -0.24528165370E+02 -0.23463878515E+01  0.50528842719E+02  0.29999947928E+02 0.  0.
        -12    1    1    2    0    0  0.32342396919E+02  0.24528165370E+02  0.23463878515E+01  0.40659157281E+02  0.00000000000E+00 0.  1.
         11    1    3    3    0    0 -0.25901024012E+02 -0.19207434612E+02  0.10382097997E+01  0.32262462229E+02  0.51100000000E-03 0. -1.
        -11    1    3    3    0    0  0.20961031965E+01  0.40916466622E+01 -0.31200948060E+01  0.55560969104E+01  0.51100000000E-03 0.  1.
        -12    1    3    3    0    0 -0.85374761038E+01 -0.94123774199E+01 -0.26450284519E+00  0.12710283580E+02  0.00000000000E+00 0.  1.
</event>
<event>
 7    1  0.5155466E-011  0.5052887E+02  0.7816164E-02  0.1300439E+00
        -11   -1    0    0    0    0  0.00000000000E+00  0.00000000000E+00  0.45593999997E+02  0.45594000000E+02  0.51100000000E-03 0.  1.
         11   -1    0    0    0    0 -0.00000000000E+00 -0.00000000000E+00 -0.45593999997E+02  0.45594000000E+02  0.51100000000E-03 0. -1.
    9900012    2    1    2    0    0  0.27428724936E+02 -0.71019887624E+01 -0.29161476382E+02  0.50528869405E+02  0.30000029042E+02 0.  0.
        -12    1    1    2    0    0 -0.27428724936E+02  0.71019887624E+01  0.29161476382E+02  0.40659130595E+02  0.00000000000E+00 0.  1.
         11    1    3    3    0    0  0.20942467575E+02 -0.18813277235E+01 -0.14240644358E+02  0.25395320319E+02  0.51100000000E-03 0. -1.
        -11    1    3    3    0    0 -0.64241203427E+01 -0.13651143932E+01 -0.65256329146E+01  0.92583337962E+01  0.51100000000E-03 0.  1.
         12    1    3    3    0    0  0.12910377704E+02 -0.38555466457E+01 -0.83951991097E+01  0.15875215290E+02  0.00000000000E+00 0. -1.
</event>
<event>
 7    1  0.5155466E-011  0.5052885E+02  0.7816164E-02  0.1300439E+00
        -11   -1    0    0    0    0  0.00000000000E+00  0.00000000000E+00  0.45593999997E+02  0.45594000000E+02  0.51100000000E-03 0. -1.
         11   -1    0    0    0    0 -0.00000000000E+00 -0.00000000000E+00 -0.45593999997E+02  0.45594000000E+02  0.51100000000E-03 0.  1.
    9900012    2    1    2    0    0 -0.21908264133E+02  0.20697739827E+02  0.27290985315E+02  0.50528851574E+02  0.29999974845E+02 0.  0.
        -12    1    1    2    0    0  0.21908264133E+02 -0.20697739827E+02 -0.27290985315E+02  0.40659148426E+02  0.00000000000E+00 0.  1.
         11    1    3    3    0    0  0.25578507442E+01  0.61401255332E+01  0.91716962375E+00  0.67145321783E+01  0.51100000000E-03 0. -1.
        -11    1    3    3    0    0 -0.13797534323E+02 -0.89291328962E+00  0.35786517546E+01  0.14282016530E+02  0.51100000000E-03 0.  1.
        -12    1    3    3    0    0 -0.10668580554E+02  0.15450527584E+02  0.22795163936E+02  0.29532302866E+02  0.00000000000E+00 0.  1.
</event>
<event>
 7    1  0.5155466E-011  0.5052886E+02  0.7816164E-02  0.1300439E+00
        -11   -1    0    0    0    0  0.00000000000E+00  0.00000000000E+00  0.45593999997E+02  0.45594000000E+02  0.51100000000E-03 0.  1.
         11   -1    0    0    0    0 -0.00000000000E+00 -0.00000000000E+00 -0.45593999997E+02  0.45594000000E+02  0.51100000000E-03 0. -1.
    9900012    2    1    2    0    0  0.30857674235E+02  0.22625741070E+02  0.13749381472E+02  0.50528859465E+02  0.29999998831E+02 0.  0.
        -12    1    1    2    0    0 -0.30857674235E+02 -0.22625741070E+02 -0.13749381472E+02  0.40659140535E+02  0.00000000000E+00 0.  1.
         11    1    3    3    0    0  0.11784540725E-01 -0.41599107675E+01 -0.15396051286E+01  0.44356939346E+01  0.51100000000E-03 0. -1.
        -11    1    3    3    0    0  0.10912773245E+02  0.16135869532E+02  0.12908458589E+02  0.23368423329E+02  0.51100000000E-03 0.  1.
         12    1    3    3    0    0  0.19933116449E+02  0.10649782306E+02  0.23805280108E+01  0.22724742202E+02  0.00000000000E+00 0. -1.
</event>
<event>
 7    1  0.5155466E-011  0.5052886E+02  0.7816164E-02  0.1300439E+00
        -11   -1    0    0    0    0  0.00000000000E+00  0.00000000000E+00  0.45593999997E+02  0.45594000000E+02  0.51100000000E-03 0. -1.
         11   -1    0    0    0    0 -0.00000000000E+00 -0.00000000000E+00 -0.45593999997E+02  0.45594000000E+02  0.51100000000E-03 0.  1.
    9900012    2    1    2    0    0 -0.76861656341E+01  0.39924827384E+02 -0.31120284807E+00  0.50528857965E+02  0.29999994270E+02 0.  0.
        -12    1    1    2    0    0  0.76861656341E+01 -0.39924827384E+02  0.31120284807E+00  0.40659142035E+02  0.00000000000E+00 0.  1.
         11    1    3    3    0    0 -0.14316215652E+02  0.20161678126E+02 -0.19264484994E+01  0.24802388989E+02  0.51100000000E-03 0. -1.
        -11    1    3    3    0    0  0.39891647508E+01  0.14335950294E+02 -0.59694871690E+01  0.16033330395E+02  0.51100000000E-03 0.  1.
        -12    1    3    3    0    0  0.26408852672E+01  0.54271989642E+01  0.75847328203E+01  0.96931385809E+01  0.00000000000E+00 0.  1.
</event>
<event>
 7    1  0.5155466E-011  0.5052886E+02  0.7816164E-02  0.1300439E+00
        -11   -1    0    0    0    0  0.00000000000E+00  0.00000000000E+00  0.45593999997E+02  0.45594000000E+02  0.51100000000E-03 0.  1.
         11   -1    0    0    0    0 -0.00000000000E+00 -0.00000000000E+00 -0.45593999997E+02  0.45594000000E+02  0.51100000000E-03 0. -1.
    9900012    2    1    2    0    0  0.12962631424E+02  0.49260062959E+01 -0.38221335002E+02  0.50528858337E+02  0.29999995400E+02 0.  0.
        -12    1    1    2    0    0 -0.12962631424E+02 -0.49260062959E+01  0.38221335002E+02  0.40659141663E+02  0.00000000000E+00 0.  1.
         11    1    3    3    0    0 -0.44273314759E+01  0.84174113227E+01 -0.10567507672E+02  0.14217112788E+02  0.51100000000E-03 0. -1.
        -11    1    3    3    0    0  0.54091197591E+01 -0.14765571882E+01  0.51899588038E+00  0.56309994391E+01  0.51100000000E-03 0.  1.
         12    1    3    3    0    0  0.11980843141E+02 -0.20148478386E+01 -0.28172823210E+02  0.30680746109E+02  0.00000000000E+00 0. -1.
</event>
<event>
 7    1  0.5155466E-011  0.5052884E+02  0.7816164E-02  0.1300439E+00
        -11   -1    0    0    0    0  0.00000000000E+00  0.00000000000E+00  0.45593999997E+02  0.45594000000E+02  0.51100000000E-03 0.  1.
         11   -1    0    0    0    0 -0.00000000000E+00 -0.00000000000E+00 -0.45593999997E+02  0.45594000000E+02  0.51100000000E-03 0. -1.
    9900012    2    1    2    0    0  0.10355193747E+02 -0.19244540729E+02 -0.34286800486E+02  0.50528842692E+02  0.29999947847E+02 0.  0.
        -12    1    1    2    0    0 -0.10355193747E+02  0.19244540729E+02  0.34286800486E+02  0.40659157308E+02  0.00000000000E+00 0.  1.
         11    1    3    3    0    0  0.13202607534E+01 -0.22380607787E+02 -0.12187895220E+02  0.25518218659E+02  0.51100000000E-03 0. -1.
        -11    1    3    3    0    0  0.18028212723E+01  0.31736091920E+01 -0.12310989557E+02  0.12840655122E+02  0.51100000000E-03 0.  1.
         12    1    3    3    0    0  0.72321117210E+01 -0.37542134082E-01 -0.97879157100E+01  0.12169968911E+02  0.00000000000E+00 0. -1.
</event>
<event>
 7    1  0.5155466E-011  0.5052889E+02  0.7816164E-02  0.1300439E+00
        -11   -1    0    0    0    0  0.00000000000E+00  0.00000000000E+00  0.45593999997E+02  0.45594000000E+02  0.51100000000E-03 0. -1.
         11   -1    0    0    0    0 -0.00000000000E+00 -0.00000000000E+00 -0.45593999997E+02  0.45594000000E+02  0.51100000000E-03 0.  1.
    9900012    2    1    2    0    0  0.38563106053E+02 -0.12803116655E+02  0.14596487182E+01  0.50528886398E+02  0.30000080694E+02 0.  0.
        -12    1    1    2    0    0 -0.38563106053E+02  0.12803116655E+02 -0.14596487182E+01  0.40659113602E+02  0.00000000000E+00 0.  1.
         11    1    3    3    0    0  0.20705281543E+02 -0.33709594838E+01  0.81508012194E+00  0.20993723049E+02  0.51100000000E-03 0. -1.
        -11    1    3    3    0    0  0.39784782052E+01 -0.18970299971E+00  0.97527221996E+01  0.10534698222E+02  0.51100000000E-03 0.  1.
        -12    1    3    3    0    0  0.13879346305E+02 -0.92424541712E+01 -0.91081536033E+01  0.19000465127E+02  0.00000000000E+00 0.  1.
</event>
<event>
 7    1  0.5155466E-011  0.5052884E+02  0.7816164E-02  0.1300439E+00
        -11   -1    0    0    0    0  0.00000000000E+00  0.00000000000E+00  0.45593999997E+02  0.45594000000E+02  0.51100000000E-03 0.  1.
         11   -1    0    0    0    0 -0.00000000000E+00 -0.00000000000E+00 -0.45593999997E+02  0.45594000000E+02  0.51100000000E-03 0. -1.
    9900012    2    1    2    0    0 -0.18839795007E+02 -0.34398022648E+02 -0.10724043499E+02  0.50528844242E+02  0.29999952558E+02 0.  0.
        -12    1    1    2    0    0  0.18839795007E+02  0.34398022648E+02  0.10724043499E+02  0.40659155758E+02  0.00000000000E+00 0.  1.
         11    1    3    3    0    0 -0.18987173215E+02 -0.82810605650E+01 -0.46705089880E+01  0.21234461737E+02  0.51100000000E-03 0.  1.
        -11    1    3    3    0    0  0.15801431763E+01 -0.23820232068E+02 -0.14035002756E+01  0.23913806086E+02  0.51100000000E-03 0. -1.
        -12    1    3    3    0    0 -0.14327649687E+01 -0.22967300144E+01 -0.46500342353E+01  0.53805764193E+01  0.00000000000E+00 0.  1.
</event>
<event>
 7    1  0.5155466E-011  0.5052888E+02  0.7816164E-02  0.1300439E+00
        -11   -1    0    0    0    0  0.00000000000E+00  0.00000000000E+00  0.45593999997E+02  0.45594000000E+02  0.51100000000E-03 0.  1.
         11   -1    0    0    0    0 -0.00000000000E+00 -0.00000000000E+00 -0.45593999997E+02  0.45594000000E+02  0.51100000000E-03 0. -1.
    9900012    2    1    2    0    0 -0.14709924467E+02 -0.31377905612E+02  0.21265203562E+02  0.50528883913E+02  0.30000073142E+02 0.  0.
        -12    1    1    2    0    0  0.14709924467E+02  0.31377905612E+02 -0.21265203562E+02  0.40659116087E+02  0.00000000000E+00 0.  1.
         11    1    3    3    0    0 -0.11438803935E+01 -0.18506427812E+02  0.25121443003E+02  0.31223120144E+02  0.51100000000E-03 0. -1.
        -11    1    3    3    0    0 -0.33464927867E+01 -0.25219086103E+01 -0.19992362311E+01  0.46428421015E+01  0.51100000000E-03 0.  1.
         12    1    3    3    0    0 -0.10219551287E+02 -0.10349569189E+02 -0.18570032092E+01  0.14662921668E+02  0.00000000000E+00 0. -1.
</event>
<event>
 7    1  0.5155466E-011  0.5052886E+02  0.7816164E-02  0.1300439E+00
        -11   -1    0    0    0    0  0.00000000000E+00  0.00000000000E+00  0.45593999997E+02  0.45594000000E+02  0.51100000000E-03 0. -1.
         11   -1    0    0    0    0 -0.00000000000E+00 -0.00000000000E+00 -0.45593999997E+02  0.45594000000E+02  0.51100000000E-03 0.  1.
    9900012    2    1    2    0    0 -0.24692904265E+02 -0.95142302182E+01  0.30869171448E+02  0.50528857811E+02  0.29999993802E+02 0.  0.
        -12    1    1    2    0    0  0.24692904265E+02  0.95142302182E+01 -0.30869171448E+02  0.40659142189E+02  0.00000000000E+00 0.  1.
         11    1    3    3    0    0 -0.26012711434E+02 -0.13869746363E+02  0.15934169652E+02  0.33510129560E+02  0.51100000000E-03 0. -1.
        -11    1    3    3    0    0  0.47018003346E+00  0.58606502953E+01  0.83607650291E+01  0.10221090122E+02  0.51100000000E-03 0.  1.
         12    1    3    3    0    0  0.84962713578E+00 -0.15051341505E+01  0.65742367664E+01  0.67976381296E+01  0.00000000000E+00 0. -1.
</event>
<event>
 7    1  0.5155466E-011  0.5052886E+02  0.7816164E-02  0.1300439E+00
        -11   -1    0    0    0    0  0.00000000000E+00  0.00000000000E+00  0.45593999997E+02  0.45594000000E+02  0.51100000000E-03 0.  1.
         11   -1    0    0    0    0 -0.00000000000E+00 -0.00000000000E+00 -0.45593999997E+02  0.45594000000E+02  0.51100000000E-03 0. -1.
    9900012    2    1    2    0    0  0.34869511691E+01 -0.37510249940E+02 -0.15296672083E+02  0.50528857660E+02  0.29999993343E+02 0.  0.
        -12    1    1    2    0    0 -0.34869511691E+01  0.37510249940E+02  0.15296672083E+02  0.40659142340E+02  0.00000000000E+00 0.  1.
         11    1    3    3    0    0  0.12798175322E+01 -0.10626088636E+02 -0.17298051965E+02  0.20341442787E+02  0.51100000000E-03 0. -1.
        -11    1    3    3    0    0  0.51086144017E+01 -0.24252290312E+02 -0.16404686476E+01  0.24838733142E+02  0.51100000000E-03 0.  1.
        -12    1    3    3    0    0 -0.29014807648E+01 -0.26318709925E+01  0.36418485290E+01  0.53486817308E+01  0.00000000000E+00 0.  1.
</event>
<event>
 7    1  0.5155466E-011  0.5052886E+02  0.7816164E-02  0.1300439E+00
        -11   -1    0    0    0    0  0.00000000000E+00  0.00000000000E+00  0.45593999997E+02  0.45594000000E+02  0.51100000000E-03 0.  1.
         11   -1    0    0    0    0 -0.00000000000E+00 -0.00000000000E+00 -0.45593999997E+02  0.45594000000E+02  0.51100000000E-03 0. -1.
    9900012    2    1    2    0    0  0.30288836828E+02 -0.20165658193E+02 -0.18141057423E+02  0.50528863620E+02  0.30000011458E+02 0.  0.
        -12    1    1    2    0    0 -0.30288836828E+02  0.20165658193E+02  0.18141057423E+02  0.40659136380E+02  0.00000000000E+00 0.  1.
         11    1    3    3    0    0  0.57579204376E+01 -0.35963639609E+01 -0.63999168359E+01  0.93298669483E+01  0.51100000000E-03 0. -1.
        -11    1    3    3    0    0  0.22109627122E+02 -0.34300948207E+01  0.14535998167E+01  0.22421287087E+02  0.51100000000E-03 0.  1.
        -12    1    3    3    0    0  0.24212892685E+01 -0.13139199412E+02 -0.13194740404E+02  0.18777709584E+02  0.00000000000E+00 0.  1.
</event>
<event>
 7    1  0.5155466E-011  0.5052886E+02  0.7816164E-02  0.1300439E+00
        -11   -1    0    0    0    0  0.00000000000E+00  0.00000000000E+00  0.45593999997E+02  0.45594000000E+02  0.51100000000E-03 0.  1.
         11   -1    0    0    0    0 -0.00000000000E+00 -0.00000000000E+00 -0.45593999997E+02  0.45594000000E+02  0.51100000000E-03 0. -1.
    9900012    2    1    2    0    0  0.43801157581E+01  0.32769499649E+01 -0.40289479343E+02  0.50528856368E+02  0.29999989416E+02 0.  0.
        -12    1    1    2    0    0 -0.43801157581E+01 -0.32769499649E+01  0.40289479343E+02  0.40659143632E+02  0.00000000000E+00 0.  1.
         11    1    3    3    0    0  0.23626241195E+01 -0.97997045400E+01 -0.25204089276E+02  0.27145208017E+02  0.51100000000E-03 0. -1.
        -11    1    3    3    0    0  0.30492725307E+01 -0.11966227726E-01  0.40689382228E+00  0.30763239428E+01  0.51100000000E-03 0.  1.
         12    1    3    3    0    0 -0.10317808921E+01  0.13088620733E+02 -0.15492283890E+02  0.20307324408E+02  0.00000000000E+00 0. -1.
</event>
<event>
 7    1  0.5155466E-011  0.5052884E+02  0.7816164E-02  0.1300439E+00
        -11   -1    0    0    0    0  0.00000000000E+00  0.00000000000E+00  0.45593999997E+02  0.45594000000E+02  0.51100000000E-03 0. -1.
         11   -1    0    0    0    0 -0.00000000000E+00 -0.00000000000E+00 -0.45593999997E+02  0.45594000000E+02  0.51100000000E-03 0.  1.
    9900012    2    1    2    0    0 -0.25215135007E+02  0.82162944866E+01  0.30819740391E+02  0.50528844496E+02  0.29999953330E+02 0.  0.
        -12    1    1    2    0    0  0.25215135007E+02 -0.82162944866E+01 -0.30819740391E+02  0.40659155504E+02  0.00000000000E+00 0.  1.
         11    1    3    3    0    0 -0.22473767893E+02  0.42438900019E+01  0.17506142036E+02  0.28801837700E+02  0.51100000000E-03 0.  1.
        -11    1    3    3    0    0  0.30127084592E+01 -0.11192636016E+01 -0.25486956592E+01  0.41018304566E+01  0.51100000000E-03 0. -1.
         12    1    3    3    0    0 -0.57540755737E+01  0.50916680862E+01  0.15862294014E+02  0.17625176339E+02  0.00000000000E+00 0. -1.
</event>
<event>
 7    1  0.5155466E-011  0.5052886E+02  0.7816164E-02  0.1300439E+00
        -11   -1    0    0    0    0  0.00000000000E+00  0.00000000000E+00  0.45593999997E+02  0.45594000000E+02  0.51100000000E-03 0.  1.
         11   -1    0    0    0    0 -0.00000000000E+00 -0.00000000000E+00 -0.45593999997E+02  0.45594000000E+02  0.51100000000E-03 0. -1.
    9900012    2    1    2    0    0 -0.24637969124E+02  0.18574605367E+02 -0.26478674780E+02  0.50528859512E+02  0.29999998973E+02 0.  0.
        -12    1    1    2    0    0  0.24637969124E+02 -0.18574605367E+02  0.26478674780E+02  0.40659140488E+02  0.00000000000E+00 0.  1.
         11    1    3    3    0    0 -0.36851616812E+01  0.17481583358E+02 -0.59478397292E+01  0.18829842565E+02  0.51100000000E-03 0. -1.
        -11    1    3    3    0    0 -0.48454159656E+01 -0.49260813718E+01 -0.67949959250E+01  0.96910424333E+01  0.51100000000E-03 0.  1.
        -12    1    3    3    0    0 -0.16107391477E+02  0.60191033812E+01 -0.13735839126E+02  0.22007974514E+02  0.00000000000E+00 0.  1.
</event>
<event>
 7    1  0.5155466E-011  0.5052886E+02  0.7816164E-02  0.1300439E+00
        -11   -1    0    0    0    0  0.00000000000E+00  0.00000000000E+00  0.45593999997E+02  0.45594000000E+02  0.51100000000E-03 0.  1.
         11   -1    0    0    0    0 -0.00000000000E+00 -0.00000000000E+00 -0.45593999997E+02  0.45594000000E+02  0.51100000000E-03 0. -1.
    9900012    2    1    2    0    0  0.35489201699E+02 -0.88173410518E+01 -0.17774619130E+02  0.50528855572E+02  0.29999986996E+02 0.  0.
        -12    1    1    2    0    0 -0.35489201699E+02  0.88173410518E+01  0.17774619130E+02  0.40659144428E+02  0.00000000000E+00 0.  1.
         11    1    3    3    0    0  0.12917052181E+02  0.41443069948E+01 -0.18333723615E+02  0.22806817826E+02  0.51100000000E-03 0. -1.
        -11    1    3    3    0    0  0.43150071311E+01 -0.44233626855E+00  0.32524658409E+01  0.54215756218E+01  0.51100000000E-03 0.  1.
         12    1    3    3    0    0  0.18257142387E+02 -0.12519311778E+02 -0.26933613557E+01  0.22300462124E+02  0.00000000000E+00 0. -1.
</event>
<event>
 7    1  0.5155466E-011  0.5052885E+02  0.7816164E-02  0.1300439E+00
        -11   -1    0    0    0    0  0.00000000000E+00  0.00000000000E+00  0.45593999997E+02  0.45594000000E+02  0.51100000000E-03 0. -1.
         11   -1    0    0    0    0 -0.00000000000E+00 -0.00000000000E+00 -0.45593999997E+02  0.45594000000E+02  0.51100000000E-03 0.  1.
    9900012    2    1    2    0    0 -0.13515588539E+02 -0.30148508589E+02  0.23697309129E+02  0.50528853875E+02  0.29999981837E+02 0.  0.
        -12    1    1    2    0    0  0.13515588539E+02  0.30148508589E+02 -0.23697309129E+02  0.40659146125E+02  0.00000000000E+00 0.  1.
         11    1    3    3    0    0 -0.16558168117E+02 -0.42590317522E+01  0.13388136340E+02  0.21715305151E+02  0.51100000000E-03 0. -1.
        -11    1    3    3    0    0  0.33376875711E+01 -0.70408984064E+01  0.48896630124E+01  0.91990876356E+01  0.51100000000E-03 0.  1.
         12    1    3    3    0    0 -0.29510799301E+00 -0.18848578430E+02  0.54195097766E+01  0.19614461088E+02  0.00000000000E+00 0. -1.
</event>
<event>
 7    1  0.5155466E-011  0.5052887E+02  0.7816164E-02  0.1300439E+00
        -11   -1    0    0    0    0  0.00000000000E+00  0.00000000000E+00  0.45593999997E+02  0.45594000000E+02  0.51100000000E-03 0.  1.
         11   -1    0    0    0    0 -0.00000000000E+00 -0.00000000000E+00 -0.45593999997E+02  0.45594000000E+02  0.51100000000E-03 0. -1.
    9900012    2    1    2    0    0  0.30760723323E+02  0.15285323866E+01 -0.26544425420E+02  0.50528867798E+02  0.30000024158E+02 0.  0.
        -12    1    1    2    0    0 -0.30760723323E+02 -0.15285323866E+01  0.26544425420E+02  0.40659132202E+02  0.00000000000E+00 0.  1.
         11    1    3    3    0    0  0.85097843630E+01  0.78918560510E+01 -0.18562373665E+02  0.21891997127E+02  0.51100000000E-03 0.  1.
        -11    1    3    3    0    0  0.17710877693E+02 -0.37533887379E+01  0.11167882579E+01  0.18138641954E+02  0.51100000000E-03 0. -1.
         12    1    3    3    0    0  0.45400612670E+01 -0.26099349265E+01 -0.90988400120E+01  0.10498228717E+02  0.00000000000E+00 0. -1.
</event>
<event>
 7    1  0.5155466E-011  0.5052886E+02  0.7816164E-02  0.1300439E+00
        -11   -1    0    0    0    0  0.00000000000E+00  0.00000000000E+00  0.45593999997E+02  0.45594000000E+02  0.51100000000E-03 0.  1.
         11   -1    0    0    0    0 -0.00000000000E+00 -0.00000000000E+00 -0.45593999997E+02  0.45594000000E+02  0.51100000000E-03 0. -1.
    9900012    2    1    2    0    0  0.23798384470E+02  0.27857500850E+02 -0.17628441624E+02  0.50528863130E+02  0.30000009969E+02 0.  0.
        -12    1    1    2    0    0 -0.23798384470E+02 -0.27857500850E+02  0.17628441624E+02  0.40659136870E+02  0.00000000000E+00 0.  1.
         11    1    3    3    0    0 -0.27391138114E+00  0.18673690658E+02 -0.14448509262E+02  0.23612309722E+02  0.51100000000E-03 0. -1.
        -11    1    3    3    0    0  0.55374746900E+01  0.54879969102E+01 -0.33053820983E+00  0.78032680204E+01  0.51100000000E-03 0.  1.
         12    1    3    3    0    0  0.18534821161E+02  0.36958132817E+01 -0.28493941518E+01  0.19113285388E+02  0.00000000000E+00 0. -1.
</event>
<event>
 7    1  0.5155466E-011  0.5052886E+02  0.7816164E-02  0.1300439E+00
        -11   -1    0    0    0    0  0.00000000000E+00  0.00000000000E+00  0.45593999997E+02  0.45594000000E+02  0.51100000000E-03 0.  1.
         11   -1    0    0    0    0 -0.00000000000E+00 -0.00000000000E+00 -0.45593999997E+02  0.45594000000E+02  0.51100000000E-03 0. -1.
    9900012    2    1    2    0    0  0.99449067357E+01 -0.82755297388E+01 -0.38545820918E+02  0.50528857453E+02  0.29999992714E+02 0.  0.
        -12    1    1    2    0    0 -0.99449067357E+01  0.82755297388E+01  0.38545820918E+02  0.40659142547E+02  0.00000000000E+00 0.  1.
         11    1    3    3    0    0  0.67222394571E+01  0.11125709232E+01 -0.20622887312E+02  0.21719341581E+02  0.51100000000E-03 0. -1.
        -11    1    3    3    0    0  0.86215203046E+01 -0.13299893758E+02 -0.11832983941E+02  0.19779719299E+02  0.51100000000E-03 0.  1.
        -12    1    3    3    0    0 -0.53988530259E+01  0.39117930960E+01 -0.60899496646E+01  0.90297965724E+01  0.00000000000E+00 0.  1.
</event>
<event>
 7    1  0.5155466E-011  0.5052885E+02  0.7816164E-02  0.1300439E+00
        -11   -1    0    0    0    0  0.00000000000E+00  0.00000000000E+00  0.45593999997E+02  0.45594000000E+02  0.51100000000E-03 0. -1.
         11   -1    0    0    0    0 -0.00000000000E+00 -0.00000000000E+00 -0.45593999997E+02  0.45594000000E+02  0.51100000000E-03 0.  1.
    9900012    2    1    2    0    0 -0.47224686817E+01  0.32137308420E+02  0.24455226937E+02  0.50528850630E+02  0.29999971976E+02 0.  0.
        -12    1    1    2    0    0  0.47224686817E+01 -0.32137308420E+02 -0.24455226937E+02  0.40659149370E+02  0.00000000000E+00 0.  1.
         11    1    3    3    0    0 -0.74107467359E+01  0.84066544408E+01  0.14251819289E+02  0.18130233296E+02  0.51100000000E-03 0.  1.
        -11    1    3    3    0    0  0.84158442666E+01  0.28661680074E+01  0.47750109189E+01  0.10091683869E+02  0.51100000000E-03 0. -1.
         12    1    3    3    0    0 -0.57275662124E+01  0.20864485972E+02  0.54283967296E+01  0.22306933466E+02  0.00000000000E+00 0. -1.
</event>
<event>
 7    1  0.5155466E-011  0.5052886E+02  0.7816164E-02  0.1300439E+00
        -11   -1    0    0    0    0  0.00000000000E+00  0.00000000000E+00  0.45593999997E+02  0.45594000000E+02  0.51100000000E-03 0. -1.
         11   -1    0    0    0    0 -0.00000000000E+00 -0.00000000000E+00 -0.45593999997E+02  0.45594000000E+02  0.51100000000E-03 0.  1.
    9900012    2    1    2    0    0 -0.16580997966E+02  0.27748587312E+02  0.24662763713E+02  0.50528861970E+02  0.30000006444E+02 0.  0.
        -12    1    1    2    0    0  0.16580997966E+02 -0.27748587312E+02 -0.24662763713E+02  0.40659138030E+02  0.00000000000E+00 0.  1.
         11    1    3    3    0    0 -0.27063486704E+01  0.36347854078E+01  0.43261840565E+01  0.62651302331E+01  0.51100000000E-03 0. -1.
        -11    1    3    3    0    0 -0.13163261777E+02 -0.14149767672E+01  0.10495169608E+02  0.16894443028E+02  0.51100000000E-03 0.  1.
        -12    1    3    3    0    0 -0.71138751853E+00  0.25528778672E+02  0.98414100480E+01  0.27369288709E+02  0.00000000000E+00 0.  1.
</event>
<event>
 7    1  0.7264887E-011  0.5052883E+02  0.7816164E-02  0.1300439E+00
        -11   -1    0    0    0    0  0.00000000000E+00  0.00000000000E+00  0.45593999997E+02  0.45594000000E+02  0.51100000000E-03 0. -1.
         11   -1    0    0    0    0 -0.00000000000E+00 -0.00000000000E+00 -0.45593999997E+02  0.45594000000E+02  0.51100000000E-03 0.  1.
    9900012    2    1    2    0    0 -0.30350869503E+02 -0.17022176382E+02  0.21029456149E+02  0.50528833822E+02  0.29999920885E+02 0.  0.
        -12    1    1    2    0    0  0.30350869503E+02  0.17022176382E+02 -0.21029456149E+02  0.40659166178E+02  0.00000000000E+00 0.  1.
         11    1    3    3    0    0 -0.19880111621E+02 -0.24238063055E+01  0.21775119534E+02  0.29584616036E+02  0.51100000000E-03 0. -1.
        -11    1    3    3    0    0 -0.12660582299E+02 -0.13340074302E+02 -0.90347086636E+00  0.18413695620E+02  0.51100000000E-03 0.  1.
        -12    1    3    3    0    0  0.21898244159E+01 -0.12582957748E+01  0.15780748139E+00  0.25305221656E+01  0.00000000000E+00 0.  1.
</event>
<event>
 7    1  0.5155466E-011  0.5052885E+02  0.7816164E-02  0.1300439E+00
        -11   -1    0    0    0    0  0.00000000000E+00  0.00000000000E+00  0.45593999997E+02  0.45594000000E+02  0.51100000000E-03 0.  1.
         11   -1    0    0    0    0 -0.00000000000E+00 -0.00000000000E+00 -0.45593999997E+02  0.45594000000E+02  0.51100000000E-03 0. -1.
    9900012    2    1    2    0    0  0.26651272911E+02  0.19182696171E+02 -0.23977071530E+02  0.50528854174E+02  0.29999982747E+02 0.  0.
        -12    1    1    2    0    0 -0.26651272911E+02 -0.19182696171E+02  0.23977071530E+02  0.40659145826E+02  0.00000000000E+00 0.  1.
         11    1    3    3    0    0  0.29636578063E+02  0.12409659045E+02 -0.20348576859E+02  0.38031447216E+02  0.51100000000E-03 0. -1.
        -11    1    3    3    0    0 -0.31102391296E+01 -0.15600208186E+01 -0.19859346010E+00  0.34852104702E+01  0.51100000000E-03 0.  1.
        -12    1    3    3    0    0  0.12493397690E+00  0.83330579451E+01 -0.34299012110E+01  0.90121964877E+01  0.00000000000E+00 0.  1.
</event>
<event>
 7    1  0.5155466E-011  0.5052886E+02  0.7816164E-02  0.1300439E+00
        -11   -1    0    0    0    0  0.00000000000E+00  0.00000000000E+00  0.45593999997E+02  0.45594000000E+02  0.51100000000E-03 0.  1.
         11   -1    0    0    0    0 -0.00000000000E+00 -0.00000000000E+00 -0.45593999997E+02  0.45594000000E+02  0.51100000000E-03 0. -1.
    9900012    2    1    2    0    0  0.27209340426E+02 -0.12414179122E+02 -0.27544612407E+02  0.50528859302E+02  0.29999998333E+02 0.  0.
        -12    1    1    2    0    0 -0.27209340426E+02  0.12414179122E+02  0.27544612407E+02  0.40659140698E+02  0.00000000000E+00 0.  1.
         11    1    3    3    0    0  0.19684220317E+02 -0.16473144346E+02 -0.16969027748E+02  0.30769805282E+02  0.51100000000E-03 0. -1.
        -11    1    3    3    0    0  0.20224463637E+01  0.33640026974E+01 -0.13092556914E+02  0.13668278979E+02  0.51100000000E-03 0.  1.
        -12    1    3    3    0    0  0.55026737452E+01  0.69496252645E+00  0.25169722553E+01  0.60907750404E+01  0.00000000000E+00 0.  1.
</event>
<event>
 7    1  0.6380266E-011  0.5052884E+02  0.7816164E-02  0.1300439E+00
        -11   -1    0    0    0    0  0.00000000000E+00  0.00000000000E+00  0.45593999997E+02  0.45594000000E+02  0.51100000000E-03 0. -1.
         11   -1    0    0    0    0 -0.00000000000E+00 -0.00000000000E+00 -0.45593999997E+02  0.45594000000E+02  0.51100000000E-03 0.  1.
    9900012    2    1    2    0    0  0.36607702586E+01 -0.32872428934E+02  0.23646764951E+02  0.50528839709E+02  0.29999938781E+02 0.  0.
        -12    1    1    2    0    0 -0.36607702586E+01  0.32872428934E+02 -0.23646764951E+02  0.40659160291E+02  0.00000000000E+00 0.  1.
         11    1    3    3    0    0 -0.42911155848E+00 -0.74632626096E+01  0.15748644820E+02  0.17432849435E+02  0.51100000000E-03 0. -1.
        -11    1    3    3    0    0  0.11311878136E+02 -0.18948969240E+02  0.77977848982E+01  0.23405714512E+02  0.51100000000E-03 0.  1.
        -12    1    3    3    0    0 -0.72219963190E+01 -0.64601970837E+01  0.10033523292E+00  0.96902757624E+01  0.00000000000E+00 0.  1.
</event>
<event>
 7    1  0.5155466E-011  0.5052887E+02  0.7816164E-02  0.1300439E+00
        -11   -1    0    0    0    0  0.00000000000E+00  0.00000000000E+00  0.45593999997E+02  0.45594000000E+02  0.51100000000E-03 0. -1.
         11   -1    0    0    0    0 -0.00000000000E+00 -0.00000000000E+00 -0.45593999997E+02  0.45594000000E+02  0.51100000000E-03 0.  1.
    9900012    2    1    2    0    0 -0.35447096822E+02  0.50759038542E+01  0.19258859970E+02  0.50528866212E+02  0.30000019338E+02 0.  0.
        -12    1    1    2    0    0  0.35447096822E+02 -0.50759038542E+01 -0.19258859970E+02  0.40659133788E+02  0.00000000000E+00 0.  1.
         11    1    3    3    0    0 -0.77746280906E+01 -0.81105382904E+00  0.17605183323E+02  0.19262531774E+02  0.51100000000E-03 0. -1.
        -11    1    3    3    0    0 -0.20291303197E+01  0.43121567578E+01 -0.22666756188E+01  0.52772989664E+01  0.51100000000E-03 0.  1.
         12    1    3    3    0    0 -0.25643338412E+02  0.15748009255E+01  0.39203522667E+01  0.25989035471E+02  0.00000000000E+00 0. -1.
</event>
<event>
 7    1  0.5155466E-011  0.5052885E+02  0.7816164E-02  0.1300439E+00
        -11   -1    0    0    0    0  0.00000000000E+00  0.00000000000E+00  0.45593999997E+02  0.45594000000E+02  0.51100000000E-03 0.  1.
         11   -1    0    0    0    0 -0.00000000000E+00 -0.00000000000E+00 -0.45593999997E+02  0.45594000000E+02  0.51100000000E-03 0. -1.
    9900012    2    1    2    0    0  0.15478352581E+02 -0.35557640431E+02 -0.12216423283E+02  0.50528853557E+02  0.29999980871E+02 0.  0.
        -12    1    1    2    0    0 -0.15478352581E+02  0.35557640431E+02  0.12216423283E+02  0.40659146443E+02  0.00000000000E+00 0.  1.
         11    1    3    3    0    0  0.60534543836E+00 -0.26936092244E+02 -0.13925891681E+02  0.30329028469E+02  0.51100000000E-03 0. -1.
        -11    1    3    3    0    0  0.16270817050E+02 -0.83893826824E+01  0.46225698358E+00  0.18312152005E+02  0.51100000000E-03 0.  1.
        -12    1    3    3    0    0 -0.13978099072E+01 -0.23216550453E+00  0.12472114137E+01  0.18876730831E+01  0.00000000000E+00 0.  1.
</event>
<event>
 7    1  0.5155466E-011  0.5052886E+02  0.7816164E-02  0.1300439E+00
        -11   -1    0    0    0    0  0.00000000000E+00  0.00000000000E+00  0.45593999997E+02  0.45594000000E+02  0.51100000000E-03 0.  1.
         11   -1    0    0    0    0 -0.00000000000E+00 -0.00000000000E+00 -0.45593999997E+02  0.45594000000E+02  0.51100000000E-03 0. -1.
    9900012    2    1    2    0    0 -0.31336529000E+02  0.17430565799E+02 -0.19166707349E+02  0.50528863949E+02  0.30000012460E+02 0.  0.
        -12    1    1    2    0    0  0.31336529000E+02 -0.17430565799E+02  0.19166707349E+02  0.40659136051E+02  0.00000000000E+00 0.  1.
         11    1    3    3    0    0 -0.69763854458E+00  0.62704066780E+01 -0.16535281791E+02  0.17698029371E+02  0.51100000000E-03 0. -1.
        -11    1    3    3    0    0 -0.11035073791E+02  0.26386765547E+01 -0.11321337049E+01  0.11402508256E+02  0.51100000000E-03 0.  1.
         12    1    3    3    0    0 -0.19603816664E+02  0.85214825660E+01 -0.14992918529E+01  0.21428326322E+02  0.00000000000E+00 0. -1.
</event>
<event>
 7    1  0.5155466E-011  0.5052885E+02  0.7816164E-02  0.1300439E+00
        -11   -1    0    0    0    0  0.00000000000E+00  0.00000000000E+00  0.45593999997E+02  0.45594000000E+02  0.51100000000E-03 0.  1.
         11   -1    0    0    0    0 -0.00000000000E+00 -0.00000000000E+00 -0.45593999997E+02  0.45594000000E+02  0.51100000000E-03 0. -1.
    9900012    2    1    2    0    0 -0.11345029062E+02 -0.38101550426E+02 -0.85280879148E+01  0.50528854500E+02  0.29999983740E+02 0.  0.
        -12    1    1    2    0    0  0.11345029062E+02  0.38101550426E+02  0.85280879148E+01  0.40659145500E+02  0.00000000000E+00 0.  1.
         11    1    3    3    0    0 -0.48563970950E+01 -0.75116474196E+01  0.59841247859E+00  0.89647943343E+01  0.51100000000E-03 0. -1.
        -11    1    3    3    0    0 -0.41609311013E+01  0.31139019656E+01 -0.55303657314E+01  0.75891157894E+01  0.51100000000E-03 0.  1.
        -12    1    3    3    0    0 -0.23277008659E+01 -0.33703804972E+02 -0.35961346620E+01  0.33974944377E+02  0.00000000000E+00 0.  1.
</event>
<event>
 7    1  0.5155466E-011  0.5052889E+02  0.7816164E-02  0.1300439E+00
        -11   -1    0    0    0    0  0.00000000000E+00  0.00000000000E+00  0.45593999997E+02  0.45594000000E+02  0.51100000000E-03 0.  1.
         11   -1    0    0    0    0 -0.00000000000E+00 -0.00000000000E+00 -0.45593999997E+02  0.45594000000E+02  0.51100000000E-03 0. -1.
    9900012    2    1    2    0    0 -0.18134163484E+02 -0.36007537281E+01 -0.36212564271E+02  0.50528891257E+02  0.30000095465E+02 0.  0.
        -12    1    1    2    0    0  0.18134163484E+02  0.36007537281E+01  0.36212564271E+02  0.40659108743E+02  0.00000000000E+00 0.  1.
         11    1    3    3    0    0 -0.14279614384E+02  0.79009744371E+01 -0.25348326651E+02  0.30147478307E+02  0.51100000000E-03 0. -1.
        -11    1    3    3    0    0 -0.77388493329E+01 -0.38120127103E+01 -0.56120901644E+01  0.10291588127E+02  0.51100000000E-03 0.  1.
         12    1    3    3    0    0  0.38843002323E+01 -0.76897154549E+01 -0.52521474553E+01  0.10089824823E+02  0.00000000000E+00 0. -1.
</event>
<event>
 7    1  0.5155466E-011  0.5052886E+02  0.7816164E-02  0.1300439E+00
        -11   -1    0    0    0    0  0.00000000000E+00  0.00000000000E+00  0.45593999997E+02  0.45594000000E+02  0.51100000000E-03 0. -1.
         11   -1    0    0    0    0 -0.00000000000E+00 -0.00000000000E+00 -0.45593999997E+02  0.45594000000E+02  0.51100000000E-03 0.  1.
    9900012    2    1    2    0    0 -0.24182891539E+02  0.28521226150E+02  0.15965376327E+02  0.50528858032E+02  0.29999994474E+02 0.  0.
        -12    1    1    2    0    0  0.24182891539E+02 -0.28521226150E+02 -0.15965376327E+02  0.40659141968E+02  0.00000000000E+00 0.  1.
         11    1    3    3    0    0 -0.26943206066E+01  0.62995985273E+01 -0.50146594078E+00  0.68699180116E+01  0.51100000000E-03 0. -1.
        -11    1    3    3    0    0 -0.12213961854E+02  0.19117795258E+01  0.17361976194E+02  0.21313704107E+02  0.51100000000E-03 0.  1.
        -12    1    3    3    0    0 -0.92746090786E+01  0.20309848097E+02 -0.89513392592E+00  0.22345235914E+02  0.00000000000E+00 0.  1.
</event>
<event>
 7    1  0.5155466E-011  0.5052886E+02  0.7816164E-02  0.1300439E+00
        -11   -1    0    0    0    0  0.00000000000E+00  0.00000000000E+00  0.45593999997E+02  0.45594000000E+02  0.51100000000E-03 0. -1.
         11   -1    0    0    0    0 -0.00000000000E+00 -0.00000000000E+00 -0.45593999997E+02  0.45594000000E+02  0.51100000000E-03 0.  1.
    9900012    2    1    2    0    0 -0.29286521873E+01 -0.92313806254E+01  0.39488865760E+02  0.50528856983E+02  0.29999991286E+02 0.  0.
        -12    1    1    2    0    0  0.29286521873E+01  0.92313806254E+01 -0.39488865760E+02  0.40659143017E+02  0.00000000000E+00 0.  1.
         11    1    3    3    0    0 -0.78571579932E+01 -0.15448935491E+02  0.25768681665E+02  0.31055265166E+02  0.51100000000E-03 0. -1.
        -11    1    3    3    0    0  0.66000536621E+00  0.74057022438E+01  0.13012247478E+02  0.14986614611E+02  0.51100000000E-03 0.  1.
        -12    1    3    3    0    0  0.42685004397E+01 -0.11881473780E+01  0.70793661698E+00  0.44869772062E+01  0.00000000000E+00 0.  1.
</event>
<event>
 7    1  0.5155466E-011  0.5052884E+02  0.7816164E-02  0.1300439E+00
        -11   -1    0    0    0    0  0.00000000000E+00  0.00000000000E+00  0.45593999997E+02  0.45594000000E+02  0.51100000000E-03 0.  1.
         11   -1    0    0    0    0 -0.00000000000E+00 -0.00000000000E+00 -0.45593999997E+02  0.45594000000E+02  0.51100000000E-03 0. -1.
    9900012    2    1    2    0    0  0.41685591283E+01 -0.73433647664E+01 -0.39772672266E+02  0.50528839280E+02  0.29999937474E+02 0.  0.
        -12    1    1    2    0    0 -0.41685591283E+01  0.73433647664E+01  0.39772672266E+02  0.40659160720E+02  0.00000000000E+00 0.  1.
         11    1    3    3    0    0  0.51608159601E+01  0.79808381438E+01 -0.51857690890E+01  0.10826818561E+02  0.51100000000E-03 0. -1.
        -11    1    3    3    0    0  0.57765987681E+00 -0.11478677625E+02 -0.33488161621E+02  0.35405517931E+02  0.51100000000E-03 0.  1.
        -12    1    3    3    0    0 -0.15699167086E+01 -0.38455252854E+01 -0.10987415560E+01  0.42965027870E+01  0.00000000000E+00 0.  1.
</event>
<event>
 7    1  0.5155466E-011  0.5052887E+02  0.7816164E-02  0.1300439E+00
        -11   -1    0    0    0    0  0.00000000000E+00  0.00000000000E+00  0.45593999997E+02  0.45594000000E+02  0.51100000000E-03 0. -1.
         11   -1    0    0    0    0 -0.00000000000E+00 -0.00000000000E+00 -0.45593999997E+02  0.45594000000E+02  0.51100000000E-03 0.  1.
    9900012    2    1    2    0    0  0.28171837220E+02  0.18530772145E+02  0.22718340398E+02  0.50528869180E+02  0.30000028359E+02 0.  0.
        -12    1    1    2    0    0 -0.28171837220E+02 -0.18530772145E+02 -0.22718340398E+02  0.40659130820E+02  0.00000000000E+00 0.  1.
         11    1    3    3    0    0  0.11901056106E+02 -0.57249731385E+01  0.76273135370E+00  0.13228462241E+02  0.51100000000E-03 0. -1.
        -11    1    3    3    0    0  0.10683307624E+02  0.16368427915E+02  0.18832154880E+02  0.27142375575E+02  0.51100000000E-03 0.  1.
         12    1    3    3    0    0  0.55874734900E+01  0.78873173685E+01  0.31234541642E+01  0.10158031364E+02  0.00000000000E+00 0. -1.
</event>
<event>
 7    1  0.5155466E-011  0.5052886E+02  0.7816164E-02  0.1300439E+00
        -11   -1    0    0    0    0  0.00000000000E+00  0.00000000000E+00  0.45593999997E+02  0.45594000000E+02  0.51100000000E-03 0. -1.
         11   -1    0    0    0    0 -0.00000000000E+00 -0.00000000000E+00 -0.45593999997E+02  0.45594000000E+02  0.51100000000E-03 0.  1.
    9900012    2    1    2    0    0  0.35769509180E+02 -0.14360014689E+02  0.12942086781E+02  0.50528863030E+02  0.30000009666E+02 0.  0.
        -12    1    1    2    0    0 -0.35769509180E+02  0.14360014689E+02 -0.12942086781E+02  0.40659136970E+02  0.00000000000E+00 0.  1.
         11    1    3    3    0    0  0.12664094468E+02 -0.12043281574E+01  0.12498442952E+02  0.17833697639E+02  0.51100000000E-03 0. -1.
        -11    1    3    3    0    0  0.80879156355E+01 -0.42689438434E+01 -0.90191853880E+01  0.12844608448E+02  0.51100000000E-03 0.  1.
         12    1    3    3    0    0  0.15017499077E+02 -0.88867426883E+01  0.94628292169E+01  0.19850556943E+02  0.00000000000E+00 0. -1.
</event>
<event>
 7    1  0.5155466E-011  0.5052886E+02  0.7816164E-02  0.1300439E+00
        -11   -1    0    0    0    0  0.00000000000E+00  0.00000000000E+00  0.45593999997E+02  0.45594000000E+02  0.51100000000E-03 0.  1.
         11   -1    0    0    0    0 -0.00000000000E+00 -0.00000000000E+00 -0.45593999997E+02  0.45594000000E+02  0.51100000000E-03 0. -1.
    9900012    2    1    2    0    0 -0.18675881573E+01  0.23148259290E+02 -0.33374179272E+02  0.50528860367E+02  0.30000001571E+02 0.  0.
        -12    1    1    2    0    0  0.18675881573E+01 -0.23148259290E+02  0.33374179272E+02  0.40659139633E+02  0.00000000000E+00 0.  1.
         11    1    3    3    0    0  0.10971924358E+02  0.13779241366E+02 -0.16475804369E+02  0.24118514602E+02  0.51100000000E-03 0. -1.
        -11    1    3    3    0    0 -0.54361306777E+01  0.69366159300E+01 -0.12132526651E+01  0.88960743924E+01  0.51100000000E-03 0.  1.
         12    1    3    3    0    0 -0.74033818378E+01  0.24324019938E+01 -0.15685122238E+02  0.17514271372E+02  0.00000000000E+00 0. -1.
</event>
<event>
 7    1  0.5155466E-011  0.5052886E+02  0.7816164E-02  0.1300439E+00
        -11   -1    0    0    0    0  0.00000000000E+00  0.00000000000E+00  0.45593999997E+02  0.45594000000E+02  0.51100000000E-03 0.  1.
         11   -1    0    0    0    0 -0.00000000000E+00 -0.00000000000E+00 -0.45593999997E+02  0.45594000000E+02  0.51100000000E-03 0. -1.
    9900012    2    1    2    0    0  0.32284312899E+02  0.13572449205E+00 -0.24715789249E+02  0.50528861806E+02  0.30000005945E+02 0.  0.
        -12    1    1    2    0    0 -0.32284312899E+02 -0.13572449205E+00  0.24715789249E+02  0.40659138194E+02  0.00000000000E+00 0.  1.
         11    1    3    3    0    0  0.25759015466E+02 -0.10244510742E+02 -0.21089821597E+02  0.34831845391E+02  0.51100000000E-03 0. -1.
        -11    1    3    3    0    0  0.81963053340E+01  0.93478187776E+01 -0.10766982978E+01  0.12478798681E+02  0.51100000000E-03 0.  1.
         12    1    3    3    0    0 -0.16710079007E+01  0.10324164568E+01 -0.25492693540E+01  0.32182177341E+01  0.00000000000E+00 0. -1.
</event>
<event>
 7    1  0.5155466E-011  0.5052885E+02  0.7816164E-02  0.1300439E+00
        -11   -1    0    0    0    0  0.00000000000E+00  0.00000000000E+00  0.45593999997E+02  0.45594000000E+02  0.51100000000E-03 0.  1.
         11   -1    0    0    0    0 -0.00000000000E+00 -0.00000000000E+00 -0.45593999997E+02  0.45594000000E+02  0.51100000000E-03 0. -1.
    9900012    2    1    2    0    0 -0.90658696577E+01  0.39057946499E+02  0.67419187000E+01  0.50528847954E+02  0.29999963840E+02 0.  0.
        -12    1    1    2    0    0  0.90658696577E+01 -0.39057946499E+02 -0.67419187000E+01  0.40659152046E+02  0.00000000000E+00 0.  1.
         11    1    3    3    0    0  0.78955461165E+01  0.17070568711E+02  0.58255040887E+00  0.18817102057E+02  0.51100000000E-03 0. -1.
        -11    1    3    3    0    0 -0.16732306775E+02  0.14354919735E+02  0.86463256039E+01  0.23681063264E+02  0.51100000000E-03 0.  1.
         12    1    3    3    0    0 -0.22910899963E+00  0.76324580536E+01 -0.24869573128E+01  0.80306826329E+01  0.00000000000E+00 0. -1.
</event>
<event>
 7    1  0.5155466E-011  0.5052887E+02  0.7816164E-02  0.1300439E+00
        -11   -1    0    0    0    0  0.00000000000E+00  0.00000000000E+00  0.45593999997E+02  0.45594000000E+02  0.51100000000E-03 0.  1.
         11   -1    0    0    0    0 -0.00000000000E+00 -0.00000000000E+00 -0.45593999997E+02  0.45594000000E+02  0.51100000000E-03 0. -1.
    9900012    2    1    2    0    0  0.36760083744E+02  0.17257230726E+02 -0.20121846072E+01  0.50528872414E+02  0.30000038189E+02 0.  0.
        -12    1    1    2    0    0 -0.36760083744E+02 -0.17257230726E+02  0.20121846072E+01  0.40659127586E+02  0.00000000000E+00 0.  1.
         11    1    3    3    0    0  0.21621236648E+02  0.14078784985E+02  0.10367369521E+02  0.27805977989E+02  0.51100000000E-03 0. -1.
        -11    1    3    3    0    0  0.10097692363E+02 -0.34632037480E+01 -0.62048686038E+01  0.12347370810E+02  0.51100000000E-03 0.  1.
         12    1    3    3    0    0  0.50411547325E+01  0.66416494885E+01 -0.61746855247E+01  0.10375523615E+02  0.00000000000E+00 0. -1.
</event>
<event>
 7    1  0.5155466E-011  0.5052886E+02  0.7816164E-02  0.1300439E+00
        -11   -1    0    0    0    0  0.00000000000E+00  0.00000000000E+00  0.45593999997E+02  0.45594000000E+02  0.51100000000E-03 0.  1.
         11   -1    0    0    0    0 -0.00000000000E+00 -0.00000000000E+00 -0.45593999997E+02  0.45594000000E+02  0.51100000000E-03 0. -1.
    9900012    2    1    2    0    0  0.29511773535E+02  0.21411226028E+02 -0.17993900494E+02  0.50528857951E+02  0.29999994227E+02 0.  0.
        -12    1    1    2    0    0 -0.29511773535E+02 -0.21411226028E+02  0.17993900494E+02  0.40659142049E+02  0.00000000000E+00 0.  1.
         11    1    3    3    0    0  0.25809713243E+02  0.40940680133E+01 -0.86391973538E+01  0.27523415881E+02  0.51100000000E-03 0. -1.
        -11    1    3    3    0    0 -0.39826652324E+01  0.47477745787E+01 -0.18240083423E+01  0.64598755791E+01  0.51100000000E-03 0.  1.
         12    1    3    3    0    0  0.76847255241E+01  0.12569383436E+02 -0.75306947977E+01  0.16545566490E+02  0.00000000000E+00 0. -1.
</event>
<event>
 7    1  0.5155466E-011  0.5052885E+02  0.7816164E-02  0.1300439E+00
        -11   -1    0    0    0    0  0.00000000000E+00  0.00000000000E+00  0.45593999997E+02  0.45594000000E+02  0.51100000000E-03 0.  1.
         11   -1    0    0    0    0 -0.00000000000E+00 -0.00000000000E+00 -0.45593999997E+02  0.45594000000E+02  0.51100000000E-03 0. -1.
    9900012    2    1    2    0    0 -0.62961854018E+01 -0.13859206416E+02 -0.37702076327E+02  0.50528854503E+02  0.29999983749E+02 0.  0.
        -12    1    1    2    0    0  0.62961854018E+01  0.13859206416E+02  0.37702076327E+02  0.40659145497E+02  0.00000000000E+00 0.  1.
         11    1    3    3    0    0 -0.11888930428E+02 -0.12179169817E+02 -0.29644971809E+02  0.34183376048E+02  0.51100000000E-03 0. -1.
        -11    1    3    3    0    0  0.94081310703E+01 -0.34065405112E+01 -0.61413146824E+01  0.11740238276E+02  0.51100000000E-03 0.  1.
        -12    1    3    3    0    0 -0.38153860437E+01  0.17265039119E+01 -0.19157898357E+01  0.46052401799E+01  0.00000000000E+00 0.  1.
</event>
<event>
 7    1  0.5155466E-011  0.5052886E+02  0.7816164E-02  0.1300439E+00
        -11   -1    0    0    0    0  0.00000000000E+00  0.00000000000E+00  0.45593999997E+02  0.45594000000E+02  0.51100000000E-03 0. -1.
         11   -1    0    0    0    0 -0.00000000000E+00 -0.00000000000E+00 -0.45593999997E+02  0.45594000000E+02  0.51100000000E-03 0.  1.
    9900012    2    1    2    0    0  0.50063688877E+01  0.34396841976E+02  0.21094057388E+02  0.50528859276E+02  0.29999998256E+02 0.  0.
        -12    1    1    2    0    0 -0.50063688877E+01 -0.34396841976E+02 -0.21094057388E+02  0.40659140724E+02  0.00000000000E+00 0.  1.
         11    1    3    3    0    0  0.66067852934E+00  0.27188720838E+02  0.10031356450E+02  0.28987775862E+02  0.51100000000E-03 0. -1.
        -11    1    3    3    0    0  0.22155533090E+01 -0.41808362090E+01 -0.97741167933E+00  0.48315009804E+01  0.51100000000E-03 0.  1.
        -12    1    3    3    0    0  0.21301370493E+01  0.11388957347E+02  0.12040112617E+02  0.16709582434E+02  0.00000000000E+00 0.  1.
</event>
<event>
 7    1  0.5155466E-011  0.5052888E+02  0.7816164E-02  0.1300439E+00
        -11   -1    0    0    0    0  0.00000000000E+00  0.00000000000E+00  0.45593999997E+02  0.45594000000E+02  0.51100000000E-03 0.  1.
         11   -1    0    0    0    0 -0.00000000000E+00 -0.00000000000E+00 -0.45593999997E+02  0.45594000000E+02  0.51100000000E-03 0. -1.
    9900012    2    1    2    0    0 -0.39691104409E+02 -0.50247830479E+00 -0.88049962610E+01  0.50528877865E+02  0.30000054757E+02 0.  0.
        -12    1    1    2    0    0  0.39691104409E+02  0.50247830479E+00  0.88049962610E+01  0.40659122135E+02  0.00000000000E+00 0.  1.
         11    1    3    3    0    0 -0.13054662868E+02 -0.81455060846E+01  0.76203186091E+01  0.17170985643E+02  0.51100000000E-03 0. -1.
        -11    1    3    3    0    0 -0.12084269211E+02  0.78390274229E+01 -0.69638599987E+01  0.15999226845E+02  0.51100000000E-03 0.  1.
         12    1    3    3    0    0 -0.14552172330E+02 -0.19599964303E+00 -0.94614548714E+01  0.17358665377E+02  0.00000000000E+00 0. -1.
</event>
<event>
 7    1  0.5155466E-011  0.5052886E+02  0.7816164E-02  0.1300439E+00
        -11   -1    0    0    0    0  0.00000000000E+00  0.00000000000E+00  0.45593999997E+02  0.45594000000E+02  0.51100000000E-03 0. -1.
         11   -1    0    0    0    0 -0.00000000000E+00 -0.00000000000E+00 -0.45593999997E+02  0.45594000000E+02  0.51100000000E-03 0.  1.
    9900012    2    1    2    0    0 -0.28689398665E+02  0.11850841708E+02  0.26261027949E+02  0.50528860389E+02  0.30000001639E+02 0.  0.
        -12    1    1    2    0    0  0.28689398665E+02 -0.11850841708E+02 -0.26261027949E+02  0.40659139611E+02  0.00000000000E+00 0.  1.
         11    1    3    3    0    0 -0.60516170285E+01 -0.48344329917E+01  0.14294471829E+02  0.16258097556E+02  0.51100000000E-03 0. -1.
        -11    1    3    3    0    0 -0.83804056697E+01  0.85910466085E+01 -0.26678766216E+01  0.12294504746E+02  0.51100000000E-03 0.  1.
         12    1    3    3    0    0 -0.14257375967E+02  0.80942280915E+01  0.14634432742E+02  0.21976258087E+02  0.00000000000E+00 0. -1.
</event>
<event>
 7    1  0.5155466E-011  0.5052885E+02  0.7816164E-02  0.1300439E+00
        -11   -1    0    0    0    0  0.00000000000E+00  0.00000000000E+00  0.45593999997E+02  0.45594000000E+02  0.51100000000E-03 0. -1.
         11   -1    0    0    0    0 -0.00000000000E+00 -0.00000000000E+00 -0.45593999997E+02  0.45594000000E+02  0.51100000000E-03 0.  1.
    9900012    2    1    2    0    0  0.37173455985E+00  0.27997133323E+02  0.29482002415E+02  0.50528854322E+02  0.29999983198E+02 0.  0.
        -12    1    1    2    0    0 -0.37173455985E+00 -0.27997133323E+02 -0.29482002415E+02  0.40659145678E+02  0.00000000000E+00 0.  1.
         11    1    3    3    0    0 -0.74018470244E+01  0.16503581940E+02  0.17498725076E+02  0.25166663183E+02  0.51100000000E-03 0.  1.
        -11    1    3    3    0    0  0.10960823099E+02  0.59077946860E+01  0.81949624376E+00  0.12478511747E+02  0.51100000000E-03 0. -1.
         12    1    3    3    0    0 -0.31872415148E+01  0.55857566970E+01  0.11163781095E+02  0.12883679393E+02  0.00000000000E+00 0. -1.
</event>
<event>
 7    1  0.5155466E-011  0.5052886E+02  0.7816164E-02  0.1300439E+00
        -11   -1    0    0    0    0  0.00000000000E+00  0.00000000000E+00  0.45593999997E+02  0.45594000000E+02  0.51100000000E-03 0.  1.
         11   -1    0    0    0    0 -0.00000000000E+00 -0.00000000000E+00 -0.45593999997E+02  0.45594000000E+02  0.51100000000E-03 0. -1.
    9900012    2    1    2    0    0  0.17332424925E+02  0.22731462707E+02 -0.28914246741E+02  0.50528855700E+02  0.29999987387E+02 0.  0.
        -12    1    1    2    0    0 -0.17332424925E+02 -0.22731462707E+02  0.28914246741E+02  0.40659144300E+02  0.00000000000E+00 0.  1.
         11    1    3    3    0    0 -0.49490356147E+01  0.32312864646E+01 -0.35125940870E+01  0.68754987610E+01  0.51100000000E-03 0. -1.
        -11    1    3    3    0    0  0.19563142341E+02  0.23490872629E+02 -0.20739361130E+02  0.36941287680E+02  0.51100000000E-03 0.  1.
        -12    1    3    3    0    0  0.27183181987E+01 -0.39906963873E+01 -0.46622915243E+01  0.67120692593E+01  0.00000000000E+00 0.  1.
</event>
<event>
 7    1  0.5155466E-011  0.5052886E+02  0.7816164E-02  0.1300439E+00
        -11   -1    0    0    0    0  0.00000000000E+00  0.00000000000E+00  0.45593999997E+02  0.45594000000E+02  0.51100000000E-03 0.  1.
         11   -1    0    0    0    0 -0.00000000000E+00 -0.00000000000E+00 -0.45593999997E+02  0.45594000000E+02  0.51100000000E-03 0. -1.
    9900012    2    1    2    0    0 -0.33889624544E+02 -0.10421984164E+02 -0.19900788370E+02  0.50528858550E+02  0.29999996049E+02 0.  0.
        -12    1    1    2    0    0  0.33889624544E+02  0.10421984164E+02  0.19900788370E+02  0.40659141450E+02  0.00000000000E+00 0.  1.
         11    1    3    3    0    0 -0.13666814301E+02 -0.50956979321E+01 -0.10924950060E+02  0.18223679228E+02  0.51100000000E-03 0. -1.
        -11    1    3    3    0    0 -0.38344250442E+01 -0.12165565762E+02 -0.87213800731E+00  0.12785320907E+02  0.51100000000E-03 0.  1.
        -12    1    3    3    0    0 -0.16388385199E+02  0.68392795303E+01 -0.81037003028E+01  0.19519858415E+02  0.00000000000E+00 0.  1.
</event>
<event>
 7    1  0.5155466E-011  0.5052886E+02  0.7816164E-02  0.1300439E+00
        -11   -1    0    0    0    0  0.00000000000E+00  0.00000000000E+00  0.45593999997E+02  0.45594000000E+02  0.51100000000E-03 0.  1.
         11   -1    0    0    0    0 -0.00000000000E+00 -0.00000000000E+00 -0.45593999997E+02  0.45594000000E+02  0.51100000000E-03 0. -1.
    9900012    2    1    2    0    0 -0.99038163714E+00  0.38974109152E+02 -0.11541404014E+02  0.50528855314E+02  0.29999986212E+02 0.  0.
        -12    1    1    2    0    0  0.99038163714E+00 -0.38974109152E+02  0.11541404014E+02  0.40659144686E+02  0.00000000000E+00 0.  1.
         11    1    3    3    0    0 -0.90234696534E+01  0.26463481612E+02 -0.17327591981E+02  0.32893529876E+02  0.51100000000E-03 0. -1.
        -11    1    3    3    0    0  0.26583482574E+01  0.59434634984E+01  0.63964473931E+01  0.91272182689E+01  0.51100000000E-03 0.  1.
         12    1    3    3    0    0  0.53747397589E+01  0.65671640419E+01 -0.61025942680E+00  0.85081071688E+01  0.00000000000E+00 0. -1.
</event>
<event>
 7    1  0.5155466E-011  0.5052892E+02  0.7816164E-02  0.1300439E+00
        -11   -1    0    0    0    0  0.00000000000E+00  0.00000000000E+00  0.45593999997E+02  0.45594000000E+02  0.51100000000E-03 0. -1.
         11   -1    0    0    0    0 -0.00000000000E+00 -0.00000000000E+00 -0.45593999997E+02  0.45594000000E+02  0.51100000000E-03 0.  1.
    9900012    2    1    2    0    0 -0.40414858853E+02 -0.44465511513E+01 -0.16865401217E+00  0.50528916422E+02  0.30000171955E+02 0.  0.
        -12    1    1    2    0    0  0.40414858853E+02  0.44465511513E+01  0.16865401217E+00  0.40659083578E+02  0.00000000000E+00 0.  1.
         11    1    3    3    0    0 -0.20047994705E+02  0.98636825508E+01  0.46134079493E+01  0.22814422156E+02  0.51100000000E-03 0. -1.
        -11    1    3    3    0    0 -0.43945201233E+01 -0.43296130321E+01  0.35521849063E+01  0.71186637785E+01  0.51100000000E-03 0.  1.
         12    1    3    3    0    0 -0.15972344025E+02 -0.99806206700E+01 -0.83342468678E+01  0.20595830487E+02  0.00000000000E+00 0. -1.
</event>
<event>
 7    1  0.5155466E-011  0.5052885E+02  0.7816164E-02  0.1300439E+00
        -11   -1    0    0    0    0  0.00000000000E+00  0.00000000000E+00  0.45593999997E+02  0.45594000000E+02  0.51100000000E-03 0.  1.
         11   -1    0    0    0    0 -0.00000000000E+00 -0.00000000000E+00 -0.45593999997E+02  0.45594000000E+02  0.51100000000E-03 0. -1.
    9900012    2    1    2    0    0  0.35434046078E+02 -0.17837355692E+02  0.89119801730E+01  0.50528852565E+02  0.29999977857E+02 0.  0.
        -12    1    1    2    0    0 -0.35434046078E+02  0.17837355692E+02 -0.89119801730E+01  0.40659147435E+02  0.00000000000E+00 0.  1.
         11    1    3    3    0    0  0.23951734047E+01 -0.61173258054E+01 -0.73862921516E+01  0.98851324047E+01  0.51100000000E-03 0. -1.
        -11    1    3    3    0    0  0.28065102554E+02 -0.14398672766E+02  0.14490310642E+02  0.34712258087E+02  0.51100000000E-03 0.  1.
         12    1    3    3    0    0  0.49737701194E+01  0.26786428794E+01  0.18079616831E+01  0.59314620730E+01  0.00000000000E+00 0. -1.
</event>
<event>
 7    1  0.5155466E-011  0.5052885E+02  0.7816164E-02  0.1300439E+00
        -11   -1    0    0    0    0  0.00000000000E+00  0.00000000000E+00  0.45593999997E+02  0.45594000000E+02  0.51100000000E-03 0.  1.
         11   -1    0    0    0    0 -0.00000000000E+00 -0.00000000000E+00 -0.45593999997E+02  0.45594000000E+02  0.51100000000E-03 0. -1.
    9900012    2    1    2    0    0  0.38918014247E+02  0.11670318316E+02 -0.15357285940E+01  0.50528848203E+02  0.29999964599E+02 0.  0.
        -12    1    1    2    0    0 -0.38918014247E+02 -0.11670318316E+02  0.15357285940E+01  0.40659151797E+02  0.00000000000E+00 0.  1.
         11    1    3    3    0    0  0.35553545420E+02  0.11694284019E+02 -0.94972936313E+01  0.38613591613E+02  0.51100000000E-03 0. -1.
        -11    1    3    3    0    0 -0.15624721611E+01  0.18223265350E+01  0.57065390905E+01  0.61908627756E+01  0.51100000000E-03 0.  1.
         12    1    3    3    0    0  0.49269409877E+01 -0.18462922383E+01  0.22550259468E+01  0.57243938148E+01  0.00000000000E+00 0. -1.
</event>
<event>
 7    1  0.5155466E-011  0.5052885E+02  0.7816164E-02  0.1300439E+00
        -11   -1    0    0    0    0  0.00000000000E+00  0.00000000000E+00  0.45593999997E+02  0.45594000000E+02  0.51100000000E-03 0. -1.
         11   -1    0    0    0    0 -0.00000000000E+00 -0.00000000000E+00 -0.45593999997E+02  0.45594000000E+02  0.51100000000E-03 0.  1.
    9900012    2    1    2    0    0 -0.12453573045E+02  0.38508695275E+02  0.38929629414E+01  0.50528852766E+02  0.29999978467E+02 0.  0.
        -12    1    1    2    0    0  0.12453573045E+02 -0.38508695275E+02 -0.38929629414E+01  0.40659147234E+02  0.00000000000E+00 0.  1.
         11    1    3    3    0    0 -0.65362260570E+01  0.26152643807E+02  0.12300184424E+02  0.29630686227E+02  0.51100000000E-03 0. -1.
        -11    1    3    3    0    0 -0.95263707553E+01  0.47184966936E+01 -0.39007180962E+01  0.11323937157E+02  0.51100000000E-03 0.  1.
         12    1    3    3    0    0  0.36090237673E+01  0.76375547736E+01 -0.45065033865E+01  0.95742293813E+01  0.00000000000E+00 0. -1.
</event>
<event>
 7    1  0.5155466E-011  0.5052886E+02  0.7816164E-02  0.1300439E+00
        -11   -1    0    0    0    0  0.00000000000E+00  0.00000000000E+00  0.45593999997E+02  0.45594000000E+02  0.51100000000E-03 0. -1.
         11   -1    0    0    0    0 -0.00000000000E+00 -0.00000000000E+00 -0.45593999997E+02  0.45594000000E+02  0.51100000000E-03 0.  1.
    9900012    2    1    2    0    0  0.79292819808E+01 -0.23375650627E+02  0.32308990858E+02  0.50528862709E+02  0.30000008691E+02 0.  0.
        -12    1    1    2    0    0 -0.79292819808E+01  0.23375650627E+02 -0.32308990858E+02  0.40659137291E+02  0.00000000000E+00 0.  1.
         11    1    3    3    0    0  0.84769784095E+01 -0.68888399968E+01  0.83681767552E+01  0.13760147598E+02  0.51100000000E-03 0.  1.
        -11    1    3    3    0    0 -0.81151450977E+01 -0.18320931596E+02  0.18477248555E+02  0.27256574050E+02  0.51100000000E-03 0. -1.
         12    1    3    3    0    0  0.75674486690E+01  0.18341209662E+01  0.54635655482E+01  0.95121410616E+01  0.00000000000E+00 0. -1.
</event>
<event>
 7    1  0.5155466E-011  0.5052886E+02  0.7816164E-02  0.1300439E+00
        -11   -1    0    0    0    0  0.00000000000E+00  0.00000000000E+00  0.45593999997E+02  0.45594000000E+02  0.51100000000E-03 0.  1.
         11   -1    0    0    0    0 -0.00000000000E+00 -0.00000000000E+00 -0.45593999997E+02  0.45594000000E+02  0.51100000000E-03 0. -1.
    9900012    2    1    2    0    0  0.16989726655E+02 -0.36579418569E+02 -0.51440446920E+01  0.50528857480E+02  0.29999992797E+02 0.  0.
        -12    1    1    2    0    0 -0.16989726655E+02  0.36579418569E+02  0.51440446920E+01  0.40659142520E+02  0.00000000000E+00 0.  1.
         11    1    3    3    0    0  0.12936259188E+02 -0.33022739601E+02 -0.33886128366E+01  0.35627669440E+02  0.51100000000E-03 0. -1.
        -11    1    3    3    0    0  0.41779158477E+01  0.12687920656E+01 -0.66960838653E+01  0.79938947659E+01  0.51100000000E-03 0.  1.
        -12    1    3    3    0    0 -0.12444838053E+00 -0.48254710332E+01  0.49406520099E+01  0.69072932741E+01  0.00000000000E+00 0.  1.
</event>
<event>
 7    1  0.5155466E-011  0.5052886E+02  0.7816164E-02  0.1300439E+00
        -11   -1    0    0    0    0  0.00000000000E+00  0.00000000000E+00  0.45593999997E+02  0.45594000000E+02  0.51100000000E-03 0.  1.
         11   -1    0    0    0    0 -0.00000000000E+00 -0.00000000000E+00 -0.45593999997E+02  0.45594000000E+02  0.51100000000E-03 0. -1.
    9900012    2    1    2    0    0  0.77495078442E+01  0.24120545560E+02 -0.31801100774E+02  0.50528860801E+02  0.30000002891E+02 0.  0.
        -12    1    1    2    0    0 -0.77495078442E+01 -0.24120545560E+02  0.31801100774E+02  0.40659139199E+02  0.00000000000E+00 0.  1.
         11    1    3    3    0    0  0.62319476428E+01  0.19760657220E+01 -0.19220771477E+02  0.20302218194E+02  0.51100000000E-03 0. -1.
        -11    1    3    3    0    0  0.29630217442E+01  0.23710710230E+02 -0.13972958324E+02  0.27680694392E+02  0.51100000000E-03 0.  1.
        -12    1    3    3    0    0 -0.14454615428E+01 -0.15662303912E+01  0.13926290263E+01  0.25459482153E+01  0.00000000000E+00 0.  1.
</event>
<event>
 7    1  0.5155466E-011  0.5052887E+02  0.7816164E-02  0.1300439E+00
        -11   -1    0    0    0    0  0.00000000000E+00  0.00000000000E+00  0.45593999997E+02  0.45594000000E+02  0.51100000000E-03 0.  1.
         11   -1    0    0    0    0 -0.00000000000E+00 -0.00000000000E+00 -0.45593999997E+02  0.45594000000E+02  0.51100000000E-03 0. -1.
    9900012    2    1    2    0    0 -0.19015062780E+02 -0.22919783797E+02 -0.27681679667E+02  0.50528874443E+02  0.30000044357E+02 0.  0.
        -12    1    1    2    0    0  0.19015062780E+02  0.22919783797E+02  0.27681679667E+02  0.40659125557E+02  0.00000000000E+00 0.  1.
         11    1    3    3    0    0 -0.13631552078E+01  0.26012824155E+01  0.20786580047E+01  0.35980107960E+01  0.51100000000E-03 0. -1.
        -11    1    3    3    0    0 -0.14173687443E+02 -0.22000864517E+02 -0.12552922116E+02  0.29025976455E+02  0.51100000000E-03 0.  1.
         12    1    3    3    0    0 -0.34782201295E+01 -0.35202016957E+01 -0.17207415556E+02  0.17904887192E+02  0.00000000000E+00 0. -1.
</event>
<event>
 7    1  0.5155466E-011  0.5052884E+02  0.7816164E-02  0.1300439E+00
        -11   -1    0    0    0    0  0.00000000000E+00  0.00000000000E+00  0.45593999997E+02  0.45594000000E+02  0.51100000000E-03 0.  1.
         11   -1    0    0    0    0 -0.00000000000E+00 -0.00000000000E+00 -0.45593999997E+02  0.45594000000E+02  0.51100000000E-03 0. -1.
    9900012    2    1    2    0    0 -0.10100478028E+02 -0.25748863167E+02 -0.29801736779E+02  0.50528842042E+02  0.29999945871E+02 0.  0.
        -12    1    1    2    0    0  0.10100478028E+02  0.25748863167E+02  0.29801736779E+02  0.40659157958E+02  0.00000000000E+00 0.  1.
         11    1    3    3    0    0 -0.13781924695E+02 -0.19222090620E+02 -0.29707455173E+02  0.37973189347E+02  0.51100000000E-03 0. -1.
        -11    1    3    3    0    0 -0.18332341588E+01 -0.19284707265E+00  0.30701477643E+01  0.35810256953E+01  0.51100000000E-03 0.  1.
         12    1    3    3    0    0  0.55146808264E+01 -0.63339254747E+01 -0.31644293707E+01  0.89746269995E+01  0.00000000000E+00 0. -1.
</event>
<event>
 7    1  0.5155466E-011  0.5052887E+02  0.7816164E-02  0.1300439E+00
        -11   -1    0    0    0    0  0.00000000000E+00  0.00000000000E+00  0.45593999997E+02  0.45594000000E+02  0.51100000000E-03 0.  1.
         11   -1    0    0    0    0 -0.00000000000E+00 -0.00000000000E+00 -0.45593999997E+02  0.45594000000E+02  0.51100000000E-03 0. -1.
    9900012    2    1    2    0    0  0.90532178889E+01  0.16289882154E+00 -0.39638086354E+02  0.50528865971E+02  0.30000018607E+02 0.  0.
        -12    1    1    2    0    0 -0.90532178889E+01 -0.16289882154E+00  0.39638086354E+02  0.40659134029E+02  0.00000000000E+00 0.  1.
         11    1    3    3    0    0  0.93263017351E+01 -0.94888786740E+01 -0.14533917096E+02  0.19704148522E+02  0.51100000000E-03 0. -1.
        -11    1    3    3    0    0  0.62534362649E+01  0.94711019669E+01 -0.16394001698E+02  0.19939170733E+02  0.51100000000E-03 0.  1.
        -12    1    3    3    0    0 -0.65265201112E+01  0.18067552864E+00 -0.87101675593E+01  0.10885546717E+02  0.00000000000E+00 0.  1.
</event>
<event>
 7    1  0.5155466E-011  0.5052884E+02  0.7816164E-02  0.1300439E+00
        -11   -1    0    0    0    0  0.00000000000E+00  0.00000000000E+00  0.45593999997E+02  0.45594000000E+02  0.51100000000E-03 0. -1.
         11   -1    0    0    0    0 -0.00000000000E+00 -0.00000000000E+00 -0.45593999997E+02  0.45594000000E+02  0.51100000000E-03 0.  1.
    9900012    2    1    2    0    0  0.23491008062E+02  0.12684366430E+02  0.30666702151E+02  0.50528840733E+02  0.29999941892E+02 0.  0.
        -12    1    1    2    0    0 -0.23491008062E+02 -0.12684366430E+02 -0.30666702151E+02  0.40659159267E+02  0.00000000000E+00 0.  1.
         11    1    3    3    0    0  0.54618077445E+01  0.55634740207E+00 -0.28590364317E+01  0.61899075800E+01  0.51100000000E-03 0. -1.
        -11    1    3    3    0    0  0.15949734664E+02 -0.66302106369E+00  0.20267990920E+02  0.25799711025E+02  0.51100000000E-03 0.  1.
        -12    1    3    3    0    0  0.20794656535E+01  0.12791040092E+02  0.13257747662E+02  0.18539222128E+02  0.00000000000E+00 0.  1.
</event>
<event>
 7    1  0.5155466E-011  0.5052884E+02  0.7816164E-02  0.1300439E+00
        -11   -1    0    0    0    0  0.00000000000E+00  0.00000000000E+00  0.45593999997E+02  0.45594000000E+02  0.51100000000E-03 0.  1.
         11   -1    0    0    0    0 -0.00000000000E+00 -0.00000000000E+00 -0.45593999997E+02  0.45594000000E+02  0.51100000000E-03 0. -1.
    9900012    2    1    2    0    0  0.19346202978E+02  0.33715488797E+02  0.11922992427E+02  0.50528837405E+02  0.29999931777E+02 0.  0.
        -12    1    1    2    0    0 -0.19346202978E+02 -0.33715488797E+02 -0.11922992427E+02  0.40659162595E+02  0.00000000000E+00 0.  1.
         11    1    3    3    0    0  0.85756287573E+01  0.68744870635E+01  0.21123787379E+01  0.11192056342E+02  0.51100000000E-03 0. -1.
        -11    1    3    3    0    0 -0.29829281710E+01  0.13379656200E+02 -0.54739707329E+01  0.14760671270E+02  0.51100000000E-03 0.  1.
        -12    1    3    3    0    0  0.13753502392E+02  0.13461345534E+02  0.15284584422E+02  0.24576109793E+02  0.00000000000E+00 0.  1.
</event>
<event>
 7    1  0.5155466E-011  0.5052886E+02  0.7816164E-02  0.1300439E+00
        -11   -1    0    0    0    0  0.00000000000E+00  0.00000000000E+00  0.45593999997E+02  0.45594000000E+02  0.51100000000E-03 0. -1.
         11   -1    0    0    0    0 -0.00000000000E+00 -0.00000000000E+00 -0.45593999997E+02  0.45594000000E+02  0.51100000000E-03 0.  1.
    9900012    2    1    2    0    0 -0.28682291273E+02 -0.17345949295E+02  0.23013260603E+02  0.50528856462E+02  0.29999989703E+02 0.  0.
        -12    1    1    2    0    0  0.28682291273E+02  0.17345949295E+02 -0.23013260603E+02  0.40659143538E+02  0.00000000000E+00 0.  1.
         11    1    3    3    0    0  0.13014984264E+01 -0.37784087640E+01  0.61155950092E+00  0.40428054895E+01  0.51100000000E-03 0. -1.
        -11    1    3    3    0    0 -0.26588992598E+02  0.14655193677E+00  0.14029063361E+02  0.30063443313E+02  0.51100000000E-03 0.  1.
        -12    1    3    3    0    0 -0.33947971020E+01 -0.13714092468E+02  0.83726377414E+01  0.16422607659E+02  0.00000000000E+00 0.  1.
</event>
<event>
 7    1  0.5155466E-011  0.5052886E+02  0.7816164E-02  0.1300439E+00
        -11   -1    0    0    0    0  0.00000000000E+00  0.00000000000E+00  0.45593999997E+02  0.45594000000E+02  0.51100000000E-03 0. -1.
         11   -1    0    0    0    0 -0.00000000000E+00 -0.00000000000E+00 -0.45593999997E+02  0.45594000000E+02  0.51100000000E-03 0.  1.
    9900012    2    1    2    0    0 -0.29648528226E+02 -0.18193984890E+02  0.21050161514E+02  0.50528860660E+02  0.30000002461E+02 0.  0.
        -12    1    1    2    0    0  0.29648528226E+02  0.18193984890E+02 -0.21050161514E+02  0.40659139340E+02  0.00000000000E+00 0.  1.
         11    1    3    3    0    0 -0.23358537884E+02 -0.20747623095E+01  0.18759903059E+02  0.30030982231E+02  0.51100000000E-03 0. -1.
        -11    1    3    3    0    0 -0.28609959951E+00  0.10414921589E+01 -0.15760699799E+01  0.19106427559E+01  0.51100000000E-03 0.  1.
         12    1    3    3    0    0 -0.60038907427E+01 -0.17160714739E+02  0.38663284351E+01  0.18587235673E+02  0.00000000000E+00 0. -1.
</event>
<event>
 7    1  0.5155466E-011  0.5052883E+02  0.7816164E-02  0.1300439E+00
        -11   -1    0    0    0    0  0.00000000000E+00  0.00000000000E+00  0.45593999997E+02  0.45594000000E+02  0.51100000000E-03 0. -1.
         11   -1    0    0    0    0 -0.00000000000E+00 -0.00000000000E+00 -0.45593999997E+02  0.45594000000E+02  0.51100000000E-03 0.  1.
    9900012    2    1    2    0    0  0.17505969456E+00  0.39752119167E+02 -0.85385231216E+01  0.50528831277E+02  0.29999913149E+02 0.  0.
        -12    1    1    2    0    0 -0.17505969456E+00 -0.39752119167E+02  0.85385231216E+01  0.40659168723E+02  0.00000000000E+00 0.  1.
         11    1    3    3    0    0 -0.34804223443E+01  0.23460076730E+02  0.13369120072E+01  0.23754491656E+02  0.51100000000E-03 0. -1.
        -11    1    3    3    0    0  0.19772668130E+00  0.12805406335E+02 -0.14968508894E+02  0.19699588473E+02  0.51100000000E-03 0.  1.
         12    1    3    3    0    0  0.34577553575E+01  0.34866361024E+01  0.50930737651E+01  0.70747511476E+01  0.00000000000E+00 0. -1.
</event>
<event>
 7    1  0.5155466E-011  0.5052886E+02  0.7816164E-02  0.1300439E+00
        -11   -1    0    0    0    0  0.00000000000E+00  0.00000000000E+00  0.45593999997E+02  0.45594000000E+02  0.51100000000E-03 0.  1.
         11   -1    0    0    0    0 -0.00000000000E+00 -0.00000000000E+00 -0.45593999997E+02  0.45594000000E+02  0.51100000000E-03 0. -1.
    9900012    2    1    2    0    0 -0.18849866211E+02  0.18866767825E+02 -0.30690277049E+02  0.50528862162E+02  0.30000007029E+02 0.  0.
        -12    1    1    2    0    0  0.18849866211E+02 -0.18866767825E+02  0.30690277049E+02  0.40659137838E+02  0.00000000000E+00 0.  1.
         11    1    3    3    0    0 -0.52751663574E+01  0.49259709030E+01 -0.20846643507E+02  0.22060714295E+02  0.51100000000E-03 0. -1.
        -11    1    3    3    0    0 -0.58798244046E+01  0.32069691230E+00  0.43690896494E+01  0.73324024824E+01  0.51100000000E-03 0.  1.
        -12    1    3    3    0    0 -0.76948754492E+01  0.13620100010E+02 -0.14212723191E+02  0.21135745385E+02  0.00000000000E+00 0.  1.
</event>
<event>
 7    1  0.5155466E-011  0.5052886E+02  0.7816164E-02  0.1300439E+00
        -11   -1    0    0    0    0  0.00000000000E+00  0.00000000000E+00  0.45593999997E+02  0.45594000000E+02  0.51100000000E-03 0.  1.
         11   -1    0    0    0    0 -0.00000000000E+00 -0.00000000000E+00 -0.45593999997E+02  0.45594000000E+02  0.51100000000E-03 0. -1.
    9900012    2    1    2    0    0 -0.64762288302E+00 -0.21429299403E+02 -0.34547526595E+02  0.50528857337E+02  0.29999992360E+02 0.  0.
        -12    1    1    2    0    0  0.64762288302E+00  0.21429299403E+02  0.34547526595E+02  0.40659142663E+02  0.00000000000E+00 0.  1.
         11    1    3    3    0    0  0.17619284933E+01 -0.24429664639E+02 -0.23217011124E+02  0.33748222356E+02  0.51100000000E-03 0. -1.
        -11    1    3    3    0    0  0.70803176782E+00  0.78819358709E+00  0.23490791436E+01  0.25769616215E+01  0.51100000000E-03 0.  1.
         12    1    3    3    0    0 -0.31175831442E+01  0.22121716492E+01 -0.13679594615E+02  0.14203673359E+02  0.00000000000E+00 0. -1.
</event>
<event>
 7    1  0.5155466E-011  0.5052886E+02  0.7816164E-02  0.1300439E+00
        -11   -1    0    0    0    0  0.00000000000E+00  0.00000000000E+00  0.45593999997E+02  0.45594000000E+02  0.51100000000E-03 0.  1.
         11   -1    0    0    0    0 -0.00000000000E+00 -0.00000000000E+00 -0.45593999997E+02  0.45594000000E+02  0.51100000000E-03 0. -1.
    9900012    2    1    2    0    0  0.23113282538E+02 -0.14613459323E+02 -0.30089679368E+02  0.50528858008E+02  0.29999994400E+02 0.  0.
        -12    1    1    2    0    0 -0.23113282538E+02  0.14613459323E+02  0.30089679368E+02  0.40659141992E+02  0.00000000000E+00 0.  1.
         11    1    3    3    0    0  0.10727187551E+02  0.63327361447E+01 -0.12912551863E+02  0.17941853185E+02  0.51100000000E-03 0. -1.
        -11    1    3    3    0    0  0.51965414399E+01 -0.32216213686E+01  0.10057686477E+01  0.61963261706E+01  0.51100000000E-03 0.  1.
         12    1    3    3    0    0  0.71895535467E+01 -0.17724574099E+02 -0.18182896153E+02  0.26390678652E+02  0.00000000000E+00 0. -1.
</event>
<event>
 7    1  0.5155466E-011  0.5052886E+02  0.7816164E-02  0.1300439E+00
        -11   -1    0    0    0    0  0.00000000000E+00  0.00000000000E+00  0.45593999997E+02  0.45594000000E+02  0.51100000000E-03 0.  1.
         11   -1    0    0    0    0 -0.00000000000E+00 -0.00000000000E+00 -0.45593999997E+02  0.45594000000E+02  0.51100000000E-03 0. -1.
    9900012    2    1    2    0    0 -0.12588953329E+02 -0.22234010914E+02 -0.31628034998E+02  0.50528860989E+02  0.30000003463E+02 0.  0.
        -12    1    1    2    0    0  0.12588953329E+02  0.22234010914E+02  0.31628034998E+02  0.40659139011E+02  0.00000000000E+00 0.  1.
         11    1    3    3    0    0 -0.81567762049E+01 -0.43918419210E+01 -0.14682754451E+02  0.17361006654E+02  0.51100000000E-03 0. -1.
        -11    1    3    3    0    0  0.44702851520E+01  0.29404746132E+01 -0.85697663075E+00  0.54188789891E+01  0.51100000000E-03 0.  1.
        -12    1    3    3    0    0 -0.89024622763E+01 -0.20782643606E+02 -0.16088303916E+02  0.27748975346E+02  0.00000000000E+00 0.  1.
</event>
<event>
 7    1  0.5155466E-011  0.5052887E+02  0.7816164E-02  0.1300439E+00
        -11   -1    0    0    0    0  0.00000000000E+00  0.00000000000E+00  0.45593999997E+02  0.45594000000E+02  0.51100000000E-03 0. -1.
         11   -1    0    0    0    0 -0.00000000000E+00 -0.00000000000E+00 -0.45593999997E+02  0.45594000000E+02  0.51100000000E-03 0.  1.
    9900012    2    1    2    0    0 -0.14459625142E+02  0.37964313356E+02  0.16719011110E+01  0.50528866940E+02  0.30000021551E+02 0.  0.
        -12    1    1    2    0    0  0.14459625142E+02 -0.37964313356E+02 -0.16719011110E+01  0.40659133060E+02  0.00000000000E+00 0.  1.
         11    1    3    3    0    0 -0.68276877282E+01  0.17475696332E+02 -0.10602710025E+02  0.21550748064E+02  0.51100000000E-03 0. -1.
        -11    1    3    3    0    0 -0.96945349522E+00  0.10397402753E+02  0.13222587500E+02  0.16848817304E+02  0.51100000000E-03 0.  1.
         12    1    3    3    0    0 -0.66624839184E+01  0.10091214271E+02 -0.94797636428E+00  0.12129301571E+02  0.00000000000E+00 0. -1.
</event>
<event>
 7    1 -0.5155466E-011  0.5052887E+02  0.7816164E-02  0.1300439E+00
        -11   -1    0    0    0    0  0.00000000000E+00  0.00000000000E+00  0.45593999997E+02  0.45594000000E+02  0.51100000000E-03 0. -1.
         11   -1    0    0    0    0 -0.00000000000E+00 -0.00000000000E+00 -0.45593999997E+02  0.45594000000E+02  0.51100000000E-03 0.  1.
    9900012    2    1    2    0    0 -0.66219226171E+01  0.27864198599E+02  0.28860028408E+02  0.50528872336E+02  0.30000037951E+02 0.  0.
        -12    1    1    2    0    0  0.66219226171E+01 -0.27864198599E+02 -0.28860028408E+02  0.40659127664E+02  0.00000000000E+00 0.  1.
         11    1    3    3    0    0 -0.83679177119E+01  0.61276454295E+01  0.24310650825E+02  0.26430622943E+02  0.51100000000E-03 0. -1.
        -11    1    3    3    0    0  0.96098190945E+00  0.52966357341E+01  0.53905386870E+01  0.76181194482E+01  0.51100000000E-03 0.  1.
         12    1    3    3    0    0  0.78501318528E+00  0.16439917436E+02 -0.84116110424E+00  0.16480129945E+02  0.00000000000E+00 0. -1.
</event>
<event>
 7    1  0.5155466E-011  0.5052886E+02  0.7816164E-02  0.1300439E+00
        -11   -1    0    0    0    0  0.00000000000E+00  0.00000000000E+00  0.45593999997E+02  0.45594000000E+02  0.51100000000E-03 0.  1.
         11   -1    0    0    0    0 -0.00000000000E+00 -0.00000000000E+00 -0.45593999997E+02  0.45594000000E+02  0.51100000000E-03 0. -1.
    9900012    2    1    2    0    0 -0.14040545091E+01  0.10600465574E+02 -0.39227855587E+02  0.50528857197E+02  0.29999991937E+02 0.  0.
        -12    1    1    2    0    0  0.14040545091E+01 -0.10600465574E+02  0.39227855587E+02  0.40659142803E+02  0.00000000000E+00 0.  1.
         11    1    3    3    0    0  0.52472404621E+01  0.42484997335E+00 -0.25733855111E+02  0.26266810410E+02  0.51100000000E-03 0. -1.
        -11    1    3    3    0    0 -0.11965731753E+02  0.60558539991E+01 -0.95858751538E+01  0.16484571780E+02  0.51100000000E-03 0.  1.
         12    1    3    3    0    0  0.53144367818E+01  0.41197616013E+01 -0.39081253229E+01  0.77774750079E+01  0.00000000000E+00 0. -1.
</event>
<event>
 7    1  0.5155466E-011  0.5052886E+02  0.7816164E-02  0.1300439E+00
        -11   -1    0    0    0    0  0.00000000000E+00  0.00000000000E+00  0.45593999997E+02  0.45594000000E+02  0.51100000000E-03 0.  1.
         11   -1    0    0    0    0 -0.00000000000E+00 -0.00000000000E+00 -0.45593999997E+02  0.45594000000E+02  0.51100000000E-03 0. -1.
    9900012    2    1    2    0    0 -0.17189399304E+02  0.21918124578E+02 -0.29619010375E+02  0.50528863155E+02  0.30000010045E+02 0.  0.
        -12    1    1    2    0    0  0.17189399304E+02 -0.21918124578E+02  0.29619010375E+02  0.40659136845E+02  0.00000000000E+00 0.  1.
         11    1    3    3    0    0 -0.22487232887E+02  0.18804087847E+02 -0.17170398483E+02  0.33971928809E+02  0.51100000000E-03 0. -1.
        -11    1    3    3    0    0  0.15455387548E+01  0.59834406961E+01 -0.74495986912E+01  0.96791928138E+01  0.51100000000E-03 0.  1.
         12    1    3    3    0    0  0.37522948289E+01 -0.28694039654E+01 -0.49990132008E+01  0.68777415320E+01  0.00000000000E+00 0. -1.
</event>
<event>
 7    1  0.5155466E-011  0.5052886E+02  0.7816164E-02  0.1300439E+00
        -11   -1    0    0    0    0  0.00000000000E+00  0.00000000000E+00  0.45593999997E+02  0.45594000000E+02  0.51100000000E-03 0.  1.
         11   -1    0    0    0    0 -0.00000000000E+00 -0.00000000000E+00 -0.45593999997E+02  0.45594000000E+02  0.51100000000E-03 0. -1.
    9900012    2    1    2    0    0  0.22956058608E+02  0.17915165489E+02 -0.28376605536E+02  0.50528861752E+02  0.30000005782E+02 0.  0.
        -12    1    1    2    0    0 -0.22956058608E+02 -0.17915165489E+02  0.28376605536E+02  0.40659138248E+02  0.00000000000E+00 0.  1.
         11    1    3    3    0    0 -0.66056243236E+00  0.90558747975E+01  0.18830409795E+01  0.92731361829E+01  0.51100000000E-03 0.  1.
        -11    1    3    3    0    0  0.76647934051E+01  0.89021824249E+01 -0.16071400240E+02  0.19906979073E+02  0.51100000000E-03 0. -1.
         12    1    3    3    0    0  0.15951827636E+02 -0.42891733283E-01 -0.14188246275E+02  0.21348746497E+02  0.00000000000E+00 0. -1.
</event>
<event>
 7    1  0.5155466E-011  0.5052886E+02  0.7816164E-02  0.1300439E+00
        -11   -1    0    0    0    0  0.00000000000E+00  0.00000000000E+00  0.45593999997E+02  0.45594000000E+02  0.51100000000E-03 0. -1.
         11   -1    0    0    0    0 -0.00000000000E+00 -0.00000000000E+00 -0.45593999997E+02  0.45594000000E+02  0.51100000000E-03 0.  1.
    9900012    2    1    2    0    0  0.31626307917E+02  0.51951557109E+01  0.25019051097E+02  0.50528856956E+02  0.29999991203E+02 0.  0.
        -12    1    1    2    0    0 -0.31626307917E+02 -0.51951557109E+01 -0.25019051097E+02  0.40659143044E+02  0.00000000000E+00 0.  1.
         11    1    3    3    0    0  0.14071819291E+02 -0.76726806969E+01  0.18551842954E+02  0.24516463948E+02  0.51100000000E-03 0. -1.
        -11    1    3    3    0    0 -0.15149294441E+00 -0.91467267895E+00  0.32076744247E+01  0.33389746476E+01  0.51100000000E-03 0.  1.
         12    1    3    3    0    0  0.17705981571E+02  0.13782509087E+02  0.32595337175E+01  0.22673418361E+02  0.00000000000E+00 0. -1.
</event>
<event>
 7    1  0.5155466E-011  0.5052892E+02  0.7816164E-02  0.1300439E+00
        -11   -1    0    0    0    0  0.00000000000E+00  0.00000000000E+00  0.45593999997E+02  0.45594000000E+02  0.51100000000E-03 0. -1.
         11   -1    0    0    0    0 -0.00000000000E+00 -0.00000000000E+00 -0.45593999997E+02  0.45594000000E+02  0.51100000000E-03 0.  1.
    9900012    2    1    2    0    0  0.28377676397E+02 -0.64845570633E+01  0.28386940509E+02  0.50528924882E+02  0.30000197671E+02 0.  0.
        -12    1    1    2    0    0 -0.28377676397E+02  0.64845570633E+01 -0.28386940509E+02  0.40659075118E+02  0.00000000000E+00 0.  1.
         11    1    3    3    0    0  0.54133238266E+01  0.37352715794E+01 -0.40862031422E+01  0.77429571227E+01  0.51100000000E-03 0. -1.
        -11    1    3    3    0    0  0.19425973366E+02 -0.32396089003E+01  0.26080003916E+02  0.32680729973E+02  0.51100000000E-03 0.  1.
         12    1    3    3    0    0  0.35383792042E+01 -0.69802197424E+01  0.63931397351E+01  0.10105237786E+02  0.00000000000E+00 0. -1.
</event>
<event>
 7    1  0.5457066E-011  0.5052886E+02  0.7816164E-02  0.1300439E+00
        -11   -1    0    0    0    0  0.00000000000E+00  0.00000000000E+00  0.45593999997E+02  0.45594000000E+02  0.51100000000E-03 0.  1.
         11   -1    0    0    0    0 -0.00000000000E+00 -0.00000000000E+00 -0.45593999997E+02  0.45594000000E+02  0.51100000000E-03 0. -1.
    9900012    2    1    2    0    0 -0.60992737887E+01  0.31417187852E+02 -0.25078368621E+02  0.50528863192E+02  0.30000010158E+02 0.  0.
        -12    1    1    2    0    0  0.60992737887E+01 -0.31417187852E+02  0.25078368621E+02  0.40659136808E+02  0.00000000000E+00 0.  1.
         11    1    3    3    0    0 -0.18562687640E+00  0.18926720094E+02 -0.20572027859E+02  0.27954669044E+02  0.51100000000E-03 0. -1.
        -11    1    3    3    0    0 -0.11826515217E+02  0.67097127991E+01 -0.11363913444E+01  0.13644709362E+02  0.51100000000E-03 0.  1.
        -12    1    3    3    0    0  0.59128683042E+01  0.57807549590E+01 -0.33699494180E+01  0.89294847868E+01  0.00000000000E+00 0.  1.
</event>
<event>
 7    1  0.5155466E-011  0.5052885E+02  0.7816164E-02  0.1300439E+00
        -11   -1    0    0    0    0  0.00000000000E+00  0.00000000000E+00  0.45593999997E+02  0.45594000000E+02  0.51100000000E-03 0. -1.
         11   -1    0    0    0    0 -0.00000000000E+00 -0.00000000000E+00 -0.45593999997E+02  0.45594000000E+02  0.51100000000E-03 0.  1.
    9900012    2    1    2    0    0 -0.18722381484E+02  0.35984682998E+02  0.27822904196E+01  0.50528854425E+02  0.29999983509E+02 0.  0.
        -12    1    1    2    0    0  0.18722381484E+02 -0.35984682998E+02 -0.27822904196E+01  0.40659145575E+02  0.00000000000E+00 0.  1.
         11    1    3    3    0    0 -0.23170495134E+02  0.17220883961E+02 -0.13011035350E+01  0.28898504457E+02  0.51100000000E-03 0. -1.
        -11    1    3    3    0    0  0.12470195547E+01  0.15653095641E+02  0.18457105842E+00  0.15703774312E+02  0.51100000000E-03 0.  1.
         12    1    3    3    0    0  0.32010940953E+01  0.31107033965E+01  0.38988228962E+01  0.59265756558E+01  0.00000000000E+00 0. -1.
</event>
<event>
 7    1  0.5155466E-011  0.5052886E+02  0.7816164E-02  0.1300439E+00
        -11   -1    0    0    0    0  0.00000000000E+00  0.00000000000E+00  0.45593999997E+02  0.45594000000E+02  0.51100000000E-03 0. -1.
         11   -1    0    0    0    0 -0.00000000000E+00 -0.00000000000E+00 -0.45593999997E+02  0.45594000000E+02  0.51100000000E-03 0.  1.
    9900012    2    1    2    0    0  0.38777647179E+02 -0.35114598626E+00  0.12220329321E+02  0.50528859909E+02  0.30000000180E+02 0.  0.
        -12    1    1    2    0    0 -0.38777647179E+02  0.35114598626E+00 -0.12220329321E+02  0.40659140091E+02  0.00000000000E+00 0.  1.
         11    1    3    3    0    0  0.19119629009E+02 -0.62458210363E+01  0.15312540233E+02  0.25279327176E+02  0.51100000000E-03 0. -1.
        -11    1    3    3    0    0  0.14935755732E+02  0.10369288139E+00 -0.73528576503E+01  0.16647884772E+02  0.51100000000E-03 0.  1.
        -12    1    3    3    0    0  0.47222624378E+01  0.57909821686E+01  0.42606467380E+01  0.86016479604E+01  0.00000000000E+00 0.  1.
</event>
<event>
 7    1  0.5155466E-011  0.5052887E+02  0.7816164E-02  0.1300439E+00
        -11   -1    0    0    0    0  0.00000000000E+00  0.00000000000E+00  0.45593999997E+02  0.45594000000E+02  0.51100000000E-03 0. -1.
         11   -1    0    0    0    0 -0.00000000000E+00 -0.00000000000E+00 -0.45593999997E+02  0.45594000000E+02  0.51100000000E-03 0.  1.
    9900012    2    1    2    0    0  0.20001099823E+02 -0.16155173233E+02  0.31498109928E+02  0.50528873775E+02  0.30000042327E+02 0.  0.
        -12    1    1    2    0    0 -0.20001099823E+02  0.16155173233E+02 -0.31498109928E+02  0.40659126225E+02  0.00000000000E+00 0.  1.
         11    1    3    3    0    0  0.15389060637E+02 -0.60464945915E+01  0.33813566741E+02  0.37639614506E+02  0.51100000000E-03 0. -1.
        -11    1    3    3    0    0  0.51328284333E+01 -0.10633560722E+02 -0.26112946715E+01  0.12092865726E+02  0.51100000000E-03 0.  1.
         12    1    3    3    0    0 -0.52078924700E+00  0.52488208007E+00  0.29583785855E+00  0.79639354362E+00  0.00000000000E+00 0. -1.
</event>
<event>
 7    1  0.5155466E-011  0.5052886E+02  0.7816164E-02  0.1300439E+00
        -11   -1    0    0    0    0  0.00000000000E+00  0.00000000000E+00  0.45593999997E+02  0.45594000000E+02  0.51100000000E-03 0.  1.
         11   -1    0    0    0    0 -0.00000000000E+00 -0.00000000000E+00 -0.45593999997E+02  0.45594000000E+02  0.51100000000E-03 0. -1.
    9900012    2    1    2    0    0 -0.13141166641E+02 -0.22715442694E+02 -0.31056143157E+02  0.50528860495E+02  0.30000001961E+02 0.  0.
        -12    1    1    2    0    0  0.13141166641E+02  0.22715442694E+02  0.31056143157E+02  0.40659139505E+02  0.00000000000E+00 0.  1.
         11    1    3    3    0    0  0.43563577167E+01  0.30823027217E+01 -0.80691923919E+01  0.96742084297E+01  0.51100000000E-03 0. -1.
        -11    1    3    3    0    0 -0.94690777465E+01 -0.10130233127E+02 -0.29399859629E+01  0.14174927665E+02  0.51100000000E-03 0.  1.
         12    1    3    3    0    0 -0.80284466109E+01 -0.15667512288E+02 -0.20046964803E+02  0.26679724400E+02  0.00000000000E+00 0. -1.
</event>
<event>
 7    1  0.5155466E-011  0.5052886E+02  0.7816164E-02  0.1300439E+00
        -11   -1    0    0    0    0  0.00000000000E+00  0.00000000000E+00  0.45593999997E+02  0.45594000000E+02  0.51100000000E-03 0.  1.
         11   -1    0    0    0    0 -0.00000000000E+00 -0.00000000000E+00 -0.45593999997E+02  0.45594000000E+02  0.51100000000E-03 0. -1.
    9900012    2    1    2    0    0 -0.24244292888E+02  0.10838789295E+02 -0.30787993265E+02  0.50528860556E+02  0.30000002147E+02 0.  0.
        -12    1    1    2    0    0  0.24244292888E+02 -0.10838789295E+02  0.30787993265E+02  0.40659139444E+02  0.00000000000E+00 0.  1.
         11    1    3    3    0    0 -0.15950218149E+02  0.75732834076E+01 -0.16987851503E+02  0.24502064801E+02  0.51100000000E-03 0. -1.
        -11    1    3    3    0    0  0.18936982223E+01  0.97266800044E+01 -0.50366831855E+01  0.11115870395E+02  0.51100000000E-03 0.  1.
         12    1    3    3    0    0 -0.10187772962E+02 -0.64611741170E+01 -0.87634585764E+01  0.14910925361E+02  0.00000000000E+00 0. -1.
</event>
<event>
 7    1  0.5155466E-011  0.5052886E+02  0.7816164E-02  0.1300439E+00
        -11   -1    0    0    0    0  0.00000000000E+00  0.00000000000E+00  0.45593999997E+02  0.45594000000E+02  0.51100000000E-03 0.  1.
         11   -1    0    0    0    0 -0.00000000000E+00 -0.00000000000E+00 -0.45593999997E+02  0.45594000000E+02  0.51100000000E-03 0. -1.
    9900012    2    1    2    0    0  0.17683522154E+02  0.47703202210E+00 -0.36609170953E+02  0.50528856955E+02  0.29999991200E+02 0.  0.
        -12    1    1    2    0    0 -0.17683522154E+02 -0.47703202210E+00  0.36609170953E+02  0.40659143045E+02  0.00000000000E+00 0.  1.
         11    1    3    3    0    0  0.21663981410E+02  0.61825150215E+01 -0.22326201876E+02  0.31717674457E+02  0.51100000000E-03 0. -1.
        -11    1    3    3    0    0 -0.60383627312E+01 -0.41045298460E+01 -0.14459057428E+02  0.16197942206E+02  0.51100000000E-03 0.  1.
        -12    1    3    3    0    0  0.20579034760E+01 -0.16009531534E+01  0.17608835137E+00  0.26132402920E+01  0.00000000000E+00 0.  1.
</event>
<event>
 7    1  0.5155466E-011  0.5052886E+02  0.7816164E-02  0.1300439E+00
        -11   -1    0    0    0    0  0.00000000000E+00  0.00000000000E+00  0.45593999997E+02  0.45594000000E+02  0.51100000000E-03 0.  1.
         11   -1    0    0    0    0 -0.00000000000E+00 -0.00000000000E+00 -0.45593999997E+02  0.45594000000E+02  0.51100000000E-03 0. -1.
    9900012    2    1    2    0    0  0.10093040953E+02  0.10701208907E+02 -0.37904886788E+02  0.50528858468E+02  0.29999995799E+02 0.  0.
        -12    1    1    2    0    0 -0.10093040953E+02 -0.10701208907E+02  0.37904886788E+02  0.40659141532E+02  0.00000000000E+00 0.  1.
         11    1    3    3    0    0 -0.57718671708E+01 -0.26087379649E+01 -0.92357853883E+00  0.64010125750E+01  0.51100000000E-03 0.  1.
        -11    1    3    3    0    0  0.15841546648E+00 -0.18145739283E+01 -0.10624490475E+01  0.21086896976E+01  0.51100000000E-03 0. -1.
         12    1    3    3    0    0  0.15706492657E+02  0.15124520800E+02 -0.35918859202E+02  0.42019156195E+02  0.00000000000E+00 0. -1.
</event>
<event>
 7    1  0.5155466E-011  0.5052881E+02  0.7816164E-02  0.1300439E+00
        -11   -1    0    0    0    0  0.00000000000E+00  0.00000000000E+00  0.45593999997E+02  0.45594000000E+02  0.51100000000E-03 0.  1.
         11   -1    0    0    0    0 -0.00000000000E+00 -0.00000000000E+00 -0.45593999997E+02  0.45594000000E+02  0.51100000000E-03 0. -1.
    9900012    2    1    2    0    0  0.25345535458E+02 -0.64592291954E+01 -0.31129594617E+02  0.50528813209E+02  0.29999858231E+02 0.  0.
        -12    1    1    2    0    0 -0.25345535458E+02  0.64592291954E+01  0.31129594617E+02  0.40659186791E+02  0.00000000000E+00 0.  1.
         11    1    3    3    0    0  0.63989782104E+00 -0.43089528675E+01 -0.12428884996E+02  0.13170183239E+02  0.51100000000E-03 0. -1.
        -11    1    3    3    0    0  0.27429545879E+02  0.95695315628E+00 -0.13136770712E+02  0.30428120078E+02  0.51100000000E-03 0.  1.
        -12    1    3    3    0    0 -0.27239082427E+01 -0.31072294842E+01 -0.55639389089E+01  0.69305098921E+01  0.00000000000E+00 0.  1.
</event>
<event>
 7    1  0.5155466E-011  0.5052886E+02  0.7816164E-02  0.1300439E+00
        -11   -1    0    0    0    0  0.00000000000E+00  0.00000000000E+00  0.45593999997E+02  0.45594000000E+02  0.51100000000E-03 0.  1.
         11   -1    0    0    0    0 -0.00000000000E+00 -0.00000000000E+00 -0.45593999997E+02  0.45594000000E+02  0.51100000000E-03 0. -1.
    9900012    2    1    2    0    0 -0.16015774126E+02  0.26164579665E+02 -0.26684740043E+02  0.50528860793E+02  0.30000002867E+02 0.  0.
        -12    1    1    2    0    0  0.16015774126E+02 -0.26164579665E+02  0.26684740043E+02  0.40659139207E+02  0.00000000000E+00 0.  1.
         11    1    3    3    0    0 -0.87402913505E+01  0.19654927470E+02 -0.28608270963E+02  0.35793044499E+02  0.51100000000E-03 0. -1.
        -11    1    3    3    0    0 -0.21269355982E+01 -0.11752172220E+01 -0.33112168199E+01  0.41072067938E+01  0.51100000000E-03 0.  1.
         12    1    3    3    0    0 -0.51485471772E+01  0.76848694173E+01  0.52347477408E+01  0.10628609500E+02  0.00000000000E+00 0. -1.
</event>
<event>
 7    1  0.5155466E-011  0.5052889E+02  0.7816164E-02  0.1300439E+00
        -11   -1    0    0    0    0  0.00000000000E+00  0.00000000000E+00  0.45593999997E+02  0.45594000000E+02  0.51100000000E-03 0.  1.
         11   -1    0    0    0    0 -0.00000000000E+00 -0.00000000000E+00 -0.45593999997E+02  0.45594000000E+02  0.51100000000E-03 0. -1.
    9900012    2    1    2    0    0 -0.79470677715E+01  0.31823971669E+02 -0.24025864289E+02  0.50528890150E+02  0.30000092099E+02 0.  0.
        -12    1    1    2    0    0  0.79470677715E+01 -0.31823971669E+02  0.24025864289E+02  0.40659109850E+02  0.00000000000E+00 0.  1.
         11    1    3    3    0    0 -0.61924841685E+01  0.25334446571E+02 -0.15809383845E+02  0.30497830432E+02  0.51100000000E-03 0. -1.
        -11    1    3    3    0    0 -0.24977342734E+01  0.42769692046E+00 -0.12381916913E+02  0.12638570641E+02  0.51100000000E-03 0.  1.
         12    1    3    3    0    0  0.74315067034E+00  0.60618281774E+01  0.41654364683E+01  0.73924890763E+01  0.00000000000E+00 0. -1.
</event>
<event>
 7    1  0.5155466E-011  0.5052885E+02  0.7816164E-02  0.1300439E+00
        -11   -1    0    0    0    0  0.00000000000E+00  0.00000000000E+00  0.45593999997E+02  0.45594000000E+02  0.51100000000E-03 0. -1.
         11   -1    0    0    0    0 -0.00000000000E+00 -0.00000000000E+00 -0.45593999997E+02  0.45594000000E+02  0.51100000000E-03 0.  1.
    9900012    2    1    2    0    0 -0.19030870045E+02 -0.35595768212E+02 -0.48922171490E+01  0.50528849518E+02  0.29999968594E+02 0.  0.
        -12    1    1    2    0    0  0.19030870045E+02  0.35595768212E+02  0.48922171490E+01  0.40659150482E+02  0.00000000000E+00 0.  1.
         11    1    3    3    0    0 -0.16510167399E+02 -0.15948454004E+02  0.67523158012E+01  0.23927653073E+02  0.51100000000E-03 0. -1.
        -11    1    3    3    0    0 -0.47706079756E+01 -0.16905618464E+02 -0.13898182786E+02  0.22399065184E+02  0.51100000000E-03 0.  1.
        -12    1    3    3    0    0  0.22499053298E+01 -0.27416957444E+01  0.22536498353E+01  0.42021312602E+01  0.00000000000E+00 0.  1.
</event>
<event>
 7    1  0.5155466E-011  0.5052887E+02  0.7816164E-02  0.1300439E+00
        -11   -1    0    0    0    0  0.00000000000E+00  0.00000000000E+00  0.45593999997E+02  0.45594000000E+02  0.51100000000E-03 0.  1.
         11   -1    0    0    0    0 -0.00000000000E+00 -0.00000000000E+00 -0.45593999997E+02  0.45594000000E+02  0.51100000000E-03 0. -1.
    9900012    2    1    2    0    0 -0.47330297080E+01  0.36773891772E+02 -0.16686657212E+02  0.50528865538E+02  0.30000017290E+02 0.  0.
        -12    1    1    2    0    0  0.47330297080E+01 -0.36773891772E+02  0.16686657212E+02  0.40659134462E+02  0.00000000000E+00 0.  1.
         11    1    3    3    0    0  0.13415745998E+01  0.63110868221E-01  0.29310560543E+01  0.32241115432E+01  0.51100000000E-03 0.  1.
        -11    1    3    3    0    0 -0.33676558900E+01  0.36260466692E+02 -0.10672644534E+02  0.37948226474E+02  0.51100000000E-03 0. -1.
        -12    1    3    3    0    0 -0.27069484178E+01  0.45031421195E+00 -0.89450687328E+01  0.93565275215E+01  0.00000000000E+00 0.  1.
</event>
<event>
 7    1  0.5155466E-011  0.5052886E+02  0.7816164E-02  0.1300439E+00
        -11   -1    0    0    0    0  0.00000000000E+00  0.00000000000E+00  0.45593999997E+02  0.45594000000E+02  0.51100000000E-03 0. -1.
         11   -1    0    0    0    0 -0.00000000000E+00 -0.00000000000E+00 -0.45593999997E+02  0.45594000000E+02  0.51100000000E-03 0.  1.
    9900012    2    1    2    0    0  0.34199704222E+02  0.64639125603E+01  0.21018169273E+02  0.50528863584E+02  0.30000011351E+02 0.  0.
        -12    1    1    2    0    0 -0.34199704222E+02 -0.64639125603E+01 -0.21018169273E+02  0.40659136416E+02  0.00000000000E+00 0.  1.
         11    1    3    3    0    0  0.71339231173E+01  0.13272134794E+01  0.18662445017E+02  0.20023516398E+02  0.51100000000E-03 0. -1.
        -11    1    3    3    0    0  0.82631515353E+01  0.57986215794E+01 -0.36831533165E+01  0.10745664434E+02  0.51100000000E-03 0.  1.
         12    1    3    3    0    0  0.18802629570E+02 -0.66192249849E+00  0.60388775718E+01  0.19759682752E+02  0.00000000000E+00 0. -1.
</event>
<event>
 7    1  0.5155466E-011  0.5052887E+02  0.7816164E-02  0.1300439E+00
        -11   -1    0    0    0    0  0.00000000000E+00  0.00000000000E+00  0.45593999997E+02  0.45594000000E+02  0.51100000000E-03 0.  1.
         11   -1    0    0    0    0 -0.00000000000E+00 -0.00000000000E+00 -0.45593999997E+02  0.45594000000E+02  0.51100000000E-03 0. -1.
    9900012    2    1    2    0    0 -0.19017888275E+02  0.11114449294E+02 -0.34175341461E+02  0.50528867919E+02  0.30000024527E+02 0.  0.
        -12    1    1    2    0    0  0.19017888275E+02 -0.11114449294E+02  0.34175341461E+02  0.40659132081E+02  0.00000000000E+00 0.  1.
         11    1    3    3    0    0 -0.79013488460E+01 -0.39989976628E+01 -0.13671159580E+02  0.16288766080E+02  0.51100000000E-03 0.  1.
        -11    1    3    3    0    0 -0.71235508407E+01  0.18153537914E+02 -0.85845445033E+01  0.21307048598E+02  0.51100000000E-03 0. -1.
         12    1    3    3    0    0 -0.39929885887E+01 -0.30400909572E+01 -0.11919637378E+02  0.12933053241E+02  0.00000000000E+00 0. -1.
</event>
<event>
 7    1  0.5155466E-011  0.5052887E+02  0.7816164E-02  0.1300439E+00
        -11   -1    0    0    0    0  0.00000000000E+00  0.00000000000E+00  0.45593999997E+02  0.45594000000E+02  0.51100000000E-03 0.  1.
         11   -1    0    0    0    0 -0.00000000000E+00 -0.00000000000E+00 -0.45593999997E+02  0.45594000000E+02  0.51100000000E-03 0. -1.
    9900012    2    1    2    0    0 -0.30938866102E+02 -0.20222711975E+02 -0.16940877938E+02  0.50528869899E+02  0.30000030544E+02 0.  0.
        -12    1    1    2    0    0  0.30938866102E+02  0.20222711975E+02  0.16940877938E+02  0.40659130101E+02  0.00000000000E+00 0.  1.
         11    1    3    3    0    0  0.19284825424E+01 -0.67052248598E+00 -0.70241058337E+00  0.21591725751E+01  0.51100000000E-03 0. -1.
        -11    1    3    3    0    0 -0.30732965213E+02 -0.14755753989E+02 -0.31134031959E+01  0.34233619533E+02  0.51100000000E-03 0.  1.
        -12    1    3    3    0    0 -0.21343834310E+01 -0.47964355003E+01 -0.13125064159E+02  0.14136077791E+02  0.00000000000E+00 0.  1.
</event>
<event>
 7    1  0.5155466E-011  0.5052892E+02  0.7816164E-02  0.1300439E+00
        -11   -1    0    0    0    0  0.00000000000E+00  0.00000000000E+00  0.45593999997E+02  0.45594000000E+02  0.51100000000E-03 0.  1.
         11   -1    0    0    0    0 -0.00000000000E+00 -0.00000000000E+00 -0.45593999997E+02  0.45594000000E+02  0.51100000000E-03 0. -1.
    9900012    2    1    2    0    0  0.26653851817E+02  0.30579032845E+02 -0.27668443727E+01  0.50528923594E+02  0.30000193755E+02 0.  0.
        -12    1    1    2    0    0 -0.26653851817E+02 -0.30579032845E+02  0.27668443727E+01  0.40659076406E+02  0.00000000000E+00 0.  1.
         11    1    3    3    0    0  0.71297534297E+01  0.93700152720E+01 -0.14386716902E+02  0.18590540434E+02  0.51100000000E-03 0. -1.
        -11    1    3    3    0    0  0.54817807190E+01  0.10530096738E+02  0.66634132540E+01  0.13613740618E+02  0.51100000000E-03 0.  1.
         12    1    3    3    0    0  0.14042317669E+02  0.10678920834E+02  0.49564592752E+01  0.18324642541E+02  0.00000000000E+00 0. -1.
</event>
<event>
 7    1  0.5155466E-011  0.5052885E+02  0.7816164E-02  0.1300439E+00
        -11   -1    0    0    0    0  0.00000000000E+00  0.00000000000E+00  0.45593999997E+02  0.45594000000E+02  0.51100000000E-03 0. -1.
         11   -1    0    0    0    0 -0.00000000000E+00 -0.00000000000E+00 -0.45593999997E+02  0.45594000000E+02  0.51100000000E-03 0.  1.
    9900012    2    1    2    0    0  0.11981008418E+01  0.29811705150E+02  0.27622328359E+02  0.50528853015E+02  0.29999979223E+02 0.  0.
        -12    1    1    2    0    0 -0.11981008418E+01 -0.29811705150E+02 -0.27622328359E+02  0.40659146985E+02  0.00000000000E+00 0.  1.
         11    1    3    3    0    0 -0.27993960177E+01  0.87071007583E+01  0.16154277467E+02  0.18563698511E+02  0.51100000000E-03 0. -1.
        -11    1    3    3    0    0  0.25370955205E+01 -0.14290590669E+01 -0.37404203041E+01  0.47402328856E+01  0.51100000000E-03 0.  1.
         12    1    3    3    0    0  0.14604013391E+01  0.22533663459E+02  0.15208471196E+02  0.27224921618E+02  0.00000000000E+00 0. -1.
</event>
<event>
 7    1  0.5155466E-011  0.5052886E+02  0.7816164E-02  0.1300439E+00
        -11   -1    0    0    0    0  0.00000000000E+00  0.00000000000E+00  0.45593999997E+02  0.45594000000E+02  0.51100000000E-03 0.  1.
         11   -1    0    0    0    0 -0.00000000000E+00 -0.00000000000E+00 -0.45593999997E+02  0.45594000000E+02  0.51100000000E-03 0. -1.
    9900012    2    1    2    0    0 -0.28286601072E+01 -0.35643425553E+02 -0.19357440413E+02  0.50528860776E+02  0.30000002814E+02 0.  0.
        -12    1    1    2    0    0  0.28286601072E+01  0.35643425553E+02  0.19357440413E+02  0.40659139224E+02  0.00000000000E+00 0.  1.
         11    1    3    3    0    0  0.43854865825E+01 -0.81159331863E+01 -0.59007518788E+01  0.10950787051E+02  0.51100000000E-03 0. -1.
        -11    1    3    3    0    0 -0.12309243832E+02 -0.14720641134E+02 -0.16677628099E+02  0.25423572494E+02  0.51100000000E-03 0.  1.
        -12    1    3    3    0    0  0.50950971427E+01 -0.12806851233E+02  0.32209395651E+01  0.14154501230E+02  0.00000000000E+00 0.  1.
</event>
<event>
 7    1  0.5155466E-011  0.5052886E+02  0.7816164E-02  0.1300439E+00
        -11   -1    0    0    0    0  0.00000000000E+00  0.00000000000E+00  0.45593999997E+02  0.45594000000E+02  0.51100000000E-03 0.  1.
         11   -1    0    0    0    0 -0.00000000000E+00 -0.00000000000E+00 -0.45593999997E+02  0.45594000000E+02  0.51100000000E-03 0. -1.
    9900012    2    1    2    0    0  0.36702620202E+02 -0.13844800648E+02 -0.10696025118E+02  0.50528858494E+02  0.29999995878E+02 0.  0.
        -12    1    1    2    0    0 -0.36702620202E+02  0.13844800648E+02  0.10696025118E+02  0.40659141506E+02  0.00000000000E+00 0.  1.
         11    1    3    3    0    0  0.11844831740E+02  0.64852989059E+01 -0.32882181249E+01  0.13898615742E+02  0.51100000000E-03 0. -1.
        -11    1    3    3    0    0  0.15259431178E+02 -0.18232987442E+02 -0.10963447295E+02  0.26181849587E+02  0.51100000000E-03 0.  1.
         12    1    3    3    0    0  0.95983572846E+01 -0.20971121117E+01  0.35556403020E+01  0.10448393165E+02  0.00000000000E+00 0. -1.
</event>
<event>
 7    1  0.5155466E-011  0.5052886E+02  0.7816164E-02  0.1300439E+00
        -11   -1    0    0    0    0  0.00000000000E+00  0.00000000000E+00  0.45593999997E+02  0.45594000000E+02  0.51100000000E-03 0.  1.
         11   -1    0    0    0    0 -0.00000000000E+00 -0.00000000000E+00 -0.45593999997E+02  0.45594000000E+02  0.51100000000E-03 0. -1.
    9900012    2    1    2    0    0 -0.31178746663E+02  0.24075245294E+02 -0.10071456175E+02  0.50528857007E+02  0.29999991358E+02 0.  0.
        -12    1    1    2    0    0  0.31178746663E+02 -0.24075245294E+02  0.10071456175E+02  0.40659142993E+02  0.00000000000E+00 0.  1.
         11    1    3    3    0    0 -0.22297634624E+02  0.23901151918E+02 -0.16470798509E+02  0.36602414902E+02  0.51100000000E-03 0. -1.
        -11    1    3    3    0    0  0.17112034088E+01  0.39075085236E-01  0.14074641089E+01  0.22160098032E+01  0.51100000000E-03 0.  1.
         12    1    3    3    0    0 -0.10592315448E+02  0.13501829055E+00  0.49918782254E+01  0.11710432302E+02  0.00000000000E+00 0. -1.
</event>
<event>
 7    1  0.5155466E-011  0.5052886E+02  0.7816164E-02  0.1300439E+00
        -11   -1    0    0    0    0  0.00000000000E+00  0.00000000000E+00  0.45593999997E+02  0.45594000000E+02  0.51100000000E-03 0. -1.
         11   -1    0    0    0    0 -0.00000000000E+00 -0.00000000000E+00 -0.45593999997E+02  0.45594000000E+02  0.51100000000E-03 0.  1.
    9900012    2    1    2    0    0 -0.29665509463E+01 -0.10164849215E+02  0.39256101050E+02  0.50528855226E+02  0.29999985946E+02 0.  0.
        -12    1    1    2    0    0  0.29665509463E+01  0.10164849215E+02 -0.39256101050E+02  0.40659144774E+02  0.00000000000E+00 0.  1.
         11    1    3    3    0    0 -0.14677179392E+01 -0.65208061636E+01  0.42168778426E+02  0.42695210307E+02  0.51100000000E-03 0. -1.
        -11    1    3    3    0    0 -0.36224782633E+01 -0.34629994834E+01 -0.26978574232E+01  0.56914979686E+01  0.51100000000E-03 0.  1.
         12    1    3    3    0    0  0.21236452563E+01 -0.18104356749E+00 -0.21481995238E+00  0.21421469510E+01  0.00000000000E+00 0. -1.
</event>
<event>
 7    1  0.5155466E-011  0.5052886E+02  0.7816164E-02  0.1300439E+00
        -11   -1    0    0    0    0  0.00000000000E+00  0.00000000000E+00  0.45593999997E+02  0.45594000000E+02  0.51100000000E-03 0. -1.
         11   -1    0    0    0    0 -0.00000000000E+00 -0.00000000000E+00 -0.45593999997E+02  0.45594000000E+02  0.51100000000E-03 0.  1.
    9900012    2    1    2    0    0  0.29030800215E+02  0.22169590126E+02 -0.17857416495E+02  0.50528863126E+02  0.30000009958E+02 0.  0.
        -12    1    1    2    0    0 -0.29030800215E+02 -0.22169590126E+02  0.17857416495E+02  0.40659136874E+02  0.00000000000E+00 0.  1.
         11    1    3    3    0    0  0.15134221364E+02  0.69612283680E+01  0.30624597151E+00  0.16661246759E+02  0.51100000000E-03 0. -1.
        -11    1    3    3    0    0 -0.17560558307E+01  0.12547920624E+02 -0.89268742106E+01  0.15499133121E+02  0.51100000000E-03 0.  1.
        -12    1    3    3    0    0  0.15652634681E+02  0.26604411332E+01 -0.92367882559E+01  0.18368483246E+02  0.00000000000E+00 0.  1.
</event>
<event>
 7    1  0.5155466E-011  0.5052882E+02  0.7816164E-02  0.1300439E+00
        -11   -1    0    0    0    0  0.00000000000E+00  0.00000000000E+00  0.45593999997E+02  0.45594000000E+02  0.51100000000E-03 0.  1.
         11   -1    0    0    0    0 -0.00000000000E+00 -0.00000000000E+00 -0.45593999997E+02  0.45594000000E+02  0.51100000000E-03 0. -1.
    9900012    2    1    2    0    0 -0.15494167994E+02 -0.98958532585E+01 -0.36265299998E+02  0.50528817305E+02  0.29999870679E+02 0.  0.
        -12    1    1    2    0    0  0.15494167994E+02  0.98958532585E+01  0.36265299998E+02  0.40659182695E+02  0.00000000000E+00 0.  1.
         11    1    3    3    0    0  0.20527373375E+01 -0.82815965496E+01 -0.96622421049E+01  0.12890209259E+02  0.51100000000E-03 0.  1.
        -11    1    3    3    0    0 -0.21480062591E+02  0.13489659535E+01 -0.19833569473E+02  0.29267443967E+02  0.51100000000E-03 0. -1.
         12    1    3    3    0    0  0.39331572594E+01 -0.29632226623E+01 -0.67694884193E+01  0.83711640787E+01  0.00000000000E+00 0. -1.
</event>
<event>
 7    1  0.5155466E-011  0.5052886E+02  0.7816164E-02  0.1300439E+00
        -11   -1    0    0    0    0  0.00000000000E+00  0.00000000000E+00  0.45593999997E+02  0.45594000000E+02  0.51100000000E-03 0.  1.
         11   -1    0    0    0    0 -0.00000000000E+00 -0.00000000000E+00 -0.45593999997E+02  0.45594000000E+02  0.51100000000E-03 0. -1.
    9900012    2    1    2    0    0 -0.15446032815E+02 -0.79859437380E+01 -0.36753373038E+02  0.50528860108E+02  0.30000000783E+02 0.  0.
        -12    1    1    2    0    0  0.15446032815E+02  0.79859437380E+01  0.36753373038E+02  0.40659139892E+02  0.00000000000E+00 0.  1.
         11    1    3    3    0    0 -0.49264296620E+01  0.23550339401E+01 -0.11060868173E+02  0.12335262425E+02  0.51100000000E-03 0. -1.
        -11    1    3    3    0    0  0.47939936562E+01 -0.94507897115E+01 -0.33919695720E+01  0.11126781169E+02  0.51100000000E-03 0.  1.
        -12    1    3    3    0    0 -0.15313596809E+02 -0.89018796664E+00 -0.22300535293E+02  0.27066816514E+02  0.00000000000E+00 0.  1.
</event>
<event>
 7    1  0.5155466E-011  0.5052886E+02  0.7816164E-02  0.1300439E+00
        -11   -1    0    0    0    0  0.00000000000E+00  0.00000000000E+00  0.45593999997E+02  0.45594000000E+02  0.51100000000E-03 0.  1.
         11   -1    0    0    0    0 -0.00000000000E+00 -0.00000000000E+00 -0.45593999997E+02  0.45594000000E+02  0.51100000000E-03 0. -1.
    9900012    2    1    2    0    0 -0.90107001455E+01  0.31830598995E+02 -0.23638656302E+02  0.50528858085E+02  0.29999994635E+02 0.  0.
        -12    1    1    2    0    0  0.90107001455E+01 -0.31830598995E+02  0.23638656302E+02  0.40659141915E+02  0.00000000000E+00 0.  1.
         11    1    3    3    0    0 -0.50276387353E+01  0.26991517800E+02 -0.59239164963E+01  0.28087576815E+02  0.51100000000E-03 0. -1.
        -11    1    3    3    0    0 -0.25640450334E+01 -0.28166046762E+01 -0.90358339706E+00  0.39145947494E+01  0.51100000000E-03 0.  1.
        -12    1    3    3    0    0 -0.14190163769E+01  0.76556858711E+01 -0.16811156409E+02  0.18526686521E+02  0.00000000000E+00 0.  1.
</event>
<event>
 7    1  0.5155466E-011  0.5052886E+02  0.7816164E-02  0.1300439E+00
        -11   -1    0    0    0    0  0.00000000000E+00  0.00000000000E+00  0.45593999997E+02  0.45594000000E+02  0.51100000000E-03 0. -1.
         11   -1    0    0    0    0 -0.00000000000E+00 -0.00000000000E+00 -0.45593999997E+02  0.45594000000E+02  0.51100000000E-03 0.  1.
    9900012    2    1    2    0    0  0.28525569308E+02  0.28517323461E+02 -0.51204928897E+01  0.50528864629E+02  0.30000014525E+02 0.  0.
        -12    1    1    2    0    0 -0.28525569308E+02 -0.28517323461E+02  0.51204928897E+01  0.40659135371E+02  0.00000000000E+00 0.  1.
         11    1    3    3    0    0  0.46017674117E+01  0.50574425290E+01  0.76711699326E+01  0.10276226771E+02  0.51100000000E-03 0. -1.
        -11    1    3    3    0    0  0.14775576541E+02  0.73794246602E+01 -0.14085941670E+02  0.21706849689E+02  0.51100000000E-03 0.  1.
         12    1    3    3    0    0  0.91482253547E+01  0.16080456272E+02  0.12942788477E+01  0.18545788169E+02  0.00000000000E+00 0. -1.
</event>
<event>
 7    1  0.5155466E-011  0.5052885E+02  0.7816164E-02  0.1300439E+00
        -11   -1    0    0    0    0  0.00000000000E+00  0.00000000000E+00  0.45593999997E+02  0.45594000000E+02  0.51100000000E-03 0. -1.
         11   -1    0    0    0    0 -0.00000000000E+00 -0.00000000000E+00 -0.45593999997E+02  0.45594000000E+02  0.51100000000E-03 0.  1.
    9900012    2    1    2    0    0  0.38508005381E+02  0.86358357149E+01  0.97837908126E+01  0.50528847284E+02  0.29999961806E+02 0.  0.
        -12    1    1    2    0    0 -0.38508005381E+02 -0.86358357149E+01 -0.97837908126E+01  0.40659152716E+02  0.00000000000E+00 0.  1.
         11    1    3    3    0    0  0.28523655453E+01 -0.23716870282E+01  0.63665923303E+01  0.73684724825E+01  0.51100000000E-03 0. -1.
        -11    1    3    3    0    0  0.37973908388E+02  0.97034285493E+01  0.57609809834E+01  0.39615188325E+02  0.51100000000E-03 0.  1.
        -12    1    3    3    0    0 -0.23182685523E+01  0.13040941939E+01 -0.23437825011E+01  0.35451864774E+01  0.00000000000E+00 0.  1.
</event>
<event>
 7    1  0.5155466E-011  0.5052886E+02  0.7816164E-02  0.1300439E+00
        -11   -1    0    0    0    0  0.00000000000E+00  0.00000000000E+00  0.45593999997E+02  0.45594000000E+02  0.51100000000E-03 0.  1.
         11   -1    0    0    0    0 -0.00000000000E+00 -0.00000000000E+00 -0.45593999997E+02  0.45594000000E+02  0.51100000000E-03 0. -1.
    9900012    2    1    2    0    0 -0.37956315737E+02  0.11242979511E+02 -0.92778737308E+01  0.50528862853E+02  0.30000009128E+02 0.  0.
        -12    1    1    2    0    0  0.37956315737E+02 -0.11242979511E+02  0.92778737308E+01  0.40659137147E+02  0.00000000000E+00 0.  1.
         11    1    3    3    0    0 -0.14124197250E+02 -0.45196208386E+01 -0.80751993877E+01  0.16885756302E+02  0.51100000000E-03 0. -1.
        -11    1    3    3    0    0 -0.18859037162E+02  0.19553524233E+02 -0.24153875681E+01  0.27273387944E+02  0.51100000000E-03 0.  1.
        -12    1    3    3    0    0 -0.49730813249E+01 -0.37909238840E+01  0.12127132250E+01  0.63697186064E+01  0.00000000000E+00 0.  1.
</event>
<event>
 7    1  0.5155466E-011  0.5052885E+02  0.7816164E-02  0.1300439E+00
        -11   -1    0    0    0    0  0.00000000000E+00  0.00000000000E+00  0.45593999997E+02  0.45594000000E+02  0.51100000000E-03 0. -1.
         11   -1    0    0    0    0 -0.00000000000E+00 -0.00000000000E+00 -0.45593999997E+02  0.45594000000E+02  0.51100000000E-03 0.  1.
    9900012    2    1    2    0    0 -0.92832086347E+01  0.15801233520E+01  0.39553652822E+02  0.50528853379E+02  0.29999980330E+02 0.  0.
        -12    1    1    2    0    0  0.92832086347E+01 -0.15801233520E+01 -0.39553652822E+02  0.40659146621E+02  0.00000000000E+00 0.  1.
         11    1    3    3    0    0 -0.11709756163E+01  0.93120231720E+01  0.13397844961E+02  0.16358093083E+02  0.51100000000E-03 0. -1.
        -11    1    3    3    0    0  0.33340486179E+01 -0.97427404604E+01  0.13652370451E+02  0.17100412015E+02  0.51100000000E-03 0.  1.
        -12    1    3    3    0    0 -0.11446281636E+02  0.20108406403E+01  0.12503437410E+02  0.17070348281E+02  0.00000000000E+00 0.  1.
</event>
<event>
 7    1  0.5155466E-011  0.5052886E+02  0.7816164E-02  0.1300439E+00
        -11   -1    0    0    0    0  0.00000000000E+00  0.00000000000E+00  0.45593999997E+02  0.45594000000E+02  0.51100000000E-03 0.  1.
         11   -1    0    0    0    0 -0.00000000000E+00 -0.00000000000E+00 -0.45593999997E+02  0.45594000000E+02  0.51100000000E-03 0. -1.
    9900012    2    1    2    0    0 -0.15631151898E+02  0.11467684118E+01 -0.37516900143E+02  0.50528858546E+02  0.29999996035E+02 0.  0.
        -12    1    1    2    0    0  0.15631151898E+02 -0.11467684118E+01  0.37516900143E+02  0.40659141454E+02  0.00000000000E+00 0.  1.
         11    1    3    3    0    0 -0.33167141798E+01 -0.58727681401E+01 -0.58739524449E+01  0.89438982644E+01  0.51100000000E-03 0. -1.
        -11    1    3    3    0    0 -0.76871924415E+01  0.11520808275E+02 -0.59161902350E+01  0.15060652645E+02  0.51100000000E-03 0.  1.
        -12    1    3    3    0    0 -0.46272452766E+01 -0.45012717231E+01 -0.25726757464E+02  0.26524307636E+02  0.00000000000E+00 0.  1.
</event>
<event>
 7    1  0.5155466E-011  0.5052884E+02  0.7816164E-02  0.1300439E+00
        -11   -1    0    0    0    0  0.00000000000E+00  0.00000000000E+00  0.45593999997E+02  0.45594000000E+02  0.51100000000E-03 0.  1.
         11   -1    0    0    0    0 -0.00000000000E+00 -0.00000000000E+00 -0.45593999997E+02  0.45594000000E+02  0.51100000000E-03 0. -1.
    9900012    2    1    2    0    0  0.34182437006E+02  0.21648996679E+02 -0.40061800284E+01  0.50528837007E+02  0.29999930567E+02 0.  0.
        -12    1    1    2    0    0 -0.34182437006E+02 -0.21648996679E+02  0.40061800284E+01  0.40659162993E+02  0.00000000000E+00 0.  1.
         11    1    3    3    0    0  0.12144965680E+02  0.29101901329E+01  0.83283798392E+01  0.15011039571E+02  0.51100000000E-03 0. -1.
        -11    1    3    3    0    0  0.13893147200E+01  0.74719853602E+01 -0.89692715421E+01  0.11756215074E+02  0.51100000000E-03 0.  1.
         12    1    3    3    0    0  0.20648156606E+02  0.11266821185E+02 -0.33652883255E+01  0.23761582362E+02  0.00000000000E+00 0. -1.
</event>
<event>
 7    1  0.5155466E-011  0.5052886E+02  0.7816164E-02  0.1300439E+00
        -11   -1    0    0    0    0  0.00000000000E+00  0.00000000000E+00  0.45593999997E+02  0.45594000000E+02  0.51100000000E-03 0.  1.
         11   -1    0    0    0    0 -0.00000000000E+00 -0.00000000000E+00 -0.45593999997E+02  0.45594000000E+02  0.51100000000E-03 0. -1.
    9900012    2    1    2    0    0  0.16108397025E+02 -0.33328459096E+02 -0.16819603791E+02  0.50528859427E+02  0.29999998713E+02 0.  0.
        -12    1    1    2    0    0 -0.16108397025E+02  0.33328459096E+02  0.16819603791E+02  0.40659140573E+02  0.00000000000E+00 0.  1.
         11    1    3    3    0    0  0.75009784337E+01 -0.18040170069E+02  0.37147137692E+01  0.19887471237E+02  0.51100000000E-03 0. -1.
        -11    1    3    3    0    0  0.33490307919E+01 -0.83120480063E+01 -0.19968367473E+02  0.21887024675E+02  0.51100000000E-03 0.  1.
        -12    1    3    3    0    0  0.52583877998E+01 -0.69762410214E+01 -0.56595008696E+00  0.87543635144E+01  0.00000000000E+00 0.  1.
</event>
<event>
 7    1  0.5155466E-011  0.5052886E+02  0.7816164E-02  0.1300439E+00
        -11   -1    0    0    0    0  0.00000000000E+00  0.00000000000E+00  0.45593999997E+02  0.45594000000E+02  0.51100000000E-03 0.  1.
         11   -1    0    0    0    0 -0.00000000000E+00 -0.00000000000E+00 -0.45593999997E+02  0.45594000000E+02  0.51100000000E-03 0. -1.
    9900012    2    1    2    0    0  0.61432896182E+01  0.72629342533E+01 -0.39530687446E+02  0.50528862390E+02  0.30000007719E+02 0.  0.
        -12    1    1    2    0    0 -0.61432896182E+01 -0.72629342533E+01  0.39530687446E+02  0.40659137610E+02  0.00000000000E+00 0.  1.
         11    1    3    3    0    0  0.11478968712E+02  0.40242741710E+00 -0.19214500843E+02  0.22385837340E+02  0.51100000000E-03 0. -1.
        -11    1    3    3    0    0 -0.81743545261E+01  0.10529805082E+02 -0.94857186494E+01  0.16360798438E+02  0.51100000000E-03 0.  1.
         12    1    3    3    0    0  0.28386754321E+01 -0.36692982458E+01 -0.10830467953E+02  0.11782226611E+02  0.00000000000E+00 0. -1.
</event>
<event>
 7    1  0.5155466E-011  0.5052885E+02  0.7816164E-02  0.1300439E+00
        -11   -1    0    0    0    0  0.00000000000E+00  0.00000000000E+00  0.45593999997E+02  0.45594000000E+02  0.51100000000E-03 0.  1.
         11   -1    0    0    0    0 -0.00000000000E+00 -0.00000000000E+00 -0.45593999997E+02  0.45594000000E+02  0.51100000000E-03 0. -1.
    9900012    2    1    2    0    0 -0.33338260530E+02 -0.23977558105E+01 -0.23151183739E+02  0.50528853961E+02  0.29999982099E+02 0.  0.
        -12    1    1    2    0    0  0.33338260530E+02  0.23977558105E+01  0.23151183739E+02  0.40659146039E+02  0.00000000000E+00 0.  1.
         11    1    3    3    0    0 -0.26876833231E+02  0.92093803456E+01 -0.21637177166E+02  0.35711962797E+02  0.51100000000E-03 0. -1.
        -11    1    3    3    0    0  0.68348053815E+00 -0.30292806742E+01 -0.19105896497E+01  0.36460993019E+01  0.51100000000E-03 0.  1.
         12    1    3    3    0    0 -0.71449078376E+01 -0.85778554819E+01  0.39658307614E+00  0.11170791861E+02  0.00000000000E+00 0. -1.
</event>
<event>
 7    1  0.5155466E-011  0.5052886E+02  0.7816164E-02  0.1300439E+00
        -11   -1    0    0    0    0  0.00000000000E+00  0.00000000000E+00  0.45593999997E+02  0.45594000000E+02  0.51100000000E-03 0.  1.
         11   -1    0    0    0    0 -0.00000000000E+00 -0.00000000000E+00 -0.45593999997E+02  0.45594000000E+02  0.51100000000E-03 0. -1.
    9900012    2    1    2    0    0  0.13261838494E+02 -0.31574984883E+02 -0.21915974252E+02  0.50528856404E+02  0.29999989524E+02 0.  0.
        -12    1    1    2    0    0 -0.13261838494E+02  0.31574984883E+02  0.21915974252E+02  0.40659143596E+02  0.00000000000E+00 0.  1.
         11    1    3    3    0    0  0.42907890743E+01 -0.62035493329E+01 -0.21770523361E+02  0.23040194940E+02  0.51100000000E-03 0. -1.
        -11    1    3    3    0    0  0.65625360672E+01 -0.14306750519E+02  0.22904077572E+01  0.15905846661E+02  0.51100000000E-03 0.  1.
         12    1    3    3    0    0  0.24085133529E+01 -0.11064685031E+02 -0.24358586481E+01  0.11582814803E+02  0.00000000000E+00 0. -1.
</event>
<event>
 7    1  0.5155466E-011  0.5052885E+02  0.7816164E-02  0.1300439E+00
        -11   -1    0    0    0    0  0.00000000000E+00  0.00000000000E+00  0.45593999997E+02  0.45594000000E+02  0.51100000000E-03 0.  1.
         11   -1    0    0    0    0 -0.00000000000E+00 -0.00000000000E+00 -0.45593999997E+02  0.45594000000E+02  0.51100000000E-03 0. -1.
    9900012    2    1    2    0    0  0.30665439613E+02 -0.22039162906E+02 -0.15068923384E+02  0.50528851703E+02  0.29999975238E+02 0.  0.
        -12    1    1    2    0    0 -0.30665439613E+02  0.22039162906E+02  0.15068923384E+02  0.40659148297E+02  0.00000000000E+00 0.  1.
         11    1    3    3    0    0  0.35278218263E+01 -0.50785741655E+01 -0.10324340430E+02  0.12034510708E+02  0.51100000000E-03 0. -1.
        -11    1    3    3    0    0  0.29883824735E+02 -0.13051253683E+02 -0.67706897948E+01  0.33304961252E+02  0.51100000000E-03 0.  1.
        -12    1    3    3    0    0 -0.27462069479E+01 -0.39093350569E+01  0.20261068409E+01  0.51893797431E+01  0.00000000000E+00 0.  1.
</event>
<event>
 7    1  0.5155466E-011  0.5052886E+02  0.7816164E-02  0.1300439E+00
        -11   -1    0    0    0    0  0.00000000000E+00  0.00000000000E+00  0.45593999997E+02  0.45594000000E+02  0.51100000000E-03 0. -1.
         11   -1    0    0    0    0 -0.00000000000E+00 -0.00000000000E+00 -0.45593999997E+02  0.45594000000E+02  0.51100000000E-03 0.  1.
    9900012    2    1    2    0    0  0.32606935699E+01  0.37679104114E+02  0.14927099720E+02  0.50528864305E+02  0.30000013541E+02 0.  0.
        -12    1    1    2    0    0 -0.32606935699E+01 -0.37679104114E+02 -0.14927099720E+02  0.40659135695E+02  0.00000000000E+00 0.  1.
         11    1    3    3    0    0  0.14407723672E+02  0.13570858997E+02  0.65413911204E+01  0.20845635356E+02  0.51100000000E-03 0. -1.
        -11    1    3    3    0    0 -0.94989410500E+01  0.18518038600E+02  0.18013222149E+01  0.20890007100E+02  0.51100000000E-03 0.  1.
         12    1    3    3    0    0 -0.16480890519E+01  0.55902065170E+01  0.65843863848E+01  0.87932218493E+01  0.00000000000E+00 0. -1.
</event>
<event>
 7    1  0.5155466E-011  0.5052886E+02  0.7816164E-02  0.1300439E+00
        -11   -1    0    0    0    0  0.00000000000E+00  0.00000000000E+00  0.45593999997E+02  0.45594000000E+02  0.51100000000E-03 0. -1.
         11   -1    0    0    0    0 -0.00000000000E+00 -0.00000000000E+00 -0.45593999997E+02  0.45594000000E+02  0.51100000000E-03 0.  1.
    9900012    2    1    2    0    0  0.24290015659E+02 -0.13796410999E+02 -0.29543524450E+02  0.50528860141E+02  0.30000000885E+02 0.  0.
        -12    1    1    2    0    0 -0.24290015659E+02  0.13796410999E+02  0.29543524450E+02  0.40659139859E+02  0.00000000000E+00 0.  1.
         11    1    3    3    0    0  0.81637214518E-01  0.51281430617E+01 -0.15899643121E+01  0.53695905497E+01  0.51100000000E-03 0. -1.
        -11    1    3    3    0    0  0.19381380941E+01 -0.11960541862E+02 -0.88865854041E+01  0.15026055415E+02  0.51100000000E-03 0.  1.
         12    1    3    3    0    0  0.22270240350E+02 -0.69640121978E+01 -0.19066974734E+02  0.30133214177E+02  0.00000000000E+00 0. -1.
</event>
<event>
 7    1  0.5155466E-011  0.5052885E+02  0.7816164E-02  0.1300439E+00
        -11   -1    0    0    0    0  0.00000000000E+00  0.00000000000E+00  0.45593999997E+02  0.45594000000E+02  0.51100000000E-03 0.  1.
         11   -1    0    0    0    0 -0.00000000000E+00 -0.00000000000E+00 -0.45593999997E+02  0.45594000000E+02  0.51100000000E-03 0. -1.
    9900012    2    1    2    0    0 -0.79880014016E+01 -0.35878787620E+02 -0.17380179892E+02  0.50528853175E+02  0.29999979710E+02 0.  0.
        -12    1    1    2    0    0  0.79880014016E+01  0.35878787620E+02  0.17380179892E+02  0.40659146825E+02  0.00000000000E+00 0.  1.
         11    1    3    3    0    0 -0.14190344167E+02 -0.19699931233E+02 -0.11084127806E+02  0.26689155993E+02  0.51100000000E-03 0. -1.
        -11    1    3    3    0    0  0.98961032311E+01 -0.95611933204E+01 -0.82093248586E+01  0.16023179827E+02  0.51100000000E-03 0.  1.
        -12    1    3    3    0    0 -0.36937604659E+01 -0.66176630670E+01  0.19132727730E+01  0.78165173544E+01  0.00000000000E+00 0.  1.
</event>
<event>
 7    1  0.5155466E-011  0.5052881E+02  0.7816164E-02  0.1300439E+00
        -11   -1    0    0    0    0  0.00000000000E+00  0.00000000000E+00  0.45593999997E+02  0.45594000000E+02  0.51100000000E-03 0. -1.
         11   -1    0    0    0    0 -0.00000000000E+00 -0.00000000000E+00 -0.45593999997E+02  0.45594000000E+02  0.51100000000E-03 0.  1.
    9900012    2    1    2    0    0  0.15394973247E+02  0.21618785123E+02  0.30802480646E+02  0.50528808107E+02  0.29999842721E+02 0.  0.
        -12    1    1    2    0    0 -0.15394973247E+02 -0.21618785123E+02 -0.30802480646E+02  0.40659191893E+02  0.00000000000E+00 0.  1.
         11    1    3    3    0    0  0.10460730997E+02 -0.61845264878E+00  0.11993991222E+02  0.15926870451E+02  0.51100000000E-03 0. -1.
        -11    1    3    3    0    0 -0.59652016969E+01  0.10335419550E+02  0.12479473225E+02  0.17266782584E+02  0.51100000000E-03 0.  1.
        -12    1    3    3    0    0  0.10899443947E+02  0.11901818221E+02  0.63290161991E+01  0.17335155072E+02  0.00000000000E+00 0.  1.
</event>
<event>
 7    1  0.5155466E-011  0.5052886E+02  0.7816164E-02  0.1300439E+00
        -11   -1    0    0    0    0  0.00000000000E+00  0.00000000000E+00  0.45593999997E+02  0.45594000000E+02  0.51100000000E-03 0.  1.
         11   -1    0    0    0    0 -0.00000000000E+00 -0.00000000000E+00 -0.45593999997E+02  0.45594000000E+02  0.51100000000E-03 0. -1.
    9900012    2    1    2    0    0  0.66143165423E+01 -0.14954860380E+02 -0.37225913324E+02  0.50528860129E+02  0.30000000847E+02 0.  0.
        -12    1    1    2    0    0 -0.66143165423E+01  0.14954860380E+02  0.37225913324E+02  0.40659139871E+02  0.00000000000E+00 0.  1.
         11    1    3    3    0    0  0.43879008755E+00 -0.16659845395E+02 -0.93789556433E+01  0.19123488033E+02  0.51100000000E-03 0. -1.
        -11    1    3    3    0    0  0.14208236104E+01  0.71509275192E+01 -0.13884820770E+02  0.15682562042E+02  0.51100000000E-03 0.  1.
         12    1    3    3    0    0  0.47547028443E+01 -0.54459425044E+01 -0.13962136910E+02  0.15722810054E+02  0.00000000000E+00 0. -1.
</event>
<event>
 7    1  0.5155466E-011  0.5052885E+02  0.7816164E-02  0.1300439E+00
        -11   -1    0    0    0    0  0.00000000000E+00  0.00000000000E+00  0.45593999997E+02  0.45594000000E+02  0.51100000000E-03 0. -1.
         11   -1    0    0    0    0 -0.00000000000E+00 -0.00000000000E+00 -0.45593999997E+02  0.45594000000E+02  0.51100000000E-03 0.  1.
    9900012    2    1    2    0    0 -0.29609516796E+02  0.18447559518E+02  0.20883732754E+02  0.50528853049E+02  0.29999979327E+02 0.  0.
        -12    1    1    2    0    0  0.29609516796E+02 -0.18447559518E+02 -0.20883732754E+02  0.40659146951E+02  0.00000000000E+00 0.  1.
         11    1    3    3    0    0 -0.63860973697E+01 -0.11838788327E+01  0.82533596555E+01  0.10502464214E+02  0.51100000000E-03 0. -1.
        -11    1    3    3    0    0 -0.14633412647E+02  0.21342123084E+02  0.15792013486E+01  0.25925216693E+02  0.51100000000E-03 0.  1.
        -12    1    3    3    0    0 -0.85900067795E+01 -0.17106847333E+01  0.11051171749E+02  0.14101172142E+02  0.00000000000E+00 0.  1.
</event>
<event>
 7    1  0.5155466E-011  0.5052887E+02  0.7816164E-02  0.1300439E+00
        -11   -1    0    0    0    0  0.00000000000E+00  0.00000000000E+00  0.45593999997E+02  0.45594000000E+02  0.51100000000E-03 0.  1.
         11   -1    0    0    0    0 -0.00000000000E+00 -0.00000000000E+00 -0.45593999997E+02  0.45594000000E+02  0.51100000000E-03 0. -1.
    9900012    2    1    2    0    0 -0.28650821275E+02 -0.10890340462E+02 -0.26715077887E+02  0.50528874805E+02  0.30000045456E+02 0.  0.
        -12    1    1    2    0    0  0.28650821275E+02  0.10890340462E+02  0.26715077887E+02  0.40659125195E+02  0.00000000000E+00 0.  1.
         11    1    3    3    0    0  0.21985973921E+01 -0.57256137205E+00 -0.70040229666E+01  0.73632869695E+01  0.51100000000E-03 0. -1.
        -11    1    3    3    0    0 -0.20514786589E+02 -0.99993336675E+01 -0.23286225072E+01  0.22940480066E+02  0.51100000000E-03 0.  1.
        -12    1    3    3    0    0 -0.10334632078E+02 -0.31844542247E+00 -0.17382432413E+02  0.20225107769E+02  0.00000000000E+00 0.  1.
</event>
<event>
 7    1  0.5155466E-011  0.5052894E+02  0.7816164E-02  0.1300439E+00
        -11   -1    0    0    0    0  0.00000000000E+00  0.00000000000E+00  0.45593999997E+02  0.45594000000E+02  0.51100000000E-03 0.  1.
         11   -1    0    0    0    0 -0.00000000000E+00 -0.00000000000E+00 -0.45593999997E+02  0.45594000000E+02  0.51100000000E-03 0. -1.
    9900012    2    1    2    0    0  0.26981536103E+02 -0.22448743126E+02 -0.20523404976E+02  0.50528935694E+02  0.30000230534E+02 0.  0.
        -12    1    1    2    0    0 -0.26981536103E+02  0.22448743126E+02  0.20523404976E+02  0.40659064306E+02  0.00000000000E+00 0.  1.
         11    1    3    3    0    0  0.30194627131E+02 -0.10106492732E+02 -0.11264108722E+02  0.33774796054E+02  0.51100000000E-03 0. -1.
        -11    1    3    3    0    0 -0.23920143185E+01 -0.46402511823E+01 -0.79494266252E+00  0.52806815500E+01  0.51100000000E-03 0.  1.
         12    1    3    3    0    0 -0.82107670916E+00 -0.77019992119E+01 -0.84643535920E+01  0.11473458090E+02  0.00000000000E+00 0. -1.
</event>
<event>
 7    1  0.5155466E-011  0.5052886E+02  0.7816164E-02  0.1300439E+00
        -11   -1    0    0    0    0  0.00000000000E+00  0.00000000000E+00  0.45593999997E+02  0.45594000000E+02  0.51100000000E-03 0.  1.
         11   -1    0    0    0    0 -0.00000000000E+00 -0.00000000000E+00 -0.45593999997E+02  0.45594000000E+02  0.51100000000E-03 0. -1.
    9900012    2    1    2    0    0 -0.36761075293E+02 -0.42588061473E+00 -0.17366858377E+02  0.50528858335E+02  0.29999995397E+02 0.  0.
        -12    1    1    2    0    0  0.36761075293E+02  0.42588061473E+00  0.17366858377E+02  0.40659141665E+02  0.00000000000E+00 0.  1.
         11    1    3    3    0    0 -0.34402736044E+01 -0.23913599700E+01  0.53584340162E+01  0.68019776791E+01  0.51100000000E-03 0.  1.
        -11    1    3    3    0    0 -0.89495368771E+01  0.50999266042E+01 -0.14556912002E+02  0.17832754946E+02  0.51100000000E-03 0. -1.
        -12    1    3    3    0    0 -0.24371264811E+02 -0.31344472489E+01 -0.81683803916E+01  0.25894125710E+02  0.00000000000E+00 0.  1.
</event>
<event>
 7    1  0.5155466E-011  0.5052886E+02  0.7816164E-02  0.1300439E+00
        -11   -1    0    0    0    0  0.00000000000E+00  0.00000000000E+00  0.45593999997E+02  0.45594000000E+02  0.51100000000E-03 0.  1.
         11   -1    0    0    0    0 -0.00000000000E+00 -0.00000000000E+00 -0.45593999997E+02  0.45594000000E+02  0.51100000000E-03 0. -1.
    9900012    2    1    2    0    0 -0.20308668679E+02  0.32214258520E+01 -0.35076287547E+02  0.50528861346E+02  0.30000004547E+02 0.  0.
        -12    1    1    2    0    0  0.20308668679E+02 -0.32214258520E+01  0.35076287547E+02  0.40659138654E+02  0.00000000000E+00 0.  1.
         11    1    3    3    0    0 -0.11289263579E+02  0.11097539808E+02 -0.75228688114E+01  0.17527019637E+02  0.51100000000E-03 0. -1.
        -11    1    3    3    0    0 -0.57922561514E+01 -0.77773332579E+01 -0.28100934646E+02  0.29727086506E+02  0.51100000000E-03 0.  1.
        -12    1    3    3    0    0 -0.32271489492E+01 -0.98780697826E-01  0.54751591033E+00  0.32747552029E+01  0.00000000000E+00 0.  1.
</event>
<event>
 7    1  0.5155466E-011  0.5052886E+02  0.7816164E-02  0.1300439E+00
        -11   -1    0    0    0    0  0.00000000000E+00  0.00000000000E+00  0.45593999997E+02  0.45594000000E+02  0.51100000000E-03 0.  1.
         11   -1    0    0    0    0 -0.00000000000E+00 -0.00000000000E+00 -0.45593999997E+02  0.45594000000E+02  0.51100000000E-03 0. -1.
    9900012    2    1    2    0    0  0.48393225957E+01 -0.21797484084E+02 -0.33979643684E+02  0.50528861538E+02  0.30000005131E+02 0.  0.
        -12    1    1    2    0    0 -0.48393225957E+01  0.21797484084E+02  0.33979643684E+02  0.40659138462E+02  0.00000000000E+00 0.  1.
         11    1    3    3    0    0 -0.47072760867E+01 -0.14186550818E+02 -0.20358375085E+02  0.25256288497E+02  0.51100000000E-03 0. -1.
        -11    1    3    3    0    0  0.57953368721E+01 -0.58997509234E+01  0.24942608442E+01  0.86379585458E+01  0.51100000000E-03 0.  1.
        -12    1    3    3    0    0  0.37512618103E+01 -0.17111823426E+01 -0.16115529443E+02  0.16634614495E+02  0.00000000000E+00 0.  1.
</event>
<event>
 7    1  0.5155466E-011  0.5052886E+02  0.7816164E-02  0.1300439E+00
        -11   -1    0    0    0    0  0.00000000000E+00  0.00000000000E+00  0.45593999997E+02  0.45594000000E+02  0.51100000000E-03 0.  1.
         11   -1    0    0    0    0 -0.00000000000E+00 -0.00000000000E+00 -0.45593999997E+02  0.45594000000E+02  0.51100000000E-03 0. -1.
    9900012    2    1    2    0    0 -0.31950216292E+02 -0.10502620762E+02 -0.22848293360E+02  0.50528857444E+02  0.29999992686E+02 0.  0.
        -12    1    1    2    0    0  0.31950216292E+02  0.10502620762E+02  0.22848293360E+02  0.40659142556E+02  0.00000000000E+00 0.  1.
         11    1    3    3    0    0 -0.10644580400E+02 -0.80006996828E+00 -0.74913728201E+01  0.13041007279E+02  0.51100000000E-03 0. -1.
        -11    1    3    3    0    0 -0.92313501892E+01  0.78977561426E+01 -0.20085068544E+01  0.12313670389E+02  0.51100000000E-03 0.  1.
        -12    1    3    3    0    0 -0.12074285702E+02 -0.17600306936E+02 -0.13348413685E+02  0.25174179776E+02  0.00000000000E+00 0.  1.
</event>
<event>
 7    1  0.5155466E-011  0.5052887E+02  0.7816164E-02  0.1300439E+00
        -11   -1    0    0    0    0  0.00000000000E+00  0.00000000000E+00  0.45593999997E+02  0.45594000000E+02  0.51100000000E-03 0.  1.
         11   -1    0    0    0    0 -0.00000000000E+00 -0.00000000000E+00 -0.45593999997E+02  0.45594000000E+02  0.51100000000E-03 0. -1.
    9900012    2    1    2    0    0 -0.23833845809E+02 -0.69782761284E+01 -0.32193423630E+02  0.50528867339E+02  0.30000022762E+02 0.  0.
        -12    1    1    2    0    0  0.23833845809E+02  0.69782761284E+01  0.32193423630E+02  0.40659132661E+02  0.00000000000E+00 0.  1.
         11    1    3    3    0    0  0.42338367852E+00  0.78695350452E+01 -0.46439692198E+01  0.91474196330E+01  0.51100000000E-03 0. -1.
        -11    1    3    3    0    0 -0.17859604198E+02 -0.53871440764E+01 -0.12360705499E+02  0.22377976318E+02  0.51100000000E-03 0.  1.
         12    1    3    3    0    0 -0.63976252889E+01 -0.94606670973E+01 -0.15188748912E+02  0.19003471387E+02  0.00000000000E+00 0. -1.
</event>
<event>
 7    1  0.5155466E-011  0.5052885E+02  0.7816164E-02  0.1300439E+00
        -11   -1    0    0    0    0  0.00000000000E+00  0.00000000000E+00  0.45593999997E+02  0.45594000000E+02  0.51100000000E-03 0.  1.
         11   -1    0    0    0    0 -0.00000000000E+00 -0.00000000000E+00 -0.45593999997E+02  0.45594000000E+02  0.51100000000E-03 0. -1.
    9900012    2    1    2    0    0  0.10721330717E+02 -0.24371899198E+02 -0.30728329405E+02  0.50528848129E+02  0.29999964372E+02 0.  0.
        -12    1    1    2    0    0 -0.10721330717E+02  0.24371899198E+02  0.30728329405E+02  0.40659151871E+02  0.00000000000E+00 0.  1.
         11    1    3    3    0    0 -0.20582161987E+01  0.46708909096E+01 -0.14465136436E+00  0.51063098308E+01  0.51100000000E-03 0.  1.
        -11    1    3    3    0    0  0.13583114866E+02 -0.18195148402E+02 -0.20689129155E+02  0.30718146107E+02  0.51100000000E-03 0. -1.
         12    1    3    3    0    0 -0.80356795030E+00 -0.10847641706E+02 -0.98945488856E+01  0.14704392190E+02  0.00000000000E+00 0. -1.
</event>
<event>
 7    1  0.5155466E-011  0.5052886E+02  0.7816164E-02  0.1300439E+00
        -11   -1    0    0    0    0  0.00000000000E+00  0.00000000000E+00  0.45593999997E+02  0.45594000000E+02  0.51100000000E-03 0.  1.
         11   -1    0    0    0    0 -0.00000000000E+00 -0.00000000000E+00 -0.45593999997E+02  0.45594000000E+02  0.51100000000E-03 0. -1.
    9900012    2    1    2    0    0 -0.25652952658E+02  0.31360161075E+02  0.34105237767E+01  0.50528863817E+02  0.30000012057E+02 0.  0.
        -12    1    1    2    0    0  0.25652952658E+02 -0.31360161075E+02 -0.34105237767E+01  0.40659136183E+02  0.00000000000E+00 0.  1.
         11    1    3    3    0    0 -0.18662058469E+02  0.33121290929E+02 -0.38267315127E+01  0.38209111655E+02  0.51100000000E-03 0. -1.
        -11    1    3    3    0    0 -0.82343321841E+01 -0.22404870414E+01  0.68175334871E+01  0.10922580822E+02  0.51100000000E-03 0.  1.
        -12    1    3    3    0    0  0.12434379956E+01  0.47935718770E+00  0.41972180231E+00  0.13971713401E+01  0.00000000000E+00 0.  1.
</event>
<event>
 7    1  0.5155466E-011  0.5052886E+02  0.7816164E-02  0.1300439E+00
        -11   -1    0    0    0    0  0.00000000000E+00  0.00000000000E+00  0.45593999997E+02  0.45594000000E+02  0.51100000000E-03 0.  1.
         11   -1    0    0    0    0 -0.00000000000E+00 -0.00000000000E+00 -0.45593999997E+02  0.45594000000E+02  0.51100000000E-03 0. -1.
    9900012    2    1    2    0    0  0.11734694982E+02  0.11598569107E+02 -0.37160949835E+02  0.50528855096E+02  0.29999985551E+02 0.  0.
        -12    1    1    2    0    0 -0.11734694982E+02 -0.11598569107E+02  0.37160949835E+02  0.40659144904E+02  0.00000000000E+00 0.  1.
         11    1    3    3    0    0  0.45861088400E+01  0.18307393447E+02 -0.22742664934E+02  0.29553711403E+02  0.51100000000E-03 0. -1.
        -11    1    3    3    0    0  0.11503422946E+01 -0.85229776548E+01 -0.60257767205E+01  0.10501162833E+02  0.51100000000E-03 0.  1.
        -12    1    3    3    0    0  0.59982438476E+01  0.18141533145E+01 -0.83925081807E+01  0.10473980861E+02  0.00000000000E+00 0.  1.
</event>
<event>
 7    1  0.5155466E-011  0.5052887E+02  0.7816164E-02  0.1300439E+00
        -11   -1    0    0    0    0  0.00000000000E+00  0.00000000000E+00  0.45593999997E+02  0.45594000000E+02  0.51100000000E-03 0.  1.
         11   -1    0    0    0    0 -0.00000000000E+00 -0.00000000000E+00 -0.45593999997E+02  0.45594000000E+02  0.51100000000E-03 0. -1.
    9900012    2    1    2    0    0 -0.52391947134E+01 -0.40153661265E+02  0.36605224710E+01  0.50528866967E+02  0.30000021633E+02 0.  0.
        -12    1    1    2    0    0  0.52391947134E+01  0.40153661265E+02 -0.36605224710E+01  0.40659133033E+02  0.00000000000E+00 0.  1.
         11    1    3    3    0    0  0.71712075054E+00 -0.11676559468E+02  0.32733749575E+01  0.12147892288E+02  0.51100000000E-03 0. -1.
        -11    1    3    3    0    0 -0.15277036510E+02 -0.22864803105E+02  0.22200060929E+00  0.27499751819E+02  0.51100000000E-03 0.  1.
        -12    1    3    3    0    0  0.93207210460E+01 -0.56122986925E+01  0.16514690426E+00  0.10881222860E+02  0.00000000000E+00 0.  1.
</event>
<event>
 7    1  0.5155466E-011  0.5052886E+02  0.7816164E-02  0.1300439E+00
        -11   -1    0    0    0    0  0.00000000000E+00  0.00000000000E+00  0.45593999997E+02  0.45594000000E+02  0.51100000000E-03 0.  1.
         11   -1    0    0    0    0 -0.00000000000E+00 -0.00000000000E+00 -0.45593999997E+02  0.45594000000E+02  0.51100000000E-03 0. -1.
    9900012    2    1    2    0    0 -0.39267243774E+02  0.80882090164E+01 -0.67697931214E+01  0.50528860097E+02  0.30000000751E+02 0.  0.
        -12    1    1    2    0    0  0.39267243774E+02 -0.80882090164E+01  0.67697931214E+01  0.40659139903E+02  0.00000000000E+00 0.  1.
         11    1    3    3    0    0  0.32995583114E+01  0.36252293720E+01 -0.44150517258E+01  0.65971247564E+01  0.51100000000E-03 0. -1.
        -11    1    3    3    0    0 -0.16304746637E+01 -0.18269644012E+01 -0.25191851770E+00  0.24616477719E+01  0.51100000000E-03 0.  1.
         12    1    3    3    0    0 -0.40936327422E+02  0.62899440456E+01 -0.21028228780E+01  0.41470087569E+02  0.00000000000E+00 0. -1.
</event>
<event>
 7    1  0.5155466E-011  0.5052886E+02  0.7816164E-02  0.1300439E+00
        -11   -1    0    0    0    0  0.00000000000E+00  0.00000000000E+00  0.45593999997E+02  0.45594000000E+02  0.51100000000E-03 0.  1.
         11   -1    0    0    0    0 -0.00000000000E+00 -0.00000000000E+00 -0.45593999997E+02  0.45594000000E+02  0.51100000000E-03 0. -1.
    9900012    2    1    2    0    0  0.22847997317E+02  0.28551542289E+02 -0.17774822393E+02  0.50528857614E+02  0.29999993204E+02 0.  0.
        -12    1    1    2    0    0 -0.22847997317E+02 -0.28551542289E+02  0.17774822393E+02  0.40659142386E+02  0.00000000000E+00 0.  1.
         11    1    3    3    0    0  0.56095283973E+01  0.30647949228E+01 -0.16849352618E+02  0.18021111527E+02  0.51100000000E-03 0. -1.
        -11    1    3    3    0    0  0.43934861167E+01  0.61319470315E+01  0.43209292928E+01  0.86933264559E+01  0.51100000000E-03 0.  1.
         12    1    3    3    0    0  0.12844982803E+02  0.19354800334E+02 -0.52463990675E+01  0.23814419631E+02  0.00000000000E+00 0. -1.
</event>
<event>
 7    1  0.5155466E-011  0.5052886E+02  0.7816164E-02  0.1300439E+00
        -11   -1    0    0    0    0  0.00000000000E+00  0.00000000000E+00  0.45593999997E+02  0.45594000000E+02  0.51100000000E-03 0. -1.
         11   -1    0    0    0    0 -0.00000000000E+00 -0.00000000000E+00 -0.45593999997E+02  0.45594000000E+02  0.51100000000E-03 0.  1.
    9900012    2    1    2    0    0 -0.30102435890E+02 -0.26849108452E+02 -0.51121614378E+01  0.50528862457E+02  0.30000007924E+02 0.  0.
        -12    1    1    2    0    0  0.30102435890E+02  0.26849108452E+02  0.51121614378E+01  0.40659137543E+02  0.00000000000E+00 0.  1.
         11    1    3    3    0    0 -0.10290102619E+01  0.67897983474E-01  0.12162603825E+01  0.15946039742E+01  0.51100000000E-03 0. -1.
        -11    1    3    3    0    0  0.47118596790E+01  0.51266660176E+00 -0.21856158614E+01  0.52193261666E+01  0.51100000000E-03 0.  1.
        -12    1    3    3    0    0 -0.33785285307E+02 -0.27429673037E+02 -0.41428059590E+01  0.43714932316E+02  0.00000000000E+00 0.  1.
</event>
<event>
 7    1  0.5155466E-011  0.5052886E+02  0.7816164E-02  0.1300439E+00
        -11   -1    0    0    0    0  0.00000000000E+00  0.00000000000E+00  0.45593999997E+02  0.45594000000E+02  0.51100000000E-03 0.  1.
         11   -1    0    0    0    0 -0.00000000000E+00 -0.00000000000E+00 -0.45593999997E+02  0.45594000000E+02  0.51100000000E-03 0. -1.
    9900012    2    1    2    0    0 -0.10417889943E+02  0.91203223418E+00 -0.39291242087E+02  0.50528856644E+02  0.29999990256E+02 0.  0.
        -12    1    1    2    0    0  0.10417889943E+02 -0.91203223418E+00  0.39291242087E+02  0.40659143356E+02  0.00000000000E+00 0.  1.
         11    1    3    3    0    0 -0.11499291136E+02 -0.41148327907E+01 -0.37334111020E+02  0.39281056394E+02  0.51100000000E-03 0. -1.
        -11    1    3    3    0    0 -0.24033210921E+01  0.31058007009E+01  0.29633506412E+01  0.49196948635E+01  0.51100000000E-03 0.  1.
         12    1    3    3    0    0  0.34847222850E+01  0.19210643240E+01 -0.49204817087E+01  0.63281053868E+01  0.00000000000E+00 0. -1.
</event>
<event>
 7    1  0.5155466E-011  0.5052887E+02  0.7816164E-02  0.1300439E+00
        -11   -1    0    0    0    0  0.00000000000E+00  0.00000000000E+00  0.45593999997E+02  0.45594000000E+02  0.51100000000E-03 0. -1.
         11   -1    0    0    0    0 -0.00000000000E+00 -0.00000000000E+00 -0.45593999997E+02  0.45594000000E+02  0.51100000000E-03 0.  1.
    9900012    2    1    2    0    0 -0.33205835584E+02  0.12034420263E+02  0.20142241838E+02  0.50528871945E+02  0.30000036765E+02 0.  0.
        -12    1    1    2    0    0  0.33205835584E+02 -0.12034420263E+02 -0.20142241838E+02  0.40659128055E+02  0.00000000000E+00 0.  1.
         11    1    3    3    0    0 -0.20663058407E+02 -0.57760418774E+01  0.15216119075E+02  0.26303135221E+02  0.51100000000E-03 0. -1.
        -11    1    3    3    0    0 -0.90996396095E+01  0.12164881498E+02 -0.11635479848E+01  0.15236194638E+02  0.51100000000E-03 0.  1.
         12    1    3    3    0    0 -0.34431375676E+01  0.56455806425E+01  0.60896707480E+01  0.89895420862E+01  0.00000000000E+00 0. -1.
</event>
<event>
 7    1  0.5155466E-011  0.5052886E+02  0.7816164E-02  0.1300439E+00
        -11   -1    0    0    0    0  0.00000000000E+00  0.00000000000E+00  0.45593999997E+02  0.45594000000E+02  0.51100000000E-03 0.  1.
         11   -1    0    0    0    0 -0.00000000000E+00 -0.00000000000E+00 -0.45593999997E+02  0.45594000000E+02  0.51100000000E-03 0. -1.
    9900012    2    1    2    0    0 -0.15069705496E+02  0.24748486483E+02 -0.28523354012E+02  0.50528864114E+02  0.30000012961E+02 0.  0.
        -12    1    1    2    0    0  0.15069705496E+02 -0.24748486483E+02  0.28523354012E+02  0.40659135886E+02  0.00000000000E+00 0.  1.
         11    1    3    3    0    0 -0.13321307022E+02  0.90468729169E+01 -0.25861522522E+02  0.30465086210E+02  0.51100000000E-03 0. -1.
        -11    1    3    3    0    0 -0.31886233753E+01  0.17221222793E+02 -0.34055025383E+01  0.17841952845E+02  0.51100000000E-03 0.  1.
         12    1    3    3    0    0  0.14402249006E+01 -0.15196092272E+01  0.74367104841E+00  0.22218250597E+01  0.00000000000E+00 0. -1.
</event>
<event>
 7    1  0.5155466E-011  0.5052887E+02  0.7816164E-02  0.1300439E+00
        -11   -1    0    0    0    0  0.00000000000E+00  0.00000000000E+00  0.45593999997E+02  0.45594000000E+02  0.51100000000E-03 0. -1.
         11   -1    0    0    0    0 -0.00000000000E+00 -0.00000000000E+00 -0.45593999997E+02  0.45594000000E+02  0.51100000000E-03 0.  1.
    9900012    2    1    2    0    0 -0.18492215059E+02 -0.32215602039E+02  0.16533544125E+02  0.50528866784E+02  0.30000021077E+02 0.  0.
        -12    1    1    2    0    0  0.18492215059E+02  0.32215602039E+02 -0.16533544125E+02  0.40659133216E+02  0.00000000000E+00 0.  1.
         11    1    3    3    0    0 -0.18141165512E+02 -0.29744769506E+02  0.20803165502E+02  0.40578626076E+02  0.51100000000E-03 0. -1.
        -11    1    3    3    0    0 -0.18795268918E+01  0.22690813595E+01  0.57538283624E+00  0.30020688238E+01  0.51100000000E-03 0.  1.
         12    1    3    3    0    0  0.15284773442E+01 -0.47399138925E+01 -0.48450042135E+01  0.69481718839E+01  0.00000000000E+00 0. -1.
</event>
<event>
 7    1  0.5155466E-011  0.5052885E+02  0.7816164E-02  0.1300439E+00
        -11   -1    0    0    0    0  0.00000000000E+00  0.00000000000E+00  0.45593999997E+02  0.45594000000E+02  0.51100000000E-03 0. -1.
         11   -1    0    0    0    0 -0.00000000000E+00 -0.00000000000E+00 -0.45593999997E+02  0.45594000000E+02  0.51100000000E-03 0.  1.
    9900012    2    1    2    0    0  0.15651612818E+02 -0.36610165318E+02  0.82395151461E+01  0.50528846070E+02  0.29999958115E+02 0.  0.
        -12    1    1    2    0    0 -0.15651612818E+02  0.36610165318E+02 -0.82395151461E+01  0.40659153930E+02  0.00000000000E+00 0.  1.
         11    1    3    3    0    0  0.21956504000E+02 -0.23615041938E+02  0.88850525457E+01  0.33447009323E+02  0.51100000000E-03 0. -1.
        -11    1    3    3    0    0 -0.65212219073E+01 -0.13979619455E+02  0.65101631617E+00  0.15439556917E+02  0.51100000000E-03 0.  1.
         12    1    3    3    0    0  0.21633072520E+00  0.98449607494E+00 -0.12965537157E+01  0.16422798306E+01  0.00000000000E+00 0. -1.
</event>
<event>
 7    1  0.5155466E-011  0.5052885E+02  0.7816164E-02  0.1300439E+00
        -11   -1    0    0    0    0  0.00000000000E+00  0.00000000000E+00  0.45593999997E+02  0.45594000000E+02  0.51100000000E-03 0. -1.
         11   -1    0    0    0    0 -0.00000000000E+00 -0.00000000000E+00 -0.45593999997E+02  0.45594000000E+02  0.51100000000E-03 0.  1.
    9900012    2    1    2    0    0  0.38254115143E+02  0.10088547535E+02 -0.93813683992E+01  0.50528853553E+02  0.29999980859E+02 0.  0.
        -12    1    1    2    0    0 -0.38254115143E+02 -0.10088547535E+02  0.93813683992E+01  0.40659146447E+02  0.00000000000E+00 0.  1.
         11    1    3    3    0    0  0.34204798871E+02  0.57788306482E+01 -0.16779466838E+02  0.38534577422E+02  0.51100000000E-03 0. -1.
        -11    1    3    3    0    0  0.58760118824E+01  0.17024889001E+01  0.58088824731E+01  0.84361780413E+01  0.51100000000E-03 0.  1.
         12    1    3    3    0    0 -0.18266956099E+01  0.26072279871E+01  0.15892159662E+01  0.35580980896E+01  0.00000000000E+00 0. -1.
</event>
<event>
 7    1  0.5155466E-011  0.5052887E+02  0.7816164E-02  0.1300439E+00
        -11   -1    0    0    0    0  0.00000000000E+00  0.00000000000E+00  0.45593999997E+02  0.45594000000E+02  0.51100000000E-03 0.  1.
         11   -1    0    0    0    0 -0.00000000000E+00 -0.00000000000E+00 -0.45593999997E+02  0.45594000000E+02  0.51100000000E-03 0. -1.
    9900012    2    1    2    0    0 -0.13245017513E+01  0.30858043248E+02 -0.26442231381E+02  0.50528871401E+02  0.30000035112E+02 0.  0.
        -12    1    1    2    0    0  0.13245017513E+01 -0.30858043248E+02  0.26442231381E+02  0.40659128599E+02  0.00000000000E+00 0.  1.
         11    1    3    3    0    0  0.65749151448E+00  0.30098212322E+02 -0.30989657805E+02  0.43205249348E+02  0.51100000000E-03 0. -1.
        -11    1    3    3    0    0 -0.28534604498E+01  0.50438200023E-01  0.52661382121E+01  0.59897406021E+01  0.51100000000E-03 0.  1.
         12    1    3    3    0    0  0.87146718398E+00  0.70939272599E+00 -0.71871178834E+00  0.13338814517E+01  0.00000000000E+00 0. -1.
</event>
<event>
 7    1  0.5155466E-011  0.5052887E+02  0.7816164E-02  0.1300439E+00
        -11   -1    0    0    0    0  0.00000000000E+00  0.00000000000E+00  0.45593999997E+02  0.45594000000E+02  0.51100000000E-03 0. -1.
         11   -1    0    0    0    0 -0.00000000000E+00 -0.00000000000E+00 -0.45593999997E+02  0.45594000000E+02  0.51100000000E-03 0.  1.
    9900012    2    1    2    0    0 -0.34794430309E+02  0.69470279932E+01 -0.19855763651E+02  0.50528869062E+02  0.30000028002E+02 0.  0.
        -12    1    1    2    0    0  0.34794430309E+02 -0.69470279932E+01  0.19855763651E+02  0.40659130938E+02  0.00000000000E+00 0.  1.
         11    1    3    3    0    0 -0.34449903307E+01  0.15185078484E+00  0.12778285145E+01  0.36774805252E+01  0.51100000000E-03 0. -1.
        -11    1    3    3    0    0 -0.35429014448E+02  0.69042645186E+01 -0.14164304813E+02  0.38775139773E+02  0.51100000000E-03 0.  1.
        -12    1    3    3    0    0  0.40795744702E+01 -0.10908731019E+00 -0.69692873522E+01  0.80762487639E+01  0.00000000000E+00 0.  1.
</event>
<event>
 7    1  0.5155466E-011  0.5052887E+02  0.7816164E-02  0.1300439E+00
        -11   -1    0    0    0    0  0.00000000000E+00  0.00000000000E+00  0.45593999997E+02  0.45594000000E+02  0.51100000000E-03 0.  1.
         11   -1    0    0    0    0 -0.00000000000E+00 -0.00000000000E+00 -0.45593999997E+02  0.45594000000E+02  0.51100000000E-03 0. -1.
    9900012    2    1    2    0    0 -0.32159828595E+02 -0.19029461670E+02 -0.16024652976E+02  0.50528874459E+02  0.30000044407E+02 0.  0.
        -12    1    1    2    0    0  0.32159828595E+02  0.19029461670E+02  0.16024652976E+02  0.40659125541E+02  0.00000000000E+00 0.  1.
         11    1    3    3    0    0 -0.19003247950E+02 -0.86217850967E+01 -0.22126291415E+02  0.30414328580E+02  0.51100000000E-03 0. -1.
        -11    1    3    3    0    0 -0.19638336426E+01 -0.70501191107E+01  0.10881829455E+01  0.73989840137E+01  0.51100000000E-03 0.  1.
         12    1    3    3    0    0 -0.11192747003E+02 -0.33575574622E+01  0.50134554937E+01  0.12715561866E+02  0.00000000000E+00 0. -1.
</event>
<event>
 7    1  0.5155466E-011  0.5052886E+02  0.7816164E-02  0.1300439E+00
        -11   -1    0    0    0    0  0.00000000000E+00  0.00000000000E+00  0.45593999997E+02  0.45594000000E+02  0.51100000000E-03 0. -1.
         11   -1    0    0    0    0 -0.00000000000E+00 -0.00000000000E+00 -0.45593999997E+02  0.45594000000E+02  0.51100000000E-03 0.  1.
    9900012    2    1    2    0    0  0.13304058827E+02 -0.14428701076E+02  0.35608705539E+02  0.50528864419E+02  0.30000013888E+02 0.  0.
        -12    1    1    2    0    0 -0.13304058827E+02  0.14428701076E+02 -0.35608705539E+02  0.40659135581E+02  0.00000000000E+00 0.  1.
         11    1    3    3    0    0  0.12867812874E+02  0.70399779335E+00  0.14289484429E+02  0.19242286418E+02  0.51100000000E-03 0. -1.
        -11    1    3    3    0    0 -0.48715896735E+01 -0.11997244129E+02  0.21523695188E+02  0.25118433619E+02  0.51100000000E-03 0.  1.
         12    1    3    3    0    0  0.53078356268E+01 -0.31354547403E+01 -0.20447407896E+00  0.61681443821E+01  0.00000000000E+00 0. -1.
</event>
<event>
 7    1  0.5155466E-011  0.5052886E+02  0.7816164E-02  0.1300439E+00
        -11   -1    0    0    0    0  0.00000000000E+00  0.00000000000E+00  0.45593999997E+02  0.45594000000E+02  0.51100000000E-03 0.  1.
         11   -1    0    0    0    0 -0.00000000000E+00 -0.00000000000E+00 -0.45593999997E+02  0.45594000000E+02  0.51100000000E-03 0. -1.
    9900012    2    1    2    0    0 -0.40402185678E+02 -0.35488910323E+01 -0.28696345748E+01  0.50528855423E+02  0.29999986545E+02 0.  0.
        -12    1    1    2    0    0  0.40402185678E+02  0.35488910323E+01  0.28696345748E+01  0.40659144577E+02  0.00000000000E+00 0.  1.
         11    1    3    3    0    0  0.21022203971E+00  0.25955506812E+01 -0.80599136421E+00  0.27259308474E+01  0.51100000000E-03 0. -1.
        -11    1    3    3    0    0 -0.22301502670E+02 -0.61870244548E+01  0.10684782384E+02  0.25491191966E+02  0.51100000000E-03 0.  1.
        -12    1    3    3    0    0 -0.18310905047E+02  0.42582741341E-01 -0.12748425595E+02  0.22311732611E+02  0.00000000000E+00 0.  1.
</event>
<event>
 7    1  0.5155466E-011  0.5052881E+02  0.7816164E-02  0.1300439E+00
        -11   -1    0    0    0    0  0.00000000000E+00  0.00000000000E+00  0.45593999997E+02  0.45594000000E+02  0.51100000000E-03 0.  1.
         11   -1    0    0    0    0 -0.00000000000E+00 -0.00000000000E+00 -0.45593999997E+02  0.45594000000E+02  0.51100000000E-03 0. -1.
    9900012    2    1    2    0    0 -0.23650215943E+02  0.32274810847E+02 -0.72231235095E+01  0.50528811093E+02  0.29999851798E+02 0.  0.
        -12    1    1    2    0    0  0.23650215943E+02 -0.32274810847E+02  0.72231235095E+01  0.40659188907E+02  0.00000000000E+00 0.  1.
         11    1    3    3    0    0 -0.21466143830E+02  0.36272017768E+02 -0.10845017394E+02  0.43520903098E+02  0.51100000000E-03 0. -1.
        -11    1    3    3    0    0 -0.15329781846E+01 -0.34536738394E+01  0.54676817683E+00  0.38179629128E+01  0.51100000000E-03 0.  1.
         12    1    3    3    0    0 -0.65109392796E+00 -0.54353308177E+00  0.30751257074E+01  0.31899450827E+01  0.00000000000E+00 0. -1.
</event>
<event>
 7    1  0.5155466E-011  0.5052886E+02  0.7816164E-02  0.1300439E+00
        -11   -1    0    0    0    0  0.00000000000E+00  0.00000000000E+00  0.45593999997E+02  0.45594000000E+02  0.51100000000E-03 0.  1.
         11   -1    0    0    0    0 -0.00000000000E+00 -0.00000000000E+00 -0.45593999997E+02  0.45594000000E+02  0.51100000000E-03 0. -1.
    9900012    2    1    2    0    0 -0.12946238135E+02  0.35191261371E+02 -0.15720541901E+02  0.50528863310E+02  0.30000010517E+02 0.  0.
        -12    1    1    2    0    0  0.12946238135E+02 -0.35191261371E+02  0.15720541901E+02  0.40659136690E+02  0.00000000000E+00 0.  1.
         11    1    3    3    0    0 -0.14334961430E+01  0.34417298500E+01 -0.16504709223E+01  0.40773116240E+01  0.51100000000E-03 0. -1.
        -11    1    3    3    0    0 -0.33573615742E+01  0.70758666476E+01 -0.18500543893E+02  0.20090044553E+02  0.51100000000E-03 0.  1.
        -12    1    3    3    0    0 -0.81553804182E+01  0.24673664873E+02  0.44304729146E+01  0.26361507132E+02  0.00000000000E+00 0.  1.
</event>
<event>
 7    1  0.5155466E-011  0.5052887E+02  0.7816164E-02  0.1300439E+00
        -11   -1    0    0    0    0  0.00000000000E+00  0.00000000000E+00  0.45593999997E+02  0.45594000000E+02  0.51100000000E-03 0. -1.
         11   -1    0    0    0    0 -0.00000000000E+00 -0.00000000000E+00 -0.45593999997E+02  0.45594000000E+02  0.51100000000E-03 0.  1.
    9900012    2    1    2    0    0 -0.63156579864E+01  0.47984985123E+01  0.39877959564E+02  0.50528870855E+02  0.30000033452E+02 0.  0.
        -12    1    1    2    0    0  0.63156579864E+01 -0.47984985123E+01 -0.39877959564E+02  0.40659129145E+02  0.00000000000E+00 0.  1.
         11    1    3    3    0    0  0.34980637992E+00 -0.99485553633E+01  0.17087014078E+02  0.19775291873E+02  0.51100000000E-03 0. -1.
        -11    1    3    3    0    0 -0.22050718073E+01  0.12217177166E+02  0.22400760541E+02  0.25610853806E+02  0.51100000000E-03 0.  1.
         12    1    3    3    0    0 -0.44603925590E+01  0.25298767092E+01  0.39018494547E+00  0.51427251760E+01  0.00000000000E+00 0. -1.
</event>
<event>
 7    1  0.5155466E-011  0.5052885E+02  0.7816164E-02  0.1300439E+00
        -11   -1    0    0    0    0  0.00000000000E+00  0.00000000000E+00  0.45593999997E+02  0.45594000000E+02  0.51100000000E-03 0.  1.
         11   -1    0    0    0    0 -0.00000000000E+00 -0.00000000000E+00 -0.45593999997E+02  0.45594000000E+02  0.51100000000E-03 0. -1.
    9900012    2    1    2    0    0 -0.20356595544E+02 -0.26997033473E+02 -0.22581748730E+02  0.50528853745E+02  0.29999981442E+02 0.  0.
        -12    1    1    2    0    0  0.20356595544E+02  0.26997033473E+02  0.22581748730E+02  0.40659146255E+02  0.00000000000E+00 0.  1.
         11    1    3    3    0    0  0.65286903420E+01 -0.13360397252E+01 -0.25093084053E+01  0.71207744426E+01  0.51100000000E-03 0. -1.
        -11    1    3    3    0    0 -0.57912405186E+01 -0.30155553884E+01 -0.15852440926E-01  0.65293409013E+01  0.51100000000E-03 0.  1.
         12    1    3    3    0    0 -0.21094045368E+02 -0.22645438360E+02 -0.20056587884E+02  0.36878738401E+02  0.00000000000E+00 0. -1.
</event>
<event>
 7    1  0.5155466E-011  0.5052885E+02  0.7816164E-02  0.1300439E+00
        -11   -1    0    0    0    0  0.00000000000E+00  0.00000000000E+00  0.45593999997E+02  0.45594000000E+02  0.51100000000E-03 0.  1.
         11   -1    0    0    0    0 -0.00000000000E+00 -0.00000000000E+00 -0.45593999997E+02  0.45594000000E+02  0.51100000000E-03 0. -1.
    9900012    2    1    2    0    0 -0.50559911472E+01  0.38697224007E+02  0.11407368721E+02  0.50528852770E+02  0.29999978479E+02 0.  0.
        -12    1    1    2    0    0  0.50559911472E+01 -0.38697224007E+02 -0.11407368721E+02  0.40659147230E+02  0.00000000000E+00 0.  1.
         11    1    3    3    0    0 -0.90264524050E+01  0.95928971836E+01  0.48200940997E+01  0.14026183614E+02  0.51100000000E-03 0. -1.
        -11    1    3    3    0    0  0.12403907821E+02  0.15407682365E+02  0.44721111184E+01  0.20279383206E+02  0.51100000000E-03 0.  1.
        -12    1    3    3    0    0 -0.84334465632E+01  0.13696644458E+02  0.21151635032E+01  0.16223285949E+02  0.00000000000E+00 0.  1.
</event>
<event>
 7    1  0.5155466E-011  0.5052886E+02  0.7816164E-02  0.1300439E+00
        -11   -1    0    0    0    0  0.00000000000E+00  0.00000000000E+00  0.45593999997E+02  0.45594000000E+02  0.51100000000E-03 0.  1.
         11   -1    0    0    0    0 -0.00000000000E+00 -0.00000000000E+00 -0.45593999997E+02  0.45594000000E+02  0.51100000000E-03 0. -1.
    9900012    2    1    2    0    0  0.26644734088E+01 -0.99236660898E+01 -0.39339380349E+02  0.50528863100E+02  0.30000009880E+02 0.  0.
        -12    1    1    2    0    0 -0.26644734088E+01  0.99236660898E+01  0.39339380349E+02  0.40659136900E+02  0.00000000000E+00 0.  1.
         11    1    3    3    0    0  0.68315045810E+01  0.59187122033E+01 -0.18348993604E+02  0.20454490351E+02  0.51100000000E-03 0. -1.
        -11    1    3    3    0    0 -0.43970402877E+01 -0.17354048589E+02 -0.21907024277E+02  0.28291600850E+02  0.51100000000E-03 0.  1.
         12    1    3    3    0    0  0.23000911551E+00  0.15116702961E+01  0.91663753262E+00  0.17827718989E+01  0.00000000000E+00 0. -1.
</event>
<event>
 7    1  0.5155466E-011  0.5052887E+02  0.7816164E-02  0.1300439E+00
        -11   -1    0    0    0    0  0.00000000000E+00  0.00000000000E+00  0.45593999997E+02  0.45594000000E+02  0.51100000000E-03 0.  1.
         11   -1    0    0    0    0 -0.00000000000E+00 -0.00000000000E+00 -0.45593999997E+02  0.45594000000E+02  0.51100000000E-03 0. -1.
    9900012    2    1    2    0    0 -0.38511498799E+02  0.64365153555E+01 -0.11340212315E+02  0.50528872058E+02  0.30000037107E+02 0.  0.
        -12    1    1    2    0    0  0.38511498799E+02 -0.64365153555E+01  0.11340212315E+02  0.40659127942E+02  0.00000000000E+00 0.  1.
         11    1    3    3    0    0 -0.86503560135E+01  0.48712403699E+01  0.29888513705E+01  0.10367780605E+02  0.51100000000E-03 0.  1.
        -11    1    3    3    0    0 -0.28046412827E+02 -0.68483085581E+01 -0.11813972654E+02  0.31194078808E+02  0.51100000000E-03 0. -1.
        -12    1    3    3    0    0 -0.18147299585E+01  0.84135835437E+01 -0.25150910313E+01  0.89670126444E+01  0.00000000000E+00 0.  1.
</event>
<event>
 7    1  0.5155466E-011  0.5052886E+02  0.7816164E-02  0.1300439E+00
        -11   -1    0    0    0    0  0.00000000000E+00  0.00000000000E+00  0.45593999997E+02  0.45594000000E+02  0.51100000000E-03 0. -1.
         11   -1    0    0    0    0 -0.00000000000E+00 -0.00000000000E+00 -0.45593999997E+02  0.45594000000E+02  0.51100000000E-03 0.  1.
    9900012    2    1    2    0    0 -0.32732844678E+02 -0.21149802721E+00  0.24118081477E+02  0.50528859499E+02  0.29999998934E+02 0.  0.
        -12    1    1    2    0    0  0.32732844678E+02  0.21149802721E+00 -0.24118081477E+02  0.40659140501E+02  0.00000000000E+00 0.  1.
         11    1    3    3    0    0 -0.17454209208E+02  0.11717371321E+02  0.52887429536E+01  0.21677569329E+02  0.51100000000E-03 0. -1.
        -11    1    3    3    0    0  0.22166435432E+00 -0.47333450324E+01  0.47500604458E+01  0.67094533892E+01  0.51100000000E-03 0.  1.
         12    1    3    3    0    0 -0.15500299825E+02 -0.71955243159E+01  0.14079278077E+02  0.22141836781E+02  0.00000000000E+00 0. -1.
</event>
<event>
 7    1  0.5155466E-011  0.5052886E+02  0.7816164E-02  0.1300439E+00
        -11   -1    0    0    0    0  0.00000000000E+00  0.00000000000E+00  0.45593999997E+02  0.45594000000E+02  0.51100000000E-03 0.  1.
         11   -1    0    0    0    0 -0.00000000000E+00 -0.00000000000E+00 -0.45593999997E+02  0.45594000000E+02  0.51100000000E-03 0. -1.
    9900012    2    1    2    0    0 -0.10738001147E+02 -0.34545924850E+02 -0.18559100600E+02  0.50528858255E+02  0.29999995152E+02 0.  0.
        -12    1    1    2    0    0  0.10738001147E+02  0.34545924850E+02  0.18559100600E+02  0.40659141745E+02  0.00000000000E+00 0.  1.
         11    1    3    3    0    0 -0.64346564430E+01  0.18908135451E+01 -0.50437934989E+01  0.83916525502E+01  0.51100000000E-03 0. -1.
        -11    1    3    3    0    0  0.55710169769E+01 -0.18194133595E+02 -0.82258807429E+01  0.20729877995E+02  0.51100000000E-03 0.  1.
         12    1    3    3    0    0 -0.98743616809E+01 -0.18242604800E+02 -0.52894263585E+01  0.21407327710E+02  0.00000000000E+00 0. -1.
</event>
<event>
 7    1  0.5155466E-011  0.5052887E+02  0.7816164E-02  0.1300439E+00
        -11   -1    0    0    0    0  0.00000000000E+00  0.00000000000E+00  0.45593999997E+02  0.45594000000E+02  0.51100000000E-03 0.  1.
         11   -1    0    0    0    0 -0.00000000000E+00 -0.00000000000E+00 -0.45593999997E+02  0.45594000000E+02  0.51100000000E-03 0. -1.
    9900012    2    1    2    0    0 -0.25032655321E+01 -0.39470107064E+02 -0.94344744123E+01  0.50528868217E+02  0.30000025432E+02 0.  0.
        -12    1    1    2    0    0  0.25032655321E+01  0.39470107064E+02  0.94344744123E+01  0.40659131783E+02  0.00000000000E+00 0.  1.
         11    1    3    3    0    0 -0.87011443867E+00 -0.16631936062E+02 -0.17346261204E+02  0.24047269582E+02  0.51100000000E-03 0. -1.
        -11    1    3    3    0    0 -0.51176280980E+01 -0.52135242985E+01  0.23801709375E+01  0.76834996527E+01  0.51100000000E-03 0.  1.
         12    1    3    3    0    0  0.34844770046E+01 -0.17624646703E+02  0.55316158543E+01  0.18798098982E+02  0.00000000000E+00 0. -1.
</event>
<event>
 7    1  0.5155466E-011  0.5052887E+02  0.7816164E-02  0.1300439E+00
        -11   -1    0    0    0    0  0.00000000000E+00  0.00000000000E+00  0.45593999997E+02  0.45594000000E+02  0.51100000000E-03 0. -1.
         11   -1    0    0    0    0 -0.00000000000E+00 -0.00000000000E+00 -0.45593999997E+02  0.45594000000E+02  0.51100000000E-03 0.  1.
    9900012    2    1    2    0    0 -0.39090455777E+02  0.11178657293E+02 -0.37279120421E+00  0.50528867139E+02  0.30000022156E+02 0.  0.
        -12    1    1    2    0    0  0.39090455777E+02 -0.11178657293E+02  0.37279120421E+00  0.40659132861E+02  0.00000000000E+00 0.  1.
         11    1    3    3    0    0 -0.43169089133E+01  0.13995096780E+01  0.44418245471E+01  0.63501287761E+01  0.51100000000E-03 0. -1.
        -11    1    3    3    0    0 -0.21805377304E+02 -0.56391478009E+01 -0.77506208860E+01  0.23819038429E+02  0.51100000000E-03 0.  1.
        -12    1    3    3    0    0 -0.12968169560E+02  0.15418295416E+02  0.29360051346E+01  0.20359699934E+02  0.00000000000E+00 0.  1.
</event>
<event>
 7    1  0.5155466E-011  0.5052886E+02  0.7816164E-02  0.1300439E+00
        -11   -1    0    0    0    0  0.00000000000E+00  0.00000000000E+00  0.45593999997E+02  0.45594000000E+02  0.51100000000E-03 0.  1.
         11   -1    0    0    0    0 -0.00000000000E+00 -0.00000000000E+00 -0.45593999997E+02  0.45594000000E+02  0.51100000000E-03 0. -1.
    9900012    2    1    2    0    0 -0.23902203201E+02 -0.14008877254E+02 -0.29759055555E+02  0.50528863913E+02  0.30000012351E+02 0.  0.
        -12    1    1    2    0    0  0.23902203201E+02  0.14008877254E+02  0.29759055555E+02  0.40659136087E+02  0.00000000000E+00 0.  1.
         11    1    3    3    0    0 -0.98297192598E+01 -0.11177904780E+02 -0.22864967869E+02  0.27283249291E+02  0.51100000000E-03 0. -1.
        -11    1    3    3    0    0 -0.54369579645E+01 -0.43876487814E+01  0.49085910748E+01  0.85385151131E+01  0.51100000000E-03 0.  1.
         12    1    3    3    0    0 -0.86355259767E+01  0.15566763080E+01 -0.11802678761E+02  0.14707099509E+02  0.00000000000E+00 0. -1.
</event>
<event>
 7    1  0.5155466E-011  0.5052887E+02  0.7816164E-02  0.1300439E+00
        -11   -1    0    0    0    0  0.00000000000E+00  0.00000000000E+00  0.45593999997E+02  0.45594000000E+02  0.51100000000E-03 0. -1.
         11   -1    0    0    0    0 -0.00000000000E+00 -0.00000000000E+00 -0.45593999997E+02  0.45594000000E+02  0.51100000000E-03 0.  1.
    9900012    2    1    2    0    0 -0.36038598177E+02  0.12204876222E+02  0.14332672422E+02  0.50528867436E+02  0.30000023058E+02 0.  0.
        -12    1    1    2    0    0  0.36038598177E+02 -0.12204876222E+02 -0.14332672422E+02  0.40659132564E+02  0.00000000000E+00 0.  1.
         11    1    3    3    0    0 -0.17407951635E+02  0.19388092737E+02  0.14511303126E+02  0.29824701822E+02  0.51100000000E-03 0. -1.
        -11    1    3    3    0    0 -0.16934608485E+01 -0.12882378049E+01 -0.16752230342E+01  0.27080876579E+01  0.51100000000E-03 0.  1.
         12    1    3    3    0    0 -0.16937185693E+02 -0.58949787103E+01  0.14965923298E+01  0.17996077956E+02  0.00000000000E+00 0. -1.
</event>
<event>
 7    1  0.5155466E-011  0.5052884E+02  0.7816164E-02  0.1300439E+00
        -11   -1    0    0    0    0  0.00000000000E+00  0.00000000000E+00  0.45593999997E+02  0.45594000000E+02  0.51100000000E-03 0. -1.
         11   -1    0    0    0    0 -0.00000000000E+00 -0.00000000000E+00 -0.45593999997E+02  0.45594000000E+02  0.51100000000E-03 0.  1.
    9900012    2    1    2    0    0 -0.24340694416E+02 -0.32267676718E+02  0.44153070637E+01  0.50528839877E+02  0.29999939290E+02 0.  0.
        -12    1    1    2    0    0  0.24340694416E+02  0.32267676718E+02 -0.44153070637E+01  0.40659160123E+02  0.00000000000E+00 0.  1.
         11    1    3    3    0    0 -0.10681711837E+02 -0.15805281836E+02  0.14049304657E+02  0.23691535689E+02  0.51100000000E-03 0. -1.
        -11    1    3    3    0    0 -0.13328808041E+02 -0.14775637464E+02 -0.31716988551E+01  0.20150341440E+02  0.51100000000E-03 0.  1.
         12    1    3    3    0    0 -0.33017453860E+00 -0.16867574187E+01 -0.64622987385E+01  0.66869627486E+01  0.00000000000E+00 0. -1.
</event>
<event>
 7    1  0.5155466E-011  0.5052886E+02  0.7816164E-02  0.1300439E+00
        -11   -1    0    0    0    0  0.00000000000E+00  0.00000000000E+00  0.45593999997E+02  0.45594000000E+02  0.51100000000E-03 0. -1.
         11   -1    0    0    0    0 -0.00000000000E+00 -0.00000000000E+00 -0.45593999997E+02  0.45594000000E+02  0.51100000000E-03 0.  1.
    9900012    2    1    2    0    0  0.14236600352E+02  0.37262668188E+02  0.78726603452E+01  0.50528855752E+02  0.29999987543E+02 0.  0.
        -12    1    1    2    0    0 -0.14236600352E+02 -0.37262668188E+02 -0.78726603452E+01  0.40659144248E+02  0.00000000000E+00 0.  1.
         11    1    3    3    0    0  0.40898018060E+01  0.15620365069E+02  0.13331528072E+02  0.20939243652E+02  0.51100000000E-03 0. -1.
        -11    1    3    3    0    0  0.46704767159E+01  0.45768816767E+01 -0.91936481815E+01  0.11282037306E+02  0.51100000000E-03 0.  1.
        -12    1    3    3    0    0  0.54763218302E+01  0.17065421442E+02  0.37347804547E+01  0.18307574794E+02  0.00000000000E+00 0.  1.
</event>
<event>
 7    1  0.5155466E-011  0.5052886E+02  0.7816164E-02  0.1300439E+00
        -11   -1    0    0    0    0  0.00000000000E+00  0.00000000000E+00  0.45593999997E+02  0.45594000000E+02  0.51100000000E-03 0. -1.
         11   -1    0    0    0    0 -0.00000000000E+00 -0.00000000000E+00 -0.45593999997E+02  0.45594000000E+02  0.51100000000E-03 0.  1.
    9900012    2    1    2    0    0 -0.24455873962E+02 -0.20053460162E+02  0.25552592708E+02  0.50528855521E+02  0.29999986841E+02 0.  0.
        -12    1    1    2    0    0  0.24455873962E+02  0.20053460162E+02 -0.25552592708E+02  0.40659144479E+02  0.00000000000E+00 0.  1.
         11    1    3    3    0    0 -0.64652424433E+01 -0.10870589938E+02 -0.43557672086E+01  0.13376912712E+02  0.51100000000E-03 0. -1.
        -11    1    3    3    0    0 -0.31140328643E+00 -0.12117083716E+01  0.71180390088E+01  0.72271494226E+01  0.51100000000E-03 0.  1.
         12    1    3    3    0    0 -0.17679228232E+02 -0.79711618521E+01  0.22790320907E+02  0.29924793386E+02  0.00000000000E+00 0. -1.
</event>
<event>
 7    1  0.5155466E-011  0.5052886E+02  0.7816164E-02  0.1300439E+00
        -11   -1    0    0    0    0  0.00000000000E+00  0.00000000000E+00  0.45593999997E+02  0.45594000000E+02  0.51100000000E-03 0.  1.
         11   -1    0    0    0    0 -0.00000000000E+00 -0.00000000000E+00 -0.45593999997E+02  0.45594000000E+02  0.51100000000E-03 0. -1.
    9900012    2    1    2    0    0  0.16260960159E+02 -0.98217832292E+01 -0.35948289710E+02  0.50528858541E+02  0.29999996022E+02 0.  0.
        -12    1    1    2    0    0 -0.16260960159E+02  0.98217832292E+01  0.35948289710E+02  0.40659141459E+02  0.00000000000E+00 0.  1.
         11    1    3    3    0    0  0.31269914089E+01 -0.72903353892E+01 -0.22456526424E+02  0.23816436439E+02  0.51100000000E-03 0. -1.
        -11    1    3    3    0    0  0.11016443882E+02 -0.19087938907E+01  0.17455967195E+01  0.11316034557E+02  0.51100000000E-03 0.  1.
        -12    1    3    3    0    0  0.21175248676E+01 -0.62265394936E+00 -0.15237360005E+02  0.15396387545E+02  0.00000000000E+00 0.  1.
</event>
<event>
 7    1  0.6444028E-011  0.5052897E+02  0.7816164E-02  0.1300438E+00
        -11   -1    0    0    0    0  0.00000000000E+00  0.00000000000E+00  0.45593999997E+02  0.45594000000E+02  0.51100000000E-03 0.  1.
         11   -1    0    0    0    0 -0.00000000000E+00 -0.00000000000E+00 -0.45593999997E+02  0.45594000000E+02  0.51100000000E-03 0. -1.
    9900012    2    1    2    0    0 -0.25020634805E+02  0.28307923109E+02  0.15026167353E+02  0.50528974162E+02  0.30000347461E+02 0.  0.
        -12    1    1    2    0    0  0.25020634805E+02 -0.28307923109E+02 -0.15026167353E+02  0.40659025838E+02  0.00000000000E+00 0.  1.
         11    1    3    3    0    0 -0.21467793610E+02  0.24238299899E+02  0.69309882844E+01  0.33111930529E+02  0.51100000000E-03 0. -1.
        -11    1    3    3    0    0 -0.56835478112E+01 -0.27325816743E+01  0.81296246260E+01  0.10288853928E+02  0.51100000000E-03 0.  1.
        -12    1    3    3    0    0  0.21307066167E+01  0.68022048849E+01 -0.34445557736E-01  0.71281897056E+01  0.00000000000E+00 0.  1.
</event>
<event>
 7    1  0.5155466E-011  0.5052886E+02  0.7816164E-02  0.1300439E+00
        -11   -1    0    0    0    0  0.00000000000E+00  0.00000000000E+00  0.45593999997E+02  0.45594000000E+02  0.51100000000E-03 0.  1.
         11   -1    0    0    0    0 -0.00000000000E+00 -0.00000000000E+00 -0.45593999997E+02  0.45594000000E+02  0.51100000000E-03 0. -1.
    9900012    2    1    2    0    0  0.12728690601E+02  0.93593704816E+01 -0.37463958968E+02  0.50528860784E+02  0.30000002838E+02 0.  0.
        -12    1    1    2    0    0 -0.12728690601E+02 -0.93593704816E+01  0.37463958968E+02  0.40659139216E+02  0.00000000000E+00 0.  1.
         11    1    3    3    0    0  0.94353627444E+01  0.18593301169E+02 -0.22742114358E+02  0.30853536009E+02  0.51100000000E-03 0. -1.
        -11    1    3    3    0    0 -0.20326349374E+01 -0.58105519005E+01 -0.44008773536E+01  0.75671553387E+01  0.51100000000E-03 0.  1.
        -12    1    3    3    0    0  0.53259627940E+01 -0.34233787867E+01 -0.10320967256E+02  0.12108169436E+02  0.00000000000E+00 0.  1.
</event>
<event>
 7    1  0.5155466E-011  0.5052885E+02  0.7816164E-02  0.1300439E+00
        -11   -1    0    0    0    0  0.00000000000E+00  0.00000000000E+00  0.45593999997E+02  0.45594000000E+02  0.51100000000E-03 0. -1.
         11   -1    0    0    0    0 -0.00000000000E+00 -0.00000000000E+00 -0.45593999997E+02  0.45594000000E+02  0.51100000000E-03 0.  1.
    9900012    2    1    2    0    0  0.36277356557E+02 -0.18358622396E+02 -0.28477044768E+00  0.50528847165E+02  0.29999961444E+02 0.  0.
        -12    1    1    2    0    0 -0.36277356557E+02  0.18358622396E+02  0.28477044768E+00  0.40659152835E+02  0.00000000000E+00 0.  1.
         11    1    3    3    0    0  0.16881980550E+02 -0.23962017428E+02  0.50134413143E+00  0.29316051793E+02  0.51100000000E-03 0.  1.
        -11    1    3    3    0    0  0.16204876918E+02  0.26743577086E+01  0.11590724011E+01  0.16464922538E+02  0.51100000000E-03 0. -1.
        -12    1    3    3    0    0  0.31904990885E+01  0.29290373227E+01 -0.19451869802E+01  0.47478728352E+01  0.00000000000E+00 0.  1.
</event>
<event>
 7    1  0.5155466E-011  0.5052886E+02  0.7816164E-02  0.1300439E+00
        -11   -1    0    0    0    0  0.00000000000E+00  0.00000000000E+00  0.45593999997E+02  0.45594000000E+02  0.51100000000E-03 0.  1.
         11   -1    0    0    0    0 -0.00000000000E+00 -0.00000000000E+00 -0.45593999997E+02  0.45594000000E+02  0.51100000000E-03 0. -1.
    9900012    2    1    2    0    0  0.33653212968E+02 -0.78010330598E+01  0.21442258943E+02  0.50528864145E+02  0.30000013057E+02 0.  0.
        -12    1    1    2    0    0 -0.33653212968E+02  0.78010330598E+01 -0.21442258943E+02  0.40659135855E+02  0.00000000000E+00 0.  1.
         11    1    3    3    0    0  0.22723261796E+02  0.19436637660E+01  0.18808215198E+02  0.29561350015E+02  0.51100000000E-03 0. -1.
        -11    1    3    3    0    0  0.12832306201E+01 -0.10888037799E+02  0.25575283886E+00  0.10966378514E+02  0.51100000000E-03 0.  1.
         12    1    3    3    0    0  0.96467205516E+01  0.11433409736E+01  0.23782909060E+01  0.10001135616E+02  0.00000000000E+00 0. -1.
</event>
<event>
 7    1  0.5155466E-011  0.5052887E+02  0.7816164E-02  0.1300439E+00
        -11   -1    0    0    0    0  0.00000000000E+00  0.00000000000E+00  0.45593999997E+02  0.45594000000E+02  0.51100000000E-03 0. -1.
         11   -1    0    0    0    0 -0.00000000000E+00 -0.00000000000E+00 -0.45593999997E+02  0.45594000000E+02  0.51100000000E-03 0.  1.
    9900012    2    1    2    0    0  0.31625922193E+02 -0.24251007829E+02  0.80532503968E+01  0.50528866005E+02  0.30000018708E+02 0.  0.
        -12    1    1    2    0    0 -0.31625922193E+02  0.24251007829E+02 -0.80532503968E+01  0.40659133995E+02  0.00000000000E+00 0.  1.
         11    1    3    3    0    0  0.25110115126E+02 -0.12555953961E+02  0.56078786680E+01  0.28628974221E+02  0.51100000000E-03 0. -1.
        -11    1    3    3    0    0 -0.24643512405E+00 -0.14105582910E+02 -0.55605119353E+00  0.14118689482E+02  0.51100000000E-03 0.  1.
        -12    1    3    3    0    0  0.67622421908E+01  0.24105290417E+01  0.30014229224E+01  0.77812023022E+01  0.00000000000E+00 0.  1.
</event>
<event>
 7    1  0.5155466E-011  0.5052886E+02  0.7816164E-02  0.1300439E+00
        -11   -1    0    0    0    0  0.00000000000E+00  0.00000000000E+00  0.45593999997E+02  0.45594000000E+02  0.51100000000E-03 0.  1.
         11   -1    0    0    0    0 -0.00000000000E+00 -0.00000000000E+00 -0.45593999997E+02  0.45594000000E+02  0.51100000000E-03 0. -1.
    9900012    2    1    2    0    0  0.29591743811E+02  0.20376818840E+02 -0.19033639132E+02  0.50528862449E+02  0.30000007899E+02 0.  0.
        -12    1    1    2    0    0 -0.29591743811E+02 -0.20376818840E+02  0.19033639132E+02  0.40659137551E+02  0.00000000000E+00 0.  1.
         11    1    3    3    0    0  0.99461178746E+01  0.34162523190E+01 -0.61196966681E+01  0.12167445428E+02  0.51100000000E-03 0. -1.
        -11    1    3    3    0    0  0.11808420402E+02  0.67245531531E+01  0.64948234857E+01  0.15061246292E+02  0.51100000000E-03 0.  1.
        -12    1    3    3    0    0  0.78372055339E+01  0.10236013368E+02 -0.19408765950E+02  0.23300170728E+02  0.00000000000E+00 0.  1.
</event>
<event>
 7    1  0.5155466E-011  0.5052886E+02  0.7816164E-02  0.1300439E+00
        -11   -1    0    0    0    0  0.00000000000E+00  0.00000000000E+00  0.45593999997E+02  0.45594000000E+02  0.51100000000E-03 0.  1.
         11   -1    0    0    0    0 -0.00000000000E+00 -0.00000000000E+00 -0.45593999997E+02  0.45594000000E+02  0.51100000000E-03 0. -1.
    9900012    2    1    2    0    0 -0.39591487299E+02  0.89917545931E+01 -0.21972335400E+01  0.50528863850E+02  0.30000012159E+02 0.  0.
        -12    1    1    2    0    0  0.39591487299E+02 -0.89917545931E+01  0.21972335400E+01  0.40659136150E+02  0.00000000000E+00 0.  1.
         11    1    3    3    0    0 -0.22019005756E+02 -0.50668775960E+01  0.73014056257E+01  0.23744902346E+02  0.51100000000E-03 0. -1.
        -11    1    3    3    0    0 -0.73818219016E+01  0.59612913732E+01 -0.99648616784E+01  0.13759606025E+02  0.51100000000E-03 0.  1.
         12    1    3    3    0    0 -0.10190659642E+02  0.80973408159E+01  0.46622251269E+00  0.13024355479E+02  0.00000000000E+00 0. -1.
</event>
<event>
 7    1  0.5155466E-011  0.5052886E+02  0.7816164E-02  0.1300439E+00
        -11   -1    0    0    0    0  0.00000000000E+00  0.00000000000E+00  0.45593999997E+02  0.45594000000E+02  0.51100000000E-03 0.  1.
         11   -1    0    0    0    0 -0.00000000000E+00 -0.00000000000E+00 -0.45593999997E+02  0.45594000000E+02  0.51100000000E-03 0. -1.
    9900012    2    1    2    0    0  0.15265764574E+02 -0.37463341922E+02 -0.40768224036E+01  0.50528855433E+02  0.29999986574E+02 0.  0.
        -12    1    1    2    0    0 -0.15265764574E+02  0.37463341922E+02  0.40768224036E+01  0.40659144567E+02  0.00000000000E+00 0.  1.
         11    1    3    3    0    0  0.31303042203E+01 -0.17844724854E+02 -0.36767345411E+00  0.18120932472E+02  0.51100000000E-03 0. -1.
        -11    1    3    3    0    0  0.19650757638E+01  0.46819315049E+01  0.19932201428E+01  0.54548081701E+01  0.51100000000E-03 0.  1.
        -12    1    3    3    0    0  0.10170384590E+02 -0.24300548574E+02 -0.57023690923E+01  0.26953114791E+02  0.00000000000E+00 0.  1.
</event>
<event>
 7    1  0.5155466E-011  0.5052886E+02  0.7816164E-02  0.1300439E+00
        -11   -1    0    0    0    0  0.00000000000E+00  0.00000000000E+00  0.45593999997E+02  0.45594000000E+02  0.51100000000E-03 0.  1.
         11   -1    0    0    0    0 -0.00000000000E+00 -0.00000000000E+00 -0.45593999997E+02  0.45594000000E+02  0.51100000000E-03 0. -1.
    9900012    2    1    2    0    0 -0.21772589496E+02  0.22361440003E+02 -0.26059273405E+02  0.50528863477E+02  0.30000011026E+02 0.  0.
        -12    1    1    2    0    0  0.21772589496E+02 -0.22361440003E+02  0.26059273405E+02  0.40659136523E+02  0.00000000000E+00 0.  1.
         11    1    3    3    0    0 -0.16681539328E+02  0.14271286402E+02 -0.54000613482E+01  0.22607610063E+02  0.51100000000E-03 0. -1.
        -11    1    3    3    0    0 -0.24660722149E+01 -0.42314359445E+01 -0.11017400228E+02  0.12056934534E+02  0.51100000000E-03 0.  1.
         12    1    3    3    0    0 -0.26249779526E+01  0.12321589546E+02 -0.96418118287E+01  0.15864318880E+02  0.00000000000E+00 0. -1.
</event>
<event>
 7    1  0.5155466E-011  0.5052885E+02  0.7816164E-02  0.1300439E+00
        -11   -1    0    0    0    0  0.00000000000E+00  0.00000000000E+00  0.45593999997E+02  0.45594000000E+02  0.51100000000E-03 0.  1.
         11   -1    0    0    0    0 -0.00000000000E+00 -0.00000000000E+00 -0.45593999997E+02  0.45594000000E+02  0.51100000000E-03 0. -1.
    9900012    2    1    2    0    0  0.11295409547E+02 -0.38652882365E+02 -0.56155730618E+01  0.50528852779E+02  0.29999978507E+02 0.  0.
        -12    1    1    2    0    0 -0.11295409547E+02  0.38652882365E+02  0.56155730618E+01  0.40659147221E+02  0.00000000000E+00 0.  1.
         11    1    3    3    0    0  0.23285391664E+00 -0.13388190580E+02 -0.83277111776E+01  0.15768596693E+02  0.51100000000E-03 0. -1.
        -11    1    3    3    0    0  0.61610004123E+00 -0.16549698732E+01  0.81813220868E+01  0.83697392965E+01  0.51100000000E-03 0.  1.
        -12    1    3    3    0    0  0.10446455589E+02 -0.23609721911E+02 -0.54691839709E+01  0.26390516789E+02  0.00000000000E+00 0.  1.
</event>
<event>
 7    1  0.5155466E-011  0.5052895E+02  0.7816164E-02  0.1300438E+00
        -11   -1    0    0    0    0  0.00000000000E+00  0.00000000000E+00  0.45593999997E+02  0.45594000000E+02  0.51100000000E-03 0.  1.
         11   -1    0    0    0    0 -0.00000000000E+00 -0.00000000000E+00 -0.45593999997E+02  0.45594000000E+02  0.51100000000E-03 0. -1.
    9900012    2    1    2    0    0  0.26744354730E+01  0.39242679103E+02 -0.10296483813E+02  0.50528953685E+02  0.30000285220E+02 0.  0.
        -12    1    1    2    0    0 -0.26744354730E+01 -0.39242679103E+02  0.10296483813E+02  0.40659046315E+02  0.00000000000E+00 0.  1.
         11    1    3    3    0    0  0.22877381329E+01  0.22423127879E+02 -0.18521443851E+02  0.29173177617E+02  0.51100000000E-03 0. -1.
        -11    1    3    3    0    0  0.33445357414E+01  0.19130785643E+01  0.40622019345E+01  0.55988636111E+01  0.51100000000E-03 0.  1.
         12    1    3    3    0    0 -0.29578384013E+01  0.14906472660E+02  0.41627581038E+01  0.15756912458E+02  0.00000000000E+00 0. -1.
</event>
<event>
 7    1  0.5155466E-011  0.5052885E+02  0.7816164E-02  0.1300439E+00
        -11   -1    0    0    0    0  0.00000000000E+00  0.00000000000E+00  0.45593999997E+02  0.45594000000E+02  0.51100000000E-03 0. -1.
         11   -1    0    0    0    0 -0.00000000000E+00 -0.00000000000E+00 -0.45593999997E+02  0.45594000000E+02  0.51100000000E-03 0.  1.
    9900012    2    1    2    0    0  0.13876596935E+02  0.10494450692E+02  0.36748787616E+02  0.50528845692E+02  0.29999956964E+02 0.  0.
        -12    1    1    2    0    0 -0.13876596935E+02 -0.10494450692E+02 -0.36748787616E+02  0.40659154308E+02  0.00000000000E+00 0.  1.
         11    1    3    3    0    0  0.15013076534E+02  0.46050329152E+01  0.26049890467E+02  0.30417027941E+02  0.51100000000E-03 0. -1.
        -11    1    3    3    0    0 -0.67389696774E+01  0.49560897085E+01  0.11661059700E+02  0.14351196852E+02  0.51100000000E-03 0.  1.
         12    1    3    3    0    0  0.56024900779E+01  0.93332806852E+00 -0.96216255050E+00  0.57606208980E+01  0.00000000000E+00 0. -1.
</event>
<event>
 7    1  0.5155466E-011  0.5052886E+02  0.7816164E-02  0.1300439E+00
        -11   -1    0    0    0    0  0.00000000000E+00  0.00000000000E+00  0.45593999997E+02  0.45594000000E+02  0.51100000000E-03 0.  1.
         11   -1    0    0    0    0 -0.00000000000E+00 -0.00000000000E+00 -0.45593999997E+02  0.45594000000E+02  0.51100000000E-03 0. -1.
    9900012    2    1    2    0    0 -0.83615653860E+01 -0.30755140876E+02 -0.25246217663E+02  0.50528856228E+02  0.29999988990E+02 0.  0.
        -12    1    1    2    0    0  0.83615653860E+01  0.30755140876E+02  0.25246217663E+02  0.40659143772E+02  0.00000000000E+00 0.  1.
         11    1    3    3    0    0  0.31121239824E+01 -0.28582063868E+02 -0.15924726145E+02  0.32866648653E+02  0.51100000000E-03 0.  1.
        -11    1    3    3    0    0 -0.11259359361E+02 -0.48763244197E+01 -0.72710739410E+01  0.14262546392E+02  0.51100000000E-03 0. -1.
         12    1    3    3    0    0 -0.21433000762E+00  0.27032474115E+01 -0.20504175763E+01  0.33996611827E+01  0.00000000000E+00 0. -1.
</event>
<event>
 7    1  0.5155466E-011  0.5052886E+02  0.7816164E-02  0.1300439E+00
        -11   -1    0    0    0    0  0.00000000000E+00  0.00000000000E+00  0.45593999997E+02  0.45594000000E+02  0.51100000000E-03 0.  1.
         11   -1    0    0    0    0 -0.00000000000E+00 -0.00000000000E+00 -0.45593999997E+02  0.45594000000E+02  0.51100000000E-03 0. -1.
    9900012    2    1    2    0    0 -0.28808402497E+02 -0.25730911312E+02 -0.12694966387E+02  0.50528855605E+02  0.29999987096E+02 0.  0.
        -12    1    1    2    0    0  0.28808402497E+02  0.25730911312E+02  0.12694966387E+02  0.40659144395E+02  0.00000000000E+00 0.  1.
         11    1    3    3    0    0 -0.14340636856E+02 -0.24064865697E+02 -0.82627707825E+01  0.29206934240E+02  0.51100000000E-03 0. -1.
        -11    1    3    3    0    0 -0.17395517391E+02 -0.29180656203E+01 -0.41841448858E+01  0.18128050115E+02  0.51100000000E-03 0.  1.
        -12    1    3    3    0    0  0.29277517498E+01  0.12520200054E+01 -0.24805071845E+00  0.31938712499E+01  0.00000000000E+00 0.  1.
</event>
<event>
 7    1  0.5155466E-011  0.5052886E+02  0.7816164E-02  0.1300439E+00
        -11   -1    0    0    0    0  0.00000000000E+00  0.00000000000E+00  0.45593999997E+02  0.45594000000E+02  0.51100000000E-03 0. -1.
         11   -1    0    0    0    0 -0.00000000000E+00 -0.00000000000E+00 -0.45593999997E+02  0.45594000000E+02  0.51100000000E-03 0.  1.
    9900012    2    1    2    0    0  0.25686744860E+01 -0.11247754597E+02  0.38987893375E+02  0.50528857093E+02  0.29999991621E+02 0.  0.
        -12    1    1    2    0    0 -0.25686744860E+01  0.11247754597E+02 -0.38987893375E+02  0.40659142907E+02  0.00000000000E+00 0.  1.
         11    1    3    3    0    0 -0.53665326637E+01 -0.16451384844E+01  0.79414906811E+01  0.97248870411E+01  0.51100000000E-03 0. -1.
        -11    1    3    3    0    0  0.12853528810E+02  0.19292789984E+01  0.21180725447E+02  0.24850723350E+02  0.51100000000E-03 0.  1.
        -12    1    3    3    0    0 -0.49183216598E+01 -0.11531895111E+02  0.98656772468E+01  0.15953246702E+02  0.00000000000E+00 0.  1.
</event>
<event>
 7    1  0.5155466E-011  0.5052885E+02  0.7816164E-02  0.1300439E+00
        -11   -1    0    0    0    0  0.00000000000E+00  0.00000000000E+00  0.45593999997E+02  0.45594000000E+02  0.51100000000E-03 0.  1.
         11   -1    0    0    0    0 -0.00000000000E+00 -0.00000000000E+00 -0.45593999997E+02  0.45594000000E+02  0.51100000000E-03 0. -1.
    9900012    2    1    2    0    0  0.15216381550E+02 -0.66641459981E+01 -0.37110874449E+02  0.50528854513E+02  0.29999983778E+02 0.  0.
        -12    1    1    2    0    0 -0.15216381550E+02  0.66641459981E+01  0.37110874449E+02  0.40659145487E+02  0.00000000000E+00 0.  1.
         11    1    3    3    0    0  0.25381644970E+01 -0.53435227678E+00 -0.18303561969E+02  0.18486432657E+02  0.51100000000E-03 0. -1.
        -11    1    3    3    0    0  0.33455658061E+01  0.77641257382E+01 -0.28621617106E+01  0.89256052434E+01  0.51100000000E-03 0.  1.
        -12    1    3    3    0    0  0.93326512467E+01 -0.13893919459E+02 -0.15945150769E+02  0.23116816613E+02  0.00000000000E+00 0.  1.
</event>
<event>
 7    1  0.5155466E-011  0.5052885E+02  0.7816164E-02  0.1300439E+00
        -11   -1    0    0    0    0  0.00000000000E+00  0.00000000000E+00  0.45593999997E+02  0.45594000000E+02  0.51100000000E-03 0. -1.
         11   -1    0    0    0    0 -0.00000000000E+00 -0.00000000000E+00 -0.45593999997E+02  0.45594000000E+02  0.51100000000E-03 0.  1.
    9900012    2    1    2    0    0 -0.12047040442E+02  0.35501005046E+02  0.15738921296E+02  0.50528853597E+02  0.29999980993E+02 0.  0.
        -12    1    1    2    0    0  0.12047040442E+02 -0.35501005046E+02 -0.15738921296E+02  0.40659146403E+02  0.00000000000E+00 0.  1.
         11    1    3    3    0    0 -0.13534122205E+02  0.14538050392E+02  0.19428067809E+01  0.19957501635E+02  0.51100000000E-03 0. -1.
        -11    1    3    3    0    0  0.76899932182E+01  0.39027781347E+01  0.17904330741E+01  0.88075719536E+01  0.51100000000E-03 0.  1.
         12    1    3    3    0    0 -0.62029114552E+01  0.17060176519E+02  0.12005681441E+02  0.21763780008E+02  0.00000000000E+00 0. -1.
</event>
<event>
 7    1  0.5155466E-011  0.5052885E+02  0.7816164E-02  0.1300439E+00
        -11   -1    0    0    0    0  0.00000000000E+00  0.00000000000E+00  0.45593999997E+02  0.45594000000E+02  0.51100000000E-03 0.  1.
         11   -1    0    0    0    0 -0.00000000000E+00 -0.00000000000E+00 -0.45593999997E+02  0.45594000000E+02  0.51100000000E-03 0. -1.
    9900012    2    1    2    0    0 -0.32333793857E+02 -0.23877573943E+02 -0.61280916313E+01  0.50528852571E+02  0.29999977876E+02 0.  0.
        -12    1    1    2    0    0  0.32333793857E+02  0.23877573943E+02  0.61280916313E+01  0.40659147429E+02  0.00000000000E+00 0.  1.
         11    1    3    3    0    0 -0.12081733410E+02 -0.16113384110E+02 -0.10588485317E+02  0.22753581064E+02  0.51100000000E-03 0. -1.
        -11    1    3    3    0    0 -0.13933324665E+02  0.22102705636E+01  0.69215509079E+01  0.15714028745E+02  0.51100000000E-03 0.  1.
        -12    1    3    3    0    0 -0.63187357826E+01 -0.99744603965E+01 -0.24611572217E+01  0.12061242762E+02  0.00000000000E+00 0.  1.
</event>
<event>
 7    1  0.5155466E-011  0.5052883E+02  0.7816164E-02  0.1300439E+00
        -11   -1    0    0    0    0  0.00000000000E+00  0.00000000000E+00  0.45593999997E+02  0.45594000000E+02  0.51100000000E-03 0. -1.
         11   -1    0    0    0    0 -0.00000000000E+00 -0.00000000000E+00 -0.45593999997E+02  0.45594000000E+02  0.51100000000E-03 0.  1.
    9900012    2    1    2    0    0  0.77122025787E+01  0.37139052999E+02 -0.14641744442E+02  0.50528831211E+02  0.29999912949E+02 0.  0.
        -12    1    1    2    0    0 -0.77122025787E+01 -0.37139052999E+02  0.14641744442E+02  0.40659168789E+02  0.00000000000E+00 0.  1.
         11    1    3    3    0    0  0.20505953845E+00  0.55510375418E+01  0.53674593296E+01  0.77243567448E+01  0.51100000000E-03 0. -1.
        -11    1    3    3    0    0  0.94400342952E+01  0.89454194357E+01 -0.14388106509E+02  0.19394648374E+02  0.51100000000E-03 0.  1.
        -12    1    3    3    0    0 -0.19328912549E+01  0.22642596022E+02 -0.56210972623E+01  0.23409826092E+02  0.00000000000E+00 0.  1.
</event>
<event>
 7    1  0.5155466E-011  0.5052887E+02  0.7816164E-02  0.1300439E+00
        -11   -1    0    0    0    0  0.00000000000E+00  0.00000000000E+00  0.45593999997E+02  0.45594000000E+02  0.51100000000E-03 0. -1.
         11   -1    0    0    0    0 -0.00000000000E+00 -0.00000000000E+00 -0.45593999997E+02  0.45594000000E+02  0.51100000000E-03 0.  1.
    9900012    2    1    2    0    0  0.31416239159E+02  0.11636183177E+02  0.23038747456E+02  0.50528871552E+02  0.30000035570E+02 0.  0.
        -12    1    1    2    0    0 -0.31416239159E+02 -0.11636183177E+02 -0.23038747456E+02  0.40659128448E+02  0.00000000000E+00 0.  1.
         11    1    3    3    0    0  0.10781031539E+02  0.14085985376E+02  0.20624001023E+02  0.27202849915E+02  0.51100000000E-03 0. -1.
        -11    1    3    3    0    0  0.15141128992E+01 -0.21951121584E+01 -0.24205301128E+01  0.36013916126E+01  0.51100000000E-03 0.  1.
         12    1    3    3    0    0  0.19121094720E+02 -0.25469004080E+00  0.48352765463E+01  0.19724630024E+02  0.00000000000E+00 0. -1.
</event>
<event>
 7    1  0.5155466E-011  0.5052886E+02  0.7816164E-02  0.1300439E+00
        -11   -1    0    0    0    0  0.00000000000E+00  0.00000000000E+00  0.45593999997E+02  0.45594000000E+02  0.51100000000E-03 0. -1.
         11   -1    0    0    0    0 -0.00000000000E+00 -0.00000000000E+00 -0.45593999997E+02  0.45594000000E+02  0.51100000000E-03 0.  1.
    9900012    2    1    2    0    0 -0.31801757674E+02 -0.24988617822E+02  0.41692495400E+01  0.50528862607E+02  0.30000008380E+02 0.  0.
        -12    1    1    2    0    0  0.31801757674E+02  0.24988617822E+02 -0.41692495400E+01  0.40659137393E+02  0.00000000000E+00 0.  1.
         11    1    3    3    0    0 -0.23105876707E+02 -0.15101572573E+02 -0.84603645198E+01  0.28870691031E+02  0.51100000000E-03 0.  1.
        -11    1    3    3    0    0 -0.54458403002E+01 -0.80860877576E+01  0.14520045512E+02  0.17489245659E+02  0.51100000000E-03 0. -1.
         12    1    3    3    0    0 -0.32500406670E+01 -0.18009574917E+01 -0.18904314519E+01  0.41689259166E+01  0.00000000000E+00 0. -1.
</event>
<event>
 7    1  0.5155466E-011  0.5052886E+02  0.7816164E-02  0.1300439E+00
        -11   -1    0    0    0    0  0.00000000000E+00  0.00000000000E+00  0.45593999997E+02  0.45594000000E+02  0.51100000000E-03 0.  1.
         11   -1    0    0    0    0 -0.00000000000E+00 -0.00000000000E+00 -0.45593999997E+02  0.45594000000E+02  0.51100000000E-03 0. -1.
    9900012    2    1    2    0    0  0.15234173625E+01  0.35402438000E+02 -0.19937716428E+02  0.50528856463E+02  0.29999989705E+02 0.  0.
        -12    1    1    2    0    0 -0.15234173625E+01 -0.35402438000E+02  0.19937716428E+02  0.40659143537E+02  0.00000000000E+00 0.  1.
         11    1    3    3    0    0 -0.85451702682E+01  0.24040068365E+02 -0.10210322165E+02  0.27480820600E+02  0.51100000000E-03 0. -1.
        -11    1    3    3    0    0  0.12337904843E+02  0.42189705085E+01 -0.40777027854E+01  0.13662037488E+02  0.51100000000E-03 0.  1.
        -12    1    3    3    0    0 -0.22693172121E+01  0.71433991270E+01 -0.56496914778E+01  0.93859983748E+01  0.00000000000E+00 0.  1.
</event>
<event>
 7    1  0.5155466E-011  0.5052885E+02  0.7816164E-02  0.1300439E+00
        -11   -1    0    0    0    0  0.00000000000E+00  0.00000000000E+00  0.45593999997E+02  0.45594000000E+02  0.51100000000E-03 0.  1.
         11   -1    0    0    0    0 -0.00000000000E+00 -0.00000000000E+00 -0.45593999997E+02  0.45594000000E+02  0.51100000000E-03 0. -1.
    9900012    2    1    2    0    0 -0.16587804004E+02  0.95441496102E+01 -0.35873670694E+02  0.50528852412E+02  0.29999977393E+02 0.  0.
        -12    1    1    2    0    0  0.16587804004E+02 -0.95441496102E+01  0.35873670694E+02  0.40659147588E+02  0.00000000000E+00 0.  1.
         11    1    3    3    0    0 -0.21788817313E+01  0.10244173987E+02 -0.12401001237E+01  0.10546491116E+02  0.51100000000E-03 0. -1.
        -11    1    3    3    0    0 -0.10014762455E+01 -0.53892259027E+01 -0.68014177335E+01  0.87353302140E+01  0.51100000000E-03 0.  1.
         12    1    3    3    0    0 -0.13407446028E+02  0.46892015257E+01 -0.27832152837E+02  0.31247031083E+02  0.00000000000E+00 0. -1.
</event>
<event>
 7    1  0.5155466E-011  0.5052885E+02  0.7816164E-02  0.1300439E+00
        -11   -1    0    0    0    0  0.00000000000E+00  0.00000000000E+00  0.45593999997E+02  0.45594000000E+02  0.51100000000E-03 0. -1.
         11   -1    0    0    0    0 -0.00000000000E+00 -0.00000000000E+00 -0.45593999997E+02  0.45594000000E+02  0.51100000000E-03 0.  1.
    9900012    2    1    2    0    0 -0.11024763300E+02 -0.97948550231E+01  0.37890388129E+02  0.50528854616E+02  0.29999984091E+02 0.  0.
        -12    1    1    2    0    0  0.11024763300E+02  0.97948550231E+01 -0.37890388129E+02  0.40659145384E+02  0.00000000000E+00 0.  1.
         11    1    3    3    0    0 -0.16567029396E+02 -0.12726516510E+02  0.32091272905E+02  0.38292042025E+02  0.51100000000E-03 0. -1.
        -11    1    3    3    0    0  0.45722953002E+01  0.72409914228E+00  0.78221175658E+01  0.90893194109E+01  0.51100000000E-03 0.  1.
         12    1    3    3    0    0  0.96997079541E+00  0.22075623445E+01 -0.20230023414E+01  0.31474931806E+01  0.00000000000E+00 0. -1.
</event>
<event>
 7    1  0.5155466E-011  0.5052874E+02  0.7816164E-02  0.1300439E+00
        -11   -1    0    0    0    0  0.00000000000E+00  0.00000000000E+00  0.45593999997E+02  0.45594000000E+02  0.51100000000E-03 0.  1.
         11   -1    0    0    0    0 -0.00000000000E+00 -0.00000000000E+00 -0.45593999997E+02  0.45594000000E+02  0.51100000000E-03 0. -1.
    9900012    2    1    2    0    0  0.23353073449E+02  0.31908667089E+02 -0.94681545041E+01  0.50528744908E+02  0.29999650620E+02 0.  0.
        -12    1    1    2    0    0 -0.23353073449E+02 -0.31908667089E+02  0.94681545041E+01  0.40659255092E+02  0.00000000000E+00 0.  1.
         11    1    3    3    0    0 -0.44647896961E+00  0.69234912333E+01 -0.13996845536E+02  0.15621964011E+02  0.51100000000E-03 0. -1.
        -11    1    3    3    0    0  0.16765609970E+02  0.15824457180E+02  0.33667277519E+01  0.23298797796E+02  0.51100000000E-03 0.  1.
         12    1    3    3    0    0  0.70339424483E+01  0.91607186762E+01  0.11619632800E+01  0.11607983102E+02  0.00000000000E+00 0. -1.
</event>
<event>
 7    1  0.5155466E-011  0.5052885E+02  0.7816164E-02  0.1300439E+00
        -11   -1    0    0    0    0  0.00000000000E+00  0.00000000000E+00  0.45593999997E+02  0.45594000000E+02  0.51100000000E-03 0.  1.
         11   -1    0    0    0    0 -0.00000000000E+00 -0.00000000000E+00 -0.45593999997E+02  0.45594000000E+02  0.51100000000E-03 0. -1.
    9900012    2    1    2    0    0  0.14733719415E+02  0.35322822267E+02 -0.13725253127E+02  0.50528845630E+02  0.29999956778E+02 0.  0.
        -12    1    1    2    0    0 -0.14733719415E+02 -0.35322822267E+02  0.13725253127E+02  0.40659154370E+02  0.00000000000E+00 0.  1.
         11    1    3    3    0    0  0.16931585141E+02  0.49986804680E+01 -0.62977574650E+01  0.18743722447E+02  0.51100000000E-03 0.  1.
        -11    1    3    3    0    0  0.12825903337E+01  0.16333137562E+02 -0.52510528310E+01  0.17204359235E+02  0.51100000000E-03 0. -1.
        -12    1    3    3    0    0 -0.34804560603E+01  0.13991004236E+02 -0.21764428309E+01  0.14580763948E+02  0.00000000000E+00 0.  1.
</event>
<event>
 7    1  0.5155466E-011  0.5052887E+02  0.7816164E-02  0.1300439E+00
        -11   -1    0    0    0    0  0.00000000000E+00  0.00000000000E+00  0.45593999997E+02  0.45594000000E+02  0.51100000000E-03 0.  1.
         11   -1    0    0    0    0 -0.00000000000E+00 -0.00000000000E+00 -0.45593999997E+02  0.45594000000E+02  0.51100000000E-03 0. -1.
    9900012    2    1    2    0    0 -0.90124770098E+01  0.35838178475E+02 -0.16957739315E+02  0.50528871863E+02  0.30000036513E+02 0.  0.
        -12    1    1    2    0    0  0.90124770098E+01 -0.35838178475E+02  0.16957739315E+02  0.40659128137E+02  0.00000000000E+00 0.  1.
         11    1    3    3    0    0 -0.14314429265E+02  0.21931311984E+02 -0.80844028239E+01  0.27408810624E+02  0.51100000000E-03 0. -1.
        -11    1    3    3    0    0  0.30527345282E+01 -0.18759375557E+00  0.31993936430E+01  0.44261156176E+01  0.51100000000E-03 0.  1.
         12    1    3    3    0    0  0.22492177267E+01  0.14094460246E+02 -0.12072730134E+02  0.18693945621E+02  0.00000000000E+00 0. -1.
</event>
<event>
 7    1  0.5155466E-011  0.5052890E+02  0.7816164E-02  0.1300439E+00
        -11   -1    0    0    0    0  0.00000000000E+00  0.00000000000E+00  0.45593999997E+02  0.45594000000E+02  0.51100000000E-03 0. -1.
         11   -1    0    0    0    0 -0.00000000000E+00 -0.00000000000E+00 -0.45593999997E+02  0.45594000000E+02  0.51100000000E-03 0.  1.
    9900012    2    1    2    0    0  0.33857929404E+02  0.11218469348E+02  0.19517916786E+02  0.50528898759E+02  0.30000118269E+02 0.  0.
        -12    1    1    2    0    0 -0.33857929404E+02 -0.11218469348E+02 -0.19517916786E+02  0.40659101241E+02  0.00000000000E+00 0.  1.
         11    1    3    3    0    0  0.20809565047E+02  0.40259998400E+01  0.25080643705E+02  0.32837255688E+02  0.51100000000E-03 0. -1.
        -11    1    3    3    0    0  0.93956355472E+01  0.84814627443E+00 -0.37342870767E+01  0.10146044533E+02  0.51100000000E-03 0.  1.
         12    1    3    3    0    0  0.36527288094E+01  0.63443232332E+01 -0.18284398427E+01  0.75455985383E+01  0.00000000000E+00 0. -1.
</event>
<event>
 7    1  0.5155466E-011  0.5052884E+02  0.7816164E-02  0.1300439E+00
        -11   -1    0    0    0    0  0.00000000000E+00  0.00000000000E+00  0.45593999997E+02  0.45594000000E+02  0.51100000000E-03 0.  1.
         11   -1    0    0    0    0 -0.00000000000E+00 -0.00000000000E+00 -0.45593999997E+02  0.45594000000E+02  0.51100000000E-03 0. -1.
    9900012    2    1    2    0    0  0.28887038975E+01 -0.33906447748E+02 -0.22252537344E+02  0.50528840794E+02  0.29999942077E+02 0.  0.
        -12    1    1    2    0    0 -0.28887038975E+01  0.33906447748E+02  0.22252537344E+02  0.40659159206E+02  0.00000000000E+00 0.  1.
         11    1    3    3    0    0 -0.22466520637E+01 -0.11014113524E+02 -0.22492537938E+02  0.25145027448E+02  0.51100000000E-03 0. -1.
        -11    1    3    3    0    0  0.45469380811E+01 -0.23748804672E+02  0.81945580876E+00  0.24194046320E+02  0.51100000000E-03 0.  1.
         12    1    3    3    0    0  0.58841788007E+00  0.85647044756E+00 -0.57945521418E+00  0.11897670252E+01  0.00000000000E+00 0. -1.
</event>
<event>
 7    1  0.5155466E-011  0.5052885E+02  0.7816164E-02  0.1300439E+00
        -11   -1    0    0    0    0  0.00000000000E+00  0.00000000000E+00  0.45593999997E+02  0.45594000000E+02  0.51100000000E-03 0. -1.
         11   -1    0    0    0    0 -0.00000000000E+00 -0.00000000000E+00 -0.45593999997E+02  0.45594000000E+02  0.51100000000E-03 0.  1.
    9900012    2    1    2    0    0 -0.14077843262E+02 -0.18115703045E+02  0.33567872995E+02  0.50528850167E+02  0.29999970568E+02 0.  0.
        -12    1    1    2    0    0  0.14077843262E+02  0.18115703045E+02 -0.33567872995E+02  0.40659149833E+02  0.00000000000E+00 0.  1.
         11    1    3    3    0    0  0.13247629951E+01  0.28654410887E+01  0.20926640604E+02  0.21163412694E+02  0.51100000000E-03 0. -1.
        -11    1    3    3    0    0 -0.11958660480E+02 -0.13396674330E+02  0.10347585349E+02  0.20725659613E+02  0.51100000000E-03 0.  1.
         12    1    3    3    0    0 -0.34439457779E+01 -0.75844698035E+01  0.22936470415E+01  0.86397778601E+01  0.00000000000E+00 0. -1.
</event>
<event>
 7    1  0.5155466E-011  0.5052885E+02  0.7816164E-02  0.1300439E+00
        -11   -1    0    0    0    0  0.00000000000E+00  0.00000000000E+00  0.45593999997E+02  0.45594000000E+02  0.51100000000E-03 0.  1.
         11   -1    0    0    0    0 -0.00000000000E+00 -0.00000000000E+00 -0.45593999997E+02  0.45594000000E+02  0.51100000000E-03 0. -1.
    9900012    2    1    2    0    0 -0.37818708418E+01 -0.13037469076E+02 -0.38326079649E+02  0.50528849391E+02  0.29999968210E+02 0.  0.
        -12    1    1    2    0    0  0.37818708418E+01  0.13037469076E+02  0.38326079649E+02  0.40659150609E+02  0.00000000000E+00 0.  1.
         11    1    3    3    0    0  0.53582942188E+01 -0.65834482448E+00 -0.27876108187E+02  0.28394051186E+02  0.51100000000E-03 0. -1.
        -11    1    3    3    0    0  0.62140362315E-01 -0.99610223636E+01 -0.60237821396E+01  0.11640952688E+02  0.51100000000E-03 0.  1.
         12    1    3    3    0    0 -0.92023054229E+01 -0.24181018880E+01 -0.44261893224E+01  0.10493845518E+02  0.00000000000E+00 0. -1.
</event>
<event>
 7    1  0.5155466E-011  0.5052886E+02  0.7816164E-02  0.1300439E+00
        -11   -1    0    0    0    0  0.00000000000E+00  0.00000000000E+00  0.45593999997E+02  0.45594000000E+02  0.51100000000E-03 0.  1.
         11   -1    0    0    0    0 -0.00000000000E+00 -0.00000000000E+00 -0.45593999997E+02  0.45594000000E+02  0.51100000000E-03 0. -1.
    9900012    2    1    2    0    0 -0.10173402075E+02 -0.70894207134E+01 -0.38722186725E+02  0.50528859077E+02  0.29999997649E+02 0.  0.
        -12    1    1    2    0    0  0.10173402075E+02  0.70894207134E+01  0.38722186725E+02  0.40659140923E+02  0.00000000000E+00 0.  1.
         11    1    3    3    0    0 -0.14003805557E+02  0.53678175631E+01 -0.28309874781E+02  0.32036994957E+02  0.51100000000E-03 0. -1.
        -11    1    3    3    0    0  0.15751432128E+01 -0.77065280454E+01 -0.13022878305E+01  0.79729294811E+01  0.51100000000E-03 0.  1.
        -12    1    3    3    0    0  0.22552602689E+01 -0.47507102312E+01 -0.91100241137E+01  0.10518934639E+02  0.00000000000E+00 0.  1.
</event>
<event>
 7    1  0.5155466E-011  0.5052886E+02  0.7816164E-02  0.1300439E+00
        -11   -1    0    0    0    0  0.00000000000E+00  0.00000000000E+00  0.45593999997E+02  0.45594000000E+02  0.51100000000E-03 0. -1.
         11   -1    0    0    0    0 -0.00000000000E+00 -0.00000000000E+00 -0.45593999997E+02  0.45594000000E+02  0.51100000000E-03 0.  1.
    9900012    2    1    2    0    0  0.17145646462E+02  0.10711347808E+02  0.35276900140E+02  0.50528857757E+02  0.29999993638E+02 0.  0.
        -12    1    1    2    0    0 -0.17145646462E+02 -0.10711347808E+02 -0.35276900140E+02  0.40659142243E+02  0.00000000000E+00 0.  1.
         11    1    3    3    0    0  0.14241160756E+02 -0.42083349104E+01  0.17362732353E+02  0.22846995807E+02  0.51100000000E-03 0. -1.
        -11    1    3    3    0    0 -0.44858970424E+01  0.59000458386E+01  0.13130833037E+02  0.15078215733E+02  0.51100000000E-03 0.  1.
         12    1    3    3    0    0  0.73903827488E+01  0.90196368803E+01  0.47833347491E+01  0.12603646216E+02  0.00000000000E+00 0. -1.
</event>
<event>
 7    1  0.5155466E-011  0.5052886E+02  0.7816164E-02  0.1300439E+00
        -11   -1    0    0    0    0  0.00000000000E+00  0.00000000000E+00  0.45593999997E+02  0.45594000000E+02  0.51100000000E-03 0. -1.
         11   -1    0    0    0    0 -0.00000000000E+00 -0.00000000000E+00 -0.45593999997E+02  0.45594000000E+02  0.51100000000E-03 0.  1.
    9900012    2    1    2    0    0 -0.34589980771E+02  0.16047214845E+02  0.14113329582E+02  0.50528856552E+02  0.29999989976E+02 0.  0.
        -12    1    1    2    0    0  0.34589980771E+02 -0.16047214845E+02 -0.14113329582E+02  0.40659143448E+02  0.00000000000E+00 0.  1.
         11    1    3    3    0    0 -0.19539606639E+02  0.17862940457E+02  0.11140475708E+02  0.28722657757E+02  0.51100000000E-03 0. -1.
        -11    1    3    3    0    0  0.20747459285E+01  0.18593685194E+01 -0.21926488432E+01  0.35453534618E+01  0.51100000000E-03 0.  1.
         12    1    3    3    0    0 -0.17125120061E+02 -0.36750941313E+01  0.51655027167E+01  0.18260845333E+02  0.00000000000E+00 0. -1.
</event>
<event>
 7    1  0.5155466E-011  0.5052886E+02  0.7816164E-02  0.1300439E+00
        -11   -1    0    0    0    0  0.00000000000E+00  0.00000000000E+00  0.45593999997E+02  0.45594000000E+02  0.51100000000E-03 0.  1.
         11   -1    0    0    0    0 -0.00000000000E+00 -0.00000000000E+00 -0.45593999997E+02  0.45594000000E+02  0.51100000000E-03 0. -1.
    9900012    2    1    2    0    0 -0.11657325871E+01  0.28189468708E+02 -0.29277304849E+02  0.50528860096E+02  0.30000000748E+02 0.  0.
        -12    1    1    2    0    0  0.11657325871E+01 -0.28189468708E+02  0.29277304849E+02  0.40659139904E+02  0.00000000000E+00 0.  1.
         11    1    3    3    0    0 -0.35304374210E+00  0.87319890392E+01 -0.24914323896E+02  0.26402571995E+02  0.51100000000E-03 0. -1.
        -11    1    3    3    0    0  0.26281819404E+01  0.11705393824E+02  0.35662310547E+01  0.12515653762E+02  0.51100000000E-03 0.  1.
        -12    1    3    3    0    0 -0.34408707854E+01  0.77520858451E+01 -0.79292120073E+01  0.11610634340E+02  0.00000000000E+00 0.  1.
</event>
<event>
 7    1  0.5155466E-011  0.5052883E+02  0.7816164E-02  0.1300439E+00
        -11   -1    0    0    0    0  0.00000000000E+00  0.00000000000E+00  0.45593999997E+02  0.45594000000E+02  0.51100000000E-03 0. -1.
         11   -1    0    0    0    0 -0.00000000000E+00 -0.00000000000E+00 -0.45593999997E+02  0.45594000000E+02  0.51100000000E-03 0.  1.
    9900012    2    1    2    0    0  0.30447817562E+02 -0.22592460016E+02  0.14686012386E+02  0.50528833707E+02  0.29999920534E+02 0.  0.
        -12    1    1    2    0    0 -0.30447817562E+02  0.22592460016E+02 -0.14686012386E+02  0.40659166293E+02  0.00000000000E+00 0.  1.
         11    1    3    3    0    0  0.12981647298E+02 -0.12701588090E+02  0.18553570745E+02  0.25963214251E+02  0.51100000000E-03 0. -1.
        -11    1    3    3    0    0  0.14856690760E+02 -0.13196551216E+01 -0.28964385233E+00  0.14917997312E+02  0.51100000000E-03 0.  1.
         12    1    3    3    0    0  0.26094795042E+01 -0.85712168049E+01 -0.35779145075E+01  0.96476221434E+01  0.00000000000E+00 0. -1.
</event>
<event>
 7    1  0.5155466E-011  0.5052886E+02  0.7816164E-02  0.1300439E+00
        -11   -1    0    0    0    0  0.00000000000E+00  0.00000000000E+00  0.45593999997E+02  0.45594000000E+02  0.51100000000E-03 0.  1.
         11   -1    0    0    0    0 -0.00000000000E+00 -0.00000000000E+00 -0.45593999997E+02  0.45594000000E+02  0.51100000000E-03 0. -1.
    9900012    2    1    2    0    0 -0.23717744161E+01  0.19169893866E+02 -0.35777866329E+02  0.50528857563E+02  0.29999993047E+02 0.  0.
        -12    1    1    2    0    0  0.23717744161E+01 -0.19169893866E+02  0.35777866329E+02  0.40659142437E+02  0.00000000000E+00 0.  1.
         11    1    3    3    0    0  0.64228193521E+01  0.18020819502E+02 -0.15230480108E+02  0.24453426520E+02  0.51100000000E-03 0. -1.
        -11    1    3    3    0    0 -0.10234117226E+02 -0.13034888373E+01 -0.75856728980E+01  0.12805415734E+02  0.51100000000E-03 0.  1.
         12    1    3    3    0    0  0.14395234581E+01  0.24525632013E+01 -0.12961713322E+02  0.13270015309E+02  0.00000000000E+00 0. -1.
</event>
<event>
 7    1  0.5155466E-011  0.5052886E+02  0.7816164E-02  0.1300439E+00
        -11   -1    0    0    0    0  0.00000000000E+00  0.00000000000E+00  0.45593999997E+02  0.45594000000E+02  0.51100000000E-03 0. -1.
         11   -1    0    0    0    0 -0.00000000000E+00 -0.00000000000E+00 -0.45593999997E+02  0.45594000000E+02  0.51100000000E-03 0.  1.
    9900012    2    1    2    0    0  0.32402061048E+02  0.10359889770E+02  0.22269821251E+02  0.50528858166E+02  0.29999994880E+02 0.  0.
        -12    1    1    2    0    0 -0.32402061048E+02 -0.10359889770E+02 -0.22269821251E+02  0.40659141834E+02  0.00000000000E+00 0.  1.
         11    1    3    3    0    0  0.21337701260E+02  0.54661214585E+01  0.19202115133E+02  0.29221519548E+02  0.51100000000E-03 0. -1.
        -11    1    3    3    0    0 -0.12343394754E+01 -0.39304291763E+01  0.45022780092E+01  0.61026531102E+01  0.51100000000E-03 0.  1.
        -12    1    3    3    0    0  0.12298699263E+02  0.88241974881E+01 -0.14345718913E+01  0.15204685508E+02  0.00000000000E+00 0.  1.
</event>
<event>
 7    1  0.5155466E-011  0.5052886E+02  0.7816164E-02  0.1300439E+00
        -11   -1    0    0    0    0  0.00000000000E+00  0.00000000000E+00  0.45593999997E+02  0.45594000000E+02  0.51100000000E-03 0.  1.
         11   -1    0    0    0    0 -0.00000000000E+00 -0.00000000000E+00 -0.45593999997E+02  0.45594000000E+02  0.51100000000E-03 0. -1.
    9900012    2    1    2    0    0 -0.26997272327E+02  0.73687033724E+01 -0.29496022997E+02  0.50528857422E+02  0.29999992621E+02 0.  0.
        -12    1    1    2    0    0  0.26997272327E+02 -0.73687033724E+01  0.29496022997E+02  0.40659142578E+02  0.00000000000E+00 0.  1.
         11    1    3    3    0    0 -0.89250764949E+01 -0.66898707174E+01 -0.16732873003E+02  0.20109709094E+02  0.51100000000E-03 0. -1.
        -11    1    3    3    0    0 -0.79691267887E+01  0.66068447224E+01  0.25071124482E+01  0.10650962025E+02  0.51100000000E-03 0.  1.
        -12    1    3    3    0    0 -0.10103069044E+02  0.74517293674E+01 -0.15270262442E+02  0.19768186303E+02  0.00000000000E+00 0.  1.
</event>
<event>
 7    1  0.6558954E-011  0.5052885E+02  0.7816164E-02  0.1300439E+00
        -11   -1    0    0    0    0  0.00000000000E+00  0.00000000000E+00  0.45593999997E+02  0.45594000000E+02  0.51100000000E-03 0. -1.
         11   -1    0    0    0    0 -0.00000000000E+00 -0.00000000000E+00 -0.45593999997E+02  0.45594000000E+02  0.51100000000E-03 0.  1.
    9900012    2    1    2    0    0 -0.11109196562E+01  0.37092008008E+02  0.16616705108E+02  0.50528854790E+02  0.29999984620E+02 0.  0.
        -12    1    1    2    0    0  0.11109196562E+01 -0.37092008008E+02 -0.16616705108E+02  0.40659145210E+02  0.00000000000E+00 0.  1.
         11    1    3    3    0    0 -0.63432206091E+01  0.20714812948E+02  0.16893935826E+02  0.27472622574E+02  0.51100000000E-03 0. -1.
        -11    1    3    3    0    0  0.22991286383E+00  0.98045465409E+01 -0.72908698021E+01  0.12220424523E+02  0.51100000000E-03 0.  1.
        -12    1    3    3    0    0  0.50023880891E+01  0.65726485191E+01  0.70136390842E+01  0.10835807693E+02  0.00000000000E+00 0.  1.
</event>
<event>
 7    1  0.5155466E-011  0.5052887E+02  0.7816164E-02  0.1300439E+00
        -11   -1    0    0    0    0  0.00000000000E+00  0.00000000000E+00  0.45593999997E+02  0.45594000000E+02  0.51100000000E-03 0.  1.
         11   -1    0    0    0    0 -0.00000000000E+00 -0.00000000000E+00 -0.45593999997E+02  0.45594000000E+02  0.51100000000E-03 0. -1.
    9900012    2    1    2    0    0 -0.76350856765E+01  0.38703371181E+02 -0.98447702788E+01  0.50528868481E+02  0.30000026235E+02 0.  0.
        -12    1    1    2    0    0  0.76350856765E+01 -0.38703371181E+02  0.98447702788E+01  0.40659131519E+02  0.00000000000E+00 0.  1.
         11    1    3    3    0    0 -0.68620410954E+01  0.12755765863E+02 -0.17114237957E+01  0.14585134296E+02  0.51100000000E-03 0. -1.
        -11    1    3    3    0    0  0.93126202605E+01  0.17864948092E+02 -0.10631716524E+02  0.22779698483E+02  0.51100000000E-03 0.  1.
        -12    1    3    3    0    0 -0.10085664842E+02  0.80826572249E+01  0.24983700409E+01  0.13164035702E+02  0.00000000000E+00 0.  1.
</event>
<event>
 7    1  0.5155466E-011  0.5052885E+02  0.7816164E-02  0.1300439E+00
        -11   -1    0    0    0    0  0.00000000000E+00  0.00000000000E+00  0.45593999997E+02  0.45594000000E+02  0.51100000000E-03 0. -1.
         11   -1    0    0    0    0 -0.00000000000E+00 -0.00000000000E+00 -0.45593999997E+02  0.45594000000E+02  0.51100000000E-03 0.  1.
    9900012    2    1    2    0    0  0.32376967348E+02 -0.18801097427E+02  0.15856148974E+02  0.50528846794E+02  0.29999960315E+02 0.  0.
        -12    1    1    2    0    0 -0.32376967348E+02  0.18801097427E+02 -0.15856148974E+02  0.40659153206E+02  0.00000000000E+00 0.  1.
         11    1    3    3    0    0  0.15344560201E+02 -0.11866962748E+02  0.11509476850E+02  0.22555451453E+02  0.51100000000E-03 0. -1.
        -11    1    3    3    0    0  0.94926860720E+01  0.15325684118E+01 -0.70306594386E+01  0.11911760038E+02  0.51100000000E-03 0.  1.
        -12    1    3    3    0    0  0.75397210755E+01 -0.84667030905E+01  0.11377331563E+02  0.16061635303E+02  0.00000000000E+00 0.  1.
</event>
<event>
 7    1  0.5155466E-011  0.5052886E+02  0.7816164E-02  0.1300439E+00
        -11   -1    0    0    0    0  0.00000000000E+00  0.00000000000E+00  0.45593999997E+02  0.45594000000E+02  0.51100000000E-03 0.  1.
         11   -1    0    0    0    0 -0.00000000000E+00 -0.00000000000E+00 -0.45593999997E+02  0.45594000000E+02  0.51100000000E-03 0. -1.
    9900012    2    1    2    0    0 -0.45042168321E+01 -0.27154456611E+02 -0.29925127950E+02  0.50528858766E+02  0.29999996704E+02 0.  0.
        -12    1    1    2    0    0  0.45042168321E+01  0.27154456611E+02  0.29925127950E+02  0.40659141234E+02  0.00000000000E+00 0.  1.
         11    1    3    3    0    0 -0.69528058205E+00 -0.15395853568E+02 -0.82573730214E+01  0.17484276698E+02  0.51100000000E-03 0. -1.
        -11    1    3    3    0    0  0.22567310495E+01  0.36045832177E+01 -0.14371610184E+02  0.14987629390E+02  0.51100000000E-03 0.  1.
        -12    1    3    3    0    0 -0.60656672996E+01 -0.15363186261E+02 -0.72961447449E+01  0.18056952678E+02  0.00000000000E+00 0.  1.
</event>
<event>
 7    1  0.5155466E-011  0.5052889E+02  0.7816164E-02  0.1300439E+00
        -11   -1    0    0    0    0  0.00000000000E+00  0.00000000000E+00  0.45593999997E+02  0.45594000000E+02  0.51100000000E-03 0.  1.
         11   -1    0    0    0    0 -0.00000000000E+00 -0.00000000000E+00 -0.45593999997E+02  0.45594000000E+02  0.51100000000E-03 0. -1.
    9900012    2    1    2    0    0 -0.13094676228E+02  0.29127362908E+02 -0.25165246552E+02  0.50528887252E+02  0.30000083290E+02 0.  0.
        -12    1    1    2    0    0  0.13094676228E+02 -0.29127362908E+02  0.25165246552E+02  0.40659112748E+02  0.00000000000E+00 0.  1.
         11    1    3    3    0    0 -0.71891305033E+01  0.21385946133E+02 -0.91866583369E+01  0.24360562002E+02  0.51100000000E-03 0. -1.
        -11    1    3    3    0    0  0.44224867197E+00 -0.45643134945E+01 -0.10163856523E+02  0.11150449374E+02  0.51100000000E-03 0.  1.
        -12    1    3    3    0    0 -0.63477943964E+01  0.12305730269E+02 -0.58147316918E+01  0.15017875875E+02  0.00000000000E+00 0.  1.
</event>
<event>
 7    1  0.5155466E-011  0.5052886E+02  0.7816164E-02  0.1300439E+00
        -11   -1    0    0    0    0  0.00000000000E+00  0.00000000000E+00  0.45593999997E+02  0.45594000000E+02  0.51100000000E-03 0.  1.
         11   -1    0    0    0    0 -0.00000000000E+00 -0.00000000000E+00 -0.45593999997E+02  0.45594000000E+02  0.51100000000E-03 0. -1.
    9900012    2    1    2    0    0 -0.19655938044E+02  0.12255853139E+02 -0.33415624723E+02  0.50528858196E+02  0.29999994973E+02 0.  0.
        -12    1    1    2    0    0  0.19655938044E+02 -0.12255853139E+02  0.33415624723E+02  0.40659141804E+02  0.00000000000E+00 0.  1.
         11    1    3    3    0    0 -0.48843587234E+01 -0.36457425139E+01 -0.32086511173E+01  0.68879489596E+01  0.51100000000E-03 0. -1.
        -11    1    3    3    0    0 -0.19904582039E+02  0.16972608744E+02 -0.23834980520E+02  0.35388813633E+02  0.51100000000E-03 0.  1.
        -12    1    3    3    0    0  0.51330027183E+01 -0.10710130917E+01 -0.63719930865E+01  0.82520956031E+01  0.00000000000E+00 0.  1.
</event>
<event>
 7    1  0.5155466E-011  0.5052887E+02  0.7816164E-02  0.1300439E+00
        -11   -1    0    0    0    0  0.00000000000E+00  0.00000000000E+00  0.45593999997E+02  0.45594000000E+02  0.51100000000E-03 0.  1.
         11   -1    0    0    0    0 -0.00000000000E+00 -0.00000000000E+00 -0.45593999997E+02  0.45594000000E+02  0.51100000000E-03 0. -1.
    9900012    2    1    2    0    0  0.14300260887E+02  0.13992790146E+02 -0.35395887246E+02  0.50528874684E+02  0.30000045089E+02 0.  0.
        -12    1    1    2    0    0 -0.14300260887E+02 -0.13992790146E+02  0.35395887246E+02  0.40659125316E+02  0.00000000000E+00 0.  1.
         11    1    3    3    0    0  0.19314492290E+02  0.16032673599E+02 -0.18383692749E+02  0.31113604653E+02  0.51100000000E-03 0. -1.
        -11    1    3    3    0    0 -0.15722845687E+01 -0.14216685520E+01 -0.15433546592E+02  0.15578433198E+02  0.51100000000E-03 0.  1.
         12    1    3    3    0    0 -0.34419468343E+01 -0.61821490095E+00 -0.15786479055E+01  0.38368368330E+01  0.00000000000E+00 0. -1.
</event>
<event>
 7    1  0.5155466E-011  0.5052885E+02  0.7816164E-02  0.1300439E+00
        -11   -1    0    0    0    0  0.00000000000E+00  0.00000000000E+00  0.45593999997E+02  0.45594000000E+02  0.51100000000E-03 0.  1.
         11   -1    0    0    0    0 -0.00000000000E+00 -0.00000000000E+00 -0.45593999997E+02  0.45594000000E+02  0.51100000000E-03 0. -1.
    9900012    2    1    2    0    0 -0.62015402670E+00  0.80975419381E+01 -0.39839822965E+02  0.50528852563E+02  0.29999977851E+02 0.  0.
        -12    1    1    2    0    0  0.62015402670E+00 -0.80975419381E+01  0.39839822965E+02  0.40659147437E+02  0.00000000000E+00 0.  1.
         11    1    3    3    0    0  0.13512829511E+02  0.76958225423E+01 -0.20771302848E+02  0.25947432788E+02  0.51100000000E-03 0. -1.
        -11    1    3    3    0    0 -0.43628554098E+01  0.48051728711E+00 -0.18071781875E+01  0.47467143850E+01  0.51100000000E-03 0.  1.
         12    1    3    3    0    0 -0.97701281278E+01 -0.78797891384E-01 -0.17261341929E+02  0.19834705390E+02  0.00000000000E+00 0. -1.
</event>
<event>
 7    1  0.5155466E-011  0.5052886E+02  0.7816164E-02  0.1300439E+00
        -11   -1    0    0    0    0  0.00000000000E+00  0.00000000000E+00  0.45593999997E+02  0.45594000000E+02  0.51100000000E-03 0. -1.
         11   -1    0    0    0    0 -0.00000000000E+00 -0.00000000000E+00 -0.45593999997E+02  0.45594000000E+02  0.51100000000E-03 0.  1.
    9900012    2    1    2    0    0  0.99349187325E+01  0.38085855320E+02  0.10194624813E+02  0.50528863748E+02  0.30000011850E+02 0.  0.
        -12    1    1    2    0    0 -0.99349187325E+01 -0.38085855320E+02 -0.10194624813E+02  0.40659136252E+02  0.00000000000E+00 0.  1.
         11    1    3    3    0    0  0.17608235864E+02  0.19365337938E+02  0.74032384882E+01  0.27200629111E+02  0.51100000000E-03 0. -1.
        -11    1    3    3    0    0 -0.60540367456E+01  0.11619913682E+02 -0.36544460005E+01  0.13602526630E+02  0.51100000000E-03 0.  1.
         12    1    3    3    0    0 -0.16192803855E+01  0.71006036998E+01  0.64458323255E+01  0.97257080069E+01  0.00000000000E+00 0. -1.
</event>
<event>
 7    1  0.8419149E-011  0.5052886E+02  0.7816164E-02  0.1300439E+00
        -11   -1    0    0    0    0  0.00000000000E+00  0.00000000000E+00  0.45593999997E+02  0.45594000000E+02  0.51100000000E-03 0.  1.
         11   -1    0    0    0    0 -0.00000000000E+00 -0.00000000000E+00 -0.45593999997E+02  0.45594000000E+02  0.51100000000E-03 0. -1.
    9900012    2    1    2    0    0  0.92561516795E+01 -0.38666077589E+02 -0.85101932445E+01  0.50528864629E+02  0.30000014526E+02 0.  0.
        -12    1    1    2    0    0 -0.92561516795E+01  0.38666077589E+02  0.85101932445E+01  0.40659135371E+02  0.00000000000E+00 0.  1.
         11    1    3    3    0    0  0.35303100290E+01 -0.13104935142E+02 -0.94895991749E+01  0.16560643307E+02  0.51100000000E-03 0. -1.
        -11    1    3    3    0    0 -0.61103546971E+01 -0.12748961823E+01  0.29006957314E+01  0.68830102998E+01  0.51100000000E-03 0.  1.
        -12    1    3    3    0    0  0.11836196347E+02 -0.24286246265E+02 -0.19212898010E+01  0.27085211022E+02  0.00000000000E+00 0.  1.
</event>
<event>
 7    1  0.5155466E-011  0.5052886E+02  0.7816164E-02  0.1300439E+00
        -11   -1    0    0    0    0  0.00000000000E+00  0.00000000000E+00  0.45593999997E+02  0.45594000000E+02  0.51100000000E-03 0.  1.
         11   -1    0    0    0    0 -0.00000000000E+00 -0.00000000000E+00 -0.45593999997E+02  0.45594000000E+02  0.51100000000E-03 0. -1.
    9900012    2    1    2    0    0 -0.25021675881E+01 -0.77015359480E+01 -0.39844584944E+02  0.50528862675E+02  0.30000008588E+02 0.  0.
        -12    1    1    2    0    0  0.25021675881E+01  0.77015359480E+01  0.39844584944E+02  0.40659137325E+02  0.00000000000E+00 0.  1.
         11    1    3    3    0    0 -0.53744177896E+01  0.30969925085E+01 -0.33005005779E+02  0.33582825014E+02  0.51100000000E-03 0. -1.
        -11    1    3    3    0    0 -0.68517984713E+00 -0.10878138235E+02 -0.22344994654E+01  0.11126380858E+02  0.51100000000E-03 0.  1.
        -12    1    3    3    0    0  0.35574300487E+01  0.79609778113E-01 -0.46050796994E+01  0.58196568031E+01  0.00000000000E+00 0.  1.
</event>
<event>
 7    1  0.5155466E-011  0.5052884E+02  0.7816164E-02  0.1300439E+00
        -11   -1    0    0    0    0  0.00000000000E+00  0.00000000000E+00  0.45593999997E+02  0.45594000000E+02  0.51100000000E-03 0.  1.
         11   -1    0    0    0    0 -0.00000000000E+00 -0.00000000000E+00 -0.45593999997E+02  0.45594000000E+02  0.51100000000E-03 0. -1.
    9900012    2    1    2    0    0 -0.38600416673E+02  0.86937789479E+01 -0.93591201297E+01  0.50528842491E+02  0.29999947236E+02 0.  0.
        -12    1    1    2    0    0  0.38600416673E+02 -0.86937789479E+01  0.93591201297E+01  0.40659157509E+02  0.00000000000E+00 0.  1.
         11    1    3    3    0    0 -0.91202911353E+01  0.72662086800E+01  0.44403838539E+01  0.12477760536E+02  0.51100000000E-03 0. -1.
        -11    1    3    3    0    0 -0.42684539787E+01  0.15799338702E+01 -0.11931150097E+02  0.12769817277E+02  0.51100000000E-03 0.  1.
        -12    1    3    3    0    0 -0.25211671559E+02 -0.15236360223E+00 -0.18683538871E+01  0.25281264678E+02  0.00000000000E+00 0.  1.
</event>
<event>
 7    1  0.5155466E-011  0.5052887E+02  0.7816164E-02  0.1300439E+00
        -11   -1    0    0    0    0  0.00000000000E+00  0.00000000000E+00  0.45593999997E+02  0.45594000000E+02  0.51100000000E-03 0. -1.
         11   -1    0    0    0    0 -0.00000000000E+00 -0.00000000000E+00 -0.45593999997E+02  0.45594000000E+02  0.51100000000E-03 0.  1.
    9900012    2    1    2    0    0 -0.23472236308E+02 -0.93557851551E+01  0.31854171562E+02  0.50528870163E+02  0.30000031347E+02 0.  0.
        -12    1    1    2    0    0  0.23472236308E+02  0.93557851551E+01 -0.31854171562E+02  0.40659129837E+02  0.00000000000E+00 0.  1.
         11    1    3    3    0    0 -0.11559035319E+02  0.81634995668E+01  0.10436739803E+02  0.17583502514E+02  0.51100000000E-03 0. -1.
        -11    1    3    3    0    0 -0.10732821991E+02 -0.19760043740E+02  0.19577184390E+02  0.29814743759E+02  0.51100000000E-03 0.  1.
        -12    1    3    3    0    0 -0.11803789976E+01  0.22407590185E+01  0.18402473691E+01  0.31306238893E+01  0.00000000000E+00 0.  1.
</event>
<event>
 7    1  0.5155466E-011  0.5052887E+02  0.7816164E-02  0.1300439E+00
        -11   -1    0    0    0    0  0.00000000000E+00  0.00000000000E+00  0.45593999997E+02  0.45594000000E+02  0.51100000000E-03 0.  1.
         11   -1    0    0    0    0 -0.00000000000E+00 -0.00000000000E+00 -0.45593999997E+02  0.45594000000E+02  0.51100000000E-03 0. -1.
    9900012    2    1    2    0    0 -0.20643023645E+02 -0.12024074854E+02 -0.32900643647E+02  0.50528866294E+02  0.30000019588E+02 0.  0.
        -12    1    1    2    0    0  0.20643023645E+02  0.12024074854E+02  0.32900643647E+02  0.40659133706E+02  0.00000000000E+00 0.  1.
         11    1    3    3    0    0 -0.15510486137E+02 -0.11289574020E+02 -0.51228601110E+01  0.19856317829E+02  0.51100000000E-03 0. -1.
        -11    1    3    3    0    0 -0.50379061372E+01  0.50322568929E+01 -0.13257872582E+02  0.15049096097E+02  0.51100000000E-03 0.  1.
         12    1    3    3    0    0 -0.94631370865E-01 -0.57667577270E+01 -0.14519910954E+02  0.15623452368E+02  0.00000000000E+00 0. -1.
</event>
<event>
 7    1  0.5155466E-011  0.5052887E+02  0.7816164E-02  0.1300439E+00
        -11   -1    0    0    0    0  0.00000000000E+00  0.00000000000E+00  0.45593999997E+02  0.45594000000E+02  0.51100000000E-03 0.  1.
         11   -1    0    0    0    0 -0.00000000000E+00 -0.00000000000E+00 -0.45593999997E+02  0.45594000000E+02  0.51100000000E-03 0. -1.
    9900012    2    1    2    0    0  0.24524952039E+02 -0.17364822845E+02 -0.27388948704E+02  0.50528869954E+02  0.30000030713E+02 0.  0.
        -12    1    1    2    0    0 -0.24524952039E+02  0.17364822845E+02  0.27388948704E+02  0.40659130046E+02  0.00000000000E+00 0.  1.
         11    1    3    3    0    0  0.11853076472E+02 -0.68866896161E+01  0.20792038420E+01  0.13865244484E+02  0.51100000000E-03 0. -1.
        -11    1    3    3    0    0 -0.20197471273E+01 -0.10562524975E+01 -0.11077277250E+02  0.11309337705E+02  0.51100000000E-03 0.  1.
         12    1    3    3    0    0  0.14691622694E+02 -0.94218807315E+01 -0.18390875297E+02  0.25354287765E+02  0.00000000000E+00 0. -1.
</event>
<event>
 7    1  0.5155466E-011  0.5052886E+02  0.7816164E-02  0.1300439E+00
        -11   -1    0    0    0    0  0.00000000000E+00  0.00000000000E+00  0.45593999997E+02  0.45594000000E+02  0.51100000000E-03 0. -1.
         11   -1    0    0    0    0 -0.00000000000E+00 -0.00000000000E+00 -0.45593999997E+02  0.45594000000E+02  0.51100000000E-03 0.  1.
    9900012    2    1    2    0    0 -0.37723391226E+02 -0.78377786633E+01  0.12987710725E+02  0.50528860193E+02  0.30000001042E+02 0.  0.
        -12    1    1    2    0    0  0.37723391226E+02  0.78377786633E+01 -0.12987710725E+02  0.40659139807E+02  0.00000000000E+00 0.  1.
         11    1    3    3    0    0 -0.17257213629E+02 -0.10895887759E+02  0.15077901609E+02  0.25374690332E+02  0.51100000000E-03 0. -1.
        -11    1    3    3    0    0 -0.21897690546E+02  0.40746269495E+01  0.19248071321E+00  0.22274390791E+02  0.51100000000E-03 0.  1.
        -12    1    3    3    0    0  0.14315129482E+01 -0.10165178541E+01 -0.22826715972E+01  0.28797790695E+01  0.00000000000E+00 0.  1.
</event>
<event>
 7    1  0.5155466E-011  0.5052886E+02  0.7816164E-02  0.1300439E+00
        -11   -1    0    0    0    0  0.00000000000E+00  0.00000000000E+00  0.45593999997E+02  0.45594000000E+02  0.51100000000E-03 0. -1.
         11   -1    0    0    0    0 -0.00000000000E+00 -0.00000000000E+00 -0.45593999997E+02  0.45594000000E+02  0.51100000000E-03 0.  1.
    9900012    2    1    2    0    0  0.38940857278E+02  0.11066297717E+02 -0.37831702526E+01  0.50528859726E+02  0.29999999622E+02 0.  0.
        -12    1    1    2    0    0 -0.38940857278E+02 -0.11066297717E+02  0.37831702526E+01  0.40659140274E+02  0.00000000000E+00 0.  1.
         11    1    3    3    0    0  0.25987998575E+01 -0.14031017544E+01  0.36192527527E+01  0.46713430597E+01  0.51100000000E-03 0.  1.
        -11    1    3    3    0    0  0.35229213683E+02  0.17335939883E+02 -0.33110517919E+01  0.39402986848E+02  0.51100000000E-03 0. -1.
        -12    1    3    3    0    0  0.11128437378E+01 -0.48665404118E+01 -0.40913712134E+01  0.64545298179E+01  0.00000000000E+00 0.  1.
</event>
<event>
 7    1  0.5155466E-011  0.5052886E+02  0.7816164E-02  0.1300439E+00
        -11   -1    0    0    0    0  0.00000000000E+00  0.00000000000E+00  0.45593999997E+02  0.45594000000E+02  0.51100000000E-03 0.  1.
         11   -1    0    0    0    0 -0.00000000000E+00 -0.00000000000E+00 -0.45593999997E+02  0.45594000000E+02  0.51100000000E-03 0. -1.
    9900012    2    1    2    0    0  0.33857228488E+02  0.45635502880E+01 -0.22046045929E+02  0.50528855233E+02  0.29999985965E+02 0.  0.
        -12    1    1    2    0    0 -0.33857228488E+02 -0.45635502880E+01  0.22046045929E+02  0.40659144767E+02  0.00000000000E+00 0.  1.
         11    1    3    3    0    0  0.20576914463E+00  0.83162096069E+01 -0.10567585229E+01  0.83856080282E+01  0.51100000000E-03 0. -1.
        -11    1    3    3    0    0  0.31723767826E+02  0.43282289180E+00 -0.19748888202E+02  0.37371156875E+02  0.51100000000E-03 0.  1.
        -12    1    3    3    0    0  0.19276915171E+01 -0.41854822107E+01 -0.12403992044E+01  0.47720903289E+01  0.00000000000E+00 0.  1.
</event>
<event>
 7    1  0.5155466E-011  0.5052887E+02  0.7816164E-02  0.1300439E+00
        -11   -1    0    0    0    0  0.00000000000E+00  0.00000000000E+00  0.45593999997E+02  0.45594000000E+02  0.51100000000E-03 0.  1.
         11   -1    0    0    0    0 -0.00000000000E+00 -0.00000000000E+00 -0.45593999997E+02  0.45594000000E+02  0.51100000000E-03 0. -1.
    9900012    2    1    2    0    0 -0.25642264660E+02 -0.26506010557E+02 -0.17119308271E+02  0.50528867591E+02  0.30000023530E+02 0.  0.
        -12    1    1    2    0    0  0.25642264660E+02  0.26506010557E+02  0.17119308271E+02  0.40659132409E+02  0.00000000000E+00 0.  1.
         11    1    3    3    0    0  0.96389606794E+00 -0.17075140605E+02 -0.15577127150E+01  0.17173118281E+02  0.51100000000E-03 0. -1.
        -11    1    3    3    0    0 -0.21816995406E+02 -0.11039496740E+02 -0.12856412596E+02  0.27624972795E+02  0.51100000000E-03 0.  1.
        -12    1    3    3    0    0 -0.47891653222E+01  0.16086267876E+01 -0.27051829604E+01  0.57307765159E+01  0.00000000000E+00 0.  1.
</event>
<event>
 7    1  0.5155466E-011  0.5052886E+02  0.7816164E-02  0.1300439E+00
        -11   -1    0    0    0    0  0.00000000000E+00  0.00000000000E+00  0.45593999997E+02  0.45594000000E+02  0.51100000000E-03 0.  1.
         11   -1    0    0    0    0 -0.00000000000E+00 -0.00000000000E+00 -0.45593999997E+02  0.45594000000E+02  0.51100000000E-03 0. -1.
    9900012    2    1    2    0    0 -0.19096011994E+02 -0.33187964502E+02 -0.13677241977E+02  0.50528860684E+02  0.30000002534E+02 0.  0.
        -12    1    1    2    0    0  0.19096011994E+02  0.33187964502E+02  0.13677241977E+02  0.40659139316E+02  0.00000000000E+00 0.  1.
         11    1    3    3    0    0 -0.12443299211E+01 -0.99406014085E+01  0.90348328804E+00  0.10058836694E+02  0.51100000000E-03 0. -1.
        -11    1    3    3    0    0 -0.15556134552E+02 -0.29779079531E+01 -0.81261500850E+00  0.15859432568E+02  0.51100000000E-03 0.  1.
        -12    1    3    3    0    0 -0.22955475207E+01 -0.20269455140E+02 -0.13768110256E+02  0.24610591422E+02  0.00000000000E+00 0.  1.
</event>
<event>
 7    1  0.5155466E-011  0.5052886E+02  0.7816164E-02  0.1300439E+00
        -11   -1    0    0    0    0  0.00000000000E+00  0.00000000000E+00  0.45593999997E+02  0.45594000000E+02  0.51100000000E-03 0. -1.
         11   -1    0    0    0    0 -0.00000000000E+00 -0.00000000000E+00 -0.45593999997E+02  0.45594000000E+02  0.51100000000E-03 0.  1.
    9900012    2    1    2    0    0 -0.24052529339E+02 -0.19000168834E+02  0.26713951277E+02  0.50528858640E+02  0.29999996323E+02 0.  0.
        -12    1    1    2    0    0  0.24052529339E+02  0.19000168834E+02 -0.26713951277E+02  0.40659141360E+02  0.00000000000E+00 0.  1.
         11    1    3    3    0    0 -0.55571443817E+01 -0.13763319773E+02  0.21435958431E+02  0.26073188125E+02  0.51100000000E-03 0. -1.
        -11    1    3    3    0    0 -0.40942249527E+01  0.48031429672E+01  0.17463894223E+01  0.65484911699E+01  0.51100000000E-03 0.  1.
         12    1    3    3    0    0 -0.14401160004E+02 -0.10039992027E+02  0.35316034234E+01  0.17907179346E+02  0.00000000000E+00 0. -1.
</event>
<event>
 7    1  0.5155466E-011  0.5052886E+02  0.7816164E-02  0.1300439E+00
        -11   -1    0    0    0    0  0.00000000000E+00  0.00000000000E+00  0.45593999997E+02  0.45594000000E+02  0.51100000000E-03 0.  1.
         11   -1    0    0    0    0 -0.00000000000E+00 -0.00000000000E+00 -0.45593999997E+02  0.45594000000E+02  0.51100000000E-03 0. -1.
    9900012    2    1    2    0    0 -0.18785317742E+01  0.10660525052E+02 -0.39191706177E+02  0.50528861924E+02  0.30000006303E+02 0.  0.
        -12    1    1    2    0    0  0.18785317742E+01 -0.10660525052E+02  0.39191706177E+02  0.40659138076E+02  0.00000000000E+00 0.  1.
         11    1    3    3    0    0 -0.97797550442E+01 -0.31738363974E+01 -0.26815304677E+02  0.28718938201E+02  0.51100000000E-03 0. -1.
        -11    1    3    3    0    0  0.57294810624E+01  0.87778971929E+01 -0.29411528410E+01  0.10887093858E+02  0.51100000000E-03 0.  1.
         12    1    3    3    0    0  0.21717422076E+01  0.50564642566E+01 -0.94352486592E+01  0.10922829865E+02  0.00000000000E+00 0. -1.
</event>
<event>
 7    1  0.5155466E-011  0.5052872E+02  0.7816164E-02  0.1300439E+00
        -11   -1    0    0    0    0  0.00000000000E+00  0.00000000000E+00  0.45593999997E+02  0.45594000000E+02  0.51100000000E-03 0. -1.
         11   -1    0    0    0    0 -0.00000000000E+00 -0.00000000000E+00 -0.45593999997E+02  0.45594000000E+02  0.51100000000E-03 0.  1.
    9900012    2    1    2    0    0 -0.14450574430E+02 -0.13355104879E+02  0.35580876319E+02  0.50528724462E+02  0.29999588471E+02 0.  0.
        -12    1    1    2    0    0  0.14450574430E+02  0.13355104879E+02 -0.35580876319E+02  0.40659275538E+02  0.00000000000E+00 0.  1.
         11    1    3    3    0    0 -0.10637725439E+02  0.26966576199E+00  0.30841615475E+02  0.32625743938E+02  0.51100000000E-03 0. -1.
        -11    1    3    3    0    0 -0.53570909708E+01 -0.11979960576E+02  0.53793131744E+00  0.13134201515E+02  0.51100000000E-03 0.  1.
         12    1    3    3    0    0  0.15442419801E+01 -0.16448100651E+01  0.42013295265E+01  0.47687790087E+01  0.00000000000E+00 0. -1.
</event>
<event>
 7    1  0.5155466E-011  0.5052886E+02  0.7816164E-02  0.1300439E+00
        -11   -1    0    0    0    0  0.00000000000E+00  0.00000000000E+00  0.45593999997E+02  0.45594000000E+02  0.51100000000E-03 0.  1.
         11   -1    0    0    0    0 -0.00000000000E+00 -0.00000000000E+00 -0.45593999997E+02  0.45594000000E+02  0.51100000000E-03 0. -1.
    9900012    2    1    2    0    0 -0.30840171252E+02  0.92046559173E-01 -0.26496051833E+02  0.50528863288E+02  0.30000010451E+02 0.  0.
        -12    1    1    2    0    0  0.30840171252E+02 -0.92046559173E-01  0.26496051833E+02  0.40659136712E+02  0.00000000000E+00 0.  1.
         11    1    3    3    0    0 -0.26272360061E+02  0.78214871618E+01 -0.96107967305E+01  0.29047891122E+02  0.51100000000E-03 0. -1.
        -11    1    3    3    0    0 -0.75589980184E+01 -0.65058307137E+01 -0.13678056415E+02  0.16927891536E+02  0.51100000000E-03 0.  1.
        -12    1    3    3    0    0  0.29911868276E+01 -0.12236098889E+01 -0.32071986877E+01  0.45530806297E+01  0.00000000000E+00 0.  1.
</event>
<event>
 7    1  0.5155466E-011  0.5052886E+02  0.7816164E-02  0.1300439E+00
        -11   -1    0    0    0    0  0.00000000000E+00  0.00000000000E+00  0.45593999997E+02  0.45594000000E+02  0.51100000000E-03 0.  1.
         11   -1    0    0    0    0 -0.00000000000E+00 -0.00000000000E+00 -0.45593999997E+02  0.45594000000E+02  0.51100000000E-03 0. -1.
    9900012    2    1    2    0    0 -0.38824627734E+02 -0.56916734264E+00 -0.12061918906E+02  0.50528861324E+02  0.30000004482E+02 0.  0.
        -12    1    1    2    0    0  0.38824627734E+02  0.56916734264E+00  0.12061918906E+02  0.40659138676E+02  0.00000000000E+00 0.  1.
         11    1    3    3    0    0 -0.84597614605E+01 -0.67900710687E+00 -0.12102581395E+02  0.14781782413E+02  0.51100000000E-03 0. -1.
        -11    1    3    3    0    0 -0.23600893328E+02 -0.10337713460E+01  0.82738441769E+01  0.25030528296E+02  0.51100000000E-03 0.  1.
        -12    1    3    3    0    0 -0.67639729458E+01  0.11436111103E+01 -0.82331816885E+01  0.10716550616E+02  0.00000000000E+00 0.  1.
</event>
<event>
 7    1  0.5155466E-011  0.5052886E+02  0.7816164E-02  0.1300439E+00
        -11   -1    0    0    0    0  0.00000000000E+00  0.00000000000E+00  0.45593999997E+02  0.45594000000E+02  0.51100000000E-03 0.  1.
         11   -1    0    0    0    0 -0.00000000000E+00 -0.00000000000E+00 -0.45593999997E+02  0.45594000000E+02  0.51100000000E-03 0. -1.
    9900012    2    1    2    0    0  0.24895290813E+01 -0.83028535413E+01 -0.39724431378E+02  0.50528861048E+02  0.30000003642E+02 0.  0.
        -12    1    1    2    0    0 -0.24895290813E+01  0.83028535413E+01  0.39724431378E+02  0.40659138952E+02  0.00000000000E+00 0.  1.
         11    1    3    3    0    0  0.10156552455E+02 -0.99472084644E+01 -0.28600143095E+02  0.31938545667E+02  0.51100000000E-03 0.  1.
        -11    1    3    3    0    0 -0.51177858682E+00 -0.19307663577E+01  0.22487238238E+01  0.30077458580E+01  0.51100000000E-03 0. -1.
         12    1    3    3    0    0 -0.71552447867E+01  0.35751212807E+01 -0.13373012107E+02  0.15582569523E+02  0.00000000000E+00 0. -1.
</event>
<event>
 7    1  0.5155466E-011  0.5052885E+02  0.7816164E-02  0.1300439E+00
        -11   -1    0    0    0    0  0.00000000000E+00  0.00000000000E+00  0.45593999997E+02  0.45594000000E+02  0.51100000000E-03 0.  1.
         11   -1    0    0    0    0 -0.00000000000E+00 -0.00000000000E+00 -0.45593999997E+02  0.45594000000E+02  0.51100000000E-03 0. -1.
    9900012    2    1    2    0    0 -0.19917882804E+02 -0.12136287635E+02 -0.33303974182E+02  0.50528853068E+02  0.29999979385E+02 0.  0.
        -12    1    1    2    0    0  0.19917882804E+02  0.12136287635E+02  0.33303974182E+02  0.40659146932E+02  0.00000000000E+00 0.  1.
         11    1    3    3    0    0 -0.23080435122E+01 -0.10656810731E+02 -0.12958304715E+01  0.10980612764E+02  0.51100000000E-03 0. -1.
        -11    1    3    3    0    0 -0.18166168154E+02  0.47114907193E-01 -0.18447416693E+02  0.25890520816E+02  0.51100000000E-03 0.  1.
        -12    1    3    3    0    0  0.55632886212E+00 -0.15265918114E+01 -0.13560727018E+02  0.13657719488E+02  0.00000000000E+00 0.  1.
</event>
<event>
 7    1  0.5155466E-011  0.5052885E+02  0.7816164E-02  0.1300439E+00
        -11   -1    0    0    0    0  0.00000000000E+00  0.00000000000E+00  0.45593999997E+02  0.45594000000E+02  0.51100000000E-03 0. -1.
         11   -1    0    0    0    0 -0.00000000000E+00 -0.00000000000E+00 -0.45593999997E+02  0.45594000000E+02  0.51100000000E-03 0.  1.
    9900012    2    1    2    0    0  0.17617074278E+02  0.16215053159E+02 -0.32861485713E+02  0.50528849759E+02  0.29999969327E+02 0.  0.
        -12    1    1    2    0    0 -0.17617074278E+02 -0.16215053159E+02  0.32861485713E+02  0.40659150241E+02  0.00000000000E+00 0.  1.
         11    1    3    3    0    0  0.86079569455E+01  0.12088508560E+02 -0.16654689674E+02  0.22307121069E+02  0.51100000000E-03 0. -1.
        -11    1    3    3    0    0  0.18689603013E+01 -0.82913324305E+01 -0.82068134739E+01  0.11814863255E+02  0.51100000000E-03 0.  1.
        -12    1    3    3    0    0  0.71401570310E+01  0.12417877030E+02 -0.79999825650E+01  0.16406865435E+02  0.00000000000E+00 0.  1.
</event>
<event>
 7    1  0.5155466E-011  0.5052887E+02  0.7816164E-02  0.1300439E+00
        -11   -1    0    0    0    0  0.00000000000E+00  0.00000000000E+00  0.45593999997E+02  0.45594000000E+02  0.51100000000E-03 0.  1.
         11   -1    0    0    0    0 -0.00000000000E+00 -0.00000000000E+00 -0.45593999997E+02  0.45594000000E+02  0.51100000000E-03 0. -1.
    9900012    2    1    2    0    0 -0.27869214149E+02  0.18341045771E+02 -0.23239581190E+02  0.50528865834E+02  0.30000018190E+02 0.  0.
        -12    1    1    2    0    0  0.27869214149E+02 -0.18341045771E+02  0.23239581190E+02  0.40659134166E+02  0.00000000000E+00 0.  1.
         11    1    3    3    0    0 -0.16233841934E+02 -0.15114816313E+01 -0.13124198795E+01  0.16356792072E+02  0.51100000000E-03 0. -1.
        -11    1    3    3    0    0 -0.96212555554E+01  0.16169894777E+02 -0.95461252374E+01  0.21098875868E+02  0.51100000000E-03 0.  1.
        -12    1    3    3    0    0 -0.20141166588E+01  0.36826326250E+01 -0.12381036073E+02  0.13073197895E+02  0.00000000000E+00 0.  1.
</event>
<event>
 7    1  0.5155466E-011  0.5052887E+02  0.7816164E-02  0.1300439E+00
        -11   -1    0    0    0    0  0.00000000000E+00  0.00000000000E+00  0.45593999997E+02  0.45594000000E+02  0.51100000000E-03 0. -1.
         11   -1    0    0    0    0 -0.00000000000E+00 -0.00000000000E+00 -0.45593999997E+02  0.45594000000E+02  0.51100000000E-03 0.  1.
    9900012    2    1    2    0    0  0.73678593626E+01 -0.39504848685E+02  0.61843993216E+01  0.50528865526E+02  0.30000017252E+02 0.  0.
        -12    1    1    2    0    0 -0.73678593626E+01  0.39504848685E+02 -0.61843993216E+01  0.40659134474E+02  0.00000000000E+00 0.  1.
         11    1    3    3    0    0  0.10666511587E+02 -0.94029310281E+01 -0.26542438276E+01  0.14464943550E+02  0.51100000000E-03 0.  1.
        -11    1    3    3    0    0 -0.32638774653E+01 -0.23067777320E+02  0.14142594168E+02  0.27254141276E+02  0.51100000000E-03 0. -1.
        -12    1    3    3    0    0 -0.34774759312E-01 -0.70341403368E+01 -0.53039510189E+01  0.88097806995E+01  0.00000000000E+00 0.  1.
</event>
<event>
 7    1  0.5155466E-011  0.5052886E+02  0.7816164E-02  0.1300439E+00
        -11   -1    0    0    0    0  0.00000000000E+00  0.00000000000E+00  0.45593999997E+02  0.45594000000E+02  0.51100000000E-03 0.  1.
         11   -1    0    0    0    0 -0.00000000000E+00 -0.00000000000E+00 -0.45593999997E+02  0.45594000000E+02  0.51100000000E-03 0. -1.
    9900012    2    1    2    0    0 -0.34361632973E+02 -0.98718562101E+01 -0.19364660339E+02  0.50528862827E+02  0.30000009050E+02 0.  0.
        -12    1    1    2    0    0  0.34361632973E+02  0.98718562101E+01  0.19364660339E+02  0.40659137173E+02  0.00000000000E+00 0.  1.
         11    1    3    3    0    0 -0.26186196724E+02  0.50941167351E+01 -0.60081385783E+01  0.27345285766E+02  0.51100000000E-03 0. -1.
        -11    1    3    3    0    0 -0.16486092292E+00 -0.63129816685E+01 -0.81064125723E+01  0.10275935078E+02  0.51100000000E-03 0.  1.
        -12    1    3    3    0    0 -0.80105753257E+01 -0.86529912767E+01 -0.52501091885E+01  0.12907641984E+02  0.00000000000E+00 0.  1.
</event>
<event>
 7    1  0.5155466E-011  0.5052886E+02  0.7816164E-02  0.1300439E+00
        -11   -1    0    0    0    0  0.00000000000E+00  0.00000000000E+00  0.45593999997E+02  0.45594000000E+02  0.51100000000E-03 0.  1.
         11   -1    0    0    0    0 -0.00000000000E+00 -0.00000000000E+00 -0.45593999997E+02  0.45594000000E+02  0.51100000000E-03 0. -1.
    9900012    2    1    2    0    0  0.28638170597E+01 -0.40553245979E+02  0.63126957146E+00  0.50528859467E+02  0.29999998837E+02 0.  0.
        -12    1    1    2    0    0 -0.28638170597E+01  0.40553245979E+02 -0.63126957146E+00  0.40659140533E+02  0.00000000000E+00 0.  1.
         11    1    3    3    0    0  0.27874478206E+01 -0.11498565477E+02 -0.91727860747E+01  0.14970867644E+02  0.51100000000E-03 0. -1.
        -11    1    3    3    0    0 -0.40539297651E+01 -0.29238942480E+02  0.64045736910E+01  0.30205441038E+02  0.51100000000E-03 0.  1.
        -12    1    3    3    0    0  0.41302990041E+01  0.18426197822E+00  0.33994819552E+01  0.53525507848E+01  0.00000000000E+00 0.  1.
</event>
<event>
 7    1  0.5155466E-011  0.5052886E+02  0.7816164E-02  0.1300439E+00
        -11   -1    0    0    0    0  0.00000000000E+00  0.00000000000E+00  0.45593999997E+02  0.45594000000E+02  0.51100000000E-03 0.  1.
         11   -1    0    0    0    0 -0.00000000000E+00 -0.00000000000E+00 -0.45593999997E+02  0.45594000000E+02  0.51100000000E-03 0. -1.
    9900012    2    1    2    0    0  0.31162681539E+02 -0.94352758656E+01 -0.24352173839E+02  0.50528861765E+02  0.30000005819E+02 0.  0.
        -12    1    1    2    0    0 -0.31162681539E+02  0.94352758656E+01  0.24352173839E+02  0.40659138235E+02  0.00000000000E+00 0.  1.
         11    1    3    3    0    0  0.28772772710E+02  0.28565190811E+01 -0.24499753801E+02  0.37898154141E+02  0.51100000000E-03 0. -1.
        -11    1    3    3    0    0 -0.13481695578E+00 -0.23624217664E+01 -0.23745292960E+00  0.23781497785E+01  0.51100000000E-03 0.  1.
         12    1    3    3    0    0  0.25247257853E+01 -0.99293731804E+01  0.38503289238E+00  0.10252557845E+02  0.00000000000E+00 0. -1.
</event>
<event>
 7    1  0.5155466E-011  0.5052887E+02  0.7816164E-02  0.1300439E+00
        -11   -1    0    0    0    0  0.00000000000E+00  0.00000000000E+00  0.45593999997E+02  0.45594000000E+02  0.51100000000E-03 0.  1.
         11   -1    0    0    0    0 -0.00000000000E+00 -0.00000000000E+00 -0.45593999997E+02  0.45594000000E+02  0.51100000000E-03 0. -1.
    9900012    2    1    2    0    0 -0.25107520901E+02 -0.14597100084E+02 -0.28455268126E+02  0.50528865469E+02  0.30000017081E+02 0.  0.
        -12    1    1    2    0    0  0.25107520901E+02  0.14597100084E+02  0.28455268126E+02  0.40659134531E+02  0.00000000000E+00 0.  1.
         11    1    3    3    0    0 -0.16424517019E+02 -0.75285025007E+01 -0.30803433106E+02  0.35711267138E+02  0.51100000000E-03 0. -1.
        -11    1    3    3    0    0 -0.80525407383E+01 -0.21932073058E+01  0.44650414640E+01  0.94652081944E+01  0.51100000000E-03 0.  1.
         12    1    3    3    0    0 -0.63046314410E+00 -0.48753902774E+01 -0.21168764839E+01  0.53523901372E+01  0.00000000000E+00 0. -1.
</event>
<event>
 7    1  0.5155466E-011  0.5052885E+02  0.7816164E-02  0.1300439E+00
        -11   -1    0    0    0    0  0.00000000000E+00  0.00000000000E+00  0.45593999997E+02  0.45594000000E+02  0.51100000000E-03 0. -1.
         11   -1    0    0    0    0 -0.00000000000E+00 -0.00000000000E+00 -0.45593999997E+02  0.45594000000E+02  0.51100000000E-03 0.  1.
    9900012    2    1    2    0    0 -0.88057963990E+01 -0.25502113677E+02  0.30418198797E+02  0.50528847645E+02  0.29999962901E+02 0.  0.
        -12    1    1    2    0    0  0.88057963990E+01  0.25502113677E+02 -0.30418198797E+02  0.40659152355E+02  0.00000000000E+00 0.  1.
         11    1    3    3    0    0 -0.11095312735E+02 -0.13266359253E+01  0.55967485962E+01  0.12497580673E+02  0.51100000000E-03 0. -1.
        -11    1    3    3    0    0 -0.29572269865E+01 -0.22231060900E+02  0.15866885352E+02  0.27472227999E+02  0.51100000000E-03 0.  1.
        -12    1    3    3    0    0  0.52467433229E+01 -0.19444168513E+01  0.89545648485E+01  0.10559038972E+02  0.00000000000E+00 0.  1.
</event>
<event>
 7    1  0.5155466E-011  0.5052886E+02  0.7816164E-02  0.1300439E+00
        -11   -1    0    0    0    0  0.00000000000E+00  0.00000000000E+00  0.45593999997E+02  0.45594000000E+02  0.51100000000E-03 0. -1.
         11   -1    0    0    0    0 -0.00000000000E+00 -0.00000000000E+00 -0.45593999997E+02  0.45594000000E+02  0.51100000000E-03 0.  1.
    9900012    2    1    2    0    0  0.24704515459E+02 -0.40856181138E+01  0.32033732348E+02  0.50528863664E+02  0.30000011593E+02 0.  0.
        -12    1    1    2    0    0 -0.24704515459E+02  0.40856181138E+01 -0.32033732348E+02  0.40659136336E+02  0.00000000000E+00 0.  1.
         11    1    3    3    0    0  0.24589907158E+02  0.20086965169E+01  0.22746487024E+02  0.33557429400E+02  0.51100000000E-03 0. -1.
        -11    1    3    3    0    0  0.47798144600E+00 -0.77213776066E+01  0.20649255614E+00  0.77389132211E+01  0.51100000000E-03 0.  1.
         12    1    3    3    0    0 -0.36337314494E+00  0.16270629758E+01  0.90807527685E+01  0.92325210431E+01  0.00000000000E+00 0. -1.
</event>
<event>
 7    1  0.5155466E-011  0.5052885E+02  0.7816164E-02  0.1300439E+00
        -11   -1    0    0    0    0  0.00000000000E+00  0.00000000000E+00  0.45593999997E+02  0.45594000000E+02  0.51100000000E-03 0.  1.
         11   -1    0    0    0    0 -0.00000000000E+00 -0.00000000000E+00 -0.45593999997E+02  0.45594000000E+02  0.51100000000E-03 0. -1.
    9900012    2    1    2    0    0  0.18127572743E+02  0.26362764376E+02  0.25091076557E+02  0.50528851437E+02  0.29999974428E+02 0.  0.
        -12    1    1    2    0    0 -0.18127572743E+02 -0.26362764376E+02 -0.25091076557E+02  0.40659148563E+02  0.00000000000E+00 0.  1.
         11    1    3    3    0    0  0.69002076497E+01  0.20259089637E+02  0.83491893549E+01  0.22972865335E+02  0.51100000000E-03 0. -1.
        -11    1    3    3    0    0  0.18858008540E+01 -0.59113807904E+01  0.24278334282E+01  0.66629605376E+01  0.51100000000E-03 0.  1.
        -12    1    3    3    0    0  0.93415642392E+01  0.12015055529E+02  0.14314053773E+02  0.20893025564E+02  0.00000000000E+00 0.  1.
</event>
<event>
 7    1  0.5155466E-011  0.5052886E+02  0.7816164E-02  0.1300439E+00
        -11   -1    0    0    0    0  0.00000000000E+00  0.00000000000E+00  0.45593999997E+02  0.45594000000E+02  0.51100000000E-03 0.  1.
         11   -1    0    0    0    0 -0.00000000000E+00 -0.00000000000E+00 -0.45593999997E+02  0.45594000000E+02  0.51100000000E-03 0. -1.
    9900012    2    1    2    0    0  0.17262237583E+02 -0.23283629889E+02 -0.28514091618E+02  0.50528859724E+02  0.29999999616E+02 0.  0.
        -12    1    1    2    0    0 -0.17262237583E+02  0.23283629889E+02  0.28514091618E+02  0.40659140276E+02  0.00000000000E+00 0.  1.
         11    1    3    3    0    0  0.20897914530E+02 -0.63811827726E+01 -0.20598674307E+02  0.30029114351E+02  0.51100000000E-03 0. -1.
        -11    1    3    3    0    0 -0.53189050821E+01 -0.11383098658E+02 -0.76776557022E+01  0.14724540185E+02  0.51100000000E-03 0.  1.
        -12    1    3    3    0    0  0.16832281355E+01 -0.55193484590E+01 -0.23776160908E+00  0.57752051869E+01  0.00000000000E+00 0.  1.
</event>
<event>
 7    1  0.5155466E-011  0.5052891E+02  0.7816164E-02  0.1300439E+00
        -11   -1    0    0    0    0  0.00000000000E+00  0.00000000000E+00  0.45593999997E+02  0.45594000000E+02  0.51100000000E-03 0.  1.
         11   -1    0    0    0    0 -0.00000000000E+00 -0.00000000000E+00 -0.45593999997E+02  0.45594000000E+02  0.51100000000E-03 0. -1.
    9900012    2    1    2    0    0  0.20912768940E+02  0.34302721090E+02 -0.62562690280E+01  0.50528911458E+02  0.30000156868E+02 0.  0.
        -12    1    1    2    0    0 -0.20912768940E+02 -0.34302721090E+02  0.62562690280E+01  0.40659088542E+02  0.00000000000E+00 0.  1.
         11    1    3    3    0    0  0.30832901716E+01  0.18684976546E+02 -0.23274305652E+01  0.19080145704E+02  0.51100000000E-03 0. -1.
        -11    1    3    3    0    0 -0.47891389507E+00 -0.53683686790E+00  0.52982802357E+01  0.53468987328E+01  0.51100000000E-03 0.  1.
        -12    1    3    3    0    0  0.18308392663E+02  0.16154581412E+02 -0.92271186985E+01  0.26101867021E+02  0.00000000000E+00 0.  1.
</event>
<event>
 7    1  0.5155466E-011  0.5052886E+02  0.7816164E-02  0.1300439E+00
        -11   -1    0    0    0    0  0.00000000000E+00  0.00000000000E+00  0.45593999997E+02  0.45594000000E+02  0.51100000000E-03 0.  1.
         11   -1    0    0    0    0 -0.00000000000E+00 -0.00000000000E+00 -0.45593999997E+02  0.45594000000E+02  0.51100000000E-03 0. -1.
    9900012    2    1    2    0    0  0.28181233823E+02  0.41010530077E+01 -0.29020086664E+02  0.50528855819E+02  0.29999987748E+02 0.  0.
        -12    1    1    2    0    0 -0.28181233823E+02 -0.41010530077E+01  0.29020086664E+02  0.40659144181E+02  0.00000000000E+00 0.  1.
         11    1    3    3    0    0  0.78538951608E+01  0.61237301858E+01 -0.72404298920E+01  0.12312902414E+02  0.51100000000E-03 0. -1.
        -11    1    3    3    0    0  0.94305371552E+01 -0.12910141983E+02 -0.11593435041E+02  0.19748785617E+02  0.51100000000E-03 0.  1.
        -12    1    3    3    0    0  0.10896801507E+02  0.10887464804E+02 -0.10186221731E+02  0.18467167787E+02  0.00000000000E+00 0.  1.
</event>
<event>
 7    1  0.7683696E-011  0.5052886E+02  0.7816164E-02  0.1300439E+00
        -11   -1    0    0    0    0  0.00000000000E+00  0.00000000000E+00  0.45593999997E+02  0.45594000000E+02  0.51100000000E-03 0.  1.
         11   -1    0    0    0    0 -0.00000000000E+00 -0.00000000000E+00 -0.45593999997E+02  0.45594000000E+02  0.51100000000E-03 0. -1.
    9900012    2    1    2    0    0  0.22459650533E+02 -0.21129518324E+02 -0.26500442541E+02  0.50528857098E+02  0.29999991634E+02 0.  0.
        -12    1    1    2    0    0 -0.22459650533E+02  0.21129518324E+02  0.26500442541E+02  0.40659142902E+02  0.00000000000E+00 0.  1.
         11    1    3    3    0    0  0.17254683482E+02 -0.12442075751E+02 -0.18765019698E+02  0.28366447003E+02  0.51100000000E-03 0. -1.
        -11    1    3    3    0    0 -0.39739816000E+00 -0.64616838801E+00  0.55787808236E+01  0.56301203027E+01  0.51100000000E-03 0.  1.
        -12    1    3    3    0    0  0.56023652114E+01 -0.80412741853E+01 -0.13314203666E+02  0.16532289792E+02  0.00000000000E+00 0.  1.
</event>
<event>
 7    1  0.5155466E-011  0.5052888E+02  0.7816164E-02  0.1300439E+00
        -11   -1    0    0    0    0  0.00000000000E+00  0.00000000000E+00  0.45593999997E+02  0.45594000000E+02  0.51100000000E-03 0. -1.
         11   -1    0    0    0    0 -0.00000000000E+00 -0.00000000000E+00 -0.45593999997E+02  0.45594000000E+02  0.51100000000E-03 0.  1.
    9900012    2    1    2    0    0  0.19856549185E+02 -0.16889683468E+02  0.31202892088E+02  0.50528875220E+02  0.30000046720E+02 0.  0.
        -12    1    1    2    0    0 -0.19856549185E+02  0.16889683468E+02 -0.31202892088E+02  0.40659124780E+02  0.00000000000E+00 0.  1.
         11    1    3    3    0    0  0.22511242700E+02 -0.13730842555E+02  0.12686063008E+02  0.29261378643E+02  0.51100000000E-03 0. -1.
        -11    1    3    3    0    0 -0.46487850276E+01 -0.45080438045E+01  0.17489502822E+02  0.18649835667E+02  0.51100000000E-03 0.  1.
        -12    1    3    3    0    0  0.19940915124E+01  0.13492028916E+01  0.10273262579E+01  0.26176609106E+01  0.00000000000E+00 0.  1.
</event>
<event>
 7    1  0.5155466E-011  0.5052886E+02  0.7816164E-02  0.1300439E+00
        -11   -1    0    0    0    0  0.00000000000E+00  0.00000000000E+00  0.45593999997E+02  0.45594000000E+02  0.51100000000E-03 0. -1.
         11   -1    0    0    0    0 -0.00000000000E+00 -0.00000000000E+00 -0.45593999997E+02  0.45594000000E+02  0.51100000000E-03 0.  1.
    9900012    2    1    2    0    0 -0.30035481777E+02  0.21115783117E+02  0.17468815958E+02  0.50528855971E+02  0.29999988209E+02 0.  0.
        -12    1    1    2    0    0  0.30035481777E+02 -0.21115783117E+02 -0.17468815958E+02  0.40659144029E+02  0.00000000000E+00 0.  1.
         11    1    3    3    0    0 -0.27785219086E+02  0.12265441359E+02  0.19317361158E+01  0.30433387193E+02  0.51100000000E-03 0. -1.
        -11    1    3    3    0    0  0.21105310482E+01  0.17613818890E+01  0.34176676386E+00  0.27701285613E+01  0.51100000000E-03 0.  1.
         12    1    3    3    0    0 -0.43607937395E+01  0.70889598687E+01  0.15195313078E+02  0.17325340216E+02  0.00000000000E+00 0. -1.
</event>
<event>
 7    1  0.5155466E-011  0.5052886E+02  0.7816164E-02  0.1300439E+00
        -11   -1    0    0    0    0  0.00000000000E+00  0.00000000000E+00  0.45593999997E+02  0.45594000000E+02  0.51100000000E-03 0.  1.
         11   -1    0    0    0    0 -0.00000000000E+00 -0.00000000000E+00 -0.45593999997E+02  0.45594000000E+02  0.51100000000E-03 0. -1.
    9900012    2    1    2    0    0  0.39428746973E+01 -0.33606729967E+02 -0.22543449119E+02  0.50528860091E+02  0.30000000732E+02 0.  0.
        -12    1    1    2    0    0 -0.39428746973E+01  0.33606729967E+02  0.22543449119E+02  0.40659139909E+02  0.00000000000E+00 0.  1.
         11    1    3    3    0    0 -0.75322067502E+00 -0.85003907205E+01 -0.10613444722E+02  0.13618707461E+02  0.51100000000E-03 0. -1.
        -11    1    3    3    0    0  0.10898810154E+02 -0.10570916518E+02  0.26448667701E+01  0.15411802598E+02  0.51100000000E-03 0.  1.
        -12    1    3    3    0    0 -0.62027147820E+01 -0.14535422728E+02 -0.14574871168E+02  0.21498350032E+02  0.00000000000E+00 0.  1.
</event>
<event>
 7    1  0.5155466E-011  0.5052887E+02  0.7816164E-02  0.1300439E+00
        -11   -1    0    0    0    0  0.00000000000E+00  0.00000000000E+00  0.45593999997E+02  0.45594000000E+02  0.51100000000E-03 0.  1.
         11   -1    0    0    0    0 -0.00000000000E+00 -0.00000000000E+00 -0.45593999997E+02  0.45594000000E+02  0.51100000000E-03 0. -1.
    9900012    2    1    2    0    0 -0.11657189117E+02 -0.37394617321E+02  0.10904931445E+02  0.50528868277E+02  0.30000025614E+02 0.  0.
        -12    1    1    2    0    0  0.11657189117E+02  0.37394617321E+02 -0.10904931445E+02  0.40659131723E+02  0.00000000000E+00 0.  1.
         11    1    3    3    0    0 -0.10574120459E+02 -0.22180621695E+02  0.13896016406E+02  0.28229262734E+02  0.51100000000E-03 0. -1.
        -11    1    3    3    0    0 -0.13023551305E+00 -0.16857602989E+02 -0.66934119145E+01  0.18138288319E+02  0.51100000000E-03 0.  1.
         12    1    3    3    0    0 -0.95283314426E+00  0.16436073633E+01  0.37023269539E+01  0.41613172241E+01  0.00000000000E+00 0. -1.
</event>
<event>
 7    1  0.5155466E-011  0.5052886E+02  0.7816164E-02  0.1300439E+00
        -11   -1    0    0    0    0  0.00000000000E+00  0.00000000000E+00  0.45593999997E+02  0.45594000000E+02  0.51100000000E-03 0.  1.
         11   -1    0    0    0    0 -0.00000000000E+00 -0.00000000000E+00 -0.45593999997E+02  0.45594000000E+02  0.51100000000E-03 0. -1.
    9900012    2    1    2    0    0 -0.12610470899E+02 -0.29197376993E+02 -0.25330907365E+02  0.50528859976E+02  0.30000000382E+02 0.  0.
        -12    1    1    2    0    0  0.12610470899E+02  0.29197376993E+02  0.25330907365E+02  0.40659140024E+02  0.00000000000E+00 0.  1.
         11    1    3    3    0    0 -0.16490543927E+00  0.13369650618E+00 -0.10635879159E+02  0.10637997664E+02  0.51100000000E-03 0. -1.
        -11    1    3    3    0    0 -0.14080160167E+02 -0.30897911418E+02 -0.11253203919E+02  0.35771027928E+02  0.51100000000E-03 0.  1.
        -12    1    3    3    0    0  0.16345947067E+01  0.15668379190E+01 -0.34418242877E+01  0.41198343835E+01  0.00000000000E+00 0.  1.
</event>
<event>
 7    1  0.5155466E-011  0.5052885E+02  0.7816164E-02  0.1300439E+00
        -11   -1    0    0    0    0  0.00000000000E+00  0.00000000000E+00  0.45593999997E+02  0.45594000000E+02  0.51100000000E-03 0. -1.
         11   -1    0    0    0    0 -0.00000000000E+00 -0.00000000000E+00 -0.45593999997E+02  0.45594000000E+02  0.51100000000E-03 0.  1.
    9900012    2    1    2    0    0 -0.13805466527E+02  0.37962478949E+02 -0.46288405906E+01  0.50528845075E+02  0.29999955091E+02 0.  0.
        -12    1    1    2    0    0  0.13805466527E+02 -0.37962478949E+02  0.46288405906E+01  0.40659154925E+02  0.00000000000E+00 0.  1.
         11    1    3    3    0    0  0.60200707240E+01  0.65282984572E+01 -0.60477242125E+01  0.10744063509E+02  0.51100000000E-03 0. -1.
        -11    1    3    3    0    0 -0.14962026614E+02  0.12191746848E+02 -0.27756432904E+01  0.19498849390E+02  0.51100000000E-03 0.  1.
         12    1    3    3    0    0 -0.48635106372E+01  0.19242433644E+02  0.41945269123E+01  0.20285932176E+02  0.00000000000E+00 0. -1.
</event>
<event>
 7    1  0.5155466E-011  0.5052886E+02  0.7816164E-02  0.1300439E+00
        -11   -1    0    0    0    0  0.00000000000E+00  0.00000000000E+00  0.45593999997E+02  0.45594000000E+02  0.51100000000E-03 0.  1.
         11   -1    0    0    0    0 -0.00000000000E+00 -0.00000000000E+00 -0.45593999997E+02  0.45594000000E+02  0.51100000000E-03 0. -1.
    9900012    2    1    2    0    0 -0.60596732353E+01  0.30982336346E+01 -0.40085495008E+02  0.50528860788E+02  0.30000002852E+02 0.  0.
        -12    1    1    2    0    0  0.60596732353E+01 -0.30982336346E+01  0.40085495008E+02  0.40659139212E+02  0.00000000000E+00 0.  1.
         11    1    3    3    0    0 -0.18920580208E+01  0.50422834457E+01 -0.40980961385E+02  0.41333324355E+02  0.51100000000E-03 0. -1.
        -11    1    3    3    0    0 -0.32775099008E+01  0.28073870136E+01  0.52406379602E+00  0.43471986517E+01  0.51100000000E-03 0.  1.
         12    1    3    3    0    0 -0.89010531363E+00 -0.47514368247E+01  0.37140258092E+00  0.48483377817E+01  0.00000000000E+00 0. -1.
</event>
<event>
 7    1  0.5155466E-011  0.5052884E+02  0.7816164E-02  0.1300439E+00
        -11   -1    0    0    0    0  0.00000000000E+00  0.00000000000E+00  0.45593999997E+02  0.45594000000E+02  0.51100000000E-03 0.  1.
         11   -1    0    0    0    0 -0.00000000000E+00 -0.00000000000E+00 -0.45593999997E+02  0.45594000000E+02  0.51100000000E-03 0. -1.
    9900012    2    1    2    0    0  0.46410824640E+01 -0.29512271277E+02 -0.27579948550E+02  0.50528839108E+02  0.29999936953E+02 0.  0.
        -12    1    1    2    0    0 -0.46410824640E+01  0.29512271277E+02  0.27579948550E+02  0.40659160892E+02  0.00000000000E+00 0.  1.
         11    1    3    3    0    0 -0.68492042487E+01 -0.19168792439E+01 -0.13726712396E+02  0.15459904862E+02  0.51100000000E-03 0. -1.
        -11    1    3    3    0    0  0.12517524018E+02 -0.16752984723E+02 -0.11712992905E+02  0.23969670580E+02  0.51100000000E-03 0.  1.
        -12    1    3    3    0    0 -0.10272373056E+01 -0.10842407310E+02 -0.21402432498E+01  0.11099263666E+02  0.00000000000E+00 0.  1.
</event>
<event>
 7    1  0.5155466E-011  0.5052884E+02  0.7816164E-02  0.1300439E+00
        -11   -1    0    0    0    0  0.00000000000E+00  0.00000000000E+00  0.45593999997E+02  0.45594000000E+02  0.51100000000E-03 0.  1.
         11   -1    0    0    0    0 -0.00000000000E+00 -0.00000000000E+00 -0.45593999997E+02  0.45594000000E+02  0.51100000000E-03 0. -1.
    9900012    2    1    2    0    0  0.85222574859E+01  0.12212350386E+02 -0.37833804536E+02  0.50528841865E+02  0.29999945332E+02 0.  0.
        -12    1    1    2    0    0 -0.85222574859E+01 -0.12212350386E+02  0.37833804536E+02  0.40659158135E+02  0.00000000000E+00 0.  1.
         11    1    3    3    0    0  0.59308959157E+01 -0.58342214399E+01 -0.24429366668E+01  0.86707327252E+01  0.51100000000E-03 0. -1.
        -11    1    3    3    0    0 -0.42731516503E+01  0.16601750560E+01 -0.70998133296E+01  0.84512339821E+01  0.51100000000E-03 0.  1.
         12    1    3    3    0    0  0.68645132205E+01  0.16386396770E+02 -0.28291054539E+02  0.33406875158E+02  0.00000000000E+00 0. -1.
</event>
<event>
 7    1  0.5155466E-011  0.5052886E+02  0.7816164E-02  0.1300439E+00
        -11   -1    0    0    0    0  0.00000000000E+00  0.00000000000E+00  0.45593999997E+02  0.45594000000E+02  0.51100000000E-03 0. -1.
         11   -1    0    0    0    0 -0.00000000000E+00 -0.00000000000E+00 -0.45593999997E+02  0.45594000000E+02  0.51100000000E-03 0.  1.
    9900012    2    1    2    0    0 -0.13702776876E+02  0.28823403948E+02  0.25191480443E+02  0.50528863312E+02  0.30000010524E+02 0.  0.
        -12    1    1    2    0    0  0.13702776876E+02 -0.28823403948E+02 -0.25191480443E+02  0.40659136688E+02  0.00000000000E+00 0.  1.
         11    1    3    3    0    0 -0.27315927231E+01  0.21243415148E+02  0.24480692062E+02  0.32527658539E+02  0.51100000000E-03 0. -1.
        -11    1    3    3    0    0 -0.11365678315E+02  0.69718460186E+01  0.45542807085E+01  0.14089952218E+02  0.51100000000E-03 0.  1.
         12    1    3    3    0    0  0.39449416179E+00  0.60814278162E+00 -0.38434923267E+01  0.39112525554E+01  0.00000000000E+00 0. -1.
</event>
<event>
 7    1  0.5155466E-011  0.5052887E+02  0.7816164E-02  0.1300439E+00
        -11   -1    0    0    0    0  0.00000000000E+00  0.00000000000E+00  0.45593999997E+02  0.45594000000E+02  0.51100000000E-03 0.  1.
         11   -1    0    0    0    0 -0.00000000000E+00 -0.00000000000E+00 -0.45593999997E+02  0.45594000000E+02  0.51100000000E-03 0. -1.
    9900012    2    1    2    0    0  0.17433003704E+02 -0.99427700012E+01 -0.35360952409E+02  0.50528865126E+02  0.30000016036E+02 0.  0.
        -12    1    1    2    0    0 -0.17433003704E+02  0.99427700012E+01  0.35360952409E+02  0.40659134874E+02  0.00000000000E+00 0.  1.
         11    1    3    3    0    0 -0.11345970231E+01 -0.58763013051E+01 -0.10983070405E+02  0.12507840070E+02  0.51100000000E-03 0. -1.
        -11    1    3    3    0    0  0.16939446506E+02  0.67470457671E+01 -0.15674635657E+02  0.24044992779E+02  0.51100000000E-03 0.  1.
        -12    1    3    3    0    0  0.16281542210E+01 -0.10813514463E+02 -0.87032463469E+01  0.13976032276E+02  0.00000000000E+00 0.  1.
</event>
<event>
 7    1  0.5155466E-011  0.5052885E+02  0.7816164E-02  0.1300439E+00
        -11   -1    0    0    0    0  0.00000000000E+00  0.00000000000E+00  0.45593999997E+02  0.45594000000E+02  0.51100000000E-03 0. -1.
         11   -1    0    0    0    0 -0.00000000000E+00 -0.00000000000E+00 -0.45593999997E+02  0.45594000000E+02  0.51100000000E-03 0.  1.
    9900012    2    1    2    0    0 -0.74262178660E+01  0.39966487252E+02 -0.83528468924E+00  0.50528849547E+02  0.29999968683E+02 0.  0.
        -12    1    1    2    0    0  0.74262178660E+01 -0.39966487252E+02  0.83528468924E+00  0.40659150453E+02  0.00000000000E+00 0.  1.
         11    1    3    3    0    0 -0.31198545028E+01  0.26287906677E+02 -0.10549596234E+02  0.28497043891E+02  0.51100000000E-03 0. -1.
        -11    1    3    3    0    0  0.12376997476E+01 -0.18523560034E+01  0.40008462394E+01  0.45792897179E+01  0.51100000000E-03 0.  1.
         12    1    3    3    0    0 -0.55440631108E+01  0.15530936578E+02  0.57134653050E+01  0.17452515938E+02  0.00000000000E+00 0. -1.
</event>
<event>
 7    1  0.5155466E-011  0.5052886E+02  0.7816164E-02  0.1300439E+00
        -11   -1    0    0    0    0  0.00000000000E+00  0.00000000000E+00  0.45593999997E+02  0.45594000000E+02  0.51100000000E-03 0.  1.
         11   -1    0    0    0    0 -0.00000000000E+00 -0.00000000000E+00 -0.45593999997E+02  0.45594000000E+02  0.51100000000E-03 0. -1.
    9900012    2    1    2    0    0  0.32571972585E+02 -0.11633452429E+02  0.21375100091E+02  0.50528861822E+02  0.30000005995E+02 0.  0.
        -12    1    1    2    0    0 -0.32571972585E+02  0.11633452429E+02 -0.21375100091E+02  0.40659138178E+02  0.00000000000E+00 0.  1.
         11    1    3    3    0    0  0.10228392532E+02 -0.14815866062E+02  0.12709745526E+02  0.22037865880E+02  0.51100000000E-03 0. -1.
        -11    1    3    3    0    0  0.13650673356E+02  0.58418033418E+01  0.11703584033E+02  0.18906121464E+02  0.51100000000E-03 0.  1.
         12    1    3    3    0    0  0.86929066965E+01 -0.26593897091E+01 -0.30382294677E+01  0.95848744779E+01  0.00000000000E+00 0. -1.
</event>
<event>
 7    1  0.5155466E-011  0.5052886E+02  0.7816164E-02  0.1300439E+00
        -11   -1    0    0    0    0  0.00000000000E+00  0.00000000000E+00  0.45593999997E+02  0.45594000000E+02  0.51100000000E-03 0.  1.
         11   -1    0    0    0    0 -0.00000000000E+00 -0.00000000000E+00 -0.45593999997E+02  0.45594000000E+02  0.51100000000E-03 0. -1.
    9900012    2    1    2    0    0  0.25584395696E+02 -0.17740854368E+02 -0.26150842939E+02  0.50528858307E+02  0.29999995309E+02 0.  0.
        -12    1    1    2    0    0 -0.25584395696E+02  0.17740854368E+02  0.26150842939E+02  0.40659141693E+02  0.00000000000E+00 0.  1.
         11    1    3    3    0    0  0.27416696328E+02 -0.10363224736E+02 -0.10504739070E+02  0.31135529667E+02  0.51100000000E-03 0. -1.
        -11    1    3    3    0    0  0.40881836582E+00  0.16350007054E+01 -0.49445252344E+01  0.52238577524E+01  0.51100000000E-03 0.  1.
         12    1    3    3    0    0 -0.22411189977E+01 -0.90126303372E+01 -0.10701578635E+02  0.14169470888E+02  0.00000000000E+00 0. -1.
</event>
<event>
 7    1  0.5155466E-011  0.5052887E+02  0.7816164E-02  0.1300439E+00
        -11   -1    0    0    0    0  0.00000000000E+00  0.00000000000E+00  0.45593999997E+02  0.45594000000E+02  0.51100000000E-03 0. -1.
         11   -1    0    0    0    0 -0.00000000000E+00 -0.00000000000E+00 -0.45593999997E+02  0.45594000000E+02  0.51100000000E-03 0.  1.
    9900012    2    1    2    0    0  0.29967561815E+02 -0.26291986681E+01  0.27353196775E+02  0.50528870391E+02  0.30000032039E+02 0.  0.
        -12    1    1    2    0    0 -0.29967561815E+02  0.26291986681E+01 -0.27353196775E+02  0.40659129609E+02  0.00000000000E+00 0.  1.
         11    1    3    3    0    0  0.62401800119E+01  0.89231811171E+01  0.61831615380E+01  0.12521760846E+02  0.51100000000E-03 0. -1.
        -11    1    3    3    0    0  0.71528435668E+01 -0.51711316875E+01  0.17886404378E+02  0.19945606931E+02  0.51100000000E-03 0.  1.
        -12    1    3    3    0    0  0.16574538236E+02 -0.63812480977E+01  0.32836308597E+01  0.18061502613E+02  0.00000000000E+00 0.  1.
</event>
<event>
 7    1  0.5155466E-011  0.5052884E+02  0.7816164E-02  0.1300439E+00
        -11   -1    0    0    0    0  0.00000000000E+00  0.00000000000E+00  0.45593999997E+02  0.45594000000E+02  0.51100000000E-03 0.  1.
         11   -1    0    0    0    0 -0.00000000000E+00 -0.00000000000E+00 -0.45593999997E+02  0.45594000000E+02  0.51100000000E-03 0. -1.
    9900012    2    1    2    0    0  0.11445576346E+02 -0.17345712788E+02 -0.34946990277E+02  0.50528842367E+02  0.29999946857E+02 0.  0.
        -12    1    1    2    0    0 -0.11445576346E+02  0.17345712788E+02  0.34946990277E+02  0.40659157633E+02  0.00000000000E+00 0.  1.
         11    1    3    3    0    0  0.60325434529E+01 -0.11989246171E+02 -0.31928437327E+02  0.34634646160E+02  0.51100000000E-03 0. -1.
        -11    1    3    3    0    0  0.72793226868E+01  0.21893530691E+01 -0.13267998260E+00  0.76025923130E+01  0.51100000000E-03 0.  1.
        -12    1    3    3    0    0 -0.18662897940E+01 -0.75458196865E+01 -0.28858729681E+01  0.82916038934E+01  0.00000000000E+00 0.  1.
</event>
<event>
 7    1  0.5155466E-011  0.5052887E+02  0.7816164E-02  0.1300439E+00
        -11   -1    0    0    0    0  0.00000000000E+00  0.00000000000E+00  0.45593999997E+02  0.45594000000E+02  0.51100000000E-03 0.  1.
         11   -1    0    0    0    0 -0.00000000000E+00 -0.00000000000E+00 -0.45593999997E+02  0.45594000000E+02  0.51100000000E-03 0. -1.
    9900012    2    1    2    0    0 -0.37731028793E+01  0.40444402542E+02 -0.17829294810E+01  0.50528870154E+02  0.30000031319E+02 0.  0.
        -12    1    1    2    0    0  0.37731028793E+01 -0.40444402542E+02  0.17829294810E+01  0.40659129846E+02  0.00000000000E+00 0.  1.
         11    1    3    3    0    0 -0.82441727719E+01  0.21912868411E+02 -0.87871098523E+01  0.25007068731E+02  0.51100000000E-03 0. -1.
        -11    1    3    3    0    0  0.98645522870E+01  0.11711933398E+02  0.69766340908E+01  0.16827126886E+02  0.51100000000E-03 0.  1.
        -12    1    3    3    0    0 -0.53934823944E+01  0.68196007338E+01  0.27546280515E-01  0.86946745371E+01  0.00000000000E+00 0.  1.
</event>
<event>
 7    1  0.5155466E-011  0.5052886E+02  0.7816164E-02  0.1300439E+00
        -11   -1    0    0    0    0  0.00000000000E+00  0.00000000000E+00  0.45593999997E+02  0.45594000000E+02  0.51100000000E-03 0.  1.
         11   -1    0    0    0    0 -0.00000000000E+00 -0.00000000000E+00 -0.45593999997E+02  0.45594000000E+02  0.51100000000E-03 0. -1.
    9900012    2    1    2    0    0  0.32932882003E+02 -0.23836998925E+02  0.62354507844E+00  0.50528855355E+02  0.29999986338E+02 0.  0.
        -12    1    1    2    0    0 -0.32932882003E+02  0.23836998925E+02 -0.62354507844E+00  0.40659144645E+02  0.00000000000E+00 0.  1.
         11    1    3    3    0    0  0.82362742520E+01 -0.36874176034E+01 -0.37318710567E+01  0.97652508406E+01  0.51100000000E-03 0. -1.
        -11    1    3    3    0    0  0.26745558555E+02 -0.20957103673E+02  0.94039353396E+01  0.35255625039E+02  0.51100000000E-03 0.  1.
        -12    1    3    3    0    0 -0.20489508039E+01  0.80752235157E+00 -0.50485192045E+01  0.55079794756E+01  0.00000000000E+00 0.  1.
</event>
<event>
 7    1  0.5155466E-011  0.5052883E+02  0.7816164E-02  0.1300439E+00
        -11   -1    0    0    0    0  0.00000000000E+00  0.00000000000E+00  0.45593999997E+02  0.45594000000E+02  0.51100000000E-03 0. -1.
         11   -1    0    0    0    0 -0.00000000000E+00 -0.00000000000E+00 -0.45593999997E+02  0.45594000000E+02  0.51100000000E-03 0.  1.
    9900012    2    1    2    0    0 -0.33373630136E+02  0.21255061786E+02  0.93590177770E+01  0.50528830632E+02  0.29999911188E+02 0.  0.
        -12    1    1    2    0    0  0.33373630136E+02 -0.21255061786E+02 -0.93590177770E+01  0.40659169368E+02  0.00000000000E+00 0.  1.
         11    1    3    3    0    0 -0.29880460565E+01 -0.14888040516E+00  0.11122721130E+01  0.31918230097E+01  0.51100000000E-03 0. -1.
        -11    1    3    3    0    0 -0.40329565145E+01  0.19297439854E+02  0.68242538957E+01  0.20862079587E+02  0.51100000000E-03 0.  1.
        -12    1    3    3    0    0 -0.26352627565E+02  0.21065023370E+01  0.14224917683E+01  0.26474928035E+02  0.00000000000E+00 0.  1.
</event>
<event>
 7    1  0.5155466E-011  0.5052884E+02  0.7816164E-02  0.1300439E+00
        -11   -1    0    0    0    0  0.00000000000E+00  0.00000000000E+00  0.45593999997E+02  0.45594000000E+02  0.51100000000E-03 0. -1.
         11   -1    0    0    0    0 -0.00000000000E+00 -0.00000000000E+00 -0.45593999997E+02  0.45594000000E+02  0.51100000000E-03 0.  1.
    9900012    2    1    2    0    0 -0.13989520690E+02 -0.31441282727E+02 -0.21654249654E+02  0.50528837727E+02  0.29999932755E+02 0.  0.
        -12    1    1    2    0    0  0.13989520690E+02  0.31441282727E+02  0.21654249654E+02  0.40659162273E+02  0.00000000000E+00 0.  1.
         11    1    3    3    0    0  0.22641091511E+01 -0.11821879902E+02 -0.43944589818E+01  0.12813832552E+02  0.51100000000E-03 0. -1.
        -11    1    3    3    0    0 -0.20125089894E+02 -0.18168130092E+02 -0.19124914919E+02  0.33179249015E+02  0.51100000000E-03 0.  1.
        -12    1    3    3    0    0  0.38714600528E+01 -0.14512727340E+01  0.18651242470E+01  0.45357561603E+01  0.00000000000E+00 0.  1.
</event>
<event>
 7    1  0.5155466E-011  0.5052885E+02  0.7816164E-02  0.1300439E+00
        -11   -1    0    0    0    0  0.00000000000E+00  0.00000000000E+00  0.45593999997E+02  0.45594000000E+02  0.51100000000E-03 0.  1.
         11   -1    0    0    0    0 -0.00000000000E+00 -0.00000000000E+00 -0.45593999997E+02  0.45594000000E+02  0.51100000000E-03 0. -1.
    9900012    2    1    2    0    0 -0.21688955738E+02 -0.48215686464E+01 -0.34051556928E+02  0.50528845380E+02  0.29999956016E+02 0.  0.
        -12    1    1    2    0    0  0.21688955738E+02  0.48215686464E+01  0.34051556928E+02  0.40659154620E+02  0.00000000000E+00 0.  1.
         11    1    3    3    0    0 -0.37697850833E+01  0.55363279434E+01 -0.26272389457E+02  0.27112739712E+02  0.51100000000E-03 0. -1.
        -11    1    3    3    0    0 -0.99348872156E+01 -0.32422310126E+01 -0.46804201911E+00  0.10461028129E+02  0.51100000000E-03 0.  1.
         12    1    3    3    0    0 -0.79842834390E+01 -0.71156655772E+01 -0.73111254524E+01  0.12955077538E+02  0.00000000000E+00 0. -1.
</event>
<event>
 7    1  0.5155466E-011  0.5052889E+02  0.7816164E-02  0.1300439E+00
        -11   -1    0    0    0    0  0.00000000000E+00  0.00000000000E+00  0.45593999997E+02  0.45594000000E+02  0.51100000000E-03 0.  1.
         11   -1    0    0    0    0 -0.00000000000E+00 -0.00000000000E+00 -0.45593999997E+02  0.45594000000E+02  0.51100000000E-03 0. -1.
    9900012    2    1    2    0    0 -0.23913764728E+02  0.28217813208E+02 -0.16883437289E+02  0.50528885641E+02  0.30000078396E+02 0.  0.
        -12    1    1    2    0    0  0.23913764728E+02 -0.28217813208E+02  0.16883437289E+02  0.40659114359E+02  0.00000000000E+00 0.  1.
         11    1    3    3    0    0 -0.11564350802E+02  0.32303596024E+01 -0.45316373794E+01  0.12833751215E+02  0.51100000000E-03 0. -1.
        -11    1    3    3    0    0  0.51231023927E+01  0.47196168285E+00  0.26484345435E-01  0.51448642001E+01  0.51100000000E-03 0.  1.
        -12    1    3    3    0    0 -0.17472516319E+02  0.24515491923E+02 -0.12378284255E+02  0.32550270227E+02  0.00000000000E+00 0.  1.
</event>
<event>
 7    1  0.5155466E-011  0.5052886E+02  0.7816164E-02  0.1300439E+00
        -11   -1    0    0    0    0  0.00000000000E+00  0.00000000000E+00  0.45593999997E+02  0.45594000000E+02  0.51100000000E-03 0. -1.
         11   -1    0    0    0    0 -0.00000000000E+00 -0.00000000000E+00 -0.45593999997E+02  0.45594000000E+02  0.51100000000E-03 0.  1.
    9900012    2    1    2    0    0  0.40121290899E+02 -0.65788490963E+01  0.40747041433E+00  0.50528864852E+02  0.30000015203E+02 0.  0.
        -12    1    1    2    0    0 -0.40121290899E+02  0.65788490963E+01 -0.40747041433E+00  0.40659135148E+02  0.00000000000E+00 0.  1.
         11    1    3    3    0    0  0.18636507201E+02  0.62736947225E+01  0.29671882515E+01  0.19886750677E+02  0.51100000000E-03 0. -1.
        -11    1    3    3    0    0  0.57122143292E+01 -0.84582366669E+01 -0.84409184958E+01  0.13244631568E+02  0.51100000000E-03 0.  1.
        -12    1    3    3    0    0  0.15772569369E+02 -0.43943071518E+01  0.58812006586E+01  0.17397482607E+02  0.00000000000E+00 0.  1.
</event>
<event>
 7    1  0.5155466E-011  0.5052886E+02  0.7816164E-02  0.1300439E+00
        -11   -1    0    0    0    0  0.00000000000E+00  0.00000000000E+00  0.45593999997E+02  0.45594000000E+02  0.51100000000E-03 0. -1.
         11   -1    0    0    0    0 -0.00000000000E+00 -0.00000000000E+00 -0.45593999997E+02  0.45594000000E+02  0.51100000000E-03 0.  1.
    9900012    2    1    2    0    0 -0.16788665917E+02  0.35648029099E+02 -0.10026182755E+02  0.50528860529E+02  0.30000002064E+02 0.  0.
        -12    1    1    2    0    0  0.16788665917E+02 -0.35648029099E+02  0.10026182755E+02  0.40659139471E+02  0.00000000000E+00 0.  1.
         11    1    3    3    0    0 -0.20808511631E+02  0.20390801664E+02 -0.62727058367E+01  0.29801439354E+02  0.51100000000E-03 0. -1.
        -11    1    3    3    0    0  0.81706848613E+01  0.11554781795E+02 -0.25029343576E+00  0.14154000159E+02  0.51100000000E-03 0.  1.
        -12    1    3    3    0    0 -0.41508391470E+01  0.37024456391E+01 -0.35031834827E+01  0.65734210156E+01  0.00000000000E+00 0.  1.
</event>
<event>
 7    1  0.5155466E-011  0.5052887E+02  0.7816164E-02  0.1300439E+00
        -11   -1    0    0    0    0  0.00000000000E+00  0.00000000000E+00  0.45593999997E+02  0.45594000000E+02  0.51100000000E-03 0.  1.
         11   -1    0    0    0    0 -0.00000000000E+00 -0.00000000000E+00 -0.45593999997E+02  0.45594000000E+02  0.51100000000E-03 0. -1.
    9900012    2    1    2    0    0  0.15812203181E+02  0.22008491226E+02 -0.30311138171E+02  0.50528873685E+02  0.30000042053E+02 0.  0.
        -12    1    1    2    0    0 -0.15812203181E+02 -0.22008491226E+02  0.30311138171E+02  0.40659126315E+02  0.00000000000E+00 0.  1.
         11    1    3    3    0    0 -0.88290533250E+00  0.13851819190E+01 -0.51337070260E-01  0.16434374131E+01  0.51100000000E-03 0. -1.
        -11    1    3    3    0    0 -0.76443014155E+01  0.58947890535E+01 -0.51542239160E+01  0.10943030044E+02  0.51100000000E-03 0.  1.
        -12    1    3    3    0    0  0.24339409929E+02  0.14728520253E+02 -0.25105577185E+02  0.37942406227E+02  0.00000000000E+00 0.  1.
</event>
<event>
 7    1  0.5155466E-011  0.5052883E+02  0.7816164E-02  0.1300439E+00
        -11   -1    0    0    0    0  0.00000000000E+00  0.00000000000E+00  0.45593999997E+02  0.45594000000E+02  0.51100000000E-03 0.  1.
         11   -1    0    0    0    0 -0.00000000000E+00 -0.00000000000E+00 -0.45593999997E+02  0.45594000000E+02  0.51100000000E-03 0. -1.
    9900012    2    1    2    0    0  0.18442740584E+02  0.20763967510E+02 -0.29696645720E+02  0.50528833825E+02  0.29999920895E+02 0.  0.
        -12    1    1    2    0    0 -0.18442740584E+02 -0.20763967510E+02  0.29696645720E+02  0.40659166175E+02  0.00000000000E+00 0.  1.
         11    1    3    3    0    0  0.16048131147E+02  0.74725644331E+01 -0.19431279742E+02  0.26286048870E+02  0.51100000000E-03 0. -1.
        -11    1    3    3    0    0 -0.69848191411E+01  0.22980598597E+01 -0.48598435183E+01  0.88140147967E+01  0.51100000000E-03 0.  1.
        -12    1    3    3    0    0  0.93794285785E+01  0.10993343217E+02 -0.54055224592E+01  0.15428770158E+02  0.00000000000E+00 0.  1.
</event>
<event>
 7    1  0.7034963E-011  0.5052886E+02  0.7816164E-02  0.1300439E+00
        -11   -1    0    0    0    0  0.00000000000E+00  0.00000000000E+00  0.45593999997E+02  0.45594000000E+02  0.51100000000E-03 0. -1.
         11   -1    0    0    0    0 -0.00000000000E+00 -0.00000000000E+00 -0.45593999997E+02  0.45594000000E+02  0.51100000000E-03 0.  1.
    9900012    2    1    2    0    0  0.38373960558E+02  0.13093636651E+02 -0.30267649534E+01  0.50528862334E+02  0.30000007551E+02 0.  0.
        -12    1    1    2    0    0 -0.38373960558E+02 -0.13093636651E+02  0.30267649534E+01  0.40659137666E+02  0.00000000000E+00 0.  1.
         11    1    3    3    0    0  0.30143365661E+02  0.89231643876E+01 -0.78479865898E+01  0.32401176674E+02  0.51100000000E-03 0. -1.
        -11    1    3    3    0    0  0.87619120272E+00  0.86697290933E+01  0.35657922643E+01  0.94152423393E+01  0.51100000000E-03 0.  1.
        -12    1    3    3    0    0  0.73544036938E+01 -0.44992568301E+01  0.12554293722E+01  0.87124433211E+01  0.00000000000E+00 0.  1.
</event>
<event>
 7    1  0.5155466E-011  0.5052886E+02  0.7816164E-02  0.1300439E+00
        -11   -1    0    0    0    0  0.00000000000E+00  0.00000000000E+00  0.45593999997E+02  0.45594000000E+02  0.51100000000E-03 0. -1.
         11   -1    0    0    0    0 -0.00000000000E+00 -0.00000000000E+00 -0.45593999997E+02  0.45594000000E+02  0.51100000000E-03 0.  1.
    9900012    2    1    2    0    0 -0.14713479015E+02  0.20080716936E+02  0.32147223964E+02  0.50528859995E+02  0.30000000440E+02 0.  0.
        -12    1    1    2    0    0  0.14713479015E+02 -0.20080716936E+02 -0.32147223964E+02  0.40659140005E+02  0.00000000000E+00 0.  1.
         11    1    3    3    0    0  0.16438378033E+01 -0.17735018044E+01  0.12410136265E+02  0.12643535651E+02  0.51100000000E-03 0. -1.
        -11    1    3    3    0    0 -0.10715047930E+02  0.10492594995E+02  0.70554688605E+00  0.15013480561E+02  0.51100000000E-03 0.  1.
        -12    1    3    3    0    0 -0.56422688884E+01  0.11361623746E+02  0.19031540812E+02  0.22871843783E+02  0.00000000000E+00 0.  1.
</event>
<event>
 7    1  0.5155466E-011  0.5052886E+02  0.7816164E-02  0.1300439E+00
        -11   -1    0    0    0    0  0.00000000000E+00  0.00000000000E+00  0.45593999997E+02  0.45594000000E+02  0.51100000000E-03 0.  1.
         11   -1    0    0    0    0 -0.00000000000E+00 -0.00000000000E+00 -0.45593999997E+02  0.45594000000E+02  0.51100000000E-03 0. -1.
    9900012    2    1    2    0    0 -0.38818248419E+02  0.36507429920E+01  0.11531744196E+02  0.50528862541E+02  0.30000008179E+02 0.  0.
        -12    1    1    2    0    0  0.38818248419E+02 -0.36507429920E+01 -0.11531744196E+02  0.40659137459E+02  0.00000000000E+00 0.  1.
         11    1    3    3    0    0 -0.38818066759E+01  0.77755861289E+01  0.23939478045E+01  0.90143856734E+01  0.51100000000E-03 0. -1.
        -11    1    3    3    0    0 -0.34043165036E+02 -0.87958105051E+01  0.10261543873E+02  0.36627894439E+02  0.51100000000E-03 0.  1.
        -12    1    3    3    0    0 -0.89327670769E+00  0.46709673682E+01 -0.11237474812E+01  0.48865824287E+01  0.00000000000E+00 0.  1.
</event>
<event>
 7    1  0.5393484E-011  0.5052886E+02  0.7816164E-02  0.1300439E+00
        -11   -1    0    0    0    0  0.00000000000E+00  0.00000000000E+00  0.45593999997E+02  0.45594000000E+02  0.51100000000E-03 0. -1.
         11   -1    0    0    0    0 -0.00000000000E+00 -0.00000000000E+00 -0.45593999997E+02  0.45594000000E+02  0.51100000000E-03 0.  1.
    9900012    2    1    2    0    0  0.19871121026E+02 -0.24052067944E+02  0.26073012993E+02  0.50528862900E+02  0.30000009270E+02 0.  0.
        -12    1    1    2    0    0 -0.19871121026E+02  0.24052067944E+02 -0.26073012993E+02  0.40659137100E+02  0.00000000000E+00 0.  1.
         11    1    3    3    0    0  0.19319182143E+02 -0.99514969798E+01  0.17363378775E+02  0.27816362335E+02  0.51100000000E-03 0. -1.
        -11    1    3    3    0    0  0.18351009457E+01 -0.14818169022E+02  0.11106657918E+01  0.14972618589E+02  0.51100000000E-03 0.  1.
        -12    1    3    3    0    0 -0.12831620627E+01  0.71759805794E+00  0.75989684264E+01  0.77398819756E+01  0.00000000000E+00 0.  1.
</event>
<event>
 7    1  0.5155466E-011  0.5052886E+02  0.7816164E-02  0.1300439E+00
        -11   -1    0    0    0    0  0.00000000000E+00  0.00000000000E+00  0.45593999997E+02  0.45594000000E+02  0.51100000000E-03 0. -1.
         11   -1    0    0    0    0 -0.00000000000E+00 -0.00000000000E+00 -0.45593999997E+02  0.45594000000E+02  0.51100000000E-03 0.  1.
    9900012    2    1    2    0    0 -0.26838889124E+02  0.10800027549E+01 -0.30523326995E+02  0.50528857533E+02  0.29999992957E+02 0.  0.
        -12    1    1    2    0    0  0.26838889124E+02 -0.10800027549E+01  0.30523326995E+02  0.40659142467E+02  0.00000000000E+00 0.  1.
         11    1    3    3    0    0 -0.30582135081E+02  0.15679630681E+01 -0.26355167273E+02  0.40401984315E+02  0.51100000000E-03 0. -1.
        -11    1    3    3    0    0  0.62694714879E+01 -0.63765212844E+00 -0.15584578309E+01  0.64916611161E+01  0.51100000000E-03 0.  1.
        -12    1    3    3    0    0 -0.25262255304E+01  0.14969181525E+00 -0.26097018905E+01  0.36352121021E+01  0.00000000000E+00 0.  1.
</event>
<event>
 7    1  0.5155466E-011  0.5052886E+02  0.7816164E-02  0.1300439E+00
        -11   -1    0    0    0    0  0.00000000000E+00  0.00000000000E+00  0.45593999997E+02  0.45594000000E+02  0.51100000000E-03 0.  1.
         11   -1    0    0    0    0 -0.00000000000E+00 -0.00000000000E+00 -0.45593999997E+02  0.45594000000E+02  0.51100000000E-03 0. -1.
    9900012    2    1    2    0    0 -0.24212402762E+02 -0.12054745365E+02 -0.30358000799E+02  0.50528861472E+02  0.30000004930E+02 0.  0.
        -12    1    1    2    0    0  0.24212402762E+02  0.12054745365E+02  0.30358000799E+02  0.40659138528E+02  0.00000000000E+00 0.  1.
         11    1    3    3    0    0 -0.83492419494E+01  0.37752349452E+01 -0.11063098631E+02  0.14365040606E+02  0.51100000000E-03 0. -1.
        -11    1    3    3    0    0 -0.13380387556E+02 -0.20602710911E+02 -0.18438512847E+02  0.30716204588E+02  0.51100000000E-03 0.  1.
        -12    1    3    3    0    0 -0.24827732571E+01  0.47727306017E+01 -0.85638932125E+00  0.54476162780E+01  0.00000000000E+00 0.  1.
</event>
<event>
 7    1  0.5155466E-011  0.5052886E+02  0.7816164E-02  0.1300439E+00
        -11   -1    0    0    0    0  0.00000000000E+00  0.00000000000E+00  0.45593999997E+02  0.45594000000E+02  0.51100000000E-03 0. -1.
         11   -1    0    0    0    0 -0.00000000000E+00 -0.00000000000E+00 -0.45593999997E+02  0.45594000000E+02  0.51100000000E-03 0.  1.
    9900012    2    1    2    0    0 -0.21325974065E+02 -0.51366663460E+01  0.34234242231E+02  0.50528857706E+02  0.29999993482E+02 0.  0.
        -12    1    1    2    0    0  0.21325974065E+02  0.51366663460E+01 -0.34234242231E+02  0.40659142294E+02  0.00000000000E+00 0.  1.
         11    1    3    3    0    0 -0.20151258613E+02 -0.18516835257E+01  0.34458280572E+02  0.39960919106E+02  0.51100000000E-03 0. -1.
        -11    1    3    3    0    0  0.18445323344E+01 -0.46106191659E+01 -0.33772510622E+01  0.60054919552E+01  0.51100000000E-03 0.  1.
        -12    1    3    3    0    0 -0.30192477870E+01  0.13256363456E+01  0.31532127211E+01  0.45624466445E+01  0.00000000000E+00 0.  1.
</event>
<event>
 7    1  0.5155466E-011  0.5052883E+02  0.7816164E-02  0.1300439E+00
        -11   -1    0    0    0    0  0.00000000000E+00  0.00000000000E+00  0.45593999997E+02  0.45594000000E+02  0.51100000000E-03 0. -1.
         11   -1    0    0    0    0 -0.00000000000E+00 -0.00000000000E+00 -0.45593999997E+02  0.45594000000E+02  0.51100000000E-03 0.  1.
    9900012    2    1    2    0    0  0.37380678117E+02 -0.15493050611E+02 -0.39772692825E+01  0.50528826561E+02  0.29999898816E+02 0.  0.
        -12    1    1    2    0    0 -0.37380678117E+02  0.15493050611E+02  0.39772692825E+01  0.40659173439E+02  0.00000000000E+00 0.  1.
         11    1    3    3    0    0  0.53739695365E+01 -0.55923656632E+01  0.36345877256E+01  0.85652980384E+01  0.51100000000E-03 0. -1.
        -11    1    3    3    0    0  0.96236917201E+01  0.78050529543E+01 -0.47920089601E+01  0.13285241589E+02  0.51100000000E-03 0.  1.
         12    1    3    3    0    0  0.22383016861E+02 -0.17705737902E+02 -0.28198480479E+01  0.28678286934E+02  0.00000000000E+00 0. -1.
</event>
<event>
 7    1  0.5155466E-011  0.5052885E+02  0.7816164E-02  0.1300439E+00
        -11   -1    0    0    0    0  0.00000000000E+00  0.00000000000E+00  0.45593999997E+02  0.45594000000E+02  0.51100000000E-03 0. -1.
         11   -1    0    0    0    0 -0.00000000000E+00 -0.00000000000E+00 -0.45593999997E+02  0.45594000000E+02  0.51100000000E-03 0.  1.
    9900012    2    1    2    0    0 -0.32350135825E+02  0.80951995175E+01  0.23261615050E+02  0.50528852470E+02  0.29999977567E+02 0.  0.
        -12    1    1    2    0    0  0.32350135825E+02 -0.80951995175E+01 -0.23261615050E+02  0.40659147530E+02  0.00000000000E+00 0.  1.
         11    1    3    3    0    0 -0.17718372919E+02  0.16071846079E+02  0.23491502298E+02  0.33527535785E+02  0.51100000000E-03 0. -1.
        -11    1    3    3    0    0 -0.56316048181E+01 -0.26215768897E+01  0.14903429116E+01  0.63881734847E+01  0.51100000000E-03 0.  1.
         12    1    3    3    0    0 -0.90001580876E+01 -0.53550696716E+01 -0.17202301596E+01  0.10613143200E+02  0.00000000000E+00 0. -1.
</event>
<event>
 7    1  0.5155466E-011  0.5052888E+02  0.7816164E-02  0.1300439E+00
        -11   -1    0    0    0    0  0.00000000000E+00  0.00000000000E+00  0.45593999997E+02  0.45594000000E+02  0.51100000000E-03 0. -1.
         11   -1    0    0    0    0 -0.00000000000E+00 -0.00000000000E+00 -0.45593999997E+02  0.45594000000E+02  0.51100000000E-03 0.  1.
    9900012    2    1    2    0    0  0.31507013949E+02 -0.13175473008E+02  0.22065341333E+02  0.50528876729E+02  0.30000051307E+02 0.  0.
        -12    1    1    2    0    0 -0.31507013949E+02  0.13175473008E+02 -0.22065341333E+02  0.40659123271E+02  0.00000000000E+00 0.  1.
         11    1    3    3    0    0  0.25161408313E+01 -0.87989119842E+01  0.14753938559E+02  0.17361754521E+02  0.51100000000E-03 0. -1.
        -11    1    3    3    0    0  0.30211518247E+02 -0.28391783111E+01  0.72713532659E+01  0.31203675214E+02  0.51100000000E-03 0.  1.
        -12    1    3    3    0    0 -0.12206451293E+01 -0.15373827123E+01  0.40049508399E-01  0.19634469942E+01  0.00000000000E+00 0.  1.
</event>
<event>
 7    1  0.5155466E-011  0.5052886E+02  0.7816164E-02  0.1300439E+00
        -11   -1    0    0    0    0  0.00000000000E+00  0.00000000000E+00  0.45593999997E+02  0.45594000000E+02  0.51100000000E-03 0. -1.
         11   -1    0    0    0    0 -0.00000000000E+00 -0.00000000000E+00 -0.45593999997E+02  0.45594000000E+02  0.51100000000E-03 0.  1.
    9900012    2    1    2    0    0 -0.33181768744E+02 -0.14220251569E+02  0.18706154837E+02  0.50528861292E+02  0.30000004383E+02 0.  0.
        -12    1    1    2    0    0  0.33181768744E+02  0.14220251569E+02 -0.18706154837E+02  0.40659138708E+02  0.00000000000E+00 0.  1.
         11    1    3    3    0    0 -0.33542104413E+02 -0.52599579918E+01  0.12982618376E+02  0.36349529663E+02  0.51100000000E-03 0. -1.
        -11    1    3    3    0    0  0.48553141771E+01 -0.44265701065E+01  0.25269165996E+01  0.70394535603E+01  0.51100000000E-03 0.  1.
         12    1    3    3    0    0 -0.44949785082E+01 -0.45337234708E+01  0.31966198612E+01  0.71398780687E+01  0.00000000000E+00 0. -1.
</event>
<event>
 7    1  0.5155466E-011  0.5052885E+02  0.7816164E-02  0.1300439E+00
        -11   -1    0    0    0    0  0.00000000000E+00  0.00000000000E+00  0.45593999997E+02  0.45594000000E+02  0.51100000000E-03 0.  1.
         11   -1    0    0    0    0 -0.00000000000E+00 -0.00000000000E+00 -0.45593999997E+02  0.45594000000E+02  0.51100000000E-03 0. -1.
    9900012    2    1    2    0    0 -0.20691973017E+02  0.14471410331E+02 -0.31868272361E+02  0.50528852842E+02  0.29999978699E+02 0.  0.
        -12    1    1    2    0    0  0.20691973017E+02 -0.14471410331E+02  0.31868272361E+02  0.40659147158E+02  0.00000000000E+00 0.  1.
         11    1    3    3    0    0 -0.18437249856E+02  0.90895537378E+01 -0.33247241425E+02  0.39088760942E+02  0.51100000000E-03 0. -1.
        -11    1    3    3    0    0  0.64731221768E+00  0.71097830658E+01 -0.11361003612E+01  0.72290215550E+01  0.51100000000E-03 0.  1.
         12    1    3    3    0    0 -0.29020353793E+01 -0.17279264727E+01  0.25150694246E+01  0.42110703448E+01  0.00000000000E+00 0. -1.
</event>
<event>
 7    1  0.5155466E-011  0.5052886E+02  0.7816164E-02  0.1300439E+00
        -11   -1    0    0    0    0  0.00000000000E+00  0.00000000000E+00  0.45593999997E+02  0.45594000000E+02  0.51100000000E-03 0. -1.
         11   -1    0    0    0    0 -0.00000000000E+00 -0.00000000000E+00 -0.45593999997E+02  0.45594000000E+02  0.51100000000E-03 0.  1.
    9900012    2    1    2    0    0 -0.15232699341E+02  0.36324879059E+02  0.10081342818E+02  0.50528862763E+02  0.30000008855E+02 0.  0.
        -12    1    1    2    0    0  0.15232699341E+02 -0.36324879059E+02 -0.10081342818E+02  0.40659137237E+02  0.00000000000E+00 0.  1.
         11    1    3    3    0    0 -0.11724366043E+02  0.49617922571E+01  0.13115781392E+02  0.18278508234E+02  0.51100000000E-03 0. -1.
        -11    1    3    3    0    0 -0.44980169949E+01  0.24710702866E+02 -0.68461753520E+00  0.25126075986E+02  0.51100000000E-03 0.  1.
        -12    1    3    3    0    0  0.98968369602E+00  0.66523839353E+01 -0.23498210387E+01  0.71242785427E+01  0.00000000000E+00 0.  1.
</event>
<event>
 7    1  0.5155466E-011  0.5052886E+02  0.7816164E-02  0.1300439E+00
        -11   -1    0    0    0    0  0.00000000000E+00  0.00000000000E+00  0.45593999997E+02  0.45594000000E+02  0.51100000000E-03 0.  1.
         11   -1    0    0    0    0 -0.00000000000E+00 -0.00000000000E+00 -0.45593999997E+02  0.45594000000E+02  0.51100000000E-03 0. -1.
    9900012    2    1    2    0    0 -0.16080900559E+02 -0.53083160516E+01 -0.36964737181E+02  0.50528863549E+02  0.30000011244E+02 0.  0.
        -12    1    1    2    0    0  0.16080900559E+02  0.53083160516E+01  0.36964737181E+02  0.40659136451E+02  0.00000000000E+00 0.  1.
         11    1    3    3    0    0 -0.18038297459E+02  0.55647948235E+01 -0.22063476141E+02  0.29036943647E+02  0.51100000000E-03 0. -1.
        -11    1    3    3    0    0  0.48486532462E+01 -0.10805212767E+02 -0.14247130660E+02  0.18526812827E+02  0.51100000000E-03 0.  1.
        -12    1    3    3    0    0 -0.28912563460E+01 -0.67898107595E-01 -0.65413038013E+00  0.29651070749E+01  0.00000000000E+00 0.  1.
</event>
<event>
 7    1  0.5155466E-011  0.5052888E+02  0.7816164E-02  0.1300439E+00
        -11   -1    0    0    0    0  0.00000000000E+00  0.00000000000E+00  0.45593999997E+02  0.45594000000E+02  0.51100000000E-03 0.  1.
         11   -1    0    0    0    0 -0.00000000000E+00 -0.00000000000E+00 -0.45593999997E+02  0.45594000000E+02  0.51100000000E-03 0. -1.
    9900012    2    1    2    0    0 -0.25328957411E+02  0.30449009700E+02 -0.91905200833E+01  0.50528881285E+02  0.30000065154E+02 0.  0.
        -12    1    1    2    0    0  0.25328957411E+02 -0.30449009700E+02  0.91905200833E+01  0.40659118715E+02  0.00000000000E+00 0.  1.
         11    1    3    3    0    0 -0.60483413949E+01  0.85471444499E+01 -0.11661038068E+02  0.15672138366E+02  0.51100000000E-03 0. -1.
        -11    1    3    3    0    0 -0.18152557993E+02  0.80296472398E+01  0.55326874593E+01  0.20605854199E+02  0.51100000000E-03 0.  1.
        -12    1    3    3    0    0 -0.11280580240E+01  0.13872218011E+02 -0.30621694750E+01  0.14250888721E+02  0.00000000000E+00 0.  1.
</event>
<event>
 7    1  0.5155466E-011  0.5052888E+02  0.7816164E-02  0.1300439E+00
        -11   -1    0    0    0    0  0.00000000000E+00  0.00000000000E+00  0.45593999997E+02  0.45594000000E+02  0.51100000000E-03 0.  1.
         11   -1    0    0    0    0 -0.00000000000E+00 -0.00000000000E+00 -0.45593999997E+02  0.45594000000E+02  0.51100000000E-03 0. -1.
    9900012    2    1    2    0    0  0.14653571008E+02  0.36143552700E+02  0.11492626339E+02  0.50528880417E+02  0.30000062516E+02 0.  0.
        -12    1    1    2    0    0 -0.14653571008E+02 -0.36143552700E+02 -0.11492626339E+02  0.40659119583E+02  0.00000000000E+00 0.  1.
         11    1    3    3    0    0  0.11420896029E+02  0.36396933560E+02  0.44578086985E+01  0.38406323663E+02  0.51100000000E-03 0. -1.
        -11    1    3    3    0    0  0.57204591871E+01  0.24282421906E+01  0.43926939754E+01  0.76102413937E+01  0.51100000000E-03 0.  1.
         12    1    3    3    0    0 -0.24877842087E+01 -0.26816230500E+01  0.26421236650E+01  0.45123153604E+01  0.00000000000E+00 0. -1.
</event>
<event>
 7    1  0.5155466E-011  0.5052886E+02  0.7816164E-02  0.1300439E+00
        -11   -1    0    0    0    0  0.00000000000E+00  0.00000000000E+00  0.45593999997E+02  0.45594000000E+02  0.51100000000E-03 0. -1.
         11   -1    0    0    0    0 -0.00000000000E+00 -0.00000000000E+00 -0.45593999997E+02  0.45594000000E+02  0.51100000000E-03 0.  1.
    9900012    2    1    2    0    0 -0.14822937967E+02  0.33683897675E+02  0.17287021638E+02  0.50528861179E+02  0.30000004039E+02 0.  0.
        -12    1    1    2    0    0  0.14822937967E+02 -0.33683897675E+02 -0.17287021638E+02  0.40659138821E+02  0.00000000000E+00 0.  1.
         11    1    3    3    0    0 -0.44908395473E+01  0.11744009985E+02  0.12739119416E+02  0.17899010423E+02  0.51100000000E-03 0. -1.
        -11    1    3    3    0    0 -0.16080425085E+02  0.20896014264E+02  0.27137880137E+01  0.26506379019E+02  0.51100000000E-03 0.  1.
        -12    1    3    3    0    0  0.57483266653E+01  0.10438734260E+01  0.18341142081E+01  0.61234717366E+01  0.00000000000E+00 0.  1.
</event>
<event>
 7    1  0.5155466E-011  0.5052887E+02  0.7816164E-02  0.1300439E+00
        -11   -1    0    0    0    0  0.00000000000E+00  0.00000000000E+00  0.45593999997E+02  0.45594000000E+02  0.51100000000E-03 0. -1.
         11   -1    0    0    0    0 -0.00000000000E+00 -0.00000000000E+00 -0.45593999997E+02  0.45594000000E+02  0.51100000000E-03 0.  1.
    9900012    2    1    2    0    0  0.26471561419E+02  0.47238763567E+01  0.30497643335E+02  0.50528870388E+02  0.30000032032E+02 0.  0.
        -12    1    1    2    0    0 -0.26471561419E+02 -0.47238763567E+01 -0.30497643335E+02  0.40659129612E+02  0.00000000000E+00 0.  1.
         11    1    3    3    0    0  0.14276475649E+02 -0.11628535065E+02  0.17432653686E+02  0.25356222107E+02  0.51100000000E-03 0. -1.
        -11    1    3    3    0    0  0.12867043751E+02  0.15922100716E+02  0.11665836505E+02  0.23561957637E+02  0.51100000000E-03 0.  1.
         12    1    3    3    0    0 -0.67195798056E+00  0.43031070612E+00  0.13991531434E+01  0.16106906438E+01  0.00000000000E+00 0. -1.
</event>
<event>
 7    1  0.5155466E-011  0.5052886E+02  0.7816164E-02  0.1300439E+00
        -11   -1    0    0    0    0  0.00000000000E+00  0.00000000000E+00  0.45593999997E+02  0.45594000000E+02  0.51100000000E-03 0.  1.
         11   -1    0    0    0    0 -0.00000000000E+00 -0.00000000000E+00 -0.45593999997E+02  0.45594000000E+02  0.51100000000E-03 0. -1.
    9900012    2    1    2    0    0 -0.38677494972E+02 -0.50920091255E+01 -0.11458114893E+02  0.50528861161E+02  0.30000003984E+02 0.  0.
        -12    1    1    2    0    0  0.38677494972E+02  0.50920091255E+01  0.11458114893E+02  0.40659138839E+02  0.00000000000E+00 0.  1.
         11    1    3    3    0    0 -0.10227684319E+02  0.32055344380E+01  0.26086969308E+01  0.11031150326E+02  0.51100000000E-03 0. -1.
        -11    1    3    3    0    0 -0.13523907020E+02 -0.10153008180E+02 -0.17214284728E+02  0.24131125857E+02  0.51100000000E-03 0.  1.
        -12    1    3    3    0    0 -0.14925903633E+02  0.18554646161E+01  0.31474729043E+01  0.15366584978E+02  0.00000000000E+00 0.  1.
</event>
<event>
 7    1  0.5155466E-011  0.5052896E+02  0.7816164E-02  0.1300438E+00
        -11   -1    0    0    0    0  0.00000000000E+00  0.00000000000E+00  0.45593999997E+02  0.45594000000E+02  0.51100000000E-03 0.  1.
         11   -1    0    0    0    0 -0.00000000000E+00 -0.00000000000E+00 -0.45593999997E+02  0.45594000000E+02  0.51100000000E-03 0. -1.
    9900012    2    1    2    0    0  0.23404988749E+01 -0.20384999629E+02 -0.35101729256E+02  0.50528959904E+02  0.30000304121E+02 0.  0.
        -12    1    1    2    0    0 -0.23404988749E+01  0.20384999629E+02  0.35101729256E+02  0.40659040096E+02  0.00000000000E+00 0.  1.
         11    1    3    3    0    0 -0.10208983289E+01 -0.19669137683E+02 -0.36508803275E+02  0.41482646099E+02  0.51100000000E-03 0. -1.
        -11    1    3    3    0    0 -0.24559816248E+01  0.48209698836E+00 -0.92095957158E+00  0.26669139546E+01  0.51100000000E-03 0.  1.
         12    1    3    3    0    0  0.58173788286E+01 -0.11979589340E+01  0.23280335907E+01  0.63793998497E+01  0.00000000000E+00 0. -1.
</event>
<event>
 7    1  0.5155466E-011  0.5052888E+02  0.7816164E-02  0.1300439E+00
        -11   -1    0    0    0    0  0.00000000000E+00  0.00000000000E+00  0.45593999997E+02  0.45594000000E+02  0.51100000000E-03 0.  1.
         11   -1    0    0    0    0 -0.00000000000E+00 -0.00000000000E+00 -0.45593999997E+02  0.45594000000E+02  0.51100000000E-03 0. -1.
    9900012    2    1    2    0    0 -0.92122049322E+01  0.32025212071E+02 -0.23295606433E+02  0.50528877936E+02  0.30000054974E+02 0.  0.
        -12    1    1    2    0    0  0.92122049322E+01 -0.32025212071E+02  0.23295606433E+02  0.40659122064E+02  0.00000000000E+00 0.  1.
         11    1    3    3    0    0 -0.16831993816E+02  0.17388977811E+02 -0.12070162163E+02  0.27044063674E+02  0.51100000000E-03 0. -1.
        -11    1    3    3    0    0  0.93047637477E+01  0.11687768986E+02 -0.39451555045E+01  0.15451434382E+02  0.51100000000E-03 0.  1.
        -12    1    3    3    0    0 -0.16849748643E+01  0.29484652752E+01 -0.72802887660E+01  0.80333798796E+01  0.00000000000E+00 0.  1.
</event>
<event>
 7    1  0.5155466E-011  0.5052889E+02  0.7816164E-02  0.1300439E+00
        -11   -1    0    0    0    0  0.00000000000E+00  0.00000000000E+00  0.45593999997E+02  0.45594000000E+02  0.51100000000E-03 0.  1.
         11   -1    0    0    0    0 -0.00000000000E+00 -0.00000000000E+00 -0.45593999997E+02  0.45594000000E+02  0.51100000000E-03 0. -1.
    9900012    2    1    2    0    0  0.25888397904E+02 -0.25897071537E+02 -0.17671901616E+02  0.50528885807E+02  0.30000078898E+02 0.  0.
        -12    1    1    2    0    0 -0.25888397904E+02  0.25897071537E+02  0.17671901616E+02  0.40659114193E+02  0.00000000000E+00 0.  1.
         11    1    3    3    0    0  0.30922010484E+02 -0.20129709176E+02 -0.14190828364E+02  0.39531702895E+02  0.51100000000E-03 0. -1.
        -11    1    3    3    0    0 -0.31421520848E+01 -0.72562315443E+01 -0.33463404769E+01  0.85862687355E+01  0.51100000000E-03 0.  1.
         12    1    3    3    0    0 -0.18914604945E+01  0.14888691828E+01 -0.13473277502E+00  0.24109141765E+01  0.00000000000E+00 0. -1.
</event>
<event>
 7    1  0.6714273E-011  0.5052887E+02  0.7816164E-02  0.1300439E+00
        -11   -1    0    0    0    0  0.00000000000E+00  0.00000000000E+00  0.45593999997E+02  0.45594000000E+02  0.51100000000E-03 0.  1.
         11   -1    0    0    0    0 -0.00000000000E+00 -0.00000000000E+00 -0.45593999997E+02  0.45594000000E+02  0.51100000000E-03 0. -1.
    9900012    2    1    2    0    0  0.27840246771E+02  0.16853151626E+02  0.24373284583E+02  0.50528867430E+02  0.30000023039E+02 0.  0.
        -12    1    1    2    0    0 -0.27840246771E+02 -0.16853151626E+02 -0.24373284583E+02  0.40659132570E+02  0.00000000000E+00 0.  1.
         11    1    3    3    0    0  0.18136728387E+02  0.12211930423E+00  0.12050596423E+02  0.21775506978E+02  0.51100000000E-03 0. -1.
        -11    1    3    3    0    0  0.68164132596E+01  0.13387726496E+02 -0.66213462241E+00  0.15037723663E+02  0.51100000000E-03 0.  1.
        -12    1    3    3    0    0  0.28871051244E+01  0.33433058257E+01  0.12984822782E+02  0.13715636789E+02  0.00000000000E+00 0.  1.
</event>
<event>
 7    1  0.5155466E-011  0.5052886E+02  0.7816164E-02  0.1300439E+00
        -11   -1    0    0    0    0  0.00000000000E+00  0.00000000000E+00  0.45593999997E+02  0.45594000000E+02  0.51100000000E-03 0.  1.
         11   -1    0    0    0    0 -0.00000000000E+00 -0.00000000000E+00 -0.45593999997E+02  0.45594000000E+02  0.51100000000E-03 0. -1.
    9900012    2    1    2    0    0 -0.22177620891E+02  0.52598605967E+01 -0.33669758993E+02  0.50528859914E+02  0.30000000194E+02 0.  0.
        -12    1    1    2    0    0  0.22177620891E+02 -0.52598605967E+01  0.33669758993E+02  0.40659140086E+02  0.00000000000E+00 0.  1.
         11    1    3    3    0    0  0.31291424750E+01  0.46966115783E+01 -0.39284360794E+01  0.68762128557E+01  0.51100000000E-03 0. -1.
        -11    1    3    3    0    0 -0.17243176204E+02 -0.88055130948E+01 -0.20659813694E+02  0.28314167630E+02  0.51100000000E-03 0.  1.
        -12    1    3    3    0    0 -0.80635871621E+01  0.93687621131E+01 -0.90815092201E+01  0.15338479428E+02  0.00000000000E+00 0.  1.
</event>
<event>
 7    1  0.5155466E-011  0.5052884E+02  0.7816164E-02  0.1300439E+00
        -11   -1    0    0    0    0  0.00000000000E+00  0.00000000000E+00  0.45593999997E+02  0.45594000000E+02  0.51100000000E-03 0.  1.
         11   -1    0    0    0    0 -0.00000000000E+00 -0.00000000000E+00 -0.45593999997E+02  0.45594000000E+02  0.51100000000E-03 0. -1.
    9900012    2    1    2    0    0 -0.96610597128E+00 -0.36727192751E+02 -0.17416875421E+02  0.50528836241E+02  0.29999928239E+02 0.  0.
        -12    1    1    2    0    0  0.96610597128E+00  0.36727192751E+02  0.17416875421E+02  0.40659163759E+02  0.00000000000E+00 0.  1.
         11    1    3    3    0    0 -0.27744446047E+01 -0.18736942641E+01  0.51630635131E+01  0.61534947925E+01  0.51100000000E-03 0.  1.
        -11    1    3    3    0    0  0.64045206033E+01 -0.26510894615E+02 -0.11067806183E+02  0.29433683959E+02  0.51100000000E-03 0. -1.
        -12    1    3    3    0    0 -0.45961819699E+01 -0.83426038723E+01 -0.11512132750E+02  0.14941657489E+02  0.00000000000E+00 0.  1.
</event>
<event>
 7    1  0.5155466E-011  0.5052886E+02  0.7816164E-02  0.1300439E+00
        -11   -1    0    0    0    0  0.00000000000E+00  0.00000000000E+00  0.45593999997E+02  0.45594000000E+02  0.51100000000E-03 0. -1.
         11   -1    0    0    0    0 -0.00000000000E+00 -0.00000000000E+00 -0.45593999997E+02  0.45594000000E+02  0.51100000000E-03 0.  1.
    9900012    2    1    2    0    0 -0.37971183099E+02 -0.12283135377E+02  0.77768575773E+01  0.50528859891E+02  0.30000000126E+02 0.  0.
        -12    1    1    2    0    0  0.37971183099E+02  0.12283135377E+02 -0.77768575773E+01  0.40659140109E+02  0.00000000000E+00 0.  1.
         11    1    3    3    0    0 -0.29095951267E+02 -0.95465894426E+01  0.30889711115E+01  0.30777483538E+02  0.51100000000E-03 0. -1.
        -11    1    3    3    0    0 -0.88668339921E+01  0.31134707372E+01  0.85797548427E+01  0.12725039823E+02  0.51100000000E-03 0.  1.
        -12    1    3    3    0    0 -0.83978390741E-02 -0.58500166714E+01 -0.38918683768E+01  0.70263365306E+01  0.00000000000E+00 0.  1.
</event>
<event>
 7    1  0.5155466E-011  0.5052885E+02  0.7816164E-02  0.1300439E+00
        -11   -1    0    0    0    0  0.00000000000E+00  0.00000000000E+00  0.45593999997E+02  0.45594000000E+02  0.51100000000E-03 0.  1.
         11   -1    0    0    0    0 -0.00000000000E+00 -0.00000000000E+00 -0.45593999997E+02  0.45594000000E+02  0.51100000000E-03 0. -1.
    9900012    2    1    2    0    0  0.48700569988E+01  0.12995054874E+02 -0.38217502739E+02  0.50528850698E+02  0.29999972182E+02 0.  0.
        -12    1    1    2    0    0 -0.48700569988E+01 -0.12995054874E+02  0.38217502739E+02  0.40659149302E+02  0.00000000000E+00 0.  1.
         11    1    3    3    0    0  0.13509232109E+02  0.57157138282E+01 -0.23066182266E+02  0.27335279426E+02  0.51100000000E-03 0. -1.
        -11    1    3    3    0    0 -0.61720822377E+01  0.52382987707E+01 -0.17460470336E+02  0.19245841051E+02  0.51100000000E-03 0.  1.
         12    1    3    3    0    0 -0.24670928728E+01  0.20410422747E+01  0.23091498622E+01  0.39477302208E+01  0.00000000000E+00 0. -1.
</event>
<event>
 7    1  0.5552597E-011  0.5052885E+02  0.7816164E-02  0.1300439E+00
        -11   -1    0    0    0    0  0.00000000000E+00  0.00000000000E+00  0.45593999997E+02  0.45594000000E+02  0.51100000000E-03 0. -1.
         11   -1    0    0    0    0 -0.00000000000E+00 -0.00000000000E+00 -0.45593999997E+02  0.45594000000E+02  0.51100000000E-03 0.  1.
    9900012    2    1    2    0    0  0.43240845036E+01  0.35842532311E+02  0.18702458978E+02  0.50528846036E+02  0.29999958011E+02 0.  0.
        -12    1    1    2    0    0 -0.43240845036E+01 -0.35842532311E+02 -0.18702458978E+02  0.40659153964E+02  0.00000000000E+00 0.  1.
         11    1    3    3    0    0  0.64811773895E+01  0.35539639009E+02  0.10769006314E+02  0.37696725302E+02  0.51100000000E-03 0. -1.
        -11    1    3    3    0    0  0.27438334125E+01 -0.29569311041E+01  0.21110147400E+01  0.45528504087E+01  0.51100000000E-03 0.  1.
        -12    1    3    3    0    0 -0.49009262984E+01  0.32598244057E+01  0.58224379241E+01  0.82792703252E+01  0.00000000000E+00 0.  1.
</event>
<event>
 7    1  0.5155466E-011  0.5052886E+02  0.7816164E-02  0.1300439E+00
        -11   -1    0    0    0    0  0.00000000000E+00  0.00000000000E+00  0.45593999997E+02  0.45594000000E+02  0.51100000000E-03 0. -1.
         11   -1    0    0    0    0 -0.00000000000E+00 -0.00000000000E+00 -0.45593999997E+02  0.45594000000E+02  0.51100000000E-03 0.  1.
    9900012    2    1    2    0    0 -0.31222678636E+01  0.69591604236E+01  0.39937289518E+02  0.50528861243E+02  0.30000004233E+02 0.  0.
        -12    1    1    2    0    0  0.31222678636E+01 -0.69591604236E+01 -0.39937289518E+02  0.40659138757E+02  0.00000000000E+00 0.  1.
         11    1    3    3    0    0  0.13158442468E+01  0.31970180692E+01  0.30343734933E+02  0.30540049452E+02  0.51100000000E-03 0. -1.
        -11    1    3    3    0    0 -0.74785505420E+01 -0.39025890527E+01  0.79283546029E+01  0.11576602545E+02  0.51100000000E-03 0.  1.
         12    1    3    3    0    0  0.30404384316E+01  0.76647314071E+01  0.16651999828E+01  0.84122092451E+01  0.00000000000E+00 0. -1.
</event>
<event>
 7    1  0.5155466E-011  0.5052883E+02  0.7816164E-02  0.1300439E+00
        -11   -1    0    0    0    0  0.00000000000E+00  0.00000000000E+00  0.45593999997E+02  0.45594000000E+02  0.51100000000E-03 0. -1.
         11   -1    0    0    0    0 -0.00000000000E+00 -0.00000000000E+00 -0.45593999997E+02  0.45594000000E+02  0.51100000000E-03 0.  1.
    9900012    2    1    2    0    0 -0.17200372932E+02 -0.26128241678E+02  0.25973652632E+02  0.50528825472E+02  0.29999895506E+02 0.  0.
        -12    1    1    2    0    0  0.17200372932E+02  0.26128241678E+02 -0.25973652632E+02  0.40659174528E+02  0.00000000000E+00 0.  1.
         11    1    3    3    0    0  0.42756834776E+01 -0.63977802112E+01  0.12690830230E+02  0.14841503732E+02  0.51100000000E-03 0. -1.
        -11    1    3    3    0    0 -0.16868540619E+02 -0.50557036543E+01  0.86762329952E+01  0.19631220576E+02  0.51100000000E-03 0.  1.
         12    1    3    3    0    0 -0.46075157905E+01 -0.14674757813E+02  0.46065894065E+01  0.16056101164E+02  0.00000000000E+00 0. -1.
</event>
<event>
 7    1  0.5155466E-011  0.5052886E+02  0.7816164E-02  0.1300439E+00
        -11   -1    0    0    0    0  0.00000000000E+00  0.00000000000E+00  0.45593999997E+02  0.45594000000E+02  0.51100000000E-03 0.  1.
         11   -1    0    0    0    0 -0.00000000000E+00 -0.00000000000E+00 -0.45593999997E+02  0.45594000000E+02  0.51100000000E-03 0. -1.
    9900012    2    1    2    0    0 -0.11590374740E+02 -0.28312132900E+02 -0.26781560343E+02  0.50528860432E+02  0.30000001769E+02 0.  0.
        -12    1    1    2    0    0  0.11590374740E+02  0.28312132900E+02  0.26781560343E+02  0.40659139568E+02  0.00000000000E+00 0.  1.
         11    1    3    3    0    0 -0.19208835403E+02 -0.89916312071E+01 -0.15959314311E+02  0.26542955804E+02  0.51100000000E-03 0. -1.
        -11    1    3    3    0    0  0.53727278842E+01 -0.14302883667E+02 -0.10379476591E+02  0.18470847860E+02  0.51100000000E-03 0.  1.
         12    1    3    3    0    0  0.22457327785E+01 -0.50176180260E+01 -0.44276944183E+00  0.55150567673E+01  0.00000000000E+00 0. -1.
</event>
<event>
 7    1  0.5155466E-011  0.5052886E+02  0.7816164E-02  0.1300439E+00
        -11   -1    0    0    0    0  0.00000000000E+00  0.00000000000E+00  0.45593999997E+02  0.45594000000E+02  0.51100000000E-03 0. -1.
         11   -1    0    0    0    0 -0.00000000000E+00 -0.00000000000E+00 -0.45593999997E+02  0.45594000000E+02  0.51100000000E-03 0.  1.
    9900012    2    1    2    0    0 -0.30490647073E+02  0.23399583655E+02 -0.13264438549E+02  0.50528863214E+02  0.30000010225E+02 0.  0.
        -12    1    1    2    0    0  0.30490647073E+02 -0.23399583655E+02  0.13264438549E+02  0.40659136786E+02  0.00000000000E+00 0.  1.
         11    1    3    3    0    0 -0.58413618732E+01  0.15073964329E+02  0.22651165235E-01  0.16166212372E+02  0.51100000000E-03 0. -1.
        -11    1    3    3    0    0 -0.22651064350E+02  0.47655250110E+00 -0.13283787536E+02  0.26263222004E+02  0.51100000000E-03 0.  1.
        -12    1    3    3    0    0 -0.19982208502E+01  0.78490668254E+01 -0.33021782213E-02  0.80994288379E+01  0.00000000000E+00 0.  1.
</event>
<event>
 7    1  0.5155466E-011  0.5052886E+02  0.7816164E-02  0.1300439E+00
        -11   -1    0    0    0    0  0.00000000000E+00  0.00000000000E+00  0.45593999997E+02  0.45594000000E+02  0.51100000000E-03 0. -1.
         11   -1    0    0    0    0 -0.00000000000E+00 -0.00000000000E+00 -0.45593999997E+02  0.45594000000E+02  0.51100000000E-03 0.  1.
    9900012    2    1    2    0    0  0.12178921007E+02  0.38393631621E+02  0.55469257195E+01  0.50528862640E+02  0.30000008481E+02 0.  0.
        -12    1    1    2    0    0 -0.12178921007E+02 -0.38393631621E+02 -0.55469257195E+01  0.40659137360E+02  0.00000000000E+00 0.  1.
         11    1    3    3    0    0  0.64798604025E+01  0.60136434631E+00  0.84900612609E+00  0.65628531582E+01  0.51100000000E-03 0. -1.
        -11    1    3    3    0    0  0.99110523293E+01  0.27136722672E+02 -0.45443996271E+01  0.29245208904E+02  0.51100000000E-03 0.  1.
        -12    1    3    3    0    0 -0.42119917251E+01  0.10655544603E+02  0.92423192205E+01  0.14720800578E+02  0.00000000000E+00 0.  1.
</event>
<event>
 7    1  0.7784847E-011  0.5052884E+02  0.7816164E-02  0.1300439E+00
        -11   -1    0    0    0    0  0.00000000000E+00  0.00000000000E+00  0.45593999997E+02  0.45594000000E+02  0.51100000000E-03 0. -1.
         11   -1    0    0    0    0 -0.00000000000E+00 -0.00000000000E+00 -0.45593999997E+02  0.45594000000E+02  0.51100000000E-03 0.  1.
    9900012    2    1    2    0    0  0.71051796758E+01  0.19683154088E+02  0.34860541885E+02  0.50528837274E+02  0.29999931377E+02 0.  0.
        -12    1    1    2    0    0 -0.71051796758E+01 -0.19683154088E+02 -0.34860541885E+02  0.40659162726E+02  0.00000000000E+00 0.  1.
         11    1    3    3    0    0  0.91683521009E+01  0.11188983867E+02  0.15306020530E+02  0.21060064220E+02  0.51100000000E-03 0. -1.
        -11    1    3    3    0    0 -0.54164081343E+01  0.82592241783E+01  0.25650616404E+00  0.98801850579E+01  0.51100000000E-03 0.  1.
        -12    1    3    3    0    0  0.33532357092E+01  0.23494604291E+00  0.19298015191E+02  0.19588587996E+02  0.00000000000E+00 0.  1.
</event>
<event>
 7    1  0.5382977E-011  0.5052888E+02  0.7816164E-02  0.1300439E+00
        -11   -1    0    0    0    0  0.00000000000E+00  0.00000000000E+00  0.45593999997E+02  0.45594000000E+02  0.51100000000E-03 0. -1.
         11   -1    0    0    0    0 -0.00000000000E+00 -0.00000000000E+00 -0.45593999997E+02  0.45594000000E+02  0.51100000000E-03 0.  1.
    9900012    2    1    2    0    0 -0.20925990384E+02 -0.17120885119E+01  0.34818611691E+02  0.50528879981E+02  0.30000061189E+02 0.  0.
        -12    1    1    2    0    0  0.20925990384E+02  0.17120885119E+01 -0.34818611691E+02  0.40659120019E+02  0.00000000000E+00 0.  1.
         11    1    3    3    0    0 -0.13112779136E+02 -0.22338993748E+01  0.22718954726E+02  0.26326530102E+02  0.51100000000E-03 0. -1.
        -11    1    3    3    0    0 -0.64531409353E+01 -0.25534978173E+01 -0.38265551449E+01  0.79250175755E+01  0.51100000000E-03 0.  1.
        -12    1    3    3    0    0 -0.13600703126E+01  0.30753086802E+01  0.15926212110E+02  0.16277332303E+02  0.00000000000E+00 0.  1.
</event>
<event>
 7    1  0.5155466E-011  0.5052884E+02  0.7816164E-02  0.1300439E+00
        -11   -1    0    0    0    0  0.00000000000E+00  0.00000000000E+00  0.45593999997E+02  0.45594000000E+02  0.51100000000E-03 0. -1.
         11   -1    0    0    0    0 -0.00000000000E+00 -0.00000000000E+00 -0.45593999997E+02  0.45594000000E+02  0.51100000000E-03 0.  1.
    9900012    2    1    2    0    0  0.40528455070E+02 -0.14314654955E+01  0.29261143640E+01  0.50528844708E+02  0.29999953973E+02 0.  0.
        -12    1    1    2    0    0 -0.40528455070E+02  0.14314654955E+01 -0.29261143640E+01  0.40659155292E+02  0.00000000000E+00 0.  1.
         11    1    3    3    0    0  0.60107569793E+00 -0.47023812145E+01  0.48514642768E+01  0.67830956776E+01  0.51100000000E-03 0. -1.
        -11    1    3    3    0    0  0.35436898323E+02 -0.29808312988E+01  0.82556002720E+00  0.35571627284E+02  0.51100000000E-03 0.  1.
        -12    1    3    3    0    0  0.44904810488E+01  0.62517470178E+01 -0.27509099400E+01  0.81741217462E+01  0.00000000000E+00 0.  1.
</event>
<event>
 7    1  0.5155466E-011  0.5052886E+02  0.7816164E-02  0.1300439E+00
        -11   -1    0    0    0    0  0.00000000000E+00  0.00000000000E+00  0.45593999997E+02  0.45594000000E+02  0.51100000000E-03 0.  1.
         11   -1    0    0    0    0 -0.00000000000E+00 -0.00000000000E+00 -0.45593999997E+02  0.45594000000E+02  0.51100000000E-03 0. -1.
    9900012    2    1    2    0    0  0.29444675622E+02 -0.27988422636E+02 -0.16806371566E+01  0.50528864921E+02  0.30000015413E+02 0.  0.
        -12    1    1    2    0    0 -0.29444675622E+02  0.27988422636E+02  0.16806371566E+01  0.40659135079E+02  0.00000000000E+00 0.  1.
         11    1    3    3    0    0  0.18068112234E+02 -0.25897372599E+02 -0.63929112091E+01  0.32218005854E+02  0.51100000000E-03 0. -1.
        -11    1    3    3    0    0  0.10187067639E+02  0.23455301575E+01  0.75650419312E+01  0.12903786982E+02  0.51100000000E-03 0.  1.
        -12    1    3    3    0    0  0.11894957502E+01 -0.44365801944E+01 -0.28527678786E+01  0.54070720848E+01  0.00000000000E+00 0.  1.
</event>
<event>
 7    1  0.5155466E-011  0.5052886E+02  0.7816164E-02  0.1300439E+00
        -11   -1    0    0    0    0  0.00000000000E+00  0.00000000000E+00  0.45593999997E+02  0.45594000000E+02  0.51100000000E-03 0.  1.
         11   -1    0    0    0    0 -0.00000000000E+00 -0.00000000000E+00 -0.45593999997E+02  0.45594000000E+02  0.51100000000E-03 0. -1.
    9900012    2    1    2    0    0  0.13565294256E+02  0.36935003157E+02 -0.10244724680E+02  0.50528855269E+02  0.29999986075E+02 0.  0.
        -12    1    1    2    0    0 -0.13565294256E+02 -0.36935003157E+02  0.10244724680E+02  0.40659144731E+02  0.00000000000E+00 0.  1.
         11    1    3    3    0    0  0.11688985322E+02  0.39779741827E+01 -0.81312205485E+01  0.14784228229E+02  0.51100000000E-03 0. -1.
        -11    1    3    3    0    0  0.29455707547E+01  0.31424623479E+02  0.15836732376E+01  0.31602078556E+02  0.51100000000E-03 0.  1.
        -12    1    3    3    0    0 -0.10692618200E+01  0.15324054958E+01 -0.36971773695E+01  0.41425484843E+01  0.00000000000E+00 0.  1.
</event>
<event>
 7    1  0.5155466E-011  0.5052886E+02  0.7816164E-02  0.1300439E+00
        -11   -1    0    0    0    0  0.00000000000E+00  0.00000000000E+00  0.45593999997E+02  0.45594000000E+02  0.51100000000E-03 0.  1.
         11   -1    0    0    0    0 -0.00000000000E+00 -0.00000000000E+00 -0.45593999997E+02  0.45594000000E+02  0.51100000000E-03 0. -1.
    9900012    2    1    2    0    0 -0.10926326882E+02  0.20821524340E+02 -0.33169949177E+02  0.50528855599E+02  0.29999987079E+02 0.  0.
        -12    1    1    2    0    0  0.10926326882E+02 -0.20821524340E+02  0.33169949177E+02  0.40659144401E+02  0.00000000000E+00 0.  1.
         11    1    3    3    0    0  0.29329583441E+01  0.33122291392E+01 -0.60463803138E+01  0.74921173029E+01  0.51100000000E-03 0. -1.
        -11    1    3    3    0    0 -0.92225084428E+01  0.17708951244E+02 -0.52071983170E+01  0.20634353169E+02  0.51100000000E-03 0.  1.
        -12    1    3    3    0    0 -0.46367767830E+01 -0.19965604229E+00 -0.21916370546E+02  0.22402385127E+02  0.00000000000E+00 0.  1.
</event>
<event>
 7    1  0.5155466E-011  0.5052887E+02  0.7816164E-02  0.1300439E+00
        -11   -1    0    0    0    0  0.00000000000E+00  0.00000000000E+00  0.45593999997E+02  0.45594000000E+02  0.51100000000E-03 0. -1.
         11   -1    0    0    0    0 -0.00000000000E+00 -0.00000000000E+00 -0.45593999997E+02  0.45594000000E+02  0.51100000000E-03 0.  1.
    9900012    2    1    2    0    0  0.15815442044E+01 -0.28440176778E+02  0.29014139106E+02  0.50528865660E+02  0.30000017659E+02 0.  0.
        -12    1    1    2    0    0 -0.15815442044E+01  0.28440176778E+02 -0.29014139106E+02  0.40659134340E+02  0.00000000000E+00 0.  1.
         11    1    3    3    0    0  0.59474581862E+01 -0.16793596228E+02  0.31345295876E+02  0.36054468613E+02  0.51100000000E-03 0. -1.
        -11    1    3    3    0    0 -0.65933797206E+00 -0.24505503921E+01 -0.36778984271E+01  0.44684293535E+01  0.51100000000E-03 0.  1.
         12    1    3    3    0    0 -0.37065760097E+01 -0.91960301581E+01  0.13467416568E+01  0.10005967693E+02  0.00000000000E+00 0. -1.
</event>
<event>
 7    1  0.5155466E-011  0.5052886E+02  0.7816164E-02  0.1300439E+00
        -11   -1    0    0    0    0  0.00000000000E+00  0.00000000000E+00  0.45593999997E+02  0.45594000000E+02  0.51100000000E-03 0.  1.
         11   -1    0    0    0    0 -0.00000000000E+00 -0.00000000000E+00 -0.45593999997E+02  0.45594000000E+02  0.51100000000E-03 0. -1.
    9900012    2    1    2    0    0  0.20767023935E+02  0.28551526174E+02 -0.20166971956E+02  0.50528859725E+02  0.29999999622E+02 0.  0.
        -12    1    1    2    0    0 -0.20767023935E+02 -0.28551526174E+02  0.20166971956E+02  0.40659140275E+02  0.00000000000E+00 0.  1.
         11    1    3    3    0    0  0.11302687800E+02  0.65308476860E+01  0.52414417424E+01  0.14066820351E+02  0.51100000000E-03 0.  1.
        -11    1    3    3    0    0  0.11511140770E+02  0.18980481580E+02 -0.19704695870E+02  0.29682319357E+02  0.51100000000E-03 0. -1.
        -12    1    3    3    0    0 -0.20468046338E+01  0.30401969079E+01 -0.57037178284E+01  0.67797200173E+01  0.00000000000E+00 0.  1.
</event>
<event>
 7    1  0.5155466E-011  0.5052885E+02  0.7816164E-02  0.1300439E+00
        -11   -1    0    0    0    0  0.00000000000E+00  0.00000000000E+00  0.45593999997E+02  0.45594000000E+02  0.51100000000E-03 0.  1.
         11   -1    0    0    0    0 -0.00000000000E+00 -0.00000000000E+00 -0.45593999997E+02  0.45594000000E+02  0.51100000000E-03 0. -1.
    9900012    2    1    2    0    0 -0.17202691227E+01 -0.62987844160E+01 -0.40131436209E+02  0.50528853635E+02  0.29999981108E+02 0.  0.
        -12    1    1    2    0    0  0.17202691227E+01  0.62987844160E+01  0.40131436209E+02  0.40659146365E+02  0.00000000000E+00 0.  1.
         11    1    3    3    0    0  0.33409938444E+01  0.36886189803E+01 -0.34715862053E+01  0.60679536000E+01  0.51100000000E-03 0. -1.
        -11    1    3    3    0    0  0.16710921739E+01 -0.15899160706E+02 -0.20656773984E+02  0.26120455048E+02  0.51100000000E-03 0.  1.
        -12    1    3    3    0    0 -0.67323551410E+01  0.59117573095E+01 -0.16003076019E+02  0.18340444987E+02  0.00000000000E+00 0.  1.
</event>
<event>
 7    1  0.5155466E-011  0.5052886E+02  0.7816164E-02  0.1300439E+00
        -11   -1    0    0    0    0  0.00000000000E+00  0.00000000000E+00  0.45593999997E+02  0.45594000000E+02  0.51100000000E-03 0.  1.
         11   -1    0    0    0    0 -0.00000000000E+00 -0.00000000000E+00 -0.45593999997E+02  0.45594000000E+02  0.51100000000E-03 0. -1.
    9900012    2    1    2    0    0  0.12357502695E+02  0.21033913968E+02 -0.32527404680E+02  0.50528862467E+02  0.30000007956E+02 0.  0.
        -12    1    1    2    0    0 -0.12357502695E+02 -0.21033913968E+02  0.32527404680E+02  0.40659137533E+02  0.00000000000E+00 0.  1.
         11    1    3    3    0    0 -0.63685082130E+01 -0.43301268838E+00 -0.27479054736E+01  0.69495598134E+01  0.51100000000E-03 0. -1.
        -11    1    3    3    0    0  0.19067491801E+02  0.22528123216E+02 -0.25023680045E+02  0.38694575104E+02  0.51100000000E-03 0.  1.
        -12    1    3    3    0    0 -0.34148089296E+00 -0.10611965595E+01 -0.47558191621E+01  0.48847275503E+01  0.00000000000E+00 0.  1.
</event>
<event>
 7    1  0.5155466E-011  0.5052887E+02  0.7816164E-02  0.1300439E+00
        -11   -1    0    0    0    0  0.00000000000E+00  0.00000000000E+00  0.45593999997E+02  0.45594000000E+02  0.51100000000E-03 0.  1.
         11   -1    0    0    0    0 -0.00000000000E+00 -0.00000000000E+00 -0.45593999997E+02  0.45594000000E+02  0.51100000000E-03 0. -1.
    9900012    2    1    2    0    0 -0.30571066064E+01  0.32509605214E+02 -0.24226937070E+02  0.50528870499E+02  0.30000032369E+02 0.  0.
        -12    1    1    2    0    0  0.30571066064E+01 -0.32509605214E+02  0.24226937070E+02  0.40659129501E+02  0.00000000000E+00 0.  1.
         11    1    3    3    0    0  0.69376622143E+01  0.24784189603E+02 -0.14782493152E+02  0.29680116498E+02  0.51100000000E-03 0. -1.
        -11    1    3    3    0    0 -0.18606140743E+01  0.96647258538E+00 -0.10039614824E+02  0.10256208855E+02  0.51100000000E-03 0.  1.
         12    1    3    3    0    0 -0.81341547464E+01  0.67589430252E+01  0.59517090636E+00  0.10592545146E+02  0.00000000000E+00 0. -1.
</event>
<event>
 7    1  0.5155466E-011  0.5052885E+02  0.7816164E-02  0.1300439E+00
        -11   -1    0    0    0    0  0.00000000000E+00  0.00000000000E+00  0.45593999997E+02  0.45594000000E+02  0.51100000000E-03 0. -1.
         11   -1    0    0    0    0 -0.00000000000E+00 -0.00000000000E+00 -0.45593999997E+02  0.45594000000E+02  0.51100000000E-03 0.  1.
    9900012    2    1    2    0    0 -0.16716089187E+02  0.31792820049E+02  0.19051385327E+02  0.50528851862E+02  0.29999975721E+02 0.  0.
        -12    1    1    2    0    0  0.16716089187E+02 -0.31792820049E+02 -0.19051385327E+02  0.40659148138E+02  0.00000000000E+00 0.  1.
         11    1    3    3    0    0 -0.18728345058E+02  0.21161515340E+02  0.80997171961E+01  0.29396701499E+02  0.51100000000E-03 0. -1.
        -11    1    3    3    0    0  0.47985632234E+01  0.68249832164E+01 -0.88528596828E+00  0.83898948992E+01  0.51100000000E-03 0.  1.
         12    1    3    3    0    0 -0.27863073529E+01  0.38063214927E+01  0.11836954099E+02  0.12742255464E+02  0.00000000000E+00 0. -1.
</event>
<event>
 7    1  0.5155466E-011  0.5052887E+02  0.7816164E-02  0.1300439E+00
        -11   -1    0    0    0    0  0.00000000000E+00  0.00000000000E+00  0.45593999997E+02  0.45594000000E+02  0.51100000000E-03 0.  1.
         11   -1    0    0    0    0 -0.00000000000E+00 -0.00000000000E+00 -0.45593999997E+02  0.45594000000E+02  0.51100000000E-03 0. -1.
    9900012    2    1    2    0    0 -0.14697446684E+02  0.23978065311E+02 -0.29363285472E+02  0.50528867092E+02  0.30000022012E+02 0.  0.
        -12    1    1    2    0    0  0.14697446684E+02 -0.23978065311E+02  0.29363285472E+02  0.40659132908E+02  0.00000000000E+00 0.  1.
         11    1    3    3    0    0 -0.50887203867E+01  0.12535494200E+02 -0.20129669416E+01  0.13677928432E+02  0.51100000000E-03 0.  1.
        -11    1    3    3    0    0 -0.13508259310E+02  0.80792172420E+01 -0.27514739608E+02  0.31698702131E+02  0.51100000000E-03 0. -1.
        -12    1    3    3    0    0  0.38995330124E+01  0.33633538689E+01  0.16442107669E+00  0.51522365292E+01  0.00000000000E+00 0.  1.
</event>
<event>
 7    1  0.5155466E-011  0.5052886E+02  0.7816164E-02  0.1300439E+00
        -11   -1    0    0    0    0  0.00000000000E+00  0.00000000000E+00  0.45593999997E+02  0.45594000000E+02  0.51100000000E-03 0.  1.
         11   -1    0    0    0    0 -0.00000000000E+00 -0.00000000000E+00 -0.45593999997E+02  0.45594000000E+02  0.51100000000E-03 0. -1.
    9900012    2    1    2    0    0  0.17571499780E+01 -0.66674861023E+01 -0.40070220572E+02  0.50528861745E+02  0.30000005760E+02 0.  0.
        -12    1    1    2    0    0 -0.17571499780E+01  0.66674861023E+01  0.40070220572E+02  0.40659138255E+02  0.00000000000E+00 0.  1.
         11    1    3    3    0    0  0.72567170006E+01 -0.22029954101E+00 -0.16547544838E+02  0.18070133202E+02  0.51100000000E-03 0. -1.
        -11    1    3    3    0    0 -0.62167685266E+01 -0.85797834680E+01 -0.19552061490E+01  0.10774215824E+02  0.51100000000E-03 0.  1.
        -12    1    3    3    0    0  0.71720150399E+00  0.21325969067E+01 -0.21567469585E+02  0.21684512719E+02  0.00000000000E+00 0.  1.
</event>
<event>
 7    1  0.5155466E-011  0.5052886E+02  0.7816164E-02  0.1300439E+00
        -11   -1    0    0    0    0  0.00000000000E+00  0.00000000000E+00  0.45593999997E+02  0.45594000000E+02  0.51100000000E-03 0. -1.
         11   -1    0    0    0    0 -0.00000000000E+00 -0.00000000000E+00 -0.45593999997E+02  0.45594000000E+02  0.51100000000E-03 0.  1.
    9900012    2    1    2    0    0 -0.33587050409E+02  0.20441075136E+02 -0.10355599895E+02  0.50528856415E+02  0.29999989559E+02 0.  0.
        -12    1    1    2    0    0  0.33587050409E+02 -0.20441075136E+02  0.10355599895E+02  0.40659143585E+02  0.00000000000E+00 0.  1.
         11    1    3    3    0    0 -0.29171053853E+02  0.18621438212E+02  0.10073157177E+01  0.34622579760E+02  0.51100000000E-03 0. -1.
        -11    1    3    3    0    0 -0.32762318201E+01 -0.38821062223E+01 -0.36875192972E+01  0.62771205571E+01  0.51100000000E-03 0.  1.
         12    1    3    3    0    0 -0.11397647352E+01  0.57017431465E+01 -0.76753963159E+01  0.96291560984E+01  0.00000000000E+00 0. -1.
</event>
<event>
 7    1  0.5155466E-011  0.5052887E+02  0.7816164E-02  0.1300439E+00
        -11   -1    0    0    0    0  0.00000000000E+00  0.00000000000E+00  0.45593999997E+02  0.45594000000E+02  0.51100000000E-03 0.  1.
         11   -1    0    0    0    0 -0.00000000000E+00 -0.00000000000E+00 -0.45593999997E+02  0.45594000000E+02  0.51100000000E-03 0. -1.
    9900012    2    1    2    0    0  0.19193921749E+02 -0.87576195444E+00 -0.35832827810E+02  0.50528866464E+02  0.30000020103E+02 0.  0.
        -12    1    1    2    0    0 -0.19193921749E+02  0.87576195444E+00  0.35832827810E+02  0.40659133536E+02  0.00000000000E+00 0.  1.
         11    1    3    3    0    0  0.20211761932E+02 -0.59497842226E+01 -0.23496387301E+02  0.31559395893E+02  0.51100000000E-03 0. -1.
        -11    1    3    3    0    0 -0.72279766189E+00  0.93712293479E+01 -0.10980312724E+02  0.14453706920E+02  0.51100000000E-03 0.  1.
        -12    1    3    3    0    0 -0.29504252112E+00 -0.42972070798E+01 -0.13561277842E+01  0.45157636501E+01  0.00000000000E+00 0.  1.
</event>
<event>
 7    1  0.5155466E-011  0.5052886E+02  0.7816164E-02  0.1300439E+00
        -11   -1    0    0    0    0  0.00000000000E+00  0.00000000000E+00  0.45593999997E+02  0.45594000000E+02  0.51100000000E-03 0.  1.
         11   -1    0    0    0    0 -0.00000000000E+00 -0.00000000000E+00 -0.45593999997E+02  0.45594000000E+02  0.51100000000E-03 0. -1.
    9900012    2    1    2    0    0 -0.39412755647E+02  0.16336559184E+01 -0.98555350002E+01  0.50528859460E+02  0.29999998813E+02 0.  0.
        -12    1    1    2    0    0  0.39412755647E+02 -0.16336559184E+01  0.98555350002E+01  0.40659140540E+02  0.00000000000E+00 0.  1.
         11    1    3    3    0    0 -0.17757059035E+01 -0.35406035838E+01 -0.40743863623E+01  0.56823964737E+01  0.51100000000E-03 0. -1.
        -11    1    3    3    0    0 -0.26485876879E+02  0.11151944792E+02  0.37832234917E+01  0.28985864261E+02  0.51100000000E-03 0.  1.
        -12    1    3    3    0    0 -0.11151172865E+02 -0.59776852902E+01 -0.95643721297E+01  0.15860598725E+02  0.00000000000E+00 0.  1.
</event>
<event>
 7    1  0.5155466E-011  0.5052886E+02  0.7816164E-02  0.1300439E+00
        -11   -1    0    0    0    0  0.00000000000E+00  0.00000000000E+00  0.45593999997E+02  0.45594000000E+02  0.51100000000E-03 0. -1.
         11   -1    0    0    0    0 -0.00000000000E+00 -0.00000000000E+00 -0.45593999997E+02  0.45594000000E+02  0.51100000000E-03 0.  1.
    9900012    2    1    2    0    0  0.17278330613E+02 -0.80843033151E+01  0.35906391045E+02  0.50528860970E+02  0.30000003403E+02 0.  0.
        -12    1    1    2    0    0 -0.17278330613E+02  0.80843033151E+01 -0.35906391045E+02  0.40659139030E+02  0.00000000000E+00 0.  1.
         11    1    3    3    0    0  0.18458865772E+02 -0.54626280058E+01  0.33956515723E+02  0.39033511124E+02  0.51100000000E-03 0. -1.
        -11    1    3    3    0    0 -0.16695151611E+01 -0.68610677380E+01  0.12187016996E+01  0.71656657382E+01  0.51100000000E-03 0.  1.
        -12    1    3    3    0    0  0.48898000190E+00  0.42393924287E+01  0.73117362162E+00  0.43296841076E+01  0.00000000000E+00 0.  1.
</event>
<event>
 7    1  0.5155466E-011  0.5052888E+02  0.7816164E-02  0.1300439E+00
        -11   -1    0    0    0    0  0.00000000000E+00  0.00000000000E+00  0.45593999997E+02  0.45594000000E+02  0.51100000000E-03 0.  1.
         11   -1    0    0    0    0 -0.00000000000E+00 -0.00000000000E+00 -0.45593999997E+02  0.45594000000E+02  0.51100000000E-03 0. -1.
    9900012    2    1    2    0    0  0.36696007112E+02 -0.46609421951E+01 -0.16877289345E+02  0.50528877828E+02  0.30000054647E+02 0.  0.
        -12    1    1    2    0    0 -0.36696007112E+02  0.46609421951E+01  0.16877289345E+02  0.40659122172E+02  0.00000000000E+00 0.  1.
         11    1    3    3    0    0  0.17701955723E+02 -0.14232023983E+02 -0.16050476359E+02  0.27812362983E+02  0.51100000000E-03 0. -1.
        -11    1    3    3    0    0  0.91078771684E+01  0.36688374595E+01  0.34885669907E+01  0.10420359626E+02  0.51100000000E-03 0.  1.
         12    1    3    3    0    0  0.98861742213E+01  0.59022443288E+01 -0.43153799759E+01  0.12296155220E+02  0.00000000000E+00 0. -1.
</event>
<event>
 7    1  0.5155466E-011  0.5052886E+02  0.7816164E-02  0.1300439E+00
        -11   -1    0    0    0    0  0.00000000000E+00  0.00000000000E+00  0.45593999997E+02  0.45594000000E+02  0.51100000000E-03 0.  1.
         11   -1    0    0    0    0 -0.00000000000E+00 -0.00000000000E+00 -0.45593999997E+02  0.45594000000E+02  0.51100000000E-03 0. -1.
    9900012    2    1    2    0    0  0.71664869692E+00 -0.90595758482E+01 -0.39630498786E+02  0.50528856699E+02  0.29999990423E+02 0.  0.
        -12    1    1    2    0    0 -0.71664869692E+00  0.90595758482E+01  0.39630498786E+02  0.40659143301E+02  0.00000000000E+00 0.  1.
         11    1    3    3    0    0 -0.21557291209E+01 -0.55176975459E+01 -0.32817550566E+02  0.33347920170E+02  0.51100000000E-03 0. -1.
        -11    1    3    3    0    0 -0.41572298425E+01  0.28352808622E+01  0.69415921606E+00  0.50796884559E+01  0.51100000000E-03 0.  1.
         12    1    3    3    0    0  0.70296076604E+01 -0.63771591644E+01 -0.75071074367E+01  0.12101248073E+02  0.00000000000E+00 0. -1.
</event>
<event>
 7    1  0.5155466E-011  0.5052886E+02  0.7816164E-02  0.1300439E+00
        -11   -1    0    0    0    0  0.00000000000E+00  0.00000000000E+00  0.45593999997E+02  0.45594000000E+02  0.51100000000E-03 0.  1.
         11   -1    0    0    0    0 -0.00000000000E+00 -0.00000000000E+00 -0.45593999997E+02  0.45594000000E+02  0.51100000000E-03 0. -1.
    9900012    2    1    2    0    0  0.64755193325E+00 -0.80373990895E+00 -0.40646036340E+02  0.50528860910E+02  0.30000003223E+02 0.  0.
        -12    1    1    2    0    0 -0.64755193325E+00  0.80373990895E+00  0.40646036340E+02  0.40659139090E+02  0.00000000000E+00 0.  1.
         11    1    3    3    0    0  0.31940989233E+01 -0.63774205371E+01 -0.18662596072E+02  0.19979145453E+02  0.51100000000E-03 0. -1.
        -11    1    3    3    0    0  0.24942665445E+01  0.98282432312E+01 -0.31860975926E+01  0.10628591098E+02  0.51100000000E-03 0.  1.
        -12    1    3    3    0    0 -0.50408135346E+01 -0.42545626031E+01 -0.18797342676E+02  0.19921124358E+02  0.00000000000E+00 0.  1.
</event>
<event>
 7    1  0.5155466E-011  0.5052886E+02  0.7816164E-02  0.1300439E+00
        -11   -1    0    0    0    0  0.00000000000E+00  0.00000000000E+00  0.45593999997E+02  0.45594000000E+02  0.51100000000E-03 0.  1.
         11   -1    0    0    0    0 -0.00000000000E+00 -0.00000000000E+00 -0.45593999997E+02  0.45594000000E+02  0.51100000000E-03 0. -1.
    9900012    2    1    2    0    0 -0.32436328627E+02 -0.17526130710E+02 -0.17143074354E+02  0.50528859935E+02  0.30000000259E+02 0.  0.
        -12    1    1    2    0    0  0.32436328627E+02  0.17526130710E+02  0.17143074354E+02  0.40659140065E+02  0.00000000000E+00 0.  1.
         11    1    3    3    0    0 -0.22743790238E+02 -0.35574039954E+01 -0.10047147253E+02  0.25117330387E+02  0.51100000000E-03 0. -1.
        -11    1    3    3    0    0 -0.13740415010E+01 -0.13225590635E+02 -0.99263955118E+01  0.16593298823E+02  0.51100000000E-03 0.  1.
        -12    1    3    3    0    0 -0.83184968882E+01 -0.74313607898E+00  0.28304684103E+01  0.88182307258E+01  0.00000000000E+00 0.  1.
</event>
<event>
 7    1  0.5672905E-011  0.5052885E+02  0.7816164E-02  0.1300439E+00
        -11   -1    0    0    0    0  0.00000000000E+00  0.00000000000E+00  0.45593999997E+02  0.45594000000E+02  0.51100000000E-03 0.  1.
         11   -1    0    0    0    0 -0.00000000000E+00 -0.00000000000E+00 -0.45593999997E+02  0.45594000000E+02  0.51100000000E-03 0. -1.
    9900012    2    1    2    0    0 -0.35022057272E+02 -0.17229954734E+02 -0.11390799047E+02  0.50528854182E+02  0.29999982773E+02 0.  0.
        -12    1    1    2    0    0  0.35022057272E+02  0.17229954734E+02  0.11390799047E+02  0.40659145818E+02  0.00000000000E+00 0.  1.
         11    1    3    3    0    0 -0.28309413270E+02 -0.15841480103E+02 -0.65774782237E+01  0.33100431894E+02  0.51100000000E-03 0. -1.
        -11    1    3    3    0    0 -0.44284842565E+01  0.17886182788E+01 -0.99112044383E+01  0.11001936277E+02  0.51100000000E-03 0.  1.
        -12    1    3    3    0    0 -0.22841597461E+01 -0.31770929091E+01  0.50978836155E+01  0.64264860115E+01  0.00000000000E+00 0.  1.
</event>
<event>
 7    1  0.5155466E-011  0.5052886E+02  0.7816164E-02  0.1300439E+00
        -11   -1    0    0    0    0  0.00000000000E+00  0.00000000000E+00  0.45593999997E+02  0.45594000000E+02  0.51100000000E-03 0. -1.
         11   -1    0    0    0    0 -0.00000000000E+00 -0.00000000000E+00 -0.45593999997E+02  0.45594000000E+02  0.51100000000E-03 0.  1.
    9900012    2    1    2    0    0 -0.15174213489E+02 -0.43808132684E+01  0.37466220248E+02  0.50528856630E+02  0.29999990211E+02 0.  0.
        -12    1    1    2    0    0  0.15174213489E+02  0.43808132684E+01 -0.37466220248E+02  0.40659143370E+02  0.00000000000E+00 0.  1.
         11    1    3    3    0    0 -0.12846195377E+01  0.80371484135E+01  0.34145421221E+01  0.88263865847E+01  0.51100000000E-03 0. -1.
        -11    1    3    3    0    0 -0.82639264099E+01 -0.14433678648E+02  0.17676787285E+02  0.24271225103E+02  0.51100000000E-03 0.  1.
        -12    1    3    3    0    0 -0.56256675414E+01  0.20157169655E+01  0.16374890841E+02  0.17431244942E+02  0.00000000000E+00 0.  1.
</event>
<event>
 7    1  0.5155466E-011  0.5052886E+02  0.7816164E-02  0.1300439E+00
        -11   -1    0    0    0    0  0.00000000000E+00  0.00000000000E+00  0.45593999997E+02  0.45594000000E+02  0.51100000000E-03 0. -1.
         11   -1    0    0    0    0 -0.00000000000E+00 -0.00000000000E+00 -0.45593999997E+02  0.45594000000E+02  0.51100000000E-03 0.  1.
    9900012    2    1    2    0    0 -0.13252122272E+02  0.46256977546E+01  0.38159531703E+02  0.50528859770E+02  0.29999999757E+02 0.  0.
        -12    1    1    2    0    0  0.13252122272E+02 -0.46256977546E+01 -0.38159531703E+02  0.40659140230E+02  0.00000000000E+00 0.  1.
         11    1    3    3    0    0 -0.17371262392E+02  0.14133265463E+01  0.24381869124E+02  0.29970548732E+02  0.51100000000E-03 0. -1.
        -11    1    3    3    0    0  0.89579656388E+01  0.83112237156E+00  0.51003404647E+01  0.10341633619E+02  0.51100000000E-03 0.  1.
        -12    1    3    3    0    0 -0.48388255184E+01  0.23812488367E+01  0.86773221143E+01  0.10216677420E+02  0.00000000000E+00 0.  1.
</event>
<event>
 7    1  0.6176388E-011  0.5052886E+02  0.7816164E-02  0.1300439E+00
        -11   -1    0    0    0    0  0.00000000000E+00  0.00000000000E+00  0.45593999997E+02  0.45594000000E+02  0.51100000000E-03 0.  1.
         11   -1    0    0    0    0 -0.00000000000E+00 -0.00000000000E+00 -0.45593999997E+02  0.45594000000E+02  0.51100000000E-03 0. -1.
    9900012    2    1    2    0    0 -0.23035985457E+01  0.39853445682E+02  0.77176576392E+01  0.50528856644E+02  0.29999990256E+02 0.  0.
        -12    1    1    2    0    0  0.23035985457E+01 -0.39853445682E+02 -0.77176576392E+01  0.40659143356E+02  0.00000000000E+00 0.  1.
         11    1    3    3    0    0 -0.10025707152E+02  0.35156431834E+02  0.65985414414E+01  0.37148758426E+02  0.51100000000E-03 0. -1.
        -11    1    3    3    0    0  0.12026444781E+01 -0.18041748784E+01  0.32715448864E+01  0.39248448297E+01  0.51100000000E-03 0.  1.
        -12    1    3    3    0    0  0.65194641283E+01  0.65011887266E+01 -0.21524286885E+01  0.94552533883E+01  0.00000000000E+00 0.  1.
</event>
<event>
 7    1  0.5155466E-011  0.5052886E+02  0.7816164E-02  0.1300439E+00
        -11   -1    0    0    0    0  0.00000000000E+00  0.00000000000E+00  0.45593999997E+02  0.45594000000E+02  0.51100000000E-03 0.  1.
         11   -1    0    0    0    0 -0.00000000000E+00 -0.00000000000E+00 -0.45593999997E+02  0.45594000000E+02  0.51100000000E-03 0. -1.
    9900012    2    1    2    0    0  0.15319406359E+02 -0.13511221000E+02 -0.35155768703E+02  0.50528863546E+02  0.30000011234E+02 0.  0.
        -12    1    1    2    0    0 -0.15319406359E+02  0.13511221000E+02  0.35155768703E+02  0.40659136454E+02  0.00000000000E+00 0.  1.
         11    1    3    3    0    0  0.14985042532E+02  0.25334576365E+00 -0.24881704595E+02  0.29046771036E+02  0.51100000000E-03 0. -1.
        -11    1    3    3    0    0 -0.13477620715E+01 -0.13015417922E+02 -0.22843336910E+01  0.13282911840E+02  0.51100000000E-03 0.  1.
        -12    1    3    3    0    0  0.16821258983E+01 -0.74914884138E+00 -0.79897304168E+01  0.81991806699E+01  0.00000000000E+00 0.  1.
</event>
<event>
 7    1  0.5155466E-011  0.5052886E+02  0.7816164E-02  0.1300439E+00
        -11   -1    0    0    0    0  0.00000000000E+00  0.00000000000E+00  0.45593999997E+02  0.45594000000E+02  0.51100000000E-03 0.  1.
         11   -1    0    0    0    0 -0.00000000000E+00 -0.00000000000E+00 -0.45593999997E+02  0.45594000000E+02  0.51100000000E-03 0. -1.
    9900012    2    1    2    0    0 -0.36771593246E+02 -0.88423813450E+01 -0.14927420052E+02  0.50528860226E+02  0.30000001144E+02 0.  0.
        -12    1    1    2    0    0  0.36771593246E+02  0.88423813450E+01  0.14927420052E+02  0.40659139774E+02  0.00000000000E+00 0.  1.
         11    1    3    3    0    0 -0.20019824424E+02  0.76408193980E+01 -0.14855814395E+02  0.26074330531E+02  0.51100000000E-03 0. -1.
        -11    1    3    3    0    0 -0.12147542404E+02 -0.81343012869E+01  0.18263985451E+01  0.14733138694E+02  0.51100000000E-03 0.  1.
         12    1    3    3    0    0 -0.46042264180E+01 -0.83488994561E+01 -0.18980042024E+01  0.97213910007E+01  0.00000000000E+00 0. -1.
</event>
<event>
 7    1  0.5155466E-011  0.5052887E+02  0.7816164E-02  0.1300439E+00
        -11   -1    0    0    0    0  0.00000000000E+00  0.00000000000E+00  0.45593999997E+02  0.45594000000E+02  0.51100000000E-03 0. -1.
         11   -1    0    0    0    0 -0.00000000000E+00 -0.00000000000E+00 -0.45593999997E+02  0.45594000000E+02  0.51100000000E-03 0.  1.
    9900012    2    1    2    0    0  0.14505069298E+02 -0.13972356563E+02  0.35320547595E+02  0.50528869837E+02  0.30000030355E+02 0.  0.
        -12    1    1    2    0    0 -0.14505069298E+02  0.13972356563E+02 -0.35320547595E+02  0.40659130163E+02  0.00000000000E+00 0.  1.
         11    1    3    3    0    0  0.14796395413E+02  0.72783282994E+00  0.65229568949E+01  0.16186785498E+02  0.51100000000E-03 0. -1.
        -11    1    3    3    0    0 -0.58472228404E+01 -0.62373452260E+01  0.12111356234E+02  0.14824960051E+02  0.51100000000E-03 0.  1.
         12    1    3    3    0    0  0.55558967246E+01 -0.84628441669E+01  0.16686234466E+02  0.19517124287E+02  0.00000000000E+00 0. -1.
</event>
<event>
 7    1  0.5155466E-011  0.5052886E+02  0.7816164E-02  0.1300439E+00
        -11   -1    0    0    0    0  0.00000000000E+00  0.00000000000E+00  0.45593999997E+02  0.45594000000E+02  0.51100000000E-03 0.  1.
         11   -1    0    0    0    0 -0.00000000000E+00 -0.00000000000E+00 -0.45593999997E+02  0.45594000000E+02  0.51100000000E-03 0. -1.
    9900012    2    1    2    0    0  0.35150101663E+02  0.18535996061E+02 -0.86054065201E+01  0.50528858122E+02  0.29999994747E+02 0.  0.
        -12    1    1    2    0    0 -0.35150101663E+02 -0.18535996061E+02  0.86054065201E+01  0.40659141878E+02  0.00000000000E+00 0.  1.
         11    1    3    3    0    0  0.86854965661E+01  0.14025872217E+02  0.20240437433E+01  0.16621061801E+02  0.51100000000E-03 0. -1.
        -11    1    3    3    0    0  0.23195613417E+02 -0.22035003186E+01 -0.12164650971E+02  0.26284417987E+02  0.51100000000E-03 0.  1.
        -12    1    3    3    0    0  0.32689916804E+01  0.67136241627E+01  0.15352007077E+01  0.76233783336E+01  0.00000000000E+00 0.  1.
</event>
<event>
 7    1  0.5155466E-011  0.5052879E+02  0.7816164E-02  0.1300439E+00
        -11   -1    0    0    0    0  0.00000000000E+00  0.00000000000E+00  0.45593999997E+02  0.45594000000E+02  0.51100000000E-03 0.  1.
         11   -1    0    0    0    0 -0.00000000000E+00 -0.00000000000E+00 -0.45593999997E+02  0.45594000000E+02  0.51100000000E-03 0. -1.
    9900012    2    1    2    0    0  0.24549852045E+02  0.75792459840E+01 -0.31512402719E+02  0.50528785420E+02  0.29999773762E+02 0.  0.
        -12    1    1    2    0    0 -0.24549852045E+02 -0.75792459840E+01  0.31512402719E+02  0.40659214580E+02  0.00000000000E+00 0.  1.
         11    1    3    3    0    0  0.76277373518E+01 -0.22283601785E+00 -0.46246126028E+01  0.89229521452E+01  0.51100000000E-03 0. -1.
        -11    1    3    3    0    0  0.56348955563E+01 -0.28045432218E+00 -0.27140652991E+02  0.27720854020E+02  0.51100000000E-03 0.  1.
        -12    1    3    3    0    0  0.11287219137E+02  0.80825363241E+01  0.25286287444E+00  0.13884979255E+02  0.00000000000E+00 0.  1.
</event>
<event>
 7    1  0.5155466E-011  0.5052886E+02  0.7816164E-02  0.1300439E+00
        -11   -1    0    0    0    0  0.00000000000E+00  0.00000000000E+00  0.45593999997E+02  0.45594000000E+02  0.51100000000E-03 0.  1.
         11   -1    0    0    0    0 -0.00000000000E+00 -0.00000000000E+00 -0.45593999997E+02  0.45594000000E+02  0.51100000000E-03 0. -1.
    9900012    2    1    2    0    0  0.72989166336E+01  0.10768618030E+02 -0.38521788152E+02  0.50528862273E+02  0.30000007365E+02 0.  0.
        -12    1    1    2    0    0 -0.72989166336E+01 -0.10768618030E+02  0.38521788152E+02  0.40659137727E+02  0.00000000000E+00 0.  1.
         11    1    3    3    0    0 -0.12608505857E+01  0.38622316247E+01 -0.14630677708E+02  0.15184311238E+02  0.51100000000E-03 0. -1.
        -11    1    3    3    0    0  0.16075243022E+02  0.87202287967E+01 -0.16036793908E+02  0.24323539783E+02  0.51100000000E-03 0.  1.
        -12    1    3    3    0    0 -0.75154758024E+01 -0.18138423916E+01 -0.78543165361E+01  0.11021011252E+02  0.00000000000E+00 0.  1.
</event>
<event>
 7    1  0.5155466E-011  0.5052884E+02  0.7816164E-02  0.1300439E+00
        -11   -1    0    0    0    0  0.00000000000E+00  0.00000000000E+00  0.45593999997E+02  0.45594000000E+02  0.51100000000E-03 0.  1.
         11   -1    0    0    0    0 -0.00000000000E+00 -0.00000000000E+00 -0.45593999997E+02  0.45594000000E+02  0.51100000000E-03 0. -1.
    9900012    2    1    2    0    0 -0.84861668731E+01 -0.36404161334E+02 -0.15996530904E+02  0.50528843693E+02  0.29999950890E+02 0.  0.
        -12    1    1    2    0    0  0.84861668731E+01  0.36404161334E+02  0.15996530904E+02  0.40659156307E+02  0.00000000000E+00 0.  1.
         11    1    3    3    0    0 -0.10559808209E+02 -0.87689712679E+01 -0.12876540178E+02  0.18820459445E+02  0.51100000000E-03 0. -1.
        -11    1    3    3    0    0  0.56797730466E+01 -0.36464168496E+01  0.17351249577E+01  0.69689910735E+01  0.51100000000E-03 0.  1.
         12    1    3    3    0    0 -0.36061317111E+01 -0.23988773217E+02 -0.48551156831E+01  0.24739393175E+02  0.00000000000E+00 0. -1.
</event>
<event>
 7    1  0.5155466E-011  0.5052886E+02  0.7816164E-02  0.1300439E+00
        -11   -1    0    0    0    0  0.00000000000E+00  0.00000000000E+00  0.45593999997E+02  0.45594000000E+02  0.51100000000E-03 0. -1.
         11   -1    0    0    0    0 -0.00000000000E+00 -0.00000000000E+00 -0.45593999997E+02  0.45594000000E+02  0.51100000000E-03 0.  1.
    9900012    2    1    2    0    0 -0.20243457159E+02  0.20745944419E+02  0.28512694629E+02  0.50528861758E+02  0.30000005798E+02 0.  0.
        -12    1    1    2    0    0  0.20243457159E+02 -0.20745944419E+02 -0.28512694629E+02  0.40659138242E+02  0.00000000000E+00 0.  1.
         11    1    3    3    0    0  0.81731486280E+00  0.21060989098E+01  0.11058969010E+02  0.11287358062E+02  0.51100000000E-03 0. -1.
        -11    1    3    3    0    0 -0.14570405737E+02  0.39925964469E+01 -0.58077682005E+00  0.15118692129E+02  0.51100000000E-03 0.  1.
        -12    1    3    3    0    0 -0.64903662851E+01  0.14647249062E+02  0.18034502439E+02  0.24122811566E+02  0.00000000000E+00 0.  1.
</event>
<event>
 7    1  0.5155466E-011  0.5052886E+02  0.7816164E-02  0.1300439E+00
        -11   -1    0    0    0    0  0.00000000000E+00  0.00000000000E+00  0.45593999997E+02  0.45594000000E+02  0.51100000000E-03 0.  1.
         11   -1    0    0    0    0 -0.00000000000E+00 -0.00000000000E+00 -0.45593999997E+02  0.45594000000E+02  0.51100000000E-03 0. -1.
    9900012    2    1    2    0    0  0.50924863431E+01  0.19958995229E+02 -0.35055258008E+02  0.50528855620E+02  0.29999987142E+02 0.  0.
        -12    1    1    2    0    0 -0.50924863431E+01 -0.19958995229E+02  0.35055258008E+02  0.40659144380E+02  0.00000000000E+00 0.  1.
         11    1    3    3    0    0  0.57869903252E+01  0.18116392842E+02 -0.38571439268E+02  0.43005219150E+02  0.51100000000E-03 0. -1.
        -11    1    3    3    0    0 -0.88633207625E+00 -0.22313098345E+01  0.50343879135E+00  0.24531161825E+01  0.51100000000E-03 0.  1.
         12    1    3    3    0    0  0.19182809412E+00  0.40739122217E+01  0.30127424687E+01  0.50705202879E+01  0.00000000000E+00 0. -1.
</event>
<event>
 7    1  0.5155466E-011  0.5052891E+02  0.7816164E-02  0.1300439E+00
        -11   -1    0    0    0    0  0.00000000000E+00  0.00000000000E+00  0.45593999997E+02  0.45594000000E+02  0.51100000000E-03 0.  1.
         11   -1    0    0    0    0 -0.00000000000E+00 -0.00000000000E+00 -0.45593999997E+02  0.45594000000E+02  0.51100000000E-03 0. -1.
    9900012    2    1    2    0    0 -0.23557899835E+02  0.32034819533E+02 -0.84827530687E+01  0.50528912372E+02  0.30000159644E+02 0.  0.
        -12    1    1    2    0    0  0.23557899835E+02 -0.32034819533E+02  0.84827530687E+01  0.40659087628E+02  0.00000000000E+00 0.  1.
         11    1    3    3    0    0 -0.13416496204E+02  0.23765586196E+02 -0.72536122146E+01  0.28238632191E+02  0.51100000000E-03 0. -1.
        -11    1    3    3    0    0  0.31608422526E+01 -0.21527090912E+01 -0.35682547150E+01  0.52304418694E+01  0.51100000000E-03 0.  1.
         12    1    3    3    0    0 -0.13302245884E+02  0.10421942429E+02  0.23391138609E+01  0.17059838311E+02  0.00000000000E+00 0. -1.
</event>
<event>
 7    1  0.5155466E-011  0.5052886E+02  0.7816164E-02  0.1300439E+00
        -11   -1    0    0    0    0  0.00000000000E+00  0.00000000000E+00  0.45593999997E+02  0.45594000000E+02  0.51100000000E-03 0.  1.
         11   -1    0    0    0    0 -0.00000000000E+00 -0.00000000000E+00 -0.45593999997E+02  0.45594000000E+02  0.51100000000E-03 0. -1.
    9900012    2    1    2    0    0 -0.37273416724E+02 -0.32511211373E+01 -0.15915028992E+02  0.50528861657E+02  0.30000005494E+02 0.  0.
        -12    1    1    2    0    0  0.37273416724E+02  0.32511211373E+01  0.15915028992E+02  0.40659138343E+02  0.00000000000E+00 0.  1.
         11    1    3    3    0    0 -0.79715837259E+01  0.56082546768E+01 -0.10129118316E+02  0.14056945107E+02  0.51100000000E-03 0. -1.
        -11    1    3    3    0    0 -0.28261103283E+02 -0.13300354768E+02 -0.63577451052E+01  0.31874916765E+02  0.51100000000E-03 0.  1.
        -12    1    3    3    0    0 -0.10407297157E+01  0.44409789541E+01  0.57183442913E+00  0.45969997853E+01  0.00000000000E+00 0.  1.
</event>
<event>
 7    1  0.5155466E-011  0.5052886E+02  0.7816164E-02  0.1300439E+00
        -11   -1    0    0    0    0  0.00000000000E+00  0.00000000000E+00  0.45593999997E+02  0.45594000000E+02  0.51100000000E-03 0.  1.
         11   -1    0    0    0    0 -0.00000000000E+00 -0.00000000000E+00 -0.45593999997E+02  0.45594000000E+02  0.51100000000E-03 0. -1.
    9900012    2    1    2    0    0 -0.56646309119E+01  0.98415116601E+01 -0.39041292793E+02  0.50528856648E+02  0.29999990268E+02 0.  0.
        -12    1    1    2    0    0  0.56646309119E+01 -0.98415116601E+01  0.39041292793E+02  0.40659143352E+02  0.00000000000E+00 0.  1.
         11    1    3    3    0    0 -0.96773841238E+00  0.12763359449E+02 -0.29423976820E+02  0.32087540794E+02  0.51100000000E-03 0. -1.
        -11    1    3    3    0    0  0.42558799384E+00  0.20998864618E+01  0.31424528898E+01  0.38033746487E+01  0.51100000000E-03 0.  1.
        -12    1    3    3    0    0 -0.51224804933E+01 -0.50217342505E+01 -0.12759768863E+02  0.14637941205E+02  0.00000000000E+00 0.  1.
</event>
<event>
 7    1  0.5155466E-011  0.5052887E+02  0.7816164E-02  0.1300439E+00
        -11   -1    0    0    0    0  0.00000000000E+00  0.00000000000E+00  0.45593999997E+02  0.45594000000E+02  0.51100000000E-03 0. -1.
         11   -1    0    0    0    0 -0.00000000000E+00 -0.00000000000E+00 -0.45593999997E+02  0.45594000000E+02  0.51100000000E-03 0.  1.
    9900012    2    1    2    0    0  0.35510200103E+01  0.33574307761E+02  0.22656584305E+02  0.50528871909E+02  0.30000036654E+02 0.  0.
        -12    1    1    2    0    0 -0.35510200103E+01 -0.33574307761E+02 -0.22656584305E+02  0.40659128091E+02  0.00000000000E+00 0.  1.
         11    1    3    3    0    0  0.12121132149E+02  0.10984374586E+02  0.19907309230E+02  0.25765855132E+02  0.51100000000E-03 0. -1.
        -11    1    3    3    0    0 -0.80971961511E+01  0.15555102858E+02  0.24418997089E+01  0.17705611678E+02  0.51100000000E-03 0.  1.
         12    1    3    3    0    0 -0.47291598783E+00  0.70348303164E+01  0.30737536569E+00  0.70574050987E+01  0.00000000000E+00 0. -1.
</event>
<event>
 7    1  0.5155466E-011  0.5052885E+02  0.7816164E-02  0.1300439E+00
        -11   -1    0    0    0    0  0.00000000000E+00  0.00000000000E+00  0.45593999997E+02  0.45594000000E+02  0.51100000000E-03 0.  1.
         11   -1    0    0    0    0 -0.00000000000E+00 -0.00000000000E+00 -0.45593999997E+02  0.45594000000E+02  0.51100000000E-03 0. -1.
    9900012    2    1    2    0    0  0.35436198495E+01 -0.26398115651E+02 -0.30720495480E+02  0.50528848581E+02  0.29999965748E+02 0.  0.
        -12    1    1    2    0    0 -0.35436198495E+01  0.26398115651E+02  0.30720495480E+02  0.40659151419E+02  0.00000000000E+00 0.  1.
         11    1    3    3    0    0  0.13245153711E+02 -0.21253230157E+02 -0.13549689117E+02  0.28473285100E+02  0.51100000000E-03 0. -1.
        -11    1    3    3    0    0 -0.41523472720E+01  0.15033935881E+01 -0.26548140479E+01  0.51526903690E+01  0.51100000000E-03 0.  1.
         12    1    3    3    0    0 -0.55491865900E+01 -0.66482790816E+01 -0.14515992315E+02  0.16902873112E+02  0.00000000000E+00 0. -1.
</event>
<event>
 7    1  0.5155466E-011  0.5052886E+02  0.7816164E-02  0.1300439E+00
        -11   -1    0    0    0    0  0.00000000000E+00  0.00000000000E+00  0.45593999997E+02  0.45594000000E+02  0.51100000000E-03 0. -1.
         11   -1    0    0    0    0 -0.00000000000E+00 -0.00000000000E+00 -0.45593999997E+02  0.45594000000E+02  0.51100000000E-03 0.  1.
    9900012    2    1    2    0    0 -0.13515206483E+02  0.38123266991E+02 -0.41378094182E+01  0.50528858849E+02  0.29999996957E+02 0.  0.
        -12    1    1    2    0    0  0.13515206483E+02 -0.38123266991E+02  0.41378094182E+01  0.40659141151E+02  0.00000000000E+00 0.  1.
         11    1    3    3    0    0 -0.16064611007E+02  0.31775642886E+02  0.17152638775E+01  0.35646954120E+02  0.51100000000E-03 0. -1.
        -11    1    3    3    0    0  0.38914794498E+01  0.80991919303E+01 -0.78305959087E+01  0.11918840329E+02  0.51100000000E-03 0.  1.
         12    1    3    3    0    0 -0.13420749267E+01 -0.17515678252E+01  0.19775226130E+01  0.29630644003E+01  0.00000000000E+00 0. -1.
</event>
<event>
 7    1  0.5155466E-011  0.5052888E+02  0.7816164E-02  0.1300439E+00
        -11   -1    0    0    0    0  0.00000000000E+00  0.00000000000E+00  0.45593999997E+02  0.45594000000E+02  0.51100000000E-03 0. -1.
         11   -1    0    0    0    0 -0.00000000000E+00 -0.00000000000E+00 -0.45593999997E+02  0.45594000000E+02  0.51100000000E-03 0.  1.
    9900012    2    1    2    0    0  0.27718455323E+02  0.29522139248E+02 -0.36461644782E+01  0.50528880645E+02  0.30000063209E+02 0.  0.
        -12    1    1    2    0    0 -0.27718455323E+02 -0.29522139248E+02  0.36461644782E+01  0.40659119355E+02  0.00000000000E+00 0.  1.
         11    1    3    3    0    0  0.30076781477E+01  0.73314068122E+01  0.57340171512E+00  0.79450892678E+01  0.51100000000E-03 0. -1.
        -11    1    3    3    0    0  0.92507997035E+01  0.99211556752E+00  0.92254068426E+01  0.13102279196E+02  0.51100000000E-03 0.  1.
        -12    1    3    3    0    0  0.15459977472E+02  0.21198616868E+02 -0.13444973036E+02  0.29481512182E+02  0.00000000000E+00 0.  1.
</event>
<event>
 7    1  0.5155466E-011  0.5052888E+02  0.7816164E-02  0.1300439E+00
        -11   -1    0    0    0    0  0.00000000000E+00  0.00000000000E+00  0.45593999997E+02  0.45594000000E+02  0.51100000000E-03 0.  1.
         11   -1    0    0    0    0 -0.00000000000E+00 -0.00000000000E+00 -0.45593999997E+02  0.45594000000E+02  0.51100000000E-03 0. -1.
    9900012    2    1    2    0    0  0.80190252462E+01  0.11938480932E+02 -0.38030670432E+02  0.50528880650E+02  0.30000063222E+02 0.  0.
        -12    1    1    2    0    0 -0.80190252462E+01 -0.11938480932E+02  0.38030670432E+02  0.40659119350E+02  0.00000000000E+00 0.  1.
         11    1    3    3    0    0  0.45566210977E+01  0.78041892784E+01 -0.14694051639E+02  0.17250603466E+02  0.51100000000E-03 0. -1.
        -11    1    3    3    0    0  0.56754304875E+01 -0.78906004265E+01 -0.16812058962E+02  0.19419511145E+02  0.51100000000E-03 0.  1.
        -12    1    3    3    0    0 -0.22130263391E+01  0.12024892080E+02 -0.65245598309E+01  0.13858766038E+02  0.00000000000E+00 0.  1.
</event>
<event>
 7    1  0.5155466E-011  0.5052886E+02  0.7816164E-02  0.1300439E+00
        -11   -1    0    0    0    0  0.00000000000E+00  0.00000000000E+00  0.45593999997E+02  0.45594000000E+02  0.51100000000E-03 0.  1.
         11   -1    0    0    0    0 -0.00000000000E+00 -0.00000000000E+00 -0.45593999997E+02  0.45594000000E+02  0.51100000000E-03 0. -1.
    9900012    2    1    2    0    0  0.11409362300E+02 -0.25348384788E+01 -0.38943121597E+02  0.50528859897E+02  0.30000000143E+02 0.  0.
        -12    1    1    2    0    0 -0.11409362300E+02  0.25348384788E+01  0.38943121597E+02  0.40659140103E+02  0.00000000000E+00 0.  1.
         11    1    3    3    0    0  0.17172309594E+02 -0.74262544433E+01 -0.25966504929E+02  0.32004637950E+02  0.51100000000E-03 0. -1.
        -11    1    3    3    0    0 -0.66564467772E+00 -0.15394220096E+01  0.12560559801E+01  0.20953710523E+01  0.51100000000E-03 0.  1.
         12    1    3    3    0    0 -0.50973026157E+01  0.64308379741E+01 -0.14232672648E+02  0.16428850895E+02  0.00000000000E+00 0. -1.
</event>
<event>
 7    1  0.5155466E-011  0.5052885E+02  0.7816164E-02  0.1300439E+00
        -11   -1    0    0    0    0  0.00000000000E+00  0.00000000000E+00  0.45593999997E+02  0.45594000000E+02  0.51100000000E-03 0.  1.
         11   -1    0    0    0    0 -0.00000000000E+00 -0.00000000000E+00 -0.45593999997E+02  0.45594000000E+02  0.51100000000E-03 0. -1.
    9900012    2    1    2    0    0  0.18547035413E+02  0.27156884669E+02  0.23909778589E+02  0.50528850726E+02  0.29999972267E+02 0.  0.
        -12    1    1    2    0    0 -0.18547035413E+02 -0.27156884669E+02 -0.23909778589E+02  0.40659149274E+02  0.00000000000E+00 0.  1.
         11    1    3    3    0    0  0.20845759594E+02  0.13128382369E+02  0.19626705736E+02  0.31497741110E+02  0.51100000000E-03 0. -1.
        -11    1    3    3    0    0 -0.14983074858E+01 -0.19436467065E+01 -0.76612060034E-01  0.24553121004E+01  0.51100000000E-03 0.  1.
         12    1    3    3    0    0 -0.80041669518E+00  0.15972149006E+02  0.43596849124E+01  0.16575797516E+02  0.00000000000E+00 0. -1.
</event>
<event>
 7    1  0.5155466E-011  0.5052887E+02  0.7816164E-02  0.1300439E+00
        -11   -1    0    0    0    0  0.00000000000E+00  0.00000000000E+00  0.45593999997E+02  0.45594000000E+02  0.51100000000E-03 0.  1.
         11   -1    0    0    0    0 -0.00000000000E+00 -0.00000000000E+00 -0.45593999997E+02  0.45594000000E+02  0.51100000000E-03 0. -1.
    9900012    2    1    2    0    0 -0.31418623729E+02 -0.82007235049E+01 -0.24470044816E+02  0.50528869706E+02  0.30000029958E+02 0.  0.
        -12    1    1    2    0    0  0.31418623729E+02  0.82007235049E+01  0.24470044816E+02  0.40659130294E+02  0.00000000000E+00 0.  1.
         11    1    3    3    0    0 -0.20909841755E+02  0.33853194006E+01 -0.21072051606E+02  0.29878306994E+02  0.51100000000E-03 0. -1.
        -11    1    3    3    0    0 -0.13300053512E+02 -0.11483092387E+02 -0.27812670250E+01  0.17790117501E+02  0.51100000000E-03 0.  1.
        -12    1    3    3    0    0  0.27912715389E+01 -0.10295051855E+00 -0.61672618428E+00  0.28604452100E+01  0.00000000000E+00 0.  1.
</event>
<event>
 7    1  0.5155466E-011  0.5052887E+02  0.7816164E-02  0.1300439E+00
        -11   -1    0    0    0    0  0.00000000000E+00  0.00000000000E+00  0.45593999997E+02  0.45594000000E+02  0.51100000000E-03 0. -1.
         11   -1    0    0    0    0 -0.00000000000E+00 -0.00000000000E+00 -0.45593999997E+02  0.45594000000E+02  0.51100000000E-03 0.  1.
    9900012    2    1    2    0    0  0.21379131993E+02 -0.33370134959E+02  0.90847070450E+01  0.50528867028E+02  0.30000021818E+02 0.  0.
        -12    1    1    2    0    0 -0.21379131993E+02  0.33370134959E+02 -0.90847070450E+01  0.40659132972E+02  0.00000000000E+00 0.  1.
         11    1    3    3    0    0 -0.22281851084E+01 -0.31484714824E+01  0.86358279344E+01  0.94580762276E+01  0.51100000000E-03 0. -1.
        -11    1    3    3    0    0  0.22279631548E+02 -0.19293169599E+02 -0.27672191970E+01  0.29601788417E+02  0.51100000000E-03 0.  1.
        -12    1    3    3    0    0  0.13276855526E+01 -0.10928493877E+02  0.32160983077E+01  0.11469002384E+02  0.00000000000E+00 0.  1.
</event>
<event>
 7    1  0.5155466E-011  0.5052886E+02  0.7816164E-02  0.1300439E+00
        -11   -1    0    0    0    0  0.00000000000E+00  0.00000000000E+00  0.45593999997E+02  0.45594000000E+02  0.51100000000E-03 0.  1.
         11   -1    0    0    0    0 -0.00000000000E+00 -0.00000000000E+00 -0.45593999997E+02  0.45594000000E+02  0.51100000000E-03 0. -1.
    9900012    2    1    2    0    0 -0.33007907030E+01 -0.35815225584E+02  0.18961532497E+02  0.50528864279E+02  0.30000013463E+02 0.  0.
        -12    1    1    2    0    0  0.33007907030E+01  0.35815225584E+02 -0.18961532497E+02  0.40659135721E+02  0.00000000000E+00 0.  1.
         11    1    3    3    0    0  0.47010995636E+01 -0.25415128215E+02 -0.90457370872E+00  0.25862082924E+02  0.51100000000E-03 0. -1.
        -11    1    3    3    0    0 -0.56931790572E+01 -0.10833295139E+02  0.17257580073E+02  0.21156479895E+02  0.51100000000E-03 0.  1.
        -12    1    3    3    0    0 -0.23087112094E+01  0.43319776930E+00  0.26085261333E+01  0.35103014605E+01  0.00000000000E+00 0.  1.
</event>
<event>
 7    1  0.6454226E-011  0.5052887E+02  0.7816164E-02  0.1300439E+00
        -11   -1    0    0    0    0  0.00000000000E+00  0.00000000000E+00  0.45593999997E+02  0.45594000000E+02  0.51100000000E-03 0. -1.
         11   -1    0    0    0    0 -0.00000000000E+00 -0.00000000000E+00 -0.45593999997E+02  0.45594000000E+02  0.51100000000E-03 0.  1.
    9900012    2    1    2    0    0  0.12312795896E+02 -0.34277310974E+02  0.18072792703E+02  0.50528870318E+02  0.30000031819E+02 0.  0.
        -12    1    1    2    0    0 -0.12312795896E+02  0.34277310974E+02 -0.18072792703E+02  0.40659129682E+02  0.00000000000E+00 0.  1.
         11    1    3    3    0    0  0.87705249956E+01 -0.16107746489E+02  0.15269902077E+02  0.23865278447E+02  0.51100000000E-03 0. -1.
        -11    1    3    3    0    0 -0.73217246746E+01 -0.40434694889E+01 -0.10546631033E+01  0.84302794877E+01  0.51100000000E-03 0.  1.
        -12    1    3    3    0    0  0.10863995575E+02 -0.14126094996E+02  0.38575537294E+01  0.18233312383E+02  0.00000000000E+00 0.  1.
</event>
<event>
 7    1  0.5155466E-011  0.5052885E+02  0.7816164E-02  0.1300439E+00
        -11   -1    0    0    0    0  0.00000000000E+00  0.00000000000E+00  0.45593999997E+02  0.45594000000E+02  0.51100000000E-03 0. -1.
         11   -1    0    0    0    0 -0.00000000000E+00 -0.00000000000E+00 -0.45593999997E+02  0.45594000000E+02  0.51100000000E-03 0.  1.
    9900012    2    1    2    0    0 -0.35874554279E+02  0.93899398840E+01  0.16673681033E+02  0.50528852752E+02  0.29999978424E+02 0.  0.
        -12    1    1    2    0    0  0.35874554279E+02 -0.93899398840E+01 -0.16673681033E+02  0.40659147248E+02  0.00000000000E+00 0.  1.
         11    1    3    3    0    0 -0.98300676243E+01  0.14310541923E+02 -0.22228168391E+00  0.17362927433E+02  0.51100000000E-03 0. -1.
        -11    1    3    3    0    0 -0.12404959715E+02 -0.56617464344E+01  0.13283797351E+02  0.19036745271E+02  0.51100000000E-03 0.  1.
         12    1    3    3    0    0 -0.13639526941E+02  0.74114439521E+00  0.36121653664E+01  0.14129180047E+02  0.00000000000E+00 0. -1.
</event>
<event>
 7    1  0.5155466E-011  0.5052885E+02  0.7816164E-02  0.1300439E+00
        -11   -1    0    0    0    0  0.00000000000E+00  0.00000000000E+00  0.45593999997E+02  0.45594000000E+02  0.51100000000E-03 0. -1.
         11   -1    0    0    0    0 -0.00000000000E+00 -0.00000000000E+00 -0.45593999997E+02  0.45594000000E+02  0.51100000000E-03 0.  1.
    9900012    2    1    2    0    0  0.61439994727E+01  0.23309079975E+02  0.32743002126E+02  0.50528854325E+02  0.29999983206E+02 0.  0.
        -12    1    1    2    0    0 -0.61439994727E+01 -0.23309079975E+02 -0.32743002126E+02  0.40659145675E+02  0.00000000000E+00 0.  1.
         11    1    3    3    0    0  0.13420773864E+01  0.41868105174E+01  0.27548846465E+02  0.27897481891E+02  0.51100000000E-03 0. -1.
        -11    1    3    3    0    0  0.29008171877E+01  0.14772713398E+02 -0.69069765487E+00  0.15070662395E+02  0.51100000000E-03 0.  1.
        -12    1    3    3    0    0  0.19011048986E+01  0.43495560595E+01  0.58848533153E+01  0.75607100389E+01  0.00000000000E+00 0.  1.
</event>
<event>
 7    1  0.5155466E-011  0.5052887E+02  0.7816164E-02  0.1300439E+00
        -11   -1    0    0    0    0  0.00000000000E+00  0.00000000000E+00  0.45593999997E+02  0.45594000000E+02  0.51100000000E-03 0.  1.
         11   -1    0    0    0    0 -0.00000000000E+00 -0.00000000000E+00 -0.45593999997E+02  0.45594000000E+02  0.51100000000E-03 0. -1.
    9900012    2    1    2    0    0  0.72537996700E+01  0.17585784040E+02 -0.35934491619E+02  0.50528866981E+02  0.30000021676E+02 0.  0.
        -12    1    1    2    0    0 -0.72537996700E+01 -0.17585784040E+02  0.35934491619E+02  0.40659133019E+02  0.00000000000E+00 0.  1.
         11    1    3    3    0    0  0.81053861960E+00  0.47904340144E+00  0.26928804692E+01  0.28527286791E+01  0.51100000000E-03 0.  1.
        -11    1    3    3    0    0  0.13002549577E+02  0.16936323340E+02 -0.28558440009E+02  0.35657956191E+02  0.51100000000E-03 0. -1.
         12    1    3    3    0    0 -0.65592885263E+01  0.17041729905E+00 -0.10068932079E+02  0.12018182110E+02  0.00000000000E+00 0. -1.
</event>
<event>
 7    1  0.5155466E-011  0.5052886E+02  0.7816164E-02  0.1300439E+00
        -11   -1    0    0    0    0  0.00000000000E+00  0.00000000000E+00  0.45593999997E+02  0.45594000000E+02  0.51100000000E-03 0.  1.
         11   -1    0    0    0    0 -0.00000000000E+00 -0.00000000000E+00 -0.45593999997E+02  0.45594000000E+02  0.51100000000E-03 0. -1.
    9900012    2    1    2    0    0  0.36161742605E+02  0.13745477462E+02  0.12512241748E+02  0.50528856225E+02  0.29999988983E+02 0.  0.
        -12    1    1    2    0    0 -0.36161742605E+02 -0.13745477462E+02 -0.12512241748E+02  0.40659143775E+02  0.00000000000E+00 0.  1.
         11    1    3    3    0    0  0.13313205384E+02  0.50841367092E+01  0.18176004336E+02  0.23096688454E+02  0.51100000000E-03 0.  1.
        -11    1    3    3    0    0  0.99560989287E+01  0.52764646697E+01 -0.81063368341E+01  0.13880838679E+02  0.51100000000E-03 0. -1.
         12    1    3    3    0    0  0.12892438293E+02  0.33848760833E+01  0.24425742463E+01  0.13551329093E+02  0.00000000000E+00 0. -1.
</event>
<event>
 7    1  0.5155466E-011  0.5052886E+02  0.7816164E-02  0.1300439E+00
        -11   -1    0    0    0    0  0.00000000000E+00  0.00000000000E+00  0.45593999997E+02  0.45594000000E+02  0.51100000000E-03 0.  1.
         11   -1    0    0    0    0 -0.00000000000E+00 -0.00000000000E+00 -0.45593999997E+02  0.45594000000E+02  0.51100000000E-03 0. -1.
    9900012    2    1    2    0    0  0.89060917669E+01  0.17578022639E+00 -0.39671354053E+02  0.50528859556E+02  0.29999999107E+02 0.  0.
        -12    1    1    2    0    0 -0.89060917669E+01 -0.17578022639E+00  0.39671354053E+02  0.40659140444E+02  0.00000000000E+00 0.  1.
         11    1    3    3    0    0  0.55552482492E+01 -0.14008959525E+02 -0.25687248394E+02  0.29781646368E+02  0.51100000000E-03 0. -1.
        -11    1    3    3    0    0  0.25165599271E+01  0.77145304403E+01 -0.46291167726E+01  0.93421505092E+01  0.51100000000E-03 0.  1.
         12    1    3    3    0    0  0.83428359049E+00  0.64702093113E+01 -0.93549888862E+01  0.11405062679E+02  0.00000000000E+00 0. -1.
</event>
<event>
 7    1  0.5155466E-011  0.5052891E+02  0.7816164E-02  0.1300439E+00
        -11   -1    0    0    0    0  0.00000000000E+00  0.00000000000E+00  0.45593999997E+02  0.45594000000E+02  0.51100000000E-03 0.  1.
         11   -1    0    0    0    0 -0.00000000000E+00 -0.00000000000E+00 -0.45593999997E+02  0.45594000000E+02  0.51100000000E-03 0. -1.
    9900012    2    1    2    0    0  0.71585746969E+01  0.25907564227E+02 -0.30507614541E+02  0.50528909739E+02  0.30000151643E+02 0.  0.
        -12    1    1    2    0    0 -0.71585746969E+01 -0.25907564227E+02  0.30507614541E+02  0.40659090261E+02  0.00000000000E+00 0.  1.
         11    1    3    3    0    0  0.61821086003E+01  0.83626521715E+01  0.45567686239E+00  0.10409613814E+02  0.51100000000E-03 0.  1.
        -11    1    3    3    0    0 -0.56269104023E+01  0.17924047472E+02 -0.21196306341E+02  0.28323435548E+02  0.51100000000E-03 0. -1.
        -12    1    3    3    0    0  0.66033764989E+01 -0.37913541639E+00 -0.97669850620E+01  0.11795860378E+02  0.00000000000E+00 0.  1.
</event>
<event>
 7    1  0.5155466E-011  0.5052886E+02  0.7816164E-02  0.1300439E+00
        -11   -1    0    0    0    0  0.00000000000E+00  0.00000000000E+00  0.45593999997E+02  0.45594000000E+02  0.51100000000E-03 0.  1.
         11   -1    0    0    0    0 -0.00000000000E+00 -0.00000000000E+00 -0.45593999997E+02  0.45594000000E+02  0.51100000000E-03 0. -1.
    9900012    2    1    2    0    0  0.50118131154E+01  0.38473696905E+02 -0.12158199143E+02  0.50528862888E+02  0.30000009235E+02 0.  0.
        -12    1    1    2    0    0 -0.50118131154E+01 -0.38473696905E+02  0.12158199143E+02  0.40659137112E+02  0.00000000000E+00 0.  1.
         11    1    3    3    0    0 -0.63899448183E+01  0.23614051323E+02  0.29894905327E+01  0.24645321434E+02  0.51100000000E-03 0. -1.
        -11    1    3    3    0    0  0.50769794003E+01  0.59019841752E+01 -0.80122077570E+00  0.78263076880E+01  0.51100000000E-03 0.  1.
         12    1    3    3    0    0  0.63247785333E+01  0.89576614070E+01 -0.14346468900E+02  0.18057233766E+02  0.00000000000E+00 0. -1.
</event>
<event>
 7    1  0.5155466E-011  0.5052886E+02  0.7816164E-02  0.1300439E+00
        -11   -1    0    0    0    0  0.00000000000E+00  0.00000000000E+00  0.45593999997E+02  0.45594000000E+02  0.51100000000E-03 0.  1.
         11   -1    0    0    0    0 -0.00000000000E+00 -0.00000000000E+00 -0.45593999997E+02  0.45594000000E+02  0.51100000000E-03 0. -1.
    9900012    2    1    2    0    0 -0.26978699833E+01  0.35584426341E+02 -0.19484240318E+02  0.50528861775E+02  0.30000005851E+02 0.  0.
        -12    1    1    2    0    0  0.26978699833E+01 -0.35584426341E+02  0.19484240318E+02  0.40659138225E+02  0.00000000000E+00 0.  1.
         11    1    3    3    0    0 -0.64668427233E+01  0.16864798645E+02 -0.18053652432E+01  0.18152157780E+02  0.51100000000E-03 0. -1.
        -11    1    3    3    0    0  0.62188268017E+01  0.87613979195E+01 -0.19207481101E+02  0.22008253697E+02  0.51100000000E-03 0.  1.
        -12    1    3    3    0    0 -0.24498540617E+01  0.99582297761E+01  0.15286060265E+01  0.10368450298E+02  0.00000000000E+00 0.  1.
</event>
<event>
 7    1  0.5155466E-011  0.5052885E+02  0.7816164E-02  0.1300439E+00
        -11   -1    0    0    0    0  0.00000000000E+00  0.00000000000E+00  0.45593999997E+02  0.45594000000E+02  0.51100000000E-03 0. -1.
         11   -1    0    0    0    0 -0.00000000000E+00 -0.00000000000E+00 -0.45593999997E+02  0.45594000000E+02  0.51100000000E-03 0.  1.
    9900012    2    1    2    0    0  0.45437951494E+01 -0.15129097083E+02  0.37465058193E+02  0.50528852957E+02  0.29999979047E+02 0.  0.
        -12    1    1    2    0    0 -0.45437951494E+01  0.15129097083E+02 -0.37465058193E+02  0.40659147043E+02  0.00000000000E+00 0.  1.
         11    1    3    3    0    0  0.85042781665E+01 -0.10403367586E+02  0.25418909860E+02  0.28751935291E+02  0.51100000000E-03 0. -1.
        -11    1    3    3    0    0 -0.47714877243E+01  0.55758195761E+01  0.26268656078E+01  0.77946957754E+01  0.51100000000E-03 0.  1.
         12    1    3    3    0    0  0.81100470721E+00 -0.10301549072E+02  0.94192827250E+01  0.13982221890E+02  0.00000000000E+00 0. -1.
</event>
<event>
 7    1  0.5155466E-011  0.5052886E+02  0.7816164E-02  0.1300439E+00
        -11   -1    0    0    0    0  0.00000000000E+00  0.00000000000E+00  0.45593999997E+02  0.45594000000E+02  0.51100000000E-03 0.  1.
         11   -1    0    0    0    0 -0.00000000000E+00 -0.00000000000E+00 -0.45593999997E+02  0.45594000000E+02  0.51100000000E-03 0. -1.
    9900012    2    1    2    0    0 -0.28569080229E+02 -0.54346362518E+01 -0.28415458534E+02  0.50528857116E+02  0.29999991691E+02 0.  0.
        -12    1    1    2    0    0  0.28569080229E+02  0.54346362518E+01  0.28415458534E+02  0.40659142884E+02  0.00000000000E+00 0.  1.
         11    1    3    3    0    0 -0.33350518123E+02 -0.36561129036E+01 -0.24139171392E+02  0.41331874097E+02  0.51100000000E-03 0. -1.
        -11    1    3    3    0    0  0.59534812741E+01  0.62173216816E-01 -0.29665089160E+01  0.66519155286E+01  0.51100000000E-03 0.  1.
        -12    1    3    3    0    0 -0.11720433803E+01 -0.18406965650E+01 -0.13097782269E+01  0.25450674909E+01  0.00000000000E+00 0.  1.
</event>
<event>
 7    1  0.5155466E-011  0.5052887E+02  0.7816164E-02  0.1300439E+00
        -11   -1    0    0    0    0  0.00000000000E+00  0.00000000000E+00  0.45593999997E+02  0.45594000000E+02  0.51100000000E-03 0. -1.
         11   -1    0    0    0    0 -0.00000000000E+00 -0.00000000000E+00 -0.45593999997E+02  0.45594000000E+02  0.51100000000E-03 0.  1.
    9900012    2    1    2    0    0  0.34913299324E+02 -0.55604712779E+00  0.20830678815E+02  0.50528870177E+02  0.30000031389E+02 0.  0.
        -12    1    1    2    0    0 -0.34913299324E+02  0.55604712779E+00 -0.20830678815E+02  0.40659129823E+02  0.00000000000E+00 0.  1.
         11    1    3    3    0    0  0.13174508280E+02  0.55013975483E+01  0.87215190868E+01  0.16730150592E+02  0.51100000000E-03 0. -1.
        -11    1    3    3    0    0 -0.41589010915E+01 -0.14759181673E+01  0.47609249261E+01  0.64916253080E+01  0.51100000000E-03 0.  1.
        -12    1    3    3    0    0  0.25897692136E+02 -0.45815265087E+01  0.73482348016E+01  0.27307094276E+02  0.00000000000E+00 0.  1.
</event>
<event>
 7    1  0.5155466E-011  0.5052886E+02  0.7816164E-02  0.1300439E+00
        -11   -1    0    0    0    0  0.00000000000E+00  0.00000000000E+00  0.45593999997E+02  0.45594000000E+02  0.51100000000E-03 0. -1.
         11   -1    0    0    0    0 -0.00000000000E+00 -0.00000000000E+00 -0.45593999997E+02  0.45594000000E+02  0.51100000000E-03 0.  1.
    9900012    2    1    2    0    0  0.10389907495E+02  0.39199593658E+02 -0.29337781252E+01  0.50528863576E+02  0.30000011325E+02 0.  0.
        -12    1    1    2    0    0 -0.10389907495E+02 -0.39199593658E+02  0.29337781252E+01  0.40659136424E+02  0.00000000000E+00 0.  1.
         11    1    3    3    0    0 -0.24807149888E+01 -0.24247167486E+00  0.69442458999E+01  0.73780275649E+01  0.51100000000E-03 0. -1.
        -11    1    3    3    0    0  0.13399146647E+02  0.35639607211E+02 -0.81343330314E+01  0.38934382070E+02  0.51100000000E-03 0.  1.
         12    1    3    3    0    0 -0.52852416366E+00  0.38024581216E+01 -0.17436909937E+01  0.42164539414E+01  0.00000000000E+00 0. -1.
</event>
<event>
 7    1  0.5155466E-011  0.5052899E+02  0.7816164E-02  0.1300438E+00
        -11   -1    0    0    0    0  0.00000000000E+00  0.00000000000E+00  0.45593999997E+02  0.45594000000E+02  0.51100000000E-03 0.  1.
         11   -1    0    0    0    0 -0.00000000000E+00 -0.00000000000E+00 -0.45593999997E+02  0.45594000000E+02  0.51100000000E-03 0. -1.
    9900012    2    1    2    0    0 -0.37063652894E+02  0.51595410592E+01 -0.15900302320E+02  0.50528993081E+02  0.30000404965E+02 0.  0.
        -12    1    1    2    0    0  0.37063652894E+02 -0.51595410592E+01  0.15900302320E+02  0.40659006919E+02  0.00000000000E+00 0.  1.
         11    1    3    3    0    0 -0.13871580834E+02 -0.81924143466E+01 -0.13829989969E+02  0.21232169707E+02  0.51100000000E-03 0. -1.
        -11    1    3    3    0    0 -0.27128430218E+01  0.63184407939E+01 -0.32619232168E+01  0.76106737324E+01  0.51100000000E-03 0.  1.
         12    1    3    3    0    0 -0.20479229039E+02  0.70335146119E+01  0.11916108655E+01  0.21686149641E+02  0.00000000000E+00 0. -1.
</event>
<event>
 7    1  0.5155466E-011  0.5052886E+02  0.7816164E-02  0.1300439E+00
        -11   -1    0    0    0    0  0.00000000000E+00  0.00000000000E+00  0.45593999997E+02  0.45594000000E+02  0.51100000000E-03 0.  1.
         11   -1    0    0    0    0 -0.00000000000E+00 -0.00000000000E+00 -0.45593999997E+02  0.45594000000E+02  0.51100000000E-03 0. -1.
    9900012    2    1    2    0    0 -0.66195938695E+01 -0.38870049031E+02 -0.99229861877E+01  0.50528863394E+02  0.30000010772E+02 0.  0.
        -12    1    1    2    0    0  0.66195938695E+01  0.38870049031E+02  0.99229861877E+01  0.40659136606E+02  0.00000000000E+00 0.  1.
         11    1    3    3    0    0 -0.21199005561E+01  0.14637362280E+01 -0.19432611987E+01  0.32268818479E+01  0.51100000000E-03 0. -1.
        -11    1    3    3    0    0 -0.41854019885E+01 -0.28710342849E+02  0.54677539097E+01  0.29524527251E+02  0.51100000000E-03 0.  1.
        -12    1    3    3    0    0 -0.31429132491E+00 -0.11623442410E+02 -0.13447478899E+02  0.17777454296E+02  0.00000000000E+00 0.  1.
</event>
<event>
 7    1  0.5155466E-011  0.5052887E+02  0.7816164E-02  0.1300439E+00
        -11   -1    0    0    0    0  0.00000000000E+00  0.00000000000E+00  0.45593999997E+02  0.45594000000E+02  0.51100000000E-03 0.  1.
         11   -1    0    0    0    0 -0.00000000000E+00 -0.00000000000E+00 -0.45593999997E+02  0.45594000000E+02  0.51100000000E-03 0. -1.
    9900012    2    1    2    0    0 -0.37516185180E+02  0.10057811903E+02 -0.12022519179E+02  0.50528871896E+02  0.30000036616E+02 0.  0.
        -12    1    1    2    0    0  0.37516185180E+02 -0.10057811903E+02  0.12022519179E+02  0.40659128104E+02  0.00000000000E+00 0.  1.
         11    1    3    3    0    0 -0.20414664329E+02 -0.12534560265E+01  0.20047148198E+01  0.20551120491E+02  0.51100000000E-03 0. -1.
        -11    1    3    3    0    0 -0.18008781881E+02  0.12203430915E+02 -0.16428280788E+02  0.27260380791E+02  0.51100000000E-03 0.  1.
         12    1    3    3    0    0  0.90726103044E+00 -0.89216298569E+00  0.24010467891E+01  0.27173706140E+01  0.00000000000E+00 0. -1.
</event>
<event>
 7    1  0.5155466E-011  0.5052886E+02  0.7816164E-02  0.1300439E+00
        -11   -1    0    0    0    0  0.00000000000E+00  0.00000000000E+00  0.45593999997E+02  0.45594000000E+02  0.51100000000E-03 0.  1.
         11   -1    0    0    0    0 -0.00000000000E+00 -0.00000000000E+00 -0.45593999997E+02  0.45594000000E+02  0.51100000000E-03 0. -1.
    9900012    2    1    2    0    0 -0.32675119548E+02  0.36961459462E+01 -0.23913195381E+02  0.50528857785E+02  0.29999993724E+02 0.  0.
        -12    1    1    2    0    0  0.32675119548E+02 -0.36961459462E+01  0.23913195381E+02  0.40659142215E+02  0.00000000000E+00 0.  1.
         11    1    3    3    0    0 -0.18088008294E+02 -0.91961493372E+01 -0.23400996380E+02  0.30973405342E+02  0.51100000000E-03 0. -1.
        -11    1    3    3    0    0 -0.43577984211E+01  0.42724479483E+01  0.60110447829E+00  0.61323360479E+01  0.51100000000E-03 0.  1.
         12    1    3    3    0    0 -0.10229312833E+02  0.86198473351E+01 -0.11133034797E+01  0.13423116395E+02  0.00000000000E+00 0. -1.
</event>
<event>
 7    1  0.7108944E-011  0.5052886E+02  0.7816164E-02  0.1300439E+00
        -11   -1    0    0    0    0  0.00000000000E+00  0.00000000000E+00  0.45593999997E+02  0.45594000000E+02  0.51100000000E-03 0. -1.
         11   -1    0    0    0    0 -0.00000000000E+00 -0.00000000000E+00 -0.45593999997E+02  0.45594000000E+02  0.51100000000E-03 0.  1.
    9900012    2    1    2    0    0 -0.30377227530E+02  0.23033101576E+01  0.26927391556E+02  0.50528860731E+02  0.30000002679E+02 0.  0.
        -12    1    1    2    0    0  0.30377227530E+02 -0.23033101576E+01 -0.26927391556E+02  0.40659139269E+02  0.00000000000E+00 0.  1.
         11    1    3    3    0    0 -0.12508599424E+02  0.42306347275E+01  0.20193272780E+02  0.24127403416E+02  0.51100000000E-03 0. -1.
        -11    1    3    3    0    0 -0.43458726341E+01 -0.91868776608E+01  0.31565275242E+01  0.10641851173E+02  0.51100000000E-03 0.  1.
        -12    1    3    3    0    0 -0.13522755472E+02  0.72595530909E+01  0.35775912517E+01  0.15759606143E+02  0.00000000000E+00 0.  1.
</event>
<event>
 7    1  0.5155466E-011  0.5052886E+02  0.7816164E-02  0.1300439E+00
        -11   -1    0    0    0    0  0.00000000000E+00  0.00000000000E+00  0.45593999997E+02  0.45594000000E+02  0.51100000000E-03 0.  1.
         11   -1    0    0    0    0 -0.00000000000E+00 -0.00000000000E+00 -0.45593999997E+02  0.45594000000E+02  0.51100000000E-03 0. -1.
    9900012    2    1    2    0    0  0.19223610376E+02  0.31142974576E+02 -0.17712535193E+02  0.50528856326E+02  0.29999989289E+02 0.  0.
        -12    1    1    2    0    0 -0.19223610376E+02 -0.31142974576E+02  0.17712535193E+02  0.40659143674E+02  0.00000000000E+00 0.  1.
         11    1    3    3    0    0  0.12719848689E+02  0.12585408976E+02  0.40329304892E+01  0.18342616998E+02  0.51100000000E-03 0. -1.
        -11    1    3    3    0    0  0.12736447955E+01 -0.15114018916E+01 -0.54919242936E+01  0.58367576145E+01  0.51100000000E-03 0.  1.
         12    1    3    3    0    0  0.52301168921E+01  0.20068967492E+02 -0.16253541388E+02  0.26349481713E+02  0.00000000000E+00 0. -1.
</event>
<event>
 7    1  0.5155466E-011  0.5052888E+02  0.7816164E-02  0.1300439E+00
        -11   -1    0    0    0    0  0.00000000000E+00  0.00000000000E+00  0.45593999997E+02  0.45594000000E+02  0.51100000000E-03 0.  1.
         11   -1    0    0    0    0 -0.00000000000E+00 -0.00000000000E+00 -0.45593999997E+02  0.45594000000E+02  0.51100000000E-03 0. -1.
    9900012    2    1    2    0    0 -0.83163127645E+01 -0.22823058236E+02 -0.32605384661E+02  0.50528878586E+02  0.30000056950E+02 0.  0.
        -12    1    1    2    0    0  0.83163127645E+01  0.22823058236E+02  0.32605384661E+02  0.40659121414E+02  0.00000000000E+00 0.  1.
         11    1    3    3    0    0 -0.48715393332E+01 -0.62439681645E+01 -0.41342153857E+01  0.89336874262E+01  0.51100000000E-03 0. -1.
        -11    1    3    3    0    0 -0.29307790873E+01 -0.53177653726E+01 -0.29645697259E+02  0.30261121275E+02  0.51100000000E-03 0.  1.
        -12    1    3    3    0    0 -0.51399434392E+00 -0.11261324699E+02  0.11745279835E+01  0.11334069885E+02  0.00000000000E+00 0.  1.
</event>
<event>
 7    1  0.5155466E-011  0.5052883E+02  0.7816164E-02  0.1300439E+00
        -11   -1    0    0    0    0  0.00000000000E+00  0.00000000000E+00  0.45593999997E+02  0.45594000000E+02  0.51100000000E-03 0.  1.
         11   -1    0    0    0    0 -0.00000000000E+00 -0.00000000000E+00 -0.45593999997E+02  0.45594000000E+02  0.51100000000E-03 0. -1.
    9900012    2    1    2    0    0  0.65810989080E+01  0.39709511959E+02  0.57456292074E+01  0.50528825662E+02  0.29999896081E+02 0.  0.
        -12    1    1    2    0    0 -0.65810989080E+01 -0.39709511959E+02 -0.57456292074E+01  0.40659174338E+02  0.00000000000E+00 0.  1.
         11    1    3    3    0    0  0.10206738129E+02  0.93042877079E+01  0.34664396006E+01  0.14239504091E+02  0.51100000000E-03 0. -1.
        -11    1    3    3    0    0 -0.11162281183E+02  0.23329161669E+02  0.11147863030E+01  0.25886078385E+02  0.51100000000E-03 0.  1.
        -12    1    3    3    0    0  0.75366419619E+01  0.70760625822E+01  0.11644033038E+01  0.10403243186E+02  0.00000000000E+00 0.  1.
</event>
<event>
 7    1  0.5155466E-011  0.5052886E+02  0.7816164E-02  0.1300439E+00
        -11   -1    0    0    0    0  0.00000000000E+00  0.00000000000E+00  0.45593999997E+02  0.45594000000E+02  0.51100000000E-03 0.  1.
         11   -1    0    0    0    0 -0.00000000000E+00 -0.00000000000E+00 -0.45593999997E+02  0.45594000000E+02  0.51100000000E-03 0. -1.
    9900012    2    1    2    0    0 -0.34559118937E+02 -0.19905373454E+02  0.79126037192E+01  0.50528857219E+02  0.29999992004E+02 0.  0.
        -12    1    1    2    0    0  0.34559118937E+02  0.19905373454E+02 -0.79126037192E+01  0.40659142781E+02  0.00000000000E+00 0.  1.
         11    1    3    3    0    0 -0.20022961408E+02 -0.12885848778E+01 -0.28160747956E+01  0.20261039264E+02  0.51100000000E-03 0. -1.
        -11    1    3    3    0    0 -0.91550464890E+01 -0.19502992743E+02  0.12009321623E+02  0.24665875380E+02  0.51100000000E-03 0.  1.
        -12    1    3    3    0    0 -0.53811110402E+01  0.88620416671E+00 -0.12806431083E+01  0.56019425758E+01  0.00000000000E+00 0.  1.
</event>
<event>
 7    1  0.5155466E-011  0.5052887E+02  0.7816164E-02  0.1300439E+00
        -11   -1    0    0    0    0  0.00000000000E+00  0.00000000000E+00  0.45593999997E+02  0.45594000000E+02  0.51100000000E-03 0.  1.
         11   -1    0    0    0    0 -0.00000000000E+00 -0.00000000000E+00 -0.45593999997E+02  0.45594000000E+02  0.51100000000E-03 0. -1.
    9900012    2    1    2    0    0  0.26384147885E+02  0.30927046727E+02  0.74806259393E+00  0.50528867243E+02  0.30000022472E+02 0.  0.
        -12    1    1    2    0    0 -0.26384147885E+02 -0.30927046727E+02 -0.74806259393E+00  0.40659132757E+02  0.00000000000E+00 0.  1.
         11    1    3    3    0    0 -0.45203714553E+01  0.39178546486E+01 -0.10256632972E+01  0.60692115305E+01  0.51100000000E-03 0. -1.
        -11    1    3    3    0    0  0.27456998180E+02  0.25819985750E+02  0.67501852908E+01  0.38289991054E+02  0.51100000000E-03 0.  1.
         12    1    3    3    0    0  0.34475211607E+01  0.11892063286E+01 -0.49764593997E+01  0.61696646588E+01  0.00000000000E+00 0. -1.
</event>
<event>
 7    1  0.5155466E-011  0.5052883E+02  0.7816164E-02  0.1300439E+00
        -11   -1    0    0    0    0  0.00000000000E+00  0.00000000000E+00  0.45593999997E+02  0.45594000000E+02  0.51100000000E-03 0.  1.
         11   -1    0    0    0    0 -0.00000000000E+00 -0.00000000000E+00 -0.45593999997E+02  0.45594000000E+02  0.51100000000E-03 0. -1.
    9900012    2    1    2    0    0  0.88858163636E+01  0.79995299207E+00 -0.39668253284E+02  0.50528831589E+02  0.29999914099E+02 0.  0.
        -12    1    1    2    0    0 -0.88858163636E+01 -0.79995299207E+00  0.39668253284E+02  0.40659168411E+02  0.00000000000E+00 0.  1.
         11    1    3    3    0    0  0.11704009087E+02 -0.99677591751E+01 -0.29335896016E+02  0.33120006748E+02  0.51100000000E-03 0. -1.
        -11    1    3    3    0    0 -0.34338862332E+01  0.27329609793E+00 -0.32284570051E+01  0.47211439625E+01  0.51100000000E-03 0.  1.
         12    1    3    3    0    0  0.61569350998E+00  0.10494416069E+02 -0.71039002626E+01  0.12687680878E+02  0.00000000000E+00 0. -1.
</event>
<event>
 7    1  0.5155466E-011  0.5052886E+02  0.7816164E-02  0.1300439E+00
        -11   -1    0    0    0    0  0.00000000000E+00  0.00000000000E+00  0.45593999997E+02  0.45594000000E+02  0.51100000000E-03 0.  1.
         11   -1    0    0    0    0 -0.00000000000E+00 -0.00000000000E+00 -0.45593999997E+02  0.45594000000E+02  0.51100000000E-03 0. -1.
    9900012    2    1    2    0    0  0.18224934056E+02 -0.94261743452E+01 -0.35102207746E+02  0.50528856222E+02  0.29999988971E+02 0.  0.
        -12    1    1    2    0    0 -0.18224934056E+02  0.94261743452E+01  0.35102207746E+02  0.40659143778E+02  0.00000000000E+00 0.  1.
         11    1    3    3    0    0 -0.40702409258E+01 -0.47550337104E+01  0.12183575330E+01  0.63766450521E+01  0.51100000000E-03 0. -1.
        -11    1    3    3    0    0 -0.54513190737E+00  0.11280598723E+01 -0.67965691329E+00  0.14253496599E+01  0.51100000000E-03 0.  1.
         12    1    3    3    0    0  0.22840306889E+02 -0.57992005072E+01 -0.35640908366E+02  0.42726861510E+02  0.00000000000E+00 0. -1.
</event>
<event>
 7    1  0.5155466E-011  0.5052885E+02  0.7816164E-02  0.1300439E+00
        -11   -1    0    0    0    0  0.00000000000E+00  0.00000000000E+00  0.45593999997E+02  0.45594000000E+02  0.51100000000E-03 0.  1.
         11   -1    0    0    0    0 -0.00000000000E+00 -0.00000000000E+00 -0.45593999997E+02  0.45594000000E+02  0.51100000000E-03 0. -1.
    9900012    2    1    2    0    0 -0.27919224451E+02 -0.28943210090E+02  0.59977977066E+01  0.50528854884E+02  0.29999984905E+02 0.  0.
        -12    1    1    2    0    0  0.27919224451E+02  0.28943210090E+02 -0.59977977066E+01  0.40659145116E+02  0.00000000000E+00 0.  1.
         11    1    3    3    0    0 -0.64059461605E+01 -0.12579384207E+02 -0.41044028985E+01  0.14701128414E+02  0.51100000000E-03 0. -1.
        -11    1    3    3    0    0 -0.11210294510E+02 -0.49472039473E+01  0.15293525545E+02  0.19596873571E+02  0.51100000000E-03 0.  1.
        -12    1    3    3    0    0 -0.10302983781E+02 -0.11416621936E+02 -0.51913249396E+01  0.16230852899E+02  0.00000000000E+00 0.  1.
</event>
<event>
 7    1  0.5155466E-011  0.5052886E+02  0.7816164E-02  0.1300439E+00
        -11   -1    0    0    0    0  0.00000000000E+00  0.00000000000E+00  0.45593999997E+02  0.45594000000E+02  0.51100000000E-03 0.  1.
         11   -1    0    0    0    0 -0.00000000000E+00 -0.00000000000E+00 -0.45593999997E+02  0.45594000000E+02  0.51100000000E-03 0. -1.
    9900012    2    1    2    0    0  0.20215974948E+02 -0.27138714326E+02 -0.22538200405E+02  0.50528856676E+02  0.29999990353E+02 0.  0.
        -12    1    1    2    0    0 -0.20215974948E+02  0.27138714326E+02  0.22538200405E+02  0.40659143324E+02  0.00000000000E+00 0.  1.
         11    1    3    3    0    0  0.73622397084E+01 -0.79686506656E+01 -0.19210788498E+02  0.22062555653E+02  0.51100000000E-03 0. -1.
        -11    1    3    3    0    0  0.10371373154E+02 -0.54250808628E+01  0.43995023300E+01  0.12504099507E+02  0.51100000000E-03 0.  1.
        -12    1    3    3    0    0  0.24823620856E+01 -0.13744982798E+02 -0.77269142364E+01  0.15962201516E+02  0.00000000000E+00 0.  1.
</event>
<event>
 7    1  0.5155466E-011  0.5052886E+02  0.7816164E-02  0.1300439E+00
        -11   -1    0    0    0    0  0.00000000000E+00  0.00000000000E+00  0.45593999997E+02  0.45594000000E+02  0.51100000000E-03 0.  1.
         11   -1    0    0    0    0 -0.00000000000E+00 -0.00000000000E+00 -0.45593999997E+02  0.45594000000E+02  0.51100000000E-03 0. -1.
    9900012    2    1    2    0    0 -0.99295935277E+01  0.36251832025E+02 -0.15503983477E+02  0.50528860112E+02  0.30000000795E+02 0.  0.
        -12    1    1    2    0    0  0.99295935277E+01 -0.36251832025E+02  0.15503983477E+02  0.40659139888E+02  0.00000000000E+00 0.  1.
         11    1    3    3    0    0  0.10401299333E+01  0.66885783609E+01  0.56766716355E+00  0.67927311913E+01  0.51100000000E-03 0. -1.
        -11    1    3    3    0    0 -0.14279431938E+02  0.28386903993E+02 -0.20701571320E+02  0.37924577126E+02  0.51100000000E-03 0.  1.
        -12    1    3    3    0    0  0.33097084773E+01  0.11763496712E+01  0.46299206801E+01  0.58115517943E+01  0.00000000000E+00 0.  1.
</event>
<event>
 7    1  0.5155466E-011  0.5052886E+02  0.7816164E-02  0.1300439E+00
        -11   -1    0    0    0    0  0.00000000000E+00  0.00000000000E+00  0.45593999997E+02  0.45594000000E+02  0.51100000000E-03 0. -1.
         11   -1    0    0    0    0 -0.00000000000E+00 -0.00000000000E+00 -0.45593999997E+02  0.45594000000E+02  0.51100000000E-03 0.  1.
    9900012    2    1    2    0    0  0.31829967570E+02  0.22444090187E+02 -0.11673985624E+02  0.50528856377E+02  0.29999989442E+02 0.  0.
        -12    1    1    2    0    0 -0.31829967570E+02 -0.22444090187E+02  0.11673985624E+02  0.40659143623E+02  0.00000000000E+00 0.  1.
         11    1    3    3    0    0  0.91549542275E+01  0.12713085803E+02  0.40969292196E+01  0.16193225955E+02  0.51100000000E-03 0. -1.
        -11    1    3    3    0    0  0.23749931596E+02  0.46497183938E+01 -0.16202680792E+02  0.29123976327E+02  0.51100000000E-03 0.  1.
         12    1    3    3    0    0 -0.10749182541E+01  0.50812859909E+01  0.43176594797E+00  0.52116540952E+01  0.00000000000E+00 0. -1.
</event>
<event>
 7    1  0.5155466E-011  0.5052886E+02  0.7816164E-02  0.1300439E+00
        -11   -1    0    0    0    0  0.00000000000E+00  0.00000000000E+00  0.45593999997E+02  0.45594000000E+02  0.51100000000E-03 0. -1.
         11   -1    0    0    0    0 -0.00000000000E+00 -0.00000000000E+00 -0.45593999997E+02  0.45594000000E+02  0.51100000000E-03 0.  1.
    9900012    2    1    2    0    0 -0.33651712195E+02  0.17282242575E+02  0.14901405823E+02  0.50528861574E+02  0.30000005239E+02 0.  0.
        -12    1    1    2    0    0  0.33651712195E+02 -0.17282242575E+02 -0.14901405823E+02  0.40659138426E+02  0.00000000000E+00 0.  1.
         11    1    3    3    0    0 -0.21470089054E+02 -0.48833479324E+01  0.25198756111E+01  0.22162165607E+02  0.51100000000E-03 0. -1.
        -11    1    3    3    0    0 -0.68853422890E+01  0.15479780867E+02  0.73854597723E+01  0.18481790239E+02  0.51100000000E-03 0.  1.
         12    1    3    3    0    0 -0.52962808516E+01  0.66858096399E+01  0.49960704396E+01  0.98849057273E+01  0.00000000000E+00 0. -1.
</event>
<event>
 7    1  0.5155466E-011  0.5052886E+02  0.7816164E-02  0.1300439E+00
        -11   -1    0    0    0    0  0.00000000000E+00  0.00000000000E+00  0.45593999997E+02  0.45594000000E+02  0.51100000000E-03 0.  1.
         11   -1    0    0    0    0 -0.00000000000E+00 -0.00000000000E+00 -0.45593999997E+02  0.45594000000E+02  0.51100000000E-03 0. -1.
    9900012    2    1    2    0    0  0.58949507545E+01 -0.19326087535E+02 -0.35283387111E+02  0.50528861915E+02  0.30000006278E+02 0.  0.
        -12    1    1    2    0    0 -0.58949507545E+01  0.19326087535E+02  0.35283387111E+02  0.40659138085E+02  0.00000000000E+00 0.  1.
         11    1    3    3    0    0  0.11002277592E+02 -0.81728118764E+01 -0.18925883793E+02  0.23367371349E+02  0.51100000000E-03 0. -1.
        -11    1    3    3    0    0 -0.83369955510E+01  0.88186898915E+00 -0.30255480039E+01  0.89127509062E+01  0.51100000000E-03 0.  1.
        -12    1    3    3    0    0  0.32296687132E+01 -0.12035144647E+02 -0.13331955314E+02  0.18248739660E+02  0.00000000000E+00 0.  1.
</event>
<event>
 7    1  0.5155466E-011  0.5052886E+02  0.7816164E-02  0.1300439E+00
        -11   -1    0    0    0    0  0.00000000000E+00  0.00000000000E+00  0.45593999997E+02  0.45594000000E+02  0.51100000000E-03 0. -1.
         11   -1    0    0    0    0 -0.00000000000E+00 -0.00000000000E+00 -0.45593999997E+02  0.45594000000E+02  0.51100000000E-03 0.  1.
    9900012    2    1    2    0    0 -0.85027686732E+01 -0.39667645884E+02  0.27104955239E+01  0.50528855997E+02  0.29999988288E+02 0.  0.
        -12    1    1    2    0    0  0.85027686732E+01  0.39667645884E+02 -0.27104955239E+01  0.40659144003E+02  0.00000000000E+00 0.  1.
         11    1    3    3    0    0 -0.16514936515E+02 -0.27515621403E+02  0.50292088367E+01  0.32483003110E+02  0.51100000000E-03 0. -1.
        -11    1    3    3    0    0  0.74040491518E+01 -0.23689832493E+01  0.65880112571E+00  0.78016693510E+01  0.51100000000E-03 0.  1.
         12    1    3    3    0    0  0.60811868982E+00 -0.97830412317E+01 -0.29775144386E+01  0.10244183536E+02  0.00000000000E+00 0. -1.
</event>
<event>
 7    1  0.5155466E-011  0.5052887E+02  0.7816164E-02  0.1300439E+00
        -11   -1    0    0    0    0  0.00000000000E+00  0.00000000000E+00  0.45593999997E+02  0.45594000000E+02  0.51100000000E-03 0. -1.
         11   -1    0    0    0    0 -0.00000000000E+00 -0.00000000000E+00 -0.45593999997E+02  0.45594000000E+02  0.51100000000E-03 0.  1.
    9900012    2    1    2    0    0 -0.27582135447E+02  0.90846014850E+01  0.28458055693E+02  0.50528866785E+02  0.30000021081E+02 0.  0.
        -12    1    1    2    0    0  0.27582135447E+02 -0.90846014850E+01 -0.28458055693E+02  0.40659133215E+02  0.00000000000E+00 0.  1.
         11    1    3    3    0    0 -0.17263539272E+02  0.14597440287E+02  0.10106383831E+02  0.24763966676E+02  0.51100000000E-03 0. -1.
        -11    1    3    3    0    0 -0.11905294015E+02 -0.73010187042E+01  0.18710066464E+02  0.23347537066E+02  0.51100000000E-03 0.  1.
         12    1    3    3    0    0  0.15866978394E+01  0.17881799025E+01 -0.35839460203E+00  0.24173630443E+01  0.00000000000E+00 0. -1.
</event>
<event>
 7    1  0.5155466E-011  0.5052886E+02  0.7816164E-02  0.1300439E+00
        -11   -1    0    0    0    0  0.00000000000E+00  0.00000000000E+00  0.45593999997E+02  0.45594000000E+02  0.51100000000E-03 0. -1.
         11   -1    0    0    0    0 -0.00000000000E+00 -0.00000000000E+00 -0.45593999997E+02  0.45594000000E+02  0.51100000000E-03 0.  1.
    9900012    2    1    2    0    0 -0.33531567638E+02  0.22098632744E+02 -0.63600413700E+01  0.50528859285E+02  0.29999998283E+02 0.  0.
        -12    1    1    2    0    0  0.33531567638E+02 -0.22098632744E+02  0.63600413700E+01  0.40659140715E+02  0.00000000000E+00 0.  1.
         11    1    3    3    0    0 -0.10913805282E+02  0.12263917609E+02 -0.99757801255E+00  0.16447187693E+02  0.51100000000E-03 0. -1.
        -11    1    3    3    0    0 -0.93586004959E+01 -0.30778488453E+01 -0.10968643563E+02  0.14743395085E+02  0.51100000000E-03 0.  1.
        -12    1    3    3    0    0 -0.13259161860E+02  0.12912563980E+02  0.56061802053E+01  0.19338276507E+02  0.00000000000E+00 0.  1.
</event>
<event>
 7    1  0.5155466E-011  0.5052888E+02  0.7816164E-02  0.1300439E+00
        -11   -1    0    0    0    0  0.00000000000E+00  0.00000000000E+00  0.45593999997E+02  0.45594000000E+02  0.51100000000E-03 0.  1.
         11   -1    0    0    0    0 -0.00000000000E+00 -0.00000000000E+00 -0.45593999997E+02  0.45594000000E+02  0.51100000000E-03 0. -1.
    9900012    2    1    2    0    0 -0.21089010705E+01 -0.23283820438E+02 -0.33265299593E+02  0.50528881528E+02  0.30000065892E+02 0.  0.
        -12    1    1    2    0    0  0.21089010705E+01  0.23283820438E+02  0.33265299593E+02  0.40659118472E+02  0.00000000000E+00 0.  1.
         11    1    3    3    0    0  0.18690012547E+01 -0.31249151335E+01 -0.23820347280E+01  0.43511320352E+01  0.51100000000E-03 0. -1.
        -11    1    3    3    0    0 -0.70860849452E+01 -0.84959473131E+01  0.19162297074E+01  0.11227896381E+02  0.51100000000E-03 0.  1.
        -12    1    3    3    0    0  0.31081826201E+01 -0.11662957991E+02 -0.32799494572E+02  0.34949853111E+02  0.00000000000E+00 0.  1.
</event>
<event>
 7    1  0.5155466E-011  0.5052887E+02  0.7816164E-02  0.1300439E+00
        -11   -1    0    0    0    0  0.00000000000E+00  0.00000000000E+00  0.45593999997E+02  0.45594000000E+02  0.51100000000E-03 0.  1.
         11   -1    0    0    0    0 -0.00000000000E+00 -0.00000000000E+00 -0.45593999997E+02  0.45594000000E+02  0.51100000000E-03 0. -1.
    9900012    2    1    2    0    0  0.29624231767E+02  0.23899740069E+02 -0.14295893139E+02  0.50528865187E+02  0.30000016221E+02 0.  0.
        -12    1    1    2    0    0 -0.29624231767E+02 -0.23899740069E+02  0.14295893139E+02  0.40659134813E+02  0.00000000000E+00 0.  1.
         11    1    3    3    0    0  0.34528672910E+02  0.24056981255E+02 -0.11326907388E+02  0.43580574012E+02  0.51100000000E-03 0. -1.
        -11    1    3    3    0    0 -0.50467669656E+01  0.97565714910E+00 -0.24237233108E+01  0.56829744523E+01  0.51100000000E-03 0.  1.
         12    1    3    3    0    0  0.14232582276E+00 -0.11328983352E+01 -0.54526244029E+00  0.12653167218E+01  0.00000000000E+00 0. -1.
</event>
<event>
 7    1  0.5155466E-011  0.5052887E+02  0.7816164E-02  0.1300439E+00
        -11   -1    0    0    0    0  0.00000000000E+00  0.00000000000E+00  0.45593999997E+02  0.45594000000E+02  0.51100000000E-03 0.  1.
         11   -1    0    0    0    0 -0.00000000000E+00 -0.00000000000E+00 -0.45593999997E+02  0.45594000000E+02  0.51100000000E-03 0. -1.
    9900012    2    1    2    0    0  0.12268503597E+02 -0.19444032513E+02 -0.33534734740E+02  0.50528868000E+02  0.30000024773E+02 0.  0.
        -12    1    1    2    0    0 -0.12268503597E+02  0.19444032513E+02  0.33534734740E+02  0.40659132000E+02  0.00000000000E+00 0.  1.
         11    1    3    3    0    0  0.91685845543E+01 -0.54603406348E+01 -0.12843277660E+02  0.16698144924E+02  0.51100000000E-03 0. -1.
        -11    1    3    3    0    0 -0.71783400982E+01 -0.14075196639E+02 -0.16150195193E+02  0.22593550673E+02  0.51100000000E-03 0.  1.
        -12    1    3    3    0    0  0.10278259141E+02  0.91504760436E-01 -0.45412618870E+01  0.11237172403E+02  0.00000000000E+00 0.  1.
</event>
<event>
 7    1  0.5155466E-011  0.5052886E+02  0.7816164E-02  0.1300439E+00
        -11   -1    0    0    0    0  0.00000000000E+00  0.00000000000E+00  0.45593999997E+02  0.45594000000E+02  0.51100000000E-03 0. -1.
         11   -1    0    0    0    0 -0.00000000000E+00 -0.00000000000E+00 -0.45593999997E+02  0.45594000000E+02  0.51100000000E-03 0.  1.
    9900012    2    1    2    0    0 -0.31764071985E+02 -0.22724260716E+02  0.11305637104E+02  0.50528859275E+02  0.29999998254E+02 0.  0.
        -12    1    1    2    0    0  0.31764071985E+02  0.22724260716E+02 -0.11305637104E+02  0.40659140725E+02  0.00000000000E+00 0.  1.
         11    1    3    3    0    0 -0.67813298974E+01 -0.10115087142E+02  0.59097158802E+01  0.13536105980E+02  0.51100000000E-03 0. -1.
        -11    1    3    3    0    0 -0.70100669117E+00  0.26565901236E+01  0.77420764883E+01  0.82151463820E+01  0.51100000000E-03 0.  1.
        -12    1    3    3    0    0 -0.24281735396E+02 -0.15265763698E+02 -0.23461552646E+01  0.28777606913E+02  0.00000000000E+00 0.  1.
</event>
<event>
 7    1  0.5155466E-011  0.5052885E+02  0.7816164E-02  0.1300439E+00
        -11   -1    0    0    0    0  0.00000000000E+00  0.00000000000E+00  0.45593999997E+02  0.45594000000E+02  0.51100000000E-03 0. -1.
         11   -1    0    0    0    0 -0.00000000000E+00 -0.00000000000E+00 -0.45593999997E+02  0.45594000000E+02  0.51100000000E-03 0.  1.
    9900012    2    1    2    0    0  0.24296860259E+01  0.39525333074E+02  0.92201572841E+01  0.50528848150E+02  0.29999964437E+02 0.  0.
        -12    1    1    2    0    0 -0.24296860259E+01 -0.39525333074E+02 -0.92201572841E+01  0.40659151850E+02  0.00000000000E+00 0.  1.
         11    1    3    3    0    0  0.11496547992E+02  0.14360866693E+02  0.79466033867E+01  0.20038802698E+02  0.51100000000E-03 0. -1.
        -11    1    3    3    0    0 -0.16607607395E+01  0.21481569022E+02 -0.19034869947E+01  0.21629590770E+02  0.51100000000E-03 0.  1.
         12    1    3    3    0    0 -0.74061012270E+01  0.36828973594E+01  0.31770408921E+01  0.88604546822E+01  0.00000000000E+00 0. -1.
</event>
<event>
 7    1  0.5155466E-011  0.5052886E+02  0.7816164E-02  0.1300439E+00
        -11   -1    0    0    0    0  0.00000000000E+00  0.00000000000E+00  0.45593999997E+02  0.45594000000E+02  0.51100000000E-03 0.  1.
         11   -1    0    0    0    0 -0.00000000000E+00 -0.00000000000E+00 -0.45593999997E+02  0.45594000000E+02  0.51100000000E-03 0. -1.
    9900012    2    1    2    0    0  0.12308592020E+02 -0.38172984022E+02 -0.66698972925E+01  0.50528859865E+02  0.30000000045E+02 0.  0.
        -12    1    1    2    0    0 -0.12308592020E+02  0.38172984022E+02  0.66698972925E+01  0.40659140135E+02  0.00000000000E+00 0.  1.
         11    1    3    3    0    0  0.72916454744E+01 -0.30052098211E+02  0.64777713932E+01  0.31595224688E+02  0.51100000000E-03 0. -1.
        -11    1    3    3    0    0  0.37030603686E+00  0.21122835156E+01 -0.35836013506E+01  0.41762503652E+01  0.51100000000E-03 0.  1.
         12    1    3    3    0    0  0.46466405092E+01 -0.10233169327E+02 -0.95640673351E+01  0.14757384812E+02  0.00000000000E+00 0. -1.
</event>
<event>
 7    1  0.5155466E-011  0.5052886E+02  0.7816164E-02  0.1300439E+00
        -11   -1    0    0    0    0  0.00000000000E+00  0.00000000000E+00  0.45593999997E+02  0.45594000000E+02  0.51100000000E-03 0.  1.
         11   -1    0    0    0    0 -0.00000000000E+00 -0.00000000000E+00 -0.45593999997E+02  0.45594000000E+02  0.51100000000E-03 0. -1.
    9900012    2    1    2    0    0  0.11500756594E+02  0.38688432870E+02 -0.49095438266E+01  0.50528857600E+02  0.29999993160E+02 0.  0.
        -12    1    1    2    0    0 -0.11500756594E+02 -0.38688432870E+02  0.49095438266E+01  0.40659142400E+02  0.00000000000E+00 0.  1.
         11    1    3    3    0    0  0.11834936987E+02  0.11867226704E+02 -0.12712173713E+02  0.21035592787E+02  0.51100000000E-03 0. -1.
        -11    1    3    3    0    0  0.12719174795E+01  0.22206825885E+02  0.26633163385E+01  0.22402101333E+02  0.51100000000E-03 0.  1.
         12    1    3    3    0    0 -0.16060978733E+01  0.46143802804E+01  0.51393135475E+01  0.70911634794E+01  0.00000000000E+00 0. -1.
</event>
<event>
 7    1  0.6975041E-011  0.5052885E+02  0.7816164E-02  0.1300439E+00
        -11   -1    0    0    0    0  0.00000000000E+00  0.00000000000E+00  0.45593999997E+02  0.45594000000E+02  0.51100000000E-03 0. -1.
         11   -1    0    0    0    0 -0.00000000000E+00 -0.00000000000E+00 -0.45593999997E+02  0.45594000000E+02  0.51100000000E-03 0.  1.
    9900012    2    1    2    0    0  0.12381947286E+02 -0.19423587546E+02  0.33504894324E+02  0.50528852008E+02  0.29999976164E+02 0.  0.
        -12    1    1    2    0    0 -0.12381947286E+02  0.19423587546E+02 -0.33504894324E+02  0.40659147992E+02  0.00000000000E+00 0.  1.
         11    1    3    3    0    0  0.75744507454E+01 -0.17027487991E+02  0.14082976990E+02  0.23358893222E+02  0.51100000000E-03 0. -1.
        -11    1    3    3    0    0 -0.36379336825E+01  0.40289336903E+01  0.46901016097E+00  0.54485630171E+01  0.51100000000E-03 0.  1.
        -12    1    3    3    0    0  0.84454302227E+01 -0.64250332453E+01  0.18952907173E+02  0.21721395769E+02  0.00000000000E+00 0.  1.
</event>
<event>
 7    1  0.5155466E-011  0.5052886E+02  0.7816164E-02  0.1300439E+00
        -11   -1    0    0    0    0  0.00000000000E+00  0.00000000000E+00  0.45593999997E+02  0.45594000000E+02  0.51100000000E-03 0. -1.
         11   -1    0    0    0    0 -0.00000000000E+00 -0.00000000000E+00 -0.45593999997E+02  0.45594000000E+02  0.51100000000E-03 0.  1.
    9900012    2    1    2    0    0  0.94036522917E+01  0.17012971659E+01  0.39520152349E+02  0.50528861665E+02  0.30000005518E+02 0.  0.
        -12    1    1    2    0    0 -0.94036522917E+01 -0.17012971659E+01 -0.39520152349E+02  0.40659138335E+02  0.00000000000E+00 0.  1.
         11    1    3    3    0    0  0.14046156048E+02 -0.16494760591E+01  0.25829135459E+02  0.29447572223E+02  0.51100000000E-03 0. -1.
        -11    1    3    3    0    0 -0.63898220744E+01  0.64257453943E+01  0.25817143874E+01  0.94225940937E+01  0.51100000000E-03 0.  1.
        -12    1    3    3    0    0  0.17473183177E+01 -0.30749721693E+01  0.11109302503E+02  0.11658695349E+02  0.00000000000E+00 0.  1.
</event>
<event>
 7    1  0.6604544E-011  0.5052886E+02  0.7816164E-02  0.1300439E+00
        -11   -1    0    0    0    0  0.00000000000E+00  0.00000000000E+00  0.45593999997E+02  0.45594000000E+02  0.51100000000E-03 0.  1.
         11   -1    0    0    0    0 -0.00000000000E+00 -0.00000000000E+00 -0.45593999997E+02  0.45594000000E+02  0.51100000000E-03 0. -1.
    9900012    2    1    2    0    0 -0.65126803715E+01 -0.37098653296E+02 -0.15311443109E+02  0.50528863609E+02  0.30000011425E+02 0.  0.
        -12    1    1    2    0    0  0.65126803715E+01  0.37098653296E+02  0.15311443109E+02  0.40659136391E+02  0.00000000000E+00 0.  1.
         11    1    3    3    0    0 -0.13378063382E+01 -0.13452496234E+02 -0.16355998750E+02  0.21219756739E+02  0.51100000000E-03 0. -1.
        -11    1    3    3    0    0 -0.42111255826E+01 -0.25606038835E+02  0.33124551262E+01  0.26160565030E+02  0.51100000000E-03 0.  1.
        -12    1    3    3    0    0 -0.96374845078E+00  0.19598817724E+01 -0.22678994851E+01  0.31485418391E+01  0.00000000000E+00 0.  1.
</event>
<event>
 7    1  0.5155466E-011  0.5052885E+02  0.7816164E-02  0.1300439E+00
        -11   -1    0    0    0    0  0.00000000000E+00  0.00000000000E+00  0.45593999997E+02  0.45594000000E+02  0.51100000000E-03 0.  1.
         11   -1    0    0    0    0 -0.00000000000E+00 -0.00000000000E+00 -0.45593999997E+02  0.45594000000E+02  0.51100000000E-03 0. -1.
    9900012    2    1    2    0    0  0.30433431484E+02 -0.10045900420E+02 -0.25021038546E+02  0.50528852972E+02  0.29999979093E+02 0.  0.
        -12    1    1    2    0    0 -0.30433431484E+02  0.10045900420E+02  0.25021038546E+02  0.40659147028E+02  0.00000000000E+00 0.  1.
         11    1    3    3    0    0  0.10278980815E+01 -0.71405362851E+01  0.15790289674E+01  0.73849282763E+01  0.51100000000E-03 0. -1.
        -11    1    3    3    0    0  0.29298623818E+01  0.54271194631E+01 -0.57128817303E+01  0.84068268193E+01  0.51100000000E-03 0.  1.
         12    1    3    3    0    0  0.26475671021E+02 -0.83324835981E+01 -0.20887185783E+02  0.34737097876E+02  0.00000000000E+00 0. -1.
</event>
<event>
 7    1  0.5155466E-011  0.5052885E+02  0.7816164E-02  0.1300439E+00
        -11   -1    0    0    0    0  0.00000000000E+00  0.00000000000E+00  0.45593999997E+02  0.45594000000E+02  0.51100000000E-03 0. -1.
         11   -1    0    0    0    0 -0.00000000000E+00 -0.00000000000E+00 -0.45593999997E+02  0.45594000000E+02  0.51100000000E-03 0.  1.
    9900012    2    1    2    0    0  0.82973458858E+01 -0.32349700903E+02  0.23190882781E+02  0.50528854148E+02  0.29999982668E+02 0.  0.
        -12    1    1    2    0    0 -0.82973458858E+01  0.32349700903E+02 -0.23190882781E+02  0.40659145852E+02  0.00000000000E+00 0.  1.
         11    1    3    3    0    0 -0.35592179229E+01  0.57260954368E+00  0.74703980088E+01  0.82947429485E+01  0.51100000000E-03 0. -1.
        -11    1    3    3    0    0  0.13366553543E+02 -0.29578684803E+02  0.76193232626E+01  0.33340927334E+02  0.51100000000E-03 0.  1.
         12    1    3    3    0    0 -0.15099897348E+01 -0.33436256437E+01  0.81011615101E+01  0.88931838650E+01  0.00000000000E+00 0. -1.
</event>
<event>
 7    1  0.5155466E-011  0.5052885E+02  0.7816164E-02  0.1300439E+00
        -11   -1    0    0    0    0  0.00000000000E+00  0.00000000000E+00  0.45593999997E+02  0.45594000000E+02  0.51100000000E-03 0. -1.
         11   -1    0    0    0    0 -0.00000000000E+00 -0.00000000000E+00 -0.45593999997E+02  0.45594000000E+02  0.51100000000E-03 0.  1.
    9900012    2    1    2    0    0 -0.50817131682E+01  0.30554280596E+02  0.26339670839E+02  0.50528854271E+02  0.29999983043E+02 0.  0.
        -12    1    1    2    0    0  0.50817131682E+01 -0.30554280596E+02 -0.26339670839E+02  0.40659145729E+02  0.00000000000E+00 0.  1.
         11    1    3    3    0    0  0.86980284411E+00  0.21750179044E+01  0.48419084774E+00  0.23920077153E+01  0.51100000000E-03 0.  1.
        -11    1    3    3    0    0 -0.87582281803E+01  0.32309346735E+02  0.15873962107E+02  0.37048388906E+02  0.51100000000E-03 0. -1.
        -12    1    3    3    0    0  0.28067121680E+01 -0.39300840432E+01  0.99815178844E+01  0.11088457650E+02  0.00000000000E+00 0.  1.
</event>
<event>
 7    1  0.5155466E-011  0.5052886E+02  0.7816164E-02  0.1300439E+00
        -11   -1    0    0    0    0  0.00000000000E+00  0.00000000000E+00  0.45593999997E+02  0.45594000000E+02  0.51100000000E-03 0. -1.
         11   -1    0    0    0    0 -0.00000000000E+00 -0.00000000000E+00 -0.45593999997E+02  0.45594000000E+02  0.51100000000E-03 0.  1.
    9900012    2    1    2    0    0 -0.25235466122E+01 -0.16491182110E+02  0.37078811162E+02  0.50528860658E+02  0.30000002455E+02 0.  0.
        -12    1    1    2    0    0  0.25235466122E+01  0.16491182110E+02 -0.37078811162E+02  0.40659139342E+02  0.00000000000E+00 0.  1.
         11    1    3    3    0    0 -0.63928364683E+01 -0.23344766754E+01 -0.76376102921E+00  0.68484648374E+01  0.51100000000E-03 0. -1.
        -11    1    3    3    0    0  0.72313867432E+01 -0.12873673752E+02  0.16946996814E+02  0.22477213604E+02  0.51100000000E-03 0.  1.
        -12    1    3    3    0    0 -0.33620968871E+01 -0.12830316822E+01  0.20895575377E+02  0.21203182216E+02  0.00000000000E+00 0.  1.
</event>
<event>
 7    1  0.5155466E-011  0.5052885E+02  0.7816164E-02  0.1300439E+00
        -11   -1    0    0    0    0  0.00000000000E+00  0.00000000000E+00  0.45593999997E+02  0.45594000000E+02  0.51100000000E-03 0.  1.
         11   -1    0    0    0    0 -0.00000000000E+00 -0.00000000000E+00 -0.45593999997E+02  0.45594000000E+02  0.51100000000E-03 0. -1.
    9900012    2    1    2    0    0 -0.46188618158E+01  0.47580091543E+00 -0.40393143282E+02  0.50528852257E+02  0.29999976922E+02 0.  0.
        -12    1    1    2    0    0  0.46188618158E+01 -0.47580091543E+00  0.40393143282E+02  0.40659147743E+02  0.00000000000E+00 0.  1.
         11    1    3    3    0    0 -0.41384887836E+01 -0.18110807128E+01 -0.17611259741E+02  0.18181407335E+02  0.51100000000E-03 0. -1.
        -11    1    3    3    0    0 -0.51467059735E+00  0.37901956133E+00  0.47282281034E+01  0.47712349460E+01  0.51100000000E-03 0.  1.
        -12    1    3    3    0    0  0.34297565090E-01  0.19078620670E+01 -0.27510111644E+02  0.27576209976E+02  0.00000000000E+00 0.  1.
</event>
<event>
 7    1  0.9650120E-011  0.5052886E+02  0.7816164E-02  0.1300439E+00
        -11   -1    0    0    0    0  0.00000000000E+00  0.00000000000E+00  0.45593999997E+02  0.45594000000E+02  0.51100000000E-03 0. -1.
         11   -1    0    0    0    0 -0.00000000000E+00 -0.00000000000E+00 -0.45593999997E+02  0.45594000000E+02  0.51100000000E-03 0.  1.
    9900012    2    1    2    0    0 -0.11655938285E+02 -0.94171486457E+01  0.37797120566E+02  0.50528857006E+02  0.29999991356E+02 0.  0.
        -12    1    1    2    0    0  0.11655938285E+02  0.94171486457E+01 -0.37797120566E+02  0.40659142994E+02  0.00000000000E+00 0.  1.
         11    1    3    3    0    0 -0.10333219571E+02 -0.10675784015E+02  0.35481386771E+02  0.38466564683E+02  0.51100000000E-03 0. -1.
        -11    1    3    3    0    0  0.11608181183E+01 -0.34974091666E+01 -0.28160218083E+01  0.46378172311E+01  0.51100000000E-03 0.  1.
        -12    1    3    3    0    0 -0.24835368330E+01  0.47560445360E+01  0.51317556027E+01  0.74244750923E+01  0.00000000000E+00 0.  1.
</event>
<event>
 7    1  0.5155466E-011  0.5052886E+02  0.7816164E-02  0.1300439E+00
        -11   -1    0    0    0    0  0.00000000000E+00  0.00000000000E+00  0.45593999997E+02  0.45594000000E+02  0.51100000000E-03 0. -1.
         11   -1    0    0    0    0 -0.00000000000E+00 -0.00000000000E+00 -0.45593999997E+02  0.45594000000E+02  0.51100000000E-03 0.  1.
    9900012    2    1    2    0    0 -0.28189428062E+02 -0.14968089053E+02  0.25188843181E+02  0.50528863694E+02  0.30000011685E+02 0.  0.
        -12    1    1    2    0    0  0.28189428062E+02  0.14968089053E+02 -0.25188843181E+02  0.40659136306E+02  0.00000000000E+00 0.  1.
         11    1    3    3    0    0 -0.17855377871E-01  0.67669958591E+00  0.15523208717E+02  0.15537961587E+02  0.51100000000E-03 0. -1.
        -11    1    3    3    0    0 -0.32035031212E+01 -0.55849790531E+01  0.15069437873E+00  0.64402742432E+01  0.51100000000E-03 0.  1.
         12    1    3    3    0    0 -0.24968069563E+02 -0.10059809585E+02  0.95149400851E+01  0.28550627864E+02  0.00000000000E+00 0. -1.
</event>
<event>
 7    1  0.5155466E-011  0.5052886E+02  0.7816164E-02  0.1300439E+00
        -11   -1    0    0    0    0  0.00000000000E+00  0.00000000000E+00  0.45593999997E+02  0.45594000000E+02  0.51100000000E-03 0.  1.
         11   -1    0    0    0    0 -0.00000000000E+00 -0.00000000000E+00 -0.45593999997E+02  0.45594000000E+02  0.51100000000E-03 0. -1.
    9900012    2    1    2    0    0  0.23159542296E+02 -0.90635093408E+00 -0.33406281480E+02  0.50528861868E+02  0.30000006133E+02 0.  0.
        -12    1    1    2    0    0 -0.23159542296E+02  0.90635093408E+00  0.33406281480E+02  0.40659138132E+02  0.00000000000E+00 0.  1.
         11    1    3    3    0    0  0.11547454334E+02  0.51076605525E+01 -0.20286611160E+01  0.12788563802E+02  0.51100000000E-03 0. -1.
        -11    1    3    3    0    0  0.37076370484E+01 -0.10995958166E+02 -0.18259536105E+02  0.21634886815E+02  0.51100000000E-03 0.  1.
        -12    1    3    3    0    0  0.79044509133E+01  0.49819466792E+01 -0.13118084259E+02  0.16105411252E+02  0.00000000000E+00 0.  1.
</event>
<event>
 7    1  0.5155466E-011  0.5052885E+02  0.7816164E-02  0.1300439E+00
        -11   -1    0    0    0    0  0.00000000000E+00  0.00000000000E+00  0.45593999997E+02  0.45594000000E+02  0.51100000000E-03 0. -1.
         11   -1    0    0    0    0 -0.00000000000E+00 -0.00000000000E+00 -0.45593999997E+02  0.45594000000E+02  0.51100000000E-03 0.  1.
    9900012    2    1    2    0    0  0.25844780290E+02 -0.31111935449E+02  0.41547157000E+01  0.50528845334E+02  0.29999955876E+02 0.  0.
        -12    1    1    2    0    0 -0.25844780290E+02  0.31111935449E+02 -0.41547157000E+01  0.40659154666E+02  0.00000000000E+00 0.  1.
         11    1    3    3    0    0  0.15312362084E+02 -0.49374803855E+01  0.29810585321E+00  0.16091488822E+02  0.51100000000E-03 0. -1.
        -11    1    3    3    0    0 -0.75945944373E+00 -0.22085876157E+02  0.38280632128E+01  0.22428035413E+02  0.51100000000E-03 0.  1.
        -12    1    3    3    0    0  0.11291877650E+02 -0.40885789067E+01  0.28546633935E-01  0.12009321099E+02  0.00000000000E+00 0.  1.
</event>
<event>
 7    1  0.6221338E-011  0.5052886E+02  0.7816164E-02  0.1300439E+00
        -11   -1    0    0    0    0  0.00000000000E+00  0.00000000000E+00  0.45593999997E+02  0.45594000000E+02  0.51100000000E-03 0. -1.
         11   -1    0    0    0    0 -0.00000000000E+00 -0.00000000000E+00 -0.45593999997E+02  0.45594000000E+02  0.51100000000E-03 0.  1.
    9900012    2    1    2    0    0  0.63082170291E+01  0.17908593132E+02  0.35953504553E+02  0.50528858350E+02  0.29999995441E+02 0.  0.
        -12    1    1    2    0    0 -0.63082170291E+01 -0.17908593132E+02 -0.35953504553E+02  0.40659141650E+02  0.00000000000E+00 0.  1.
         11    1    3    3    0    0  0.31888938528E+01  0.13307260643E+02  0.22184351664E+02  0.26065258273E+02  0.51100000000E-03 0. -1.
        -11    1    3    3    0    0  0.83981548995E+01 -0.32501293903E+01  0.17603036331E+01  0.91755662448E+01  0.51100000000E-03 0.  1.
        -12    1    3    3    0    0 -0.52788317233E+01  0.78514618796E+01  0.12008849256E+02  0.15288033832E+02  0.00000000000E+00 0.  1.
</event>
<event>
 7    1  0.5155466E-011  0.5052884E+02  0.7816164E-02  0.1300439E+00
        -11   -1    0    0    0    0  0.00000000000E+00  0.00000000000E+00  0.45593999997E+02  0.45594000000E+02  0.51100000000E-03 0.  1.
         11   -1    0    0    0    0 -0.00000000000E+00 -0.00000000000E+00 -0.45593999997E+02  0.45594000000E+02  0.51100000000E-03 0. -1.
    9900012    2    1    2    0    0 -0.39624359535E+02  0.71186403115E+00 -0.90868275072E+01  0.50528842937E+02  0.29999948590E+02 0.  0.
        -12    1    1    2    0    0  0.39624359535E+02 -0.71186403115E+00  0.90868275072E+01  0.40659157063E+02  0.00000000000E+00 0.  1.
         11    1    3    3    0    0 -0.34580489672E+02  0.43094225662E+01 -0.15201754610E+02  0.38019399421E+02  0.51100000000E-03 0. -1.
        -11    1    3    3    0    0 -0.43257226802E+01  0.43132459863E-01  0.74089821231E+01  0.85794378299E+01  0.51100000000E-03 0.  1.
         12    1    3    3    0    0 -0.71814718258E+00 -0.36406909949E+01 -0.12940550199E+01  0.39300056858E+01  0.00000000000E+00 0. -1.
</event>
<event>
 7    1  0.5155466E-011  0.5052898E+02  0.7816164E-02  0.1300438E+00
        -11   -1    0    0    0    0  0.00000000000E+00  0.00000000000E+00  0.45593999997E+02  0.45594000000E+02  0.51100000000E-03 0.  1.
         11   -1    0    0    0    0 -0.00000000000E+00 -0.00000000000E+00 -0.45593999997E+02  0.45594000000E+02  0.51100000000E-03 0. -1.
    9900012    2    1    2    0    0 -0.29189784213E+02  0.37663180353E+01 -0.28052227700E+02  0.50528977227E+02  0.30000356776E+02 0.  0.
        -12    1    1    2    0    0  0.29189784213E+02 -0.37663180353E+01  0.28052227700E+02  0.40659022773E+02  0.00000000000E+00 0.  1.
         11    1    3    3    0    0 -0.14630579300E+02  0.99022670284E+01 -0.24400951341E+02  0.30124992441E+02  0.51100000000E-03 0. -1.
        -11    1    3    3    0    0 -0.14069646905E+02 -0.62061977460E+01 -0.70875006315E+01  0.16932351282E+02  0.51100000000E-03 0.  1.
         12    1    3    3    0    0 -0.48955800878E+00  0.70248752961E-01  0.34362242724E+01  0.34716335034E+01  0.00000000000E+00 0. -1.
</event>
<event>
 7    1  0.5155466E-011  0.5052886E+02  0.7816164E-02  0.1300439E+00
        -11   -1    0    0    0    0  0.00000000000E+00  0.00000000000E+00  0.45593999997E+02  0.45594000000E+02  0.51100000000E-03 0.  1.
         11   -1    0    0    0    0 -0.00000000000E+00 -0.00000000000E+00 -0.45593999997E+02  0.45594000000E+02  0.51100000000E-03 0. -1.
    9900012    2    1    2    0    0  0.91778098647E+01  0.42230857850E+01 -0.39383995208E+02  0.50528859256E+02  0.29999998196E+02 0.  0.
        -12    1    1    2    0    0 -0.91778098647E+01 -0.42230857850E+01  0.39383995208E+02  0.40659140744E+02  0.00000000000E+00 0.  1.
         11    1    3    3    0    0  0.19748958424E+01 -0.26995283742E+01  0.39197107429E+01  0.51528438362E+01  0.51100000000E-03 0. -1.
        -11    1    3    3    0    0 -0.15009534366E+01 -0.58541885936E+00 -0.10360249589E+02  0.10484767440E+02  0.51100000000E-03 0.  1.
         12    1    3    3    0    0  0.87038674589E+01  0.75080330185E+01 -0.32943456362E+02  0.34891247980E+02  0.00000000000E+00 0. -1.
</event>
<event>
 7    1  0.5155466E-011  0.5052886E+02  0.7816164E-02  0.1300439E+00
        -11   -1    0    0    0    0  0.00000000000E+00  0.00000000000E+00  0.45593999997E+02  0.45594000000E+02  0.51100000000E-03 0. -1.
         11   -1    0    0    0    0 -0.00000000000E+00 -0.00000000000E+00 -0.45593999997E+02  0.45594000000E+02  0.51100000000E-03 0.  1.
    9900012    2    1    2    0    0 -0.19217376443E+02 -0.32030916850E+02  0.16058599872E+02  0.50528858082E+02  0.29999994627E+02 0.  0.
        -12    1    1    2    0    0  0.19217376443E+02  0.32030916850E+02 -0.16058599872E+02  0.40659141918E+02  0.00000000000E+00 0.  1.
         11    1    3    3    0    0 -0.17736589149E+01  0.13411926942E+01  0.11256227911E+02  0.11473767073E+02  0.51100000000E-03 0. -1.
        -11    1    3    3    0    0 -0.34977820742E+01 -0.10022788671E+02 -0.24769227694E+01  0.10900730198E+02  0.51100000000E-03 0.  1.
         12    1    3    3    0    0 -0.13945935454E+02 -0.23349320874E+02  0.72792947300E+01  0.28154360812E+02  0.00000000000E+00 0. -1.
</event>
<event>
 7    1  0.5155466E-011  0.5052886E+02  0.7816164E-02  0.1300439E+00
        -11   -1    0    0    0    0  0.00000000000E+00  0.00000000000E+00  0.45593999997E+02  0.45594000000E+02  0.51100000000E-03 0. -1.
         11   -1    0    0    0    0 -0.00000000000E+00 -0.00000000000E+00 -0.45593999997E+02  0.45594000000E+02  0.51100000000E-03 0.  1.
    9900012    2    1    2    0    0 -0.24317422874E+02 -0.68555127168E+01  0.31856401854E+02  0.50528862663E+02  0.30000008552E+02 0.  0.
        -12    1    1    2    0    0  0.24317422874E+02  0.68555127168E+01 -0.31856401854E+02  0.40659137337E+02  0.00000000000E+00 0.  1.
         11    1    3    3    0    0  0.65248774458E+01 -0.18375364282E+01  0.86153493571E+01  0.10962427223E+02  0.51100000000E-03 0. -1.
        -11    1    3    3    0    0 -0.98572251855E+01 -0.48958798253E+01  0.88110158560E+01  0.14098529296E+02  0.51100000000E-03 0.  1.
         12    1    3    3    0    0 -0.20985075135E+02 -0.12209646332E+00  0.14430036641E+02  0.25467906145E+02  0.00000000000E+00 0. -1.
</event>
<event>
 7    1  0.5155466E-011  0.5052886E+02  0.7816164E-02  0.1300439E+00
        -11   -1    0    0    0    0  0.00000000000E+00  0.00000000000E+00  0.45593999997E+02  0.45594000000E+02  0.51100000000E-03 0.  1.
         11   -1    0    0    0    0 -0.00000000000E+00 -0.00000000000E+00 -0.45593999997E+02  0.45594000000E+02  0.51100000000E-03 0. -1.
    9900012    2    1    2    0    0 -0.29973909465E+02 -0.23885726011E+02  0.13572116412E+02  0.50528862040E+02  0.30000006658E+02 0.  0.
        -12    1    1    2    0    0  0.29973909465E+02  0.23885726011E+02 -0.13572116412E+02  0.40659137960E+02  0.00000000000E+00 0.  1.
         11    1    3    3    0    0 -0.30132358197E+02 -0.19878315551E+02  0.17580487266E+02  0.40151961004E+02  0.51100000000E-03 0. -1.
        -11    1    3    3    0    0  0.14026332931E+01  0.20688575402E+01 -0.32919249654E+01  0.41333185113E+01  0.51100000000E-03 0.  1.
         12    1    3    3    0    0 -0.12441845608E+01 -0.60762680010E+01 -0.71644588870E+00  0.62435825255E+01  0.00000000000E+00 0. -1.
</event>
<event>
 7    1  0.5155466E-011  0.5052886E+02  0.7816164E-02  0.1300439E+00
        -11   -1    0    0    0    0  0.00000000000E+00  0.00000000000E+00  0.45593999997E+02  0.45594000000E+02  0.51100000000E-03 0.  1.
         11   -1    0    0    0    0 -0.00000000000E+00 -0.00000000000E+00 -0.45593999997E+02  0.45594000000E+02  0.51100000000E-03 0. -1.
    9900012    2    1    2    0    0 -0.69536116187E+01 -0.13736299135E+02 -0.37631467094E+02  0.50528856574E+02  0.29999990042E+02 0.  0.
        -12    1    1    2    0    0  0.69536116187E+01  0.13736299135E+02  0.37631467094E+02  0.40659143426E+02  0.00000000000E+00 0.  1.
         11    1    3    3    0    0 -0.65934318395E+01 -0.16605667102E+02 -0.11437727984E+02  0.21214220349E+02  0.51100000000E-03 0. -1.
        -11    1    3    3    0    0  0.27238578539E+01  0.20697410122E+01 -0.53945190955E+00  0.34632698552E+01  0.51100000000E-03 0.  1.
         12    1    3    3    0    0 -0.30840376331E+01  0.79962695417E+00 -0.25654287201E+02  0.25851366370E+02  0.00000000000E+00 0. -1.
</event>
<event>
 7    1  0.5155466E-011  0.5052887E+02  0.7816164E-02  0.1300439E+00
        -11   -1    0    0    0    0  0.00000000000E+00  0.00000000000E+00  0.45593999997E+02  0.45594000000E+02  0.51100000000E-03 0.  1.
         11   -1    0    0    0    0 -0.00000000000E+00 -0.00000000000E+00 -0.45593999997E+02  0.45594000000E+02  0.51100000000E-03 0. -1.
    9900012    2    1    2    0    0  0.34184673296E+02 -0.17058658381E+02 -0.13913134427E+02  0.50528867893E+02  0.30000024446E+02 0.  0.
        -12    1    1    2    0    0 -0.34184673296E+02  0.17058658381E+02  0.13913134427E+02  0.40659132107E+02  0.00000000000E+00 0.  1.
         11    1    3    3    0    0  0.15558281822E+02 -0.15073963813E+02 -0.12967575472E+02  0.25247624288E+02  0.51100000000E-03 0. -1.
        -11    1    3    3    0    0  0.18786040306E+02  0.16203643202E+01  0.38847708545E+01  0.19251813830E+02  0.51100000000E-03 0.  1.
        -12    1    3    3    0    0 -0.15964883149E+00 -0.36050588880E+01 -0.48303298100E+01  0.60294297747E+01  0.00000000000E+00 0.  1.
</event>
<event>
 7    1  0.5155466E-011  0.5052886E+02  0.7816164E-02  0.1300439E+00
        -11   -1    0    0    0    0  0.00000000000E+00  0.00000000000E+00  0.45593999997E+02  0.45594000000E+02  0.51100000000E-03 0.  1.
         11   -1    0    0    0    0 -0.00000000000E+00 -0.00000000000E+00 -0.45593999997E+02  0.45594000000E+02  0.51100000000E-03 0. -1.
    9900012    2    1    2    0    0 -0.10195823359E+01  0.23812544340E+02 -0.32940687630E+02  0.50528859360E+02  0.29999998510E+02 0.  0.
        -12    1    1    2    0    0  0.10195823359E+01 -0.23812544340E+02  0.32940687630E+02  0.40659140640E+02  0.00000000000E+00 0.  1.
         11    1    3    3    0    0 -0.16982369149E+01  0.19992909449E+01 -0.11687052832E+02  0.11977828562E+02  0.51100000000E-03 0. -1.
        -11    1    3    3    0    0  0.51444740849E+01  0.44861805564E+01  0.37626432515E+01  0.77941589728E+01  0.51100000000E-03 0.  1.
        -12    1    3    3    0    0 -0.44658195059E+01  0.17327072839E+02 -0.25016278049E+02  0.30756871825E+02  0.00000000000E+00 0.  1.
</event>
<event>
 7    1  0.5155466E-011  0.5052886E+02  0.7816164E-02  0.1300439E+00
        -11   -1    0    0    0    0  0.00000000000E+00  0.00000000000E+00  0.45593999997E+02  0.45594000000E+02  0.51100000000E-03 0.  1.
         11   -1    0    0    0    0 -0.00000000000E+00 -0.00000000000E+00 -0.45593999997E+02  0.45594000000E+02  0.51100000000E-03 0. -1.
    9900012    2    1    2    0    0  0.25577263112E+02 -0.29501721503E+02  0.11340978877E+02  0.50528858816E+02  0.29999996857E+02 0.  0.
        -12    1    1    2    0    0 -0.25577263112E+02  0.29501721503E+02 -0.11340978877E+02  0.40659141184E+02  0.00000000000E+00 0.  1.
         11    1    3    3    0    0  0.25714087958E+02 -0.23459118452E+02 -0.19465837398E+01  0.34861637175E+02  0.51100000000E-03 0. -1.
        -11    1    3    3    0    0 -0.17733937358E+01 -0.43087372372E+00  0.62896796776E+01  0.65490952212E+01  0.51100000000E-03 0.  1.
         12    1    3    3    0    0  0.16365688902E+01 -0.56117293275E+01  0.69978829389E+01  0.91181264197E+01  0.00000000000E+00 0. -1.
</event>
<event>
 7    1  0.5155466E-011  0.5052885E+02  0.7816164E-02  0.1300439E+00
        -11   -1    0    0    0    0  0.00000000000E+00  0.00000000000E+00  0.45593999997E+02  0.45594000000E+02  0.51100000000E-03 0.  1.
         11   -1    0    0    0    0 -0.00000000000E+00 -0.00000000000E+00 -0.45593999997E+02  0.45594000000E+02  0.51100000000E-03 0. -1.
    9900012    2    1    2    0    0 -0.25905385766E+02  0.31278116690E+02 -0.19383312160E+01  0.50528846992E+02  0.29999960918E+02 0.  0.
        -12    1    1    2    0    0  0.25905385766E+02 -0.31278116690E+02  0.19383312160E+01  0.40659153008E+02  0.00000000000E+00 0.  1.
         11    1    3    3    0    0 -0.15213674819E+02  0.10688264274E+00  0.34867976769E+01  0.15608493960E+02  0.51100000000E-03 0. -1.
        -11    1    3    3    0    0 -0.82768008344E+01  0.21421979005E+02  0.10172881272E+01  0.22987855314E+02  0.51100000000E-03 0.  1.
        -12    1    3    3    0    0 -0.24149101133E+01  0.97492550421E+01 -0.64424170201E+01  0.11932497718E+02  0.00000000000E+00 0.  1.
</event>
<event>
 7    1  0.5155466E-011  0.5052886E+02  0.7816164E-02  0.1300439E+00
        -11   -1    0    0    0    0  0.00000000000E+00  0.00000000000E+00  0.45593999997E+02  0.45594000000E+02  0.51100000000E-03 0.  1.
         11   -1    0    0    0    0 -0.00000000000E+00 -0.00000000000E+00 -0.45593999997E+02  0.45594000000E+02  0.51100000000E-03 0. -1.
    9900012    2    1    2    0    0 -0.10549483216E+02 -0.29445753042E+02 -0.25977329726E+02  0.50528860461E+02  0.30000001857E+02 0.  0.
        -12    1    1    2    0    0  0.10549483216E+02  0.29445753042E+02  0.25977329726E+02  0.40659139539E+02  0.00000000000E+00 0.  1.
         11    1    3    3    0    0 -0.29556849015E+01 -0.21301411179E+02  0.49913870803E+00  0.21511283811E+02  0.51100000000E-03 0. -1.
        -11    1    3    3    0    0 -0.41150007373E+01 -0.15334106311E+01 -0.91481625822E+01  0.10147583856E+02  0.51100000000E-03 0.  1.
         12    1    3    3    0    0 -0.34787975775E+01 -0.66109312318E+01 -0.17328305852E+02  0.18869992794E+02  0.00000000000E+00 0. -1.
</event>
<event>
 7    1  0.5456504E-011  0.5052886E+02  0.7816164E-02  0.1300439E+00
        -11   -1    0    0    0    0  0.00000000000E+00  0.00000000000E+00  0.45593999997E+02  0.45594000000E+02  0.51100000000E-03 0. -1.
         11   -1    0    0    0    0 -0.00000000000E+00 -0.00000000000E+00 -0.45593999997E+02  0.45594000000E+02  0.51100000000E-03 0.  1.
    9900012    2    1    2    0    0  0.24304472674E+02 -0.27590237295E+02  0.17356183091E+02  0.50528859854E+02  0.30000000012E+02 0.  0.
        -12    1    1    2    0    0 -0.24304472674E+02  0.27590237295E+02 -0.17356183091E+02  0.40659140146E+02  0.00000000000E+00 0.  1.
         11    1    3    3    0    0  0.16378380453E+02 -0.85795912443E+01  0.14261214403E+02  0.23350438297E+02  0.51100000000E-03 0. -1.
        -11    1    3    3    0    0  0.56888268713E+01 -0.22098104626E+02  0.42146558462E+01  0.23204575053E+02  0.51100000000E-03 0.  1.
        -12    1    3    3    0    0  0.22372653492E+01  0.30874585759E+01 -0.11196871576E+01  0.39738465033E+01  0.00000000000E+00 0.  1.
</event>
<event>
 7    1  0.5155466E-011  0.5052886E+02  0.7816164E-02  0.1300439E+00
        -11   -1    0    0    0    0  0.00000000000E+00  0.00000000000E+00  0.45593999997E+02  0.45594000000E+02  0.51100000000E-03 0.  1.
         11   -1    0    0    0    0 -0.00000000000E+00 -0.00000000000E+00 -0.45593999997E+02  0.45594000000E+02  0.51100000000E-03 0. -1.
    9900012    2    1    2    0    0 -0.57448084907E+00  0.40548841366E+02  0.29371670835E+01  0.50528861853E+02  0.30000006090E+02 0.  0.
        -12    1    1    2    0    0  0.57448084907E+00 -0.40548841366E+02 -0.29371670835E+01  0.40659138147E+02  0.00000000000E+00 0.  1.
         11    1    3    3    0    0 -0.53065866186E+01  0.26019496113E+02 -0.62642249845E+00  0.26562500728E+02  0.51100000000E-03 0. -1.
        -11    1    3    3    0    0  0.38865148431E+01 -0.33716079176E+01 -0.14716736235E+01  0.53515008260E+01  0.51100000000E-03 0.  1.
        -12    1    3    3    0    0  0.84559092641E+00  0.17900953170E+02  0.50352632054E+01  0.18614860299E+02  0.00000000000E+00 0.  1.
</event>
<event>
 7    1  0.5155466E-011  0.5052886E+02  0.7816164E-02  0.1300439E+00
        -11   -1    0    0    0    0  0.00000000000E+00  0.00000000000E+00  0.45593999997E+02  0.45594000000E+02  0.51100000000E-03 0. -1.
         11   -1    0    0    0    0 -0.00000000000E+00 -0.00000000000E+00 -0.45593999997E+02  0.45594000000E+02  0.51100000000E-03 0.  1.
    9900012    2    1    2    0    0 -0.12917750025E+02 -0.36238847925E+02  0.13154585059E+02  0.50528862371E+02  0.30000007662E+02 0.  0.
        -12    1    1    2    0    0  0.12917750025E+02  0.36238847925E+02 -0.13154585059E+02  0.40659137629E+02  0.00000000000E+00 0.  1.
         11    1    3    3    0    0 -0.70981083935E+01 -0.67405189462E+01  0.16862813784E+02  0.19498005729E+02  0.51100000000E-03 0. -1.
        -11    1    3    3    0    0  0.15289860562E+01 -0.45203317920E+01 -0.56579943967E+00  0.48053436024E+01  0.51100000000E-03 0.  1.
         12    1    3    3    0    0 -0.73486276876E+01 -0.24977997187E+02 -0.31424292850E+01  0.26225513040E+02  0.00000000000E+00 0. -1.
</event>
<event>
 7    1  0.5155466E-011  0.5052885E+02  0.7816164E-02  0.1300439E+00
        -11   -1    0    0    0    0  0.00000000000E+00  0.00000000000E+00  0.45593999997E+02  0.45594000000E+02  0.51100000000E-03 0.  1.
         11   -1    0    0    0    0 -0.00000000000E+00 -0.00000000000E+00 -0.45593999997E+02  0.45594000000E+02  0.51100000000E-03 0. -1.
    9900012    2    1    2    0    0 -0.28430313833E+02 -0.24573429368E+02 -0.15525158031E+02  0.50528847188E+02  0.29999961511E+02 0.  0.
        -12    1    1    2    0    0  0.28430313833E+02  0.24573429368E+02  0.15525158031E+02  0.40659152812E+02  0.00000000000E+00 0.  1.
         11    1    3    3    0    0 -0.37468542054E+01  0.56222865998E+01 -0.69927514823E+01  0.97235588444E+01  0.51100000000E-03 0. -1.
        -11    1    3    3    0    0 -0.35376911385E+01 -0.98692906640E+01 -0.10614833863E+01  0.10537784589E+02  0.51100000000E-03 0.  1.
         12    1    3    3    0    0 -0.21145768489E+02 -0.20326425304E+02 -0.74709231625E+01  0.30267503754E+02  0.00000000000E+00 0. -1.
</event>
<event>
 7    1  0.5155466E-011  0.5052886E+02  0.7816164E-02  0.1300439E+00
        -11   -1    0    0    0    0  0.00000000000E+00  0.00000000000E+00  0.45593999997E+02  0.45594000000E+02  0.51100000000E-03 0.  1.
         11   -1    0    0    0    0 -0.00000000000E+00 -0.00000000000E+00 -0.45593999997E+02  0.45594000000E+02  0.51100000000E-03 0. -1.
    9900012    2    1    2    0    0 -0.50123412296E+01 -0.63949858914E+01 -0.39839008912E+02  0.50528855392E+02  0.29999986449E+02 0.  0.
        -12    1    1    2    0    0  0.50123412296E+01  0.63949858914E+01  0.39839008912E+02  0.40659144608E+02  0.00000000000E+00 0.  1.
         11    1    3    3    0    0 -0.15291950426E+02 -0.30474944850E+01 -0.29879889748E+02  0.33703690927E+02  0.51100000000E-03 0. -1.
        -11    1    3    3    0    0  0.15994531155E+01  0.24754495252E+01 -0.33345827898E+01  0.44503419266E+01  0.51100000000E-03 0.  1.
         12    1    3    3    0    0  0.86801560808E+01 -0.58229409316E+01 -0.66245363745E+01  0.12374822538E+02  0.00000000000E+00 0. -1.
</event>
<event>
 7    1  0.5155466E-011  0.5052886E+02  0.7816164E-02  0.1300439E+00
        -11   -1    0    0    0    0  0.00000000000E+00  0.00000000000E+00  0.45593999997E+02  0.45594000000E+02  0.51100000000E-03 0.  1.
         11   -1    0    0    0    0 -0.00000000000E+00 -0.00000000000E+00 -0.45593999997E+02  0.45594000000E+02  0.51100000000E-03 0. -1.
    9900012    2    1    2    0    0  0.26145249614E+02  0.65603788641E+01 -0.30439330332E+02  0.50528862290E+02  0.30000007417E+02 0.  0.
        -12    1    1    2    0    0 -0.26145249614E+02 -0.65603788641E+01  0.30439330332E+02  0.40659137710E+02  0.00000000000E+00 0.  1.
         11    1    3    3    0    0  0.18438095491E+02  0.10425328832E+02 -0.11313173145E+02  0.24013303260E+02  0.51100000000E-03 0. -1.
        -11    1    3    3    0    0  0.51093574684E+01 -0.83290346671E+01 -0.40467356061E+01  0.10576125073E+02  0.51100000000E-03 0.  1.
         12    1    3    3    0    0  0.25977966552E+01  0.44640846991E+01 -0.15079421581E+02  0.15939433958E+02  0.00000000000E+00 0. -1.
</event>
<event>
 7    1  0.5155466E-011  0.5052886E+02  0.7816164E-02  0.1300439E+00
        -11   -1    0    0    0    0  0.00000000000E+00  0.00000000000E+00  0.45593999997E+02  0.45594000000E+02  0.51100000000E-03 0. -1.
         11   -1    0    0    0    0 -0.00000000000E+00 -0.00000000000E+00 -0.45593999997E+02  0.45594000000E+02  0.51100000000E-03 0.  1.
    9900012    2    1    2    0    0  0.30288944920E+02  0.21581001776E+00  0.27123772280E+02  0.50528858580E+02  0.29999996140E+02 0.  0.
        -12    1    1    2    0    0 -0.30288944920E+02 -0.21581001776E+00 -0.27123772280E+02  0.40659141420E+02  0.00000000000E+00 0.  1.
         11    1    3    3    0    0  0.17897930932E+02 -0.72556528725E+01  0.91617346581E+01  0.21375635954E+02  0.51100000000E-03 0. -1.
        -11    1    3    3    0    0  0.59466602840E+01  0.12291674571E+02  0.64351321121E+01  0.15094997776E+02  0.51100000000E-03 0.  1.
        -12    1    3    3    0    0  0.64443537041E+01 -0.48202116805E+01  0.11526905510E+02  0.14058224850E+02  0.00000000000E+00 0.  1.
</event>
<event>
 7    1  0.5155466E-011  0.5052886E+02  0.7816164E-02  0.1300439E+00
        -11   -1    0    0    0    0  0.00000000000E+00  0.00000000000E+00  0.45593999997E+02  0.45594000000E+02  0.51100000000E-03 0. -1.
         11   -1    0    0    0    0 -0.00000000000E+00 -0.00000000000E+00 -0.45593999997E+02  0.45594000000E+02  0.51100000000E-03 0.  1.
    9900012    2    1    2    0    0  0.24105066921E+02  0.18468799697E+02  0.27037289636E+02  0.50528857801E+02  0.29999993772E+02 0.  0.
        -12    1    1    2    0    0 -0.24105066921E+02 -0.18468799697E+02 -0.27037289636E+02  0.40659142199E+02  0.00000000000E+00 0.  1.
         11    1    3    3    0    0  0.21877900942E+02  0.10808285689E+02  0.23438556455E+02  0.33835299882E+02  0.51100000000E-03 0. -1.
        -11    1    3    3    0    0  0.28579772984E+01  0.10636801883E+02 -0.11286939526E+01  0.11071745067E+02  0.51100000000E-03 0.  1.
         12    1    3    3    0    0 -0.63081131952E+00 -0.29762878750E+01  0.47274271334E+01  0.56218128515E+01  0.00000000000E+00 0. -1.
</event>
<event>
 7    1  0.5155466E-011  0.5052885E+02  0.7816164E-02  0.1300439E+00
        -11   -1    0    0    0    0  0.00000000000E+00  0.00000000000E+00  0.45593999997E+02  0.45594000000E+02  0.51100000000E-03 0.  1.
         11   -1    0    0    0    0 -0.00000000000E+00 -0.00000000000E+00 -0.45593999997E+02  0.45594000000E+02  0.51100000000E-03 0. -1.
    9900012    2    1    2    0    0  0.66471851034E+01 -0.35344805108E+02 -0.18966441418E+02  0.50528853206E+02  0.29999979806E+02 0.  0.
        -12    1    1    2    0    0 -0.66471851034E+01  0.35344805108E+02  0.18966441418E+02  0.40659146794E+02  0.00000000000E+00 0.  1.
         11    1    3    3    0    0  0.39212089155E+01 -0.77052942049E+01 -0.17442295488E+02  0.19467437179E+02  0.51100000000E-03 0. -1.
        -11    1    3    3    0    0 -0.26271606035E+01 -0.24222885890E+02  0.57858568351E+00  0.24371806157E+02  0.51100000000E-03 0.  1.
        -12    1    3    3    0    0  0.53531367914E+01 -0.34166250130E+01 -0.21027316136E+01  0.66896098710E+01  0.00000000000E+00 0.  1.
</event>
<event>
 7    1  0.5155466E-011  0.5052886E+02  0.7816164E-02  0.1300439E+00
        -11   -1    0    0    0    0  0.00000000000E+00  0.00000000000E+00  0.45593999997E+02  0.45594000000E+02  0.51100000000E-03 0.  1.
         11   -1    0    0    0    0 -0.00000000000E+00 -0.00000000000E+00 -0.45593999997E+02  0.45594000000E+02  0.51100000000E-03 0. -1.
    9900012    2    1    2    0    0 -0.11063201206E+02 -0.38528158092E+02 -0.68082652352E+01  0.50528857579E+02  0.29999993098E+02 0.  0.
        -12    1    1    2    0    0  0.11063201206E+02  0.38528158092E+02  0.68082652352E+01  0.40659142421E+02  0.00000000000E+00 0.  1.
         11    1    3    3    0    0 -0.31158490758E+01 -0.25224211579E+01 -0.11248597958E+02  0.11941611292E+02  0.51100000000E-03 0. -1.
        -11    1    3    3    0    0 -0.10490895718E+02 -0.26798281394E+02  0.33211478079E+01  0.28969584078E+02  0.51100000000E-03 0.  1.
         12    1    3    3    0    0  0.25435435875E+01 -0.92074555404E+01  0.11191849147E+01  0.96176622099E+01  0.00000000000E+00 0. -1.
</event>
<event>
 7    1  0.5155466E-011  0.5052886E+02  0.7816164E-02  0.1300439E+00
        -11   -1    0    0    0    0  0.00000000000E+00  0.00000000000E+00  0.45593999997E+02  0.45594000000E+02  0.51100000000E-03 0. -1.
         11   -1    0    0    0    0 -0.00000000000E+00 -0.00000000000E+00 -0.45593999997E+02  0.45594000000E+02  0.51100000000E-03 0.  1.
    9900012    2    1    2    0    0 -0.79864708107E+01 -0.22194567673E+01  0.39805222229E+02  0.50528863006E+02  0.30000009594E+02 0.  0.
        -12    1    1    2    0    0  0.79864708107E+01  0.22194567673E+01 -0.39805222229E+02  0.40659136994E+02  0.00000000000E+00 0.  1.
         11    1    3    3    0    0 -0.33620503851E-01 -0.15114252824E+02  0.25669902933E+02  0.29789019548E+02  0.51100000000E-03 0. -1.
        -11    1    3    3    0    0 -0.22413996302E+01  0.44344326242E+01  0.46873147011E+01  0.68307382009E+01  0.51100000000E-03 0.  1.
         12    1    3    3    0    0 -0.57114506766E+01  0.84603634326E+01  0.94480045953E+01  0.13909105258E+02  0.00000000000E+00 0. -1.
</event>
<event>
 7    1  0.5155466E-011  0.5052886E+02  0.7816164E-02  0.1300439E+00
        -11   -1    0    0    0    0  0.00000000000E+00  0.00000000000E+00  0.45593999997E+02  0.45594000000E+02  0.51100000000E-03 0.  1.
         11   -1    0    0    0    0 -0.00000000000E+00 -0.00000000000E+00 -0.45593999997E+02  0.45594000000E+02  0.51100000000E-03 0. -1.
    9900012    2    1    2    0    0 -0.24818896263E+02 -0.30962595363E+02 -0.88603290234E+01  0.50528863834E+02  0.30000012110E+02 0.  0.
        -12    1    1    2    0    0  0.24818896263E+02  0.30962595363E+02  0.88603290234E+01  0.40659136166E+02  0.00000000000E+00 0.  1.
         11    1    3    3    0    0 -0.12176400199E+02 -0.12005307607E+02 -0.17194458441E+02  0.24249567705E+02  0.51100000000E-03 0. -1.
        -11    1    3    3    0    0 -0.83135844783E+01 -0.14556710903E+02  0.10449956396E+02  0.19753863119E+02  0.51100000000E-03 0.  1.
         12    1    3    3    0    0 -0.43289115860E+01 -0.44005768539E+01 -0.21158269779E+01  0.65254330099E+01  0.00000000000E+00 0. -1.
</event>
<event>
 7    1  0.5155466E-011  0.5052890E+02  0.7816164E-02  0.1300439E+00
        -11   -1    0    0    0    0  0.00000000000E+00  0.00000000000E+00  0.45593999997E+02  0.45594000000E+02  0.51100000000E-03 0. -1.
         11   -1    0    0    0    0 -0.00000000000E+00 -0.00000000000E+00 -0.45593999997E+02  0.45594000000E+02  0.51100000000E-03 0.  1.
    9900012    2    1    2    0    0  0.40251032223E+02 -0.14369176732E+01  0.55634365547E+01  0.50528903186E+02  0.30000131724E+02 0.  0.
        -12    1    1    2    0    0 -0.40251032223E+02  0.14369176732E+01 -0.55634365547E+01  0.40659096814E+02  0.00000000000E+00 0.  1.
         11    1    3    3    0    0  0.86472785995E+01  0.15440249052E+01  0.46227996741E+00  0.87962004931E+01  0.51100000000E-03 0. -1.
        -11    1    3    3    0    0  0.27713336527E+02 -0.12840172757E+02  0.58832176774E+01  0.31104843810E+02  0.51100000000E-03 0.  1.
        -12    1    3    3    0    0  0.38904170961E+01  0.98592301788E+01 -0.78206109007E+00  0.10627858884E+02  0.00000000000E+00 0.  1.
</event>
<event>
 7    1  0.5155466E-011  0.5052885E+02  0.7816164E-02  0.1300439E+00
        -11   -1    0    0    0    0  0.00000000000E+00  0.00000000000E+00  0.45593999997E+02  0.45594000000E+02  0.51100000000E-03 0.  1.
         11   -1    0    0    0    0 -0.00000000000E+00 -0.00000000000E+00 -0.45593999997E+02  0.45594000000E+02  0.51100000000E-03 0. -1.
    9900012    2    1    2    0    0 -0.75047919805E+01  0.14533978010E+02 -0.37223755536E+02  0.50528851021E+02  0.29999973163E+02 0.  0.
        -12    1    1    2    0    0  0.75047919805E+01 -0.14533978010E+02  0.37223755536E+02  0.40659148979E+02  0.00000000000E+00 0.  1.
         11    1    3    3    0    0  0.14539247255E+01  0.84023242752E+01 -0.12671751314E+02  0.15273710484E+02  0.51100000000E-03 0. -1.
        -11    1    3    3    0    0 -0.20456964735E+01 -0.13576863428E+01  0.41363089638E+01  0.48101183325E+01  0.51100000000E-03 0.  1.
        -12    1    3    3    0    0 -0.69130202324E+01  0.74893400781E+01 -0.28688313186E+02  0.30445022204E+02  0.00000000000E+00 0.  1.
</event>
<event>
 7    1  0.5155466E-011  0.5052886E+02  0.7816164E-02  0.1300439E+00
        -11   -1    0    0    0    0  0.00000000000E+00  0.00000000000E+00  0.45593999997E+02  0.45594000000E+02  0.51100000000E-03 0.  1.
         11   -1    0    0    0    0 -0.00000000000E+00 -0.00000000000E+00 -0.45593999997E+02  0.45594000000E+02  0.51100000000E-03 0. -1.
    9900012    2    1    2    0    0  0.39081276887E+02  0.87064059084E+01 -0.70723484824E+01  0.50528858101E+02  0.29999994683E+02 0.  0.
        -12    1    1    2    0    0 -0.39081276887E+02 -0.87064059084E+01  0.70723484824E+01  0.40659141899E+02  0.00000000000E+00 0.  1.
         11    1    3    3    0    0  0.20639350195E+02 -0.28356849218E+01  0.68192678396E+01  0.21920910099E+02  0.51100000000E-03 0. -1.
        -11    1    3    3    0    0  0.58571343823E+01  0.64871120351E+01 -0.12102361948E+02  0.14928355928E+02  0.51100000000E-03 0.  1.
        -12    1    3    3    0    0  0.12584792310E+02  0.50549787951E+01 -0.17892543742E+01  0.13679592074E+02  0.00000000000E+00 0.  1.
</event>
<event>
 7    1  0.5155466E-011  0.5052880E+02  0.7816164E-02  0.1300439E+00
        -11   -1    0    0    0    0  0.00000000000E+00  0.00000000000E+00  0.45593999997E+02  0.45594000000E+02  0.51100000000E-03 0.  1.
         11   -1    0    0    0    0 -0.00000000000E+00 -0.00000000000E+00 -0.45593999997E+02  0.45594000000E+02  0.51100000000E-03 0. -1.
    9900012    2    1    2    0    0 -0.87240847883E+00 -0.11191713886E+02 -0.39078833805E+02  0.50528796764E+02  0.29999808243E+02 0.  0.
        -12    1    1    2    0    0  0.87240847883E+00  0.11191713886E+02  0.39078833805E+02  0.40659203236E+02  0.00000000000E+00 0.  1.
         11    1    3    3    0    0 -0.27017058688E+01 -0.29713250504E+01 -0.18010213457E+02  0.18452527637E+02  0.51100000000E-03 0. -1.
        -11    1    3    3    0    0  0.69814039013E+00 -0.88562468087E+01  0.18887258989E+01  0.90822790820E+01  0.51100000000E-03 0.  1.
        -12    1    3    3    0    0  0.11311569999E+01  0.63585797323E+00 -0.22957346247E+02  0.22993990045E+02  0.00000000000E+00 0.  1.
</event>
<event>
 7    1  0.5155466E-011  0.5052886E+02  0.7816164E-02  0.1300439E+00
        -11   -1    0    0    0    0  0.00000000000E+00  0.00000000000E+00  0.45593999997E+02  0.45594000000E+02  0.51100000000E-03 0.  1.
         11   -1    0    0    0    0 -0.00000000000E+00 -0.00000000000E+00 -0.45593999997E+02  0.45594000000E+02  0.51100000000E-03 0. -1.
    9900012    2    1    2    0    0  0.26103551304E+02  0.14311881399E+02 -0.27693693110E+02  0.50528856159E+02  0.29999988780E+02 0.  0.
        -12    1    1    2    0    0 -0.26103551304E+02 -0.14311881399E+02  0.27693693110E+02  0.40659143841E+02  0.00000000000E+00 0.  1.
         11    1    3    3    0    0  0.13916099127E+02 -0.46327939600E+01 -0.18614630896E+01  0.14784642028E+02  0.51100000000E-03 0. -1.
        -11    1    3    3    0    0  0.81815241056E+01  0.18879123696E+02 -0.20214297489E+02  0.28844002348E+02  0.51100000000E-03 0.  1.
         12    1    3    3    0    0  0.40059280710E+01  0.65551663397E-01 -0.56179325309E+01  0.69002117832E+01  0.00000000000E+00 0. -1.
</event>
<event>
 7    1  0.5155466E-011  0.5052885E+02  0.7816164E-02  0.1300439E+00
        -11   -1    0    0    0    0  0.00000000000E+00  0.00000000000E+00  0.45593999997E+02  0.45594000000E+02  0.51100000000E-03 0.  1.
         11   -1    0    0    0    0 -0.00000000000E+00 -0.00000000000E+00 -0.45593999997E+02  0.45594000000E+02  0.51100000000E-03 0. -1.
    9900012    2    1    2    0    0  0.99088741851E+01  0.18052616114E+02 -0.35058293660E+02  0.50528847396E+02  0.29999962144E+02 0.  0.
        -12    1    1    2    0    0 -0.99088741851E+01 -0.18052616114E+02  0.35058293660E+02  0.40659152604E+02  0.00000000000E+00 0.  1.
         11    1    3    3    0    0  0.15344140978E+02  0.30080784954E+01 -0.26774175238E+02  0.31005606889E+02  0.51100000000E-03 0. -1.
        -11    1    3    3    0    0 -0.22613340662E+01  0.79614208076E+01 -0.14660606999E+00  0.82776413691E+01  0.51100000000E-03 0.  1.
         12    1    3    3    0    0 -0.31739327264E+01  0.70831168107E+01 -0.81375123511E+01  0.11245599138E+02  0.00000000000E+00 0. -1.
</event>
<event>
 7    1  0.5155466E-011  0.5052887E+02  0.7816164E-02  0.1300439E+00
        -11   -1    0    0    0    0  0.00000000000E+00  0.00000000000E+00  0.45593999997E+02  0.45594000000E+02  0.51100000000E-03 0. -1.
         11   -1    0    0    0    0 -0.00000000000E+00 -0.00000000000E+00 -0.45593999997E+02  0.45594000000E+02  0.51100000000E-03 0.  1.
    9900012    2    1    2    0    0 -0.37643503643E+01  0.18146732435E+02  0.36189647712E+02  0.50528870235E+02  0.30000031565E+02 0.  0.
        -12    1    1    2    0    0  0.37643503643E+01 -0.18146732435E+02 -0.36189647712E+02  0.40659129765E+02  0.00000000000E+00 0.  1.
         11    1    3    3    0    0  0.47668990219E+01  0.11050177744E+02  0.25042041891E+02  0.27783693361E+02  0.51100000000E-03 0. -1.
        -11    1    3    3    0    0 -0.79538311977E+01  0.72798523924E+01 -0.77219235592E+00  0.10809993657E+02  0.51100000000E-03 0.  1.
         12    1    3    3    0    0 -0.57741818845E+00 -0.18329770158E+00  0.11919798178E+02  0.11935183216E+02  0.00000000000E+00 0. -1.
</event>
<event>
 7    1  0.5155466E-011  0.5052886E+02  0.7816164E-02  0.1300439E+00
        -11   -1    0    0    0    0  0.00000000000E+00  0.00000000000E+00  0.45593999997E+02  0.45594000000E+02  0.51100000000E-03 0. -1.
         11   -1    0    0    0    0 -0.00000000000E+00 -0.00000000000E+00 -0.45593999997E+02  0.45594000000E+02  0.51100000000E-03 0.  1.
    9900012    2    1    2    0    0  0.43554415981E+00  0.38014134681E+02  0.14418788708E+02  0.50528860781E+02  0.30000002829E+02 0.  0.
        -12    1    1    2    0    0 -0.43554415981E+00 -0.38014134681E+02 -0.14418788708E+02  0.40659139219E+02  0.00000000000E+00 0.  1.
         11    1    3    3    0    0  0.56891302969E+01  0.23156792311E+02  0.14205564167E+02  0.27756103604E+02  0.51100000000E-03 0. -1.
        -11    1    3    3    0    0 -0.14502228078E+01  0.70345523620E+01 -0.80407335398E+01  0.10781533715E+02  0.51100000000E-03 0.  1.
        -12    1    3    3    0    0 -0.38033633293E+01  0.78227900076E+01  0.82539580807E+01  0.11991223462E+02  0.00000000000E+00 0.  1.
</event>
<event>
 7    1  0.5155466E-011  0.5052886E+02  0.7816164E-02  0.1300439E+00
        -11   -1    0    0    0    0  0.00000000000E+00  0.00000000000E+00  0.45593999997E+02  0.45594000000E+02  0.51100000000E-03 0.  1.
         11   -1    0    0    0    0 -0.00000000000E+00 -0.00000000000E+00 -0.45593999997E+02  0.45594000000E+02  0.51100000000E-03 0. -1.
    9900012    2    1    2    0    0  0.55398303900E+01  0.22936402617E+02 -0.33111886422E+02  0.50528864395E+02  0.30000013814E+02 0.  0.
        -12    1    1    2    0    0 -0.55398303900E+01 -0.22936402617E+02  0.33111886422E+02  0.40659135605E+02  0.00000000000E+00 0.  1.
         11    1    3    3    0    0  0.49676815789E+01  0.39337639809E+01 -0.18517526355E+02  0.19571692362E+02  0.51100000000E-03 0. -1.
        -11    1    3    3    0    0 -0.60023588100E+01  0.15537582994E+02 -0.16329141174E+02  0.23325643578E+02  0.51100000000E-03 0.  1.
        -12    1    3    3    0    0  0.65745076212E+01  0.34650556421E+01  0.17347811077E+01  0.76315284547E+01  0.00000000000E+00 0.  1.
</event>
<event>
 7    1  0.5155466E-011  0.5052886E+02  0.7816164E-02  0.1300439E+00
        -11   -1    0    0    0    0  0.00000000000E+00  0.00000000000E+00  0.45593999997E+02  0.45594000000E+02  0.51100000000E-03 0. -1.
         11   -1    0    0    0    0 -0.00000000000E+00 -0.00000000000E+00 -0.45593999997E+02  0.45594000000E+02  0.51100000000E-03 0.  1.
    9900012    2    1    2    0    0 -0.24510043185E+02  0.25510057906E+02  0.20041471457E+02  0.50528857738E+02  0.29999993581E+02 0.  0.
        -12    1    1    2    0    0  0.24510043185E+02 -0.25510057906E+02 -0.20041471457E+02  0.40659142262E+02  0.00000000000E+00 0.  1.
         11    1    3    3    0    0 -0.68488383972E+01  0.17586734056E+02 -0.18967163293E+01  0.18968324523E+02  0.51100000000E-03 0. -1.
        -11    1    3    3    0    0 -0.61335879554E+01 -0.25495932175E+01  0.96835442459E+01  0.11742757606E+02  0.51100000000E-03 0.  1.
         12    1    3    3    0    0 -0.11527616832E+02  0.10472917068E+02  0.12254643541E+02  0.19817775608E+02  0.00000000000E+00 0. -1.
</event>
<event>
 7    1  0.5155466E-011  0.5052888E+02  0.7816164E-02  0.1300439E+00
        -11   -1    0    0    0    0  0.00000000000E+00  0.00000000000E+00  0.45593999997E+02  0.45594000000E+02  0.51100000000E-03 0.  1.
         11   -1    0    0    0    0 -0.00000000000E+00 -0.00000000000E+00 -0.45593999997E+02  0.45594000000E+02  0.51100000000E-03 0. -1.
    9900012    2    1    2    0    0 -0.26234499194E+02  0.20712684061E+02 -0.23149505758E+02  0.50528882377E+02  0.30000068474E+02 0.  0.
        -12    1    1    2    0    0  0.26234499194E+02 -0.20712684061E+02  0.23149505758E+02  0.40659117623E+02  0.00000000000E+00 0.  1.
         11    1    3    3    0    0 -0.10847097187E+02  0.69356799059E+01 -0.10146403016E+02  0.16392457642E+02  0.51100000000E-03 0. -1.
        -11    1    3    3    0    0 -0.47034365322E+00  0.16352197386E+02 -0.56485234222E+01  0.17306686558E+02  0.51100000000E-03 0.  1.
        -12    1    3    3    0    0 -0.14917058355E+02 -0.25751932309E+01 -0.73545793198E+01  0.16829738177E+02  0.00000000000E+00 0.  1.
</event>
<event>
 7    1  0.5155466E-011  0.5052885E+02  0.7816164E-02  0.1300439E+00
        -11   -1    0    0    0    0  0.00000000000E+00  0.00000000000E+00  0.45593999997E+02  0.45594000000E+02  0.51100000000E-03 0.  1.
         11   -1    0    0    0    0 -0.00000000000E+00 -0.00000000000E+00 -0.45593999997E+02  0.45594000000E+02  0.51100000000E-03 0. -1.
    9900012    2    1    2    0    0 -0.20654546871E+02 -0.11241879673E+02 -0.33168911402E+02  0.50528845451E+02  0.29999956232E+02 0.  0.
        -12    1    1    2    0    0  0.20654546871E+02  0.11241879673E+02  0.33168911402E+02  0.40659154549E+02  0.00000000000E+00 0.  1.
         11    1    3    3    0    0 -0.23170925760E+02 -0.10279617030E+02 -0.30900485681E+02  0.39967516091E+02  0.51100000000E-03 0. -1.
        -11    1    3    3    0    0  0.30356759515E+01  0.31481010663E+01 -0.41337083804E+01  0.60177582239E+01  0.51100000000E-03 0.  1.
         12    1    3    3    0    0 -0.51929706250E+00 -0.41103637097E+01  0.18652826595E+01  0.45435711356E+01  0.00000000000E+00 0. -1.
</event>
<event>
 7    1  0.5155466E-011  0.5052886E+02  0.7816164E-02  0.1300439E+00
        -11   -1    0    0    0    0  0.00000000000E+00  0.00000000000E+00  0.45593999997E+02  0.45594000000E+02  0.51100000000E-03 0. -1.
         11   -1    0    0    0    0 -0.00000000000E+00 -0.00000000000E+00 -0.45593999997E+02  0.45594000000E+02  0.51100000000E-03 0.  1.
    9900012    2    1    2    0    0 -0.36943062434E+02 -0.98682189097E+01  0.13820065806E+02  0.50528858035E+02  0.29999994484E+02 0.  0.
        -12    1    1    2    0    0  0.36943062434E+02  0.98682189097E+01 -0.13820065806E+02  0.40659141965E+02  0.00000000000E+00 0.  1.
         11    1    3    3    0    0  0.14582719917E+01  0.14977915067E+01  0.28561016254E+01  0.35393860138E+01  0.51100000000E-03 0.  1.
        -11    1    3    3    0    0 -0.36968194431E+02 -0.13949404624E+02  0.43568213383E+01  0.39751920473E+02  0.51100000000E-03 0. -1.
        -12    1    3    3    0    0 -0.14331399944E+01  0.25833942073E+01  0.66071428427E+01  0.72375515485E+01  0.00000000000E+00 0.  1.
</event>
<event>
 7    1  0.6839504E-011  0.5052886E+02  0.7816164E-02  0.1300439E+00
        -11   -1    0    0    0    0  0.00000000000E+00  0.00000000000E+00  0.45593999997E+02  0.45594000000E+02  0.51100000000E-03 0. -1.
         11   -1    0    0    0    0 -0.00000000000E+00 -0.00000000000E+00 -0.45593999997E+02  0.45594000000E+02  0.51100000000E-03 0.  1.
    9900012    2    1    2    0    0  0.33028389822E+02 -0.81275391667E+01  0.22276313834E+02  0.50528860989E+02  0.30000003461E+02 0.  0.
        -12    1    1    2    0    0 -0.33028389822E+02  0.81275391667E+01 -0.22276313834E+02  0.40659139011E+02  0.00000000000E+00 0.  1.
         11    1    3    3    0    0  0.18948624115E+02 -0.97154550720E+01  0.92849298428E+01  0.23230375493E+02  0.51100000000E-03 0. -1.
        -11    1    3    3    0    0  0.88907854261E+01  0.22857621226E+01  0.17903156230E+02  0.20119487500E+02  0.51100000000E-03 0.  1.
        -12    1    3    3    0    0  0.51889802807E+01 -0.69784621739E+00 -0.49117722393E+01  0.71789979960E+01  0.00000000000E+00 0.  1.
</event>
<event>
 7    1  0.5155466E-011  0.5052887E+02  0.7816164E-02  0.1300439E+00
        -11   -1    0    0    0    0  0.00000000000E+00  0.00000000000E+00  0.45593999997E+02  0.45594000000E+02  0.51100000000E-03 0.  1.
         11   -1    0    0    0    0 -0.00000000000E+00 -0.00000000000E+00 -0.45593999997E+02  0.45594000000E+02  0.51100000000E-03 0. -1.
    9900012    2    1    2    0    0  0.85907198473E+01 -0.31913138495E+02 -0.23683668628E+02  0.50528867744E+02  0.30000023995E+02 0.  0.
        -12    1    1    2    0    0 -0.85907198473E+01  0.31913138495E+02  0.23683668628E+02  0.40659132256E+02  0.00000000000E+00 0.  1.
         11    1    3    3    0    0  0.19590791031E+02 -0.21438435073E+02 -0.18046012702E+02  0.34191580342E+02  0.51100000000E-03 0. -1.
        -11    1    3    3    0    0 -0.75175622026E+01 -0.57513278849E+01 -0.35032130250E+01  0.10092770466E+02  0.51100000000E-03 0.  1.
         12    1    3    3    0    0 -0.34825089810E+01 -0.47233755378E+01 -0.21344429007E+01  0.62445169365E+01  0.00000000000E+00 0. -1.
</event>
<event>
 7    1  0.5155466E-011  0.5052886E+02  0.7816164E-02  0.1300439E+00
        -11   -1    0    0    0    0  0.00000000000E+00  0.00000000000E+00  0.45593999997E+02  0.45594000000E+02  0.51100000000E-03 0. -1.
         11   -1    0    0    0    0 -0.00000000000E+00 -0.00000000000E+00 -0.45593999997E+02  0.45594000000E+02  0.51100000000E-03 0.  1.
    9900012    2    1    2    0    0  0.21826367271E+02 -0.31185181468E+02 -0.14291954297E+02  0.50528858235E+02  0.29999995092E+02 0.  0.
        -12    1    1    2    0    0 -0.21826367271E+02  0.31185181468E+02  0.14291954297E+02  0.40659141765E+02  0.00000000000E+00 0.  1.
         11    1    3    3    0    0  0.24218320019E+02 -0.25885943856E+02 -0.14733834885E+02  0.38388735386E+02  0.51100000000E-03 0. -1.
        -11    1    3    3    0    0  0.14674849135E+01 -0.33832930112E+00  0.44416541813E+01  0.46900182105E+01  0.51100000000E-03 0.  1.
         12    1    3    3    0    0 -0.38594376617E+01 -0.49609083104E+01 -0.39997735932E+01  0.74501046386E+01  0.00000000000E+00 0. -1.
</event>
<event>
 7    1  0.5155466E-011  0.5052886E+02  0.7816164E-02  0.1300439E+00
        -11   -1    0    0    0    0  0.00000000000E+00  0.00000000000E+00  0.45593999997E+02  0.45594000000E+02  0.51100000000E-03 0.  1.
         11   -1    0    0    0    0 -0.00000000000E+00 -0.00000000000E+00 -0.45593999997E+02  0.45594000000E+02  0.51100000000E-03 0. -1.
    9900012    2    1    2    0    0  0.38963887010E+02  0.11033597156E+02  0.36388406454E+01  0.50528856891E+02  0.29999991004E+02 0.  0.
        -12    1    1    2    0    0 -0.38963887010E+02 -0.11033597156E+02 -0.36388406454E+01  0.40659143109E+02  0.00000000000E+00 0.  1.
         11    1    3    3    0    0  0.73780662305E+01  0.29989589988E+01 -0.94453201505E+01  0.12354905479E+02  0.51100000000E-03 0. -1.
        -11    1    3    3    0    0  0.21380433751E+02  0.85245179711E+01  0.15404856380E+02  0.27696569362E+02  0.51100000000E-03 0.  1.
        -12    1    3    3    0    0  0.10205387028E+02 -0.48987981366E+00 -0.23206955846E+01  0.10477382050E+02  0.00000000000E+00 0.  1.
</event>
<event>
 7    1  0.5155466E-011  0.5052887E+02  0.7816164E-02  0.1300439E+00
        -11   -1    0    0    0    0  0.00000000000E+00  0.00000000000E+00  0.45593999997E+02  0.45594000000E+02  0.51100000000E-03 0.  1.
         11   -1    0    0    0    0 -0.00000000000E+00 -0.00000000000E+00 -0.45593999997E+02  0.45594000000E+02  0.51100000000E-03 0. -1.
    9900012    2    1    2    0    0  0.23749525356E+02 -0.20596644433E+02 -0.25785710746E+02  0.50528873162E+02  0.30000040463E+02 0.  0.
        -12    1    1    2    0    0 -0.23749525356E+02  0.20596644433E+02  0.25785710746E+02  0.40659126838E+02  0.00000000000E+00 0.  1.
         11    1    3    3    0    0  0.11614827883E+02 -0.20106080667E+02 -0.28360241848E+02  0.36653267583E+02  0.51100000000E-03 0. -1.
        -11    1    3    3    0    0  0.84019727131E+01 -0.32078605163E+01  0.20903601869E+01  0.92332616412E+01  0.51100000000E-03 0.  1.
         12    1    3    3    0    0  0.37327247599E+01  0.27172967507E+01  0.48417091457E+00  0.46423439380E+01  0.00000000000E+00 0. -1.
</event>
<event>
 7    1  0.5155466E-011  0.5052887E+02  0.7816164E-02  0.1300439E+00
        -11   -1    0    0    0    0  0.00000000000E+00  0.00000000000E+00  0.45593999997E+02  0.45594000000E+02  0.51100000000E-03 0.  1.
         11   -1    0    0    0    0 -0.00000000000E+00 -0.00000000000E+00 -0.45593999997E+02  0.45594000000E+02  0.51100000000E-03 0. -1.
    9900012    2    1    2    0    0  0.62991344305E+00  0.38878134661E+02 -0.11885240475E+02  0.50528867117E+02  0.30000022087E+02 0.  0.
        -12    1    1    2    0    0 -0.62991344305E+00 -0.38878134661E+02  0.11885240475E+02  0.40659132883E+02  0.00000000000E+00 0.  1.
         11    1    3    3    0    0 -0.56117504442E+01  0.23231206079E+02  0.27304671677E+01  0.24054856685E+02  0.51100000000E-03 0. -1.
        -11    1    3    3    0    0  0.28953139622E+01 -0.23605390537E+01 -0.29338641158E+01  0.47500048921E+01  0.51100000000E-03 0.  1.
         12    1    3    3    0    0  0.33463499251E+01  0.18007467636E+02 -0.11681843527E+02  0.21724005540E+02  0.00000000000E+00 0. -1.
</event>
<event>
 7    1  0.5155466E-011  0.5052885E+02  0.7816164E-02  0.1300439E+00
        -11   -1    0    0    0    0  0.00000000000E+00  0.00000000000E+00  0.45593999997E+02  0.45594000000E+02  0.51100000000E-03 0.  1.
         11   -1    0    0    0    0 -0.00000000000E+00 -0.00000000000E+00 -0.45593999997E+02  0.45594000000E+02  0.51100000000E-03 0. -1.
    9900012    2    1    2    0    0  0.39362441536E+02 -0.10106989268E+02  0.12700900428E+01  0.50528853864E+02  0.29999981806E+02 0.  0.
        -12    1    1    2    0    0 -0.39362441536E+02  0.10106989268E+02 -0.12700900428E+01  0.40659146136E+02  0.00000000000E+00 0.  1.
         11    1    3    3    0    0 -0.22630828708E+01 -0.34189797175E+01 -0.56003701929E+01  0.69408294135E+01  0.51100000000E-03 0. -1.
        -11    1    3    3    0    0  0.70839782530E+01  0.19297784688E+01  0.23089875566E+01  0.76966367087E+01  0.51100000000E-03 0.  1.
         12    1    3    3    0    0  0.34541546154E+02 -0.86177880197E+01  0.45614726791E+01  0.35891387742E+02  0.00000000000E+00 0. -1.
</event>
<event>
 7    1  0.5155466E-011  0.5052887E+02  0.7816164E-02  0.1300439E+00
        -11   -1    0    0    0    0  0.00000000000E+00  0.00000000000E+00  0.45593999997E+02  0.45594000000E+02  0.51100000000E-03 0.  1.
         11   -1    0    0    0    0 -0.00000000000E+00 -0.00000000000E+00 -0.45593999997E+02  0.45594000000E+02  0.51100000000E-03 0. -1.
    9900012    2    1    2    0    0 -0.15257680833E+01  0.15054860955E+02 -0.37738411440E+02  0.50528874277E+02  0.30000043851E+02 0.  0.
        -12    1    1    2    0    0  0.15257680833E+01 -0.15054860955E+02  0.37738411440E+02  0.40659125723E+02  0.00000000000E+00 0.  1.
         11    1    3    3    0    0  0.19767004226E+01  0.13635419805E+01 -0.35911279192E+01  0.43200452875E+01  0.51100000000E-03 0. -1.
        -11    1    3    3    0    0  0.72597710915E+01  0.55578208919E+01  0.36863589711E+00  0.91503848035E+01  0.51100000000E-03 0.  1.
        -12    1    3    3    0    0 -0.10762239597E+02  0.81334980823E+01 -0.34515919418E+02  0.37058444185E+02  0.00000000000E+00 0.  1.
</event>
<event>
 7    1  0.5155466E-011  0.5052881E+02  0.7816164E-02  0.1300439E+00
        -11   -1    0    0    0    0  0.00000000000E+00  0.00000000000E+00  0.45593999997E+02  0.45594000000E+02  0.51100000000E-03 0.  1.
         11   -1    0    0    0    0 -0.00000000000E+00 -0.00000000000E+00 -0.45593999997E+02  0.45594000000E+02  0.51100000000E-03 0. -1.
    9900012    2    1    2    0    0  0.11313225760E+02 -0.35141264451E+02  0.17037369034E+02  0.50528812995E+02  0.29999857578E+02 0.  0.
        -12    1    1    2    0    0 -0.11313225760E+02  0.35141264451E+02 -0.17037369034E+02  0.40659187005E+02  0.00000000000E+00 0.  1.
         11    1    3    3    0    0  0.17087371198E+02 -0.28604674665E+02  0.93941495812E+01  0.34618719124E+02  0.51100000000E-03 0. -1.
        -11    1    3    3    0    0 -0.31978959316E+01  0.25424755455E+01  0.42129138419E+01  0.58685060782E+01  0.51100000000E-03 0.  1.
        -12    1    3    3    0    0 -0.25762495057E+01 -0.90790653319E+01  0.34303056107E+01  0.10041587793E+02  0.00000000000E+00 0.  1.
</event>
<event>
 7    1  0.5155466E-011  0.5052886E+02  0.7816164E-02  0.1300439E+00
        -11   -1    0    0    0    0  0.00000000000E+00  0.00000000000E+00  0.45593999997E+02  0.45594000000E+02  0.51100000000E-03 0.  1.
         11   -1    0    0    0    0 -0.00000000000E+00 -0.00000000000E+00 -0.45593999997E+02  0.45594000000E+02  0.51100000000E-03 0. -1.
    9900012    2    1    2    0    0  0.21962786044E+02 -0.23566647020E+02 -0.24807556057E+02  0.50528860067E+02  0.30000000659E+02 0.  0.
        -12    1    1    2    0    0 -0.21962786044E+02  0.23566647020E+02  0.24807556057E+02  0.40659139933E+02  0.00000000000E+00 0.  1.
         11    1    3    3    0    0  0.67936532817E+01 -0.11578666974E+02 -0.15474743900E+02  0.20486262539E+02  0.51100000000E-03 0. -1.
        -11    1    3    3    0    0  0.18754627567E+02 -0.55056560746E+01 -0.20481782558E+01  0.19653074529E+02  0.51100000000E-03 0.  1.
        -12    1    3    3    0    0 -0.35854948047E+01 -0.64823239720E+01 -0.72846339011E+01  0.10389522999E+02  0.00000000000E+00 0.  1.
</event>
<event>
 7    1  0.5155466E-011  0.5052886E+02  0.7816164E-02  0.1300439E+00
        -11   -1    0    0    0    0  0.00000000000E+00  0.00000000000E+00  0.45593999997E+02  0.45594000000E+02  0.51100000000E-03 0.  1.
         11   -1    0    0    0    0 -0.00000000000E+00 -0.00000000000E+00 -0.45593999997E+02  0.45594000000E+02  0.51100000000E-03 0. -1.
    9900012    2    1    2    0    0  0.13592648186E+02  0.12333428065E+02 -0.36280745021E+02  0.50528855988E+02  0.29999988260E+02 0.  0.
        -12    1    1    2    0    0 -0.13592648186E+02 -0.12333428065E+02  0.36280745021E+02  0.40659144012E+02  0.00000000000E+00 0.  1.
         11    1    3    3    0    0 -0.48699506748E+01  0.82123309134E+01 -0.16538554053E+02  0.19096663820E+02  0.51100000000E-03 0. -1.
        -11    1    3    3    0    0  0.88366364329E+01  0.43530611152E+01 -0.43859267582E+00  0.98604081212E+01  0.51100000000E-03 0.  1.
        -12    1    3    3    0    0  0.96259624280E+01 -0.23196396395E+00 -0.19303598292E+02  0.21571784047E+02  0.00000000000E+00 0.  1.
</event>
<event>
 7    1  0.5155466E-011  0.5052886E+02  0.7816164E-02  0.1300439E+00
        -11   -1    0    0    0    0  0.00000000000E+00  0.00000000000E+00  0.45593999997E+02  0.45594000000E+02  0.51100000000E-03 0. -1.
         11   -1    0    0    0    0 -0.00000000000E+00 -0.00000000000E+00 -0.45593999997E+02  0.45594000000E+02  0.51100000000E-03 0.  1.
    9900012    2    1    2    0    0 -0.15191151547E+01  0.39398650097E+02 -0.99299700228E+01  0.50528860253E+02  0.30000001226E+02 0.  0.
        -12    1    1    2    0    0  0.15191151547E+01 -0.39398650097E+02  0.99299700228E+01  0.40659139747E+02  0.00000000000E+00 0.  1.
         11    1    3    3    0    0 -0.10193460994E+02  0.34253885983E+02 -0.10270691462E+02  0.37184976204E+02  0.51100000000E-03 0. -1.
        -11    1    3    3    0    0  0.69820848613E+01  0.33151278420E+01 -0.37212364633E+01  0.85782971909E+01  0.51100000000E-03 0.  1.
         12    1    3    3    0    0  0.16922609782E+01  0.18296362719E+01  0.40619579019E+01  0.47655868582E+01  0.00000000000E+00 0. -1.
</event>
<event>
 7    1  0.5155466E-011  0.5052886E+02  0.7816164E-02  0.1300439E+00
        -11   -1    0    0    0    0  0.00000000000E+00  0.00000000000E+00  0.45593999997E+02  0.45594000000E+02  0.51100000000E-03 0.  1.
         11   -1    0    0    0    0 -0.00000000000E+00 -0.00000000000E+00 -0.45593999997E+02  0.45594000000E+02  0.51100000000E-03 0. -1.
    9900012    2    1    2    0    0 -0.85052540774E+01  0.23286094493E+02 -0.32227066486E+02  0.50528863783E+02  0.30000011955E+02 0.  0.
        -12    1    1    2    0    0  0.85052540774E+01 -0.23286094493E+02  0.32227066486E+02  0.40659136217E+02  0.00000000000E+00 0.  1.
         11    1    3    3    0    0 -0.41345639698E-01 -0.40858971537E+01  0.20973196851E+01  0.45929309962E+01  0.51100000000E-03 0. -1.
        -11    1    3    3    0    0 -0.41090667997E+01  0.90311623530E+01 -0.50914401972E+01  0.11152088905E+02  0.51100000000E-03 0.  1.
         12    1    3    3    0    0 -0.43548416380E+01  0.18340829293E+02 -0.29232945974E+02  0.34783843881E+02  0.00000000000E+00 0. -1.
</event>
<event>
 7    1  0.5155466E-011  0.5052886E+02  0.7816164E-02  0.1300439E+00
        -11   -1    0    0    0    0  0.00000000000E+00  0.00000000000E+00  0.45593999997E+02  0.45594000000E+02  0.51100000000E-03 0. -1.
         11   -1    0    0    0    0 -0.00000000000E+00 -0.00000000000E+00 -0.45593999997E+02  0.45594000000E+02  0.51100000000E-03 0.  1.
    9900012    2    1    2    0    0 -0.28549822200E+02 -0.21062773556E+02  0.19860324831E+02  0.50528864742E+02  0.30000014871E+02 0.  0.
        -12    1    1    2    0    0  0.28549822200E+02  0.21062773556E+02 -0.19860324831E+02  0.40659135258E+02  0.00000000000E+00 0.  1.
         11    1    3    3    0    0 -0.70592890958E+01 -0.20116565451E+02  0.21432422940E+01  0.21426694936E+02  0.51100000000E-03 0. -1.
        -11    1    3    3    0    0 -0.18931993693E+02 -0.32766276909E+00  0.11024238952E+02  0.21910307912E+02  0.51100000000E-03 0.  1.
        -12    1    3    3    0    0 -0.25585394109E+01 -0.61854533577E+00  0.66928435853E+01  0.71918618943E+01  0.00000000000E+00 0.  1.
</event>
<event>
 7    1  0.5155466E-011  0.5052887E+02  0.7816164E-02  0.1300439E+00
        -11   -1    0    0    0    0  0.00000000000E+00  0.00000000000E+00  0.45593999997E+02  0.45594000000E+02  0.51100000000E-03 0.  1.
         11   -1    0    0    0    0 -0.00000000000E+00 -0.00000000000E+00 -0.45593999997E+02  0.45594000000E+02  0.51100000000E-03 0. -1.
    9900012    2    1    2    0    0  0.16702383021E+02 -0.15354573800E+02 -0.33740661551E+02  0.50528870926E+02  0.30000033667E+02 0.  0.
        -12    1    1    2    0    0 -0.16702383021E+02  0.15354573800E+02  0.33740661551E+02  0.40659129074E+02  0.00000000000E+00 0.  1.
         11    1    3    3    0    0  0.47243798650E+01 -0.18473691543E+02 -0.11145126543E+02  0.22086441322E+02  0.51100000000E-03 0. -1.
        -11    1    3    3    0    0  0.94622873463E+01  0.49052799260E+01 -0.22981844591E+02  0.25333018652E+02  0.51100000000E-03 0.  1.
        -12    1    3    3    0    0  0.25157158098E+01 -0.17861621822E+01  0.38630958203E+00  0.31094109523E+01  0.00000000000E+00 0.  1.
</event>
<event>
 7    1  0.5155466E-011  0.5052886E+02  0.7816164E-02  0.1300439E+00
        -11   -1    0    0    0    0  0.00000000000E+00  0.00000000000E+00  0.45593999997E+02  0.45594000000E+02  0.51100000000E-03 0. -1.
         11   -1    0    0    0    0 -0.00000000000E+00 -0.00000000000E+00 -0.45593999997E+02  0.45594000000E+02  0.51100000000E-03 0.  1.
    9900012    2    1    2    0    0  0.32283827785E+02  0.12979962454E+02  0.21034277710E+02  0.50528858340E+02  0.29999995409E+02 0.  0.
        -12    1    1    2    0    0 -0.32283827785E+02 -0.12979962454E+02 -0.21034277710E+02  0.40659141660E+02  0.00000000000E+00 0.  1.
         11    1    3    3    0    0  0.87863894783E+01 -0.64519130478E+01  0.30619541155E+01  0.11322693377E+02  0.51100000000E-03 0.  1.
        -11    1    3    3    0    0  0.15286602676E+01  0.96817644807E+01  0.11503486796E+01  0.98689750237E+01  0.51100000000E-03 0. -1.
         12    1    3    3    0    0  0.21968778039E+02  0.97501110209E+01  0.16821974915E+02  0.29337189939E+02  0.00000000000E+00 0. -1.
</event>
<event>
 7    1  0.5155466E-011  0.5052886E+02  0.7816164E-02  0.1300439E+00
        -11   -1    0    0    0    0  0.00000000000E+00  0.00000000000E+00  0.45593999997E+02  0.45594000000E+02  0.51100000000E-03 0.  1.
         11   -1    0    0    0    0 -0.00000000000E+00 -0.00000000000E+00 -0.45593999997E+02  0.45594000000E+02  0.51100000000E-03 0. -1.
    9900012    2    1    2    0    0  0.13769896980E+01  0.39147449273E+02 -0.10897089771E+02  0.50528862642E+02  0.30000008487E+02 0.  0.
        -12    1    1    2    0    0 -0.13769896980E+01 -0.39147449273E+02  0.10897089771E+02  0.40659137358E+02  0.00000000000E+00 0.  1.
         11    1    3    3    0    0 -0.12048947200E+02  0.28995924386E+02 -0.12036413608E+02  0.33627607890E+02  0.51100000000E-03 0. -1.
        -11    1    3    3    0    0  0.73223134579E+01  0.48963184801E+01  0.59598621688E+00  0.88286697111E+01  0.51100000000E-03 0.  1.
         12    1    3    3    0    0  0.61036234398E+01  0.52552064064E+01  0.54333761932E+00  0.80725850406E+01  0.00000000000E+00 0. -1.
</event>
<event>
 7    1  0.5155466E-011  0.5052886E+02  0.7816164E-02  0.1300439E+00
        -11   -1    0    0    0    0  0.00000000000E+00  0.00000000000E+00  0.45593999997E+02  0.45594000000E+02  0.51100000000E-03 0. -1.
         11   -1    0    0    0    0 -0.00000000000E+00 -0.00000000000E+00 -0.45593999997E+02  0.45594000000E+02  0.51100000000E-03 0.  1.
    9900012    2    1    2    0    0  0.39499121071E+02 -0.84006691379E+01  0.47343224559E+01  0.50528860604E+02  0.30000002291E+02 0.  0.
        -12    1    1    2    0    0 -0.39499121071E+02  0.84006691379E+01 -0.47343224559E+01  0.40659139396E+02  0.00000000000E+00 0.  1.
         11    1    3    3    0    0  0.51251836078E+01  0.13039667021E+01 -0.89328849998E+01  0.10380957126E+02  0.51100000000E-03 0. -1.
        -11    1    3    3    0    0  0.25715747106E+02 -0.98416225404E+01  0.51698460620E+01  0.28015790048E+02  0.51100000000E-03 0.  1.
         12    1    3    3    0    0  0.86581903570E+01  0.13698670037E+00  0.84973613937E+01  0.12132113430E+02  0.00000000000E+00 0. -1.
</event>
<event>
 7    1  0.5155466E-011  0.5052886E+02  0.7816164E-02  0.1300439E+00
        -11   -1    0    0    0    0  0.00000000000E+00  0.00000000000E+00  0.45593999997E+02  0.45594000000E+02  0.51100000000E-03 0.  1.
         11   -1    0    0    0    0 -0.00000000000E+00 -0.00000000000E+00 -0.45593999997E+02  0.45594000000E+02  0.51100000000E-03 0. -1.
    9900012    2    1    2    0    0  0.33321230567E+02 -0.90542642818E+00 -0.23281778173E+02  0.50528863285E+02  0.30000010440E+02 0.  0.
        -12    1    1    2    0    0 -0.33321230567E+02  0.90542642818E+00  0.23281778173E+02  0.40659136715E+02  0.00000000000E+00 0.  1.
         11    1    3    3    0    0  0.11328318862E+02  0.84672157536E+01 -0.27097340773E+00  0.14145599235E+02  0.51100000000E-03 0. -1.
        -11    1    3    3    0    0  0.10572924385E+02 -0.11434654272E+02 -0.83034205986E+01  0.17648933177E+02  0.51100000000E-03 0.  1.
        -12    1    3    3    0    0  0.11419987320E+02  0.20620120905E+01 -0.14707384166E+02  0.18734330873E+02  0.00000000000E+00 0.  1.
</event>
<event>
 7    1  0.5155466E-011  0.5052887E+02  0.7816164E-02  0.1300439E+00
        -11   -1    0    0    0    0  0.00000000000E+00  0.00000000000E+00  0.45593999997E+02  0.45594000000E+02  0.51100000000E-03 0. -1.
         11   -1    0    0    0    0 -0.00000000000E+00 -0.00000000000E+00 -0.45593999997E+02  0.45594000000E+02  0.51100000000E-03 0.  1.
    9900012    2    1    2    0    0 -0.94008616525E+01  0.32229899046E+02  0.22935169816E+02  0.50528873019E+02  0.30000040029E+02 0.  0.
        -12    1    1    2    0    0  0.94008616525E+01 -0.32229899046E+02 -0.22935169816E+02  0.40659126981E+02  0.00000000000E+00 0.  1.
         11    1    3    3    0    0 -0.67561036037E+01 -0.21624755745E+01  0.27075424345E+01  0.75928929144E+01  0.51100000000E-03 0. -1.
        -11    1    3    3    0    0 -0.49462512583E+01  0.30956482752E+02  0.22140719373E+02  0.38379430435E+02  0.51100000000E-03 0.  1.
        -12    1    3    3    0    0  0.23014932095E+01  0.34358918683E+01 -0.19130919915E+01  0.45565496697E+01  0.00000000000E+00 0.  1.
</event>
<event>
 7    1  0.5155466E-011  0.5052886E+02  0.7816164E-02  0.1300439E+00
        -11   -1    0    0    0    0  0.00000000000E+00  0.00000000000E+00  0.45593999997E+02  0.45594000000E+02  0.51100000000E-03 0.  1.
         11   -1    0    0    0    0 -0.00000000000E+00 -0.00000000000E+00 -0.45593999997E+02  0.45594000000E+02  0.51100000000E-03 0. -1.
    9900012    2    1    2    0    0 -0.25026398184E+02  0.27869635574E+02 -0.15815438589E+02  0.50528864607E+02  0.30000014461E+02 0.  0.
        -12    1    1    2    0    0  0.25026398184E+02 -0.27869635574E+02  0.15815438589E+02  0.40659135393E+02  0.00000000000E+00 0.  1.
         11    1    3    3    0    0 -0.10787134980E+02  0.15490174321E+02 -0.16914845144E+02  0.25346001027E+02  0.51100000000E-03 0. -1.
        -11    1    3    3    0    0 -0.13711094253E+02  0.14496622402E+02  0.51273595310E+01  0.20601844158E+02  0.51100000000E-03 0.  1.
         12    1    3    3    0    0 -0.52816895190E+00 -0.21171611491E+01 -0.40279529758E+01  0.45810194224E+01  0.00000000000E+00 0. -1.
</event>
<event>
 7    1  0.5155466E-011  0.5052886E+02  0.7816164E-02  0.1300439E+00
        -11   -1    0    0    0    0  0.00000000000E+00  0.00000000000E+00  0.45593999997E+02  0.45594000000E+02  0.51100000000E-03 0.  1.
         11   -1    0    0    0    0 -0.00000000000E+00 -0.00000000000E+00 -0.45593999997E+02  0.45594000000E+02  0.51100000000E-03 0. -1.
    9900012    2    1    2    0    0  0.22645664109E+02 -0.10204308928E+02 -0.32190241160E+02  0.50528860196E+02  0.30000001052E+02 0.  0.
        -12    1    1    2    0    0 -0.22645664109E+02  0.10204308928E+02  0.32190241160E+02  0.40659139804E+02  0.00000000000E+00 0.  1.
         11    1    3    3    0    0  0.12518270301E+02  0.12800789054E+00 -0.20005862943E+02  0.23599958256E+02  0.51100000000E-03 0. -1.
        -11    1    3    3    0    0  0.10821834154E+02 -0.13072980978E+02 -0.28916416184E+01  0.17215589378E+02  0.51100000000E-03 0.  1.
        -12    1    3    3    0    0 -0.69444034592E+00  0.27406641597E+01 -0.92927365990E+01  0.97133125621E+01  0.00000000000E+00 0.  1.
</event>
<event>
 7    1  0.5155466E-011  0.5052887E+02  0.7816164E-02  0.1300439E+00
        -11   -1    0    0    0    0  0.00000000000E+00  0.00000000000E+00  0.45593999997E+02  0.45594000000E+02  0.51100000000E-03 0.  1.
         11   -1    0    0    0    0 -0.00000000000E+00 -0.00000000000E+00 -0.45593999997E+02  0.45594000000E+02  0.51100000000E-03 0. -1.
    9900012    2    1    2    0    0  0.17264358895E+02 -0.41678431733E+00 -0.36809418512E+02  0.50528867097E+02  0.30000022029E+02 0.  0.
        -12    1    1    2    0    0 -0.17264358895E+02  0.41678431733E+00  0.36809418512E+02  0.40659132903E+02  0.00000000000E+00 0.  1.
         11    1    3    3    0    0  0.21247020624E+02  0.20857465776E+00 -0.19717115528E+02  0.28986963169E+02  0.51100000000E-03 0. -1.
        -11    1    3    3    0    0 -0.79788278381E-02 -0.62333732943E+01 -0.78555850098E+01  0.10028221298E+02  0.51100000000E-03 0.  1.
         12    1    3    3    0    0 -0.39746829013E+01  0.56080143192E+01 -0.92367179745E+01  0.11513682630E+02  0.00000000000E+00 0. -1.
</event>
<event>
 7    1  0.5155466E-011  0.5052883E+02  0.7816164E-02  0.1300439E+00
        -11   -1    0    0    0    0  0.00000000000E+00  0.00000000000E+00  0.45593999997E+02  0.45594000000E+02  0.51100000000E-03 0. -1.
         11   -1    0    0    0    0 -0.00000000000E+00 -0.00000000000E+00 -0.45593999997E+02  0.45594000000E+02  0.51100000000E-03 0.  1.
    9900012    2    1    2    0    0 -0.30037987528E+02 -0.13457447867E+02  0.23870154494E+02  0.50528832849E+02  0.29999917929E+02 0.  0.
        -12    1    1    2    0    0  0.30037987528E+02  0.13457447867E+02 -0.23870154494E+02  0.40659167151E+02  0.00000000000E+00 0.  1.
         11    1    3    3    0    0 -0.21193236908E+02 -0.11833759070E+02  0.18446133546E+01  0.24343248408E+02  0.51100000000E-03 0. -1.
        -11    1    3    3    0    0 -0.69662143982E+01  0.41350881913E+01  0.12315518016E+02  0.14741067860E+02  0.51100000000E-03 0.  1.
        -12    1    3    3    0    0 -0.18785362223E+01 -0.57587769878E+01  0.97100231231E+01  0.11444516582E+02  0.00000000000E+00 0.  1.
</event>
<event>
 7    1  0.5155466E-011  0.5052887E+02  0.7816164E-02  0.1300439E+00
        -11   -1    0    0    0    0  0.00000000000E+00  0.00000000000E+00  0.45593999997E+02  0.45594000000E+02  0.51100000000E-03 0. -1.
         11   -1    0    0    0    0 -0.00000000000E+00 -0.00000000000E+00 -0.45593999997E+02  0.45594000000E+02  0.51100000000E-03 0.  1.
    9900012    2    1    2    0    0  0.26163469077E+01  0.14944962432E+02  0.37722238713E+02  0.50528874742E+02  0.30000045265E+02 0.  0.
        -12    1    1    2    0    0 -0.26163469077E+01 -0.14944962432E+02 -0.37722238713E+02  0.40659125258E+02  0.00000000000E+00 0.  1.
         11    1    3    3    0    0  0.65217591082E+01  0.26710175723E+01  0.35543673792E+01  0.78931112031E+01  0.51100000000E-03 0. -1.
        -11    1    3    3    0    0 -0.72468068601E+01 -0.39775009712E+01  0.71474419434E+01  0.10928067086E+02  0.51100000000E-03 0.  1.
        -12    1    3    3    0    0  0.33413946597E+01  0.16251445831E+02  0.27020429391E+02  0.31707696452E+02  0.00000000000E+00 0.  1.
</event>
<event>
 7    1  0.5155466E-011  0.5052885E+02  0.7816164E-02  0.1300439E+00
        -11   -1    0    0    0    0  0.00000000000E+00  0.00000000000E+00  0.45593999997E+02  0.45594000000E+02  0.51100000000E-03 0. -1.
         11   -1    0    0    0    0 -0.00000000000E+00 -0.00000000000E+00 -0.45593999997E+02  0.45594000000E+02  0.51100000000E-03 0.  1.
    9900012    2    1    2    0    0 -0.18388128525E+02  0.18081810941E+02  0.31433914380E+02  0.50528854278E+02  0.29999983065E+02 0.  0.
        -12    1    1    2    0    0  0.18388128525E+02 -0.18081810941E+02 -0.31433914380E+02  0.40659145722E+02  0.00000000000E+00 0.  1.
         11    1    3    3    0    0  0.35294279466E+01 -0.38694787933E+01  0.33520931249E+01  0.62182197083E+01  0.51100000000E-03 0. -1.
        -11    1    3    3    0    0 -0.11785460481E+02  0.15396473558E+02  0.81976755102E+01  0.21051136805E+02  0.51100000000E-03 0.  1.
         12    1    3    3    0    0 -0.10132095991E+02  0.65548161765E+01  0.19884145745E+02  0.23259497765E+02  0.00000000000E+00 0. -1.
</event>
<event>
 7    1  0.5155466E-011  0.5052886E+02  0.7816164E-02  0.1300439E+00
        -11   -1    0    0    0    0  0.00000000000E+00  0.00000000000E+00  0.45593999997E+02  0.45594000000E+02  0.51100000000E-03 0.  1.
         11   -1    0    0    0    0 -0.00000000000E+00 -0.00000000000E+00 -0.45593999997E+02  0.45594000000E+02  0.51100000000E-03 0. -1.
    9900012    2    1    2    0    0  0.31347374593E+02  0.10585348893E+02 -0.23631718561E+02  0.50528860472E+02  0.30000001889E+02 0.  0.
        -12    1    1    2    0    0 -0.31347374593E+02 -0.10585348893E+02  0.23631718561E+02  0.40659139528E+02  0.00000000000E+00 0.  1.
         11    1    3    3    0    0  0.33309840598E+02  0.90256904178E+01 -0.26029674279E+02  0.43226756893E+02  0.51100000000E-03 0. -1.
        -11    1    3    3    0    0  0.87506435283E+00 -0.19610372955E+01  0.16737519758E+01  0.27226551073E+01  0.51100000000E-03 0.  1.
         12    1    3    3    0    0 -0.28375303578E+01  0.35206957702E+01  0.72420374227E+00  0.45794484710E+01  0.00000000000E+00 0. -1.
</event>
<event>
 7    1  0.5155466E-011  0.5052886E+02  0.7816164E-02  0.1300439E+00
        -11   -1    0    0    0    0  0.00000000000E+00  0.00000000000E+00  0.45593999997E+02  0.45594000000E+02  0.51100000000E-03 0.  1.
         11   -1    0    0    0    0 -0.00000000000E+00 -0.00000000000E+00 -0.45593999997E+02  0.45594000000E+02  0.51100000000E-03 0. -1.
    9900012    2    1    2    0    0  0.24914209641E+02  0.37136623870E+01 -0.31916397814E+02  0.50528861054E+02  0.30000003661E+02 0.  0.
        -12    1    1    2    0    0 -0.24914209641E+02 -0.37136623870E+01  0.31916397814E+02  0.40659138946E+02  0.00000000000E+00 0.  1.
         11    1    3    3    0    0  0.34872562490E+01  0.19472286234E+01 -0.12824019423E+02  0.13431609356E+02  0.51100000000E-03 0. -1.
        -11    1    3    3    0    0  0.26590600937E+02  0.15133937147E+01 -0.15782757728E+02  0.30958776793E+02  0.51100000000E-03 0.  1.
        -12    1    3    3    0    0 -0.51636475451E+01  0.25304004893E+00 -0.33096206627E+01  0.61384749057E+01  0.00000000000E+00 0.  1.
</event>
<event>
 7    1  0.5155466E-011  0.5052883E+02  0.7816164E-02  0.1300439E+00
        -11   -1    0    0    0    0  0.00000000000E+00  0.00000000000E+00  0.45593999997E+02  0.45594000000E+02  0.51100000000E-03 0. -1.
         11   -1    0    0    0    0 -0.00000000000E+00 -0.00000000000E+00 -0.45593999997E+02  0.45594000000E+02  0.51100000000E-03 0.  1.
    9900012    2    1    2    0    0  0.20512765901E+02  0.31920813690E+02  0.14610152710E+02  0.50528825467E+02  0.29999895489E+02 0.  0.
        -12    1    1    2    0    0 -0.20512765901E+02 -0.31920813690E+02 -0.14610152710E+02  0.40659174533E+02  0.00000000000E+00 0.  1.
         11    1    3    3    0    0  0.10279997021E+02  0.27084282890E+02  0.98065478499E+01  0.30584393069E+02  0.51100000000E-03 0. -1.
        -11    1    3    3    0    0  0.85885979214E+01 -0.42064160062E+01  0.49152262176E+01  0.10752553134E+02  0.51100000000E-03 0.  1.
        -12    1    3    3    0    0  0.16441709590E+01  0.90429468053E+01 -0.11162135792E+00  0.91918792635E+01  0.00000000000E+00 0.  1.
</event>
<event>
 7    1  0.5155466E-011  0.5052885E+02  0.7816164E-02  0.1300439E+00
        -11   -1    0    0    0    0  0.00000000000E+00  0.00000000000E+00  0.45593999997E+02  0.45594000000E+02  0.51100000000E-03 0.  1.
         11   -1    0    0    0    0 -0.00000000000E+00 -0.00000000000E+00 -0.45593999997E+02  0.45594000000E+02  0.51100000000E-03 0. -1.
    9900012    2    1    2    0    0  0.29827290835E+01  0.72175835726E+01 -0.39902086619E+02  0.50528847254E+02  0.29999961714E+02 0.  0.
        -12    1    1    2    0    0 -0.29827290835E+01 -0.72175835726E+01  0.39902086619E+02  0.40659152746E+02  0.00000000000E+00 0.  1.
         11    1    3    3    0    0 -0.48628481426E+01 -0.38788995153E+01 -0.18317631946E+02  0.19344994026E+02  0.51100000000E-03 0. -1.
        -11    1    3    3    0    0  0.72708971296E+01  0.13879794094E+02 -0.23138517357E+02  0.27944688492E+02  0.51100000000E-03 0.  1.
         12    1    3    3    0    0  0.57468009650E+00 -0.27833110059E+01  0.15540626832E+01  0.32391647368E+01  0.00000000000E+00 0. -1.
</event>
<event>
 7    1  0.5155466E-011  0.5052886E+02  0.7816164E-02  0.1300439E+00
        -11   -1    0    0    0    0  0.00000000000E+00  0.00000000000E+00  0.45593999997E+02  0.45594000000E+02  0.51100000000E-03 0.  1.
         11   -1    0    0    0    0 -0.00000000000E+00 -0.00000000000E+00 -0.45593999997E+02  0.45594000000E+02  0.51100000000E-03 0. -1.
    9900012    2    1    2    0    0  0.51685242513E+01  0.58948535197E+01 -0.39896145658E+02  0.50528863520E+02  0.30000011156E+02 0.  0.
        -12    1    1    2    0    0 -0.51685242513E+01 -0.58948535197E+01  0.39896145658E+02  0.40659136480E+02  0.00000000000E+00 0.  1.
         11    1    3    3    0    0  0.33843724172E+01  0.10465779878E+02 -0.24246091986E+02  0.26624415523E+02  0.51100000000E-03 0. -1.
        -11    1    3    3    0    0  0.34420258380E+01 -0.12343317673E+01  0.30962793942E+01  0.47914573075E+01  0.51100000000E-03 0.  1.
         12    1    3    3    0    0 -0.16578740039E+01 -0.33365945905E+01 -0.18746333066E+02  0.19112990689E+02  0.00000000000E+00 0. -1.
</event>
<event>
 7    1  0.5155466E-011  0.5052886E+02  0.7816164E-02  0.1300439E+00
        -11   -1    0    0    0    0  0.00000000000E+00  0.00000000000E+00  0.45593999997E+02  0.45594000000E+02  0.51100000000E-03 0.  1.
         11   -1    0    0    0    0 -0.00000000000E+00 -0.00000000000E+00 -0.45593999997E+02  0.45594000000E+02  0.51100000000E-03 0. -1.
    9900012    2    1    2    0    0 -0.33104875186E+02  0.23585142703E+02  0.98680512609E+00  0.50528862014E+02  0.30000006578E+02 0.  0.
        -12    1    1    2    0    0  0.33104875186E+02 -0.23585142703E+02 -0.98680512609E+00  0.40659137986E+02  0.00000000000E+00 0.  1.
         11    1    3    3    0    0 -0.32821330178E+02  0.20944685781E+02 -0.19651782216E+01  0.38984375111E+02  0.51100000000E-03 0. -1.
        -11    1    3    3    0    0  0.42472905340E+01  0.85224316129E+00 -0.18445791941E+01  0.47083190154E+01  0.51100000000E-03 0.  1.
         12    1    3    3    0    0 -0.45308355421E+01  0.17882137606E+01  0.47965625418E+01  0.68361678871E+01  0.00000000000E+00 0. -1.
</event>
<event>
 7    1  0.5155466E-011  0.5052888E+02  0.7816164E-02  0.1300439E+00
        -11   -1    0    0    0    0  0.00000000000E+00  0.00000000000E+00  0.45593999997E+02  0.45594000000E+02  0.51100000000E-03 0.  1.
         11   -1    0    0    0    0 -0.00000000000E+00 -0.00000000000E+00 -0.45593999997E+02  0.45594000000E+02  0.51100000000E-03 0. -1.
    9900012    2    1    2    0    0  0.99859491530E+01  0.35813299844E+02 -0.16457604434E+02  0.50528875933E+02  0.30000048885E+02 0.  0.
        -12    1    1    2    0    0 -0.99859491530E+01 -0.35813299844E+02  0.16457604434E+02  0.40659124067E+02  0.00000000000E+00 0.  1.
         11    1    3    3    0    0  0.19763660811E+01  0.28465339735E+01 -0.14233068797E+02  0.14648857505E+02  0.51100000000E-03 0. -1.
        -11    1    3    3    0    0  0.29801025795E+01  0.23308376061E+02  0.31987137978E+01  0.23714830301E+02  0.51100000000E-03 0.  1.
         12    1    3    3    0    0  0.50294804923E+01  0.96583898096E+01 -0.54232494350E+01  0.12165188127E+02  0.00000000000E+00 0. -1.
</event>
<event>
 7    1  0.5155466E-011  0.5052886E+02  0.7816164E-02  0.1300439E+00
        -11   -1    0    0    0    0  0.00000000000E+00  0.00000000000E+00  0.45593999997E+02  0.45594000000E+02  0.51100000000E-03 0. -1.
         11   -1    0    0    0    0 -0.00000000000E+00 -0.00000000000E+00 -0.45593999997E+02  0.45594000000E+02  0.51100000000E-03 0.  1.
    9900012    2    1    2    0    0  0.16001003644E+02 -0.12837175402E+02  0.35104702380E+02  0.50528864260E+02  0.30000013404E+02 0.  0.
        -12    1    1    2    0    0 -0.16001003644E+02  0.12837175402E+02 -0.35104702380E+02  0.40659135740E+02  0.00000000000E+00 0.  1.
         11    1    3    3    0    0 -0.33676504853E+01 -0.21044896305E+01  0.15694300997E+02  0.16188916902E+02  0.51100000000E-03 0.  1.
        -11    1    3    3    0    0  0.14230814419E+02  0.71830425774E+00  0.47024405936E+01  0.15004832150E+02  0.51100000000E-03 0. -1.
         12    1    3    3    0    0  0.51378397104E+01 -0.11450990029E+02  0.14707960790E+02  0.19335115208E+02  0.00000000000E+00 0. -1.
</event>
<event>
 7    1  0.5155466E-011  0.5052887E+02  0.7816164E-02  0.1300439E+00
        -11   -1    0    0    0    0  0.00000000000E+00  0.00000000000E+00  0.45593999997E+02  0.45594000000E+02  0.51100000000E-03 0. -1.
         11   -1    0    0    0    0 -0.00000000000E+00 -0.00000000000E+00 -0.45593999997E+02  0.45594000000E+02  0.51100000000E-03 0.  1.
    9900012    2    1    2    0    0 -0.40472345280E+01  0.18697560933E+02  0.35877378262E+02  0.50528866178E+02  0.30000019235E+02 0.  0.
        -12    1    1    2    0    0  0.40472345280E+01 -0.18697560933E+02 -0.35877378262E+02  0.40659133822E+02  0.00000000000E+00 0.  1.
         11    1    3    3    0    0 -0.44387315106E+01  0.57442317979E+01  0.18679165142E+02  0.20040203268E+02  0.51100000000E-03 0. -1.
        -11    1    3    3    0    0  0.57086714277E+01  0.15188159307E+02  0.49720010483E+01  0.16970265387E+02  0.51100000000E-03 0.  1.
        -12    1    3    3    0    0 -0.53171744451E+01 -0.22348301715E+01  0.12226212072E+02  0.13518397524E+02  0.00000000000E+00 0.  1.
</event>
<event>
 7    1  0.5155466E-011  0.5052886E+02  0.7816164E-02  0.1300439E+00
        -11   -1    0    0    0    0  0.00000000000E+00  0.00000000000E+00  0.45593999997E+02  0.45594000000E+02  0.51100000000E-03 0.  1.
         11   -1    0    0    0    0 -0.00000000000E+00 -0.00000000000E+00 -0.45593999997E+02  0.45594000000E+02  0.51100000000E-03 0. -1.
    9900012    2    1    2    0    0 -0.17155221765E+01 -0.39208165671E+02  0.10627440563E+02  0.50528858782E+02  0.29999996754E+02 0.  0.
        -12    1    1    2    0    0  0.17155221765E+01  0.39208165671E+02 -0.10627440563E+02  0.40659141218E+02  0.00000000000E+00 0.  1.
         11    1    3    3    0    0 -0.54034568811E+01 -0.12009102008E+02 -0.18886411891E+01  0.13303489884E+02  0.51100000000E-03 0. -1.
        -11    1    3    3    0    0 -0.32152632068E+01  0.43401668570E+00  0.76776598792E+01  0.83350314609E+01  0.51100000000E-03 0.  1.
        -12    1    3    3    0    0  0.69031979113E+01 -0.27633080350E+02  0.48384218733E+01  0.28890337437E+02  0.00000000000E+00 0.  1.
</event>
<event>
 7    1  0.5155466E-011  0.5052887E+02  0.7816164E-02  0.1300439E+00
        -11   -1    0    0    0    0  0.00000000000E+00  0.00000000000E+00  0.45593999997E+02  0.45594000000E+02  0.51100000000E-03 0.  1.
         11   -1    0    0    0    0 -0.00000000000E+00 -0.00000000000E+00 -0.45593999997E+02  0.45594000000E+02  0.51100000000E-03 0. -1.
    9900012    2    1    2    0    0  0.39236567955E+02 -0.10634936041E+02 -0.74491467702E+00  0.50528867848E+02  0.30000024311E+02 0.  0.
        -12    1    1    2    0    0 -0.39236567955E+02  0.10634936041E+02  0.74491467702E+00  0.40659132152E+02  0.00000000000E+00 0.  1.
         11    1    3    3    0    0  0.39881488653E+02 -0.81866765289E+01  0.35088650517E+01  0.40864005481E+02  0.51100000000E-03 0. -1.
        -11    1    3    3    0    0 -0.12228115254E+01  0.27246352654E+01 -0.70822640884E-01  0.29872933340E+01  0.51100000000E-03 0.  1.
         12    1    3    3    0    0  0.57789082753E+00 -0.51728947777E+01 -0.41829570878E+01  0.66775690329E+01  0.00000000000E+00 0. -1.
</event>
<event>
 7    1  0.5155466E-011  0.5052881E+02  0.7816164E-02  0.1300439E+00
        -11   -1    0    0    0    0  0.00000000000E+00  0.00000000000E+00  0.45593999997E+02  0.45594000000E+02  0.51100000000E-03 0.  1.
         11   -1    0    0    0    0 -0.00000000000E+00 -0.00000000000E+00 -0.45593999997E+02  0.45594000000E+02  0.51100000000E-03 0. -1.
    9900012    2    1    2    0    0 -0.25855631263E+02  0.16546576590E+01 -0.31335576218E+02  0.50528807966E+02  0.29999842293E+02 0.  0.
        -12    1    1    2    0    0  0.25855631263E+02 -0.16546576590E+01  0.31335576218E+02  0.40659192034E+02  0.00000000000E+00 0.  1.
         11    1    3    3    0    0 -0.10985126480E+02  0.30014543713E+01 -0.14289545239E+02  0.18272187486E+02  0.51100000000E-03 0. -1.
        -11    1    3    3    0    0 -0.11456674939E+02 -0.38695628724E+01  0.24207292473E+01  0.12332430735E+02  0.51100000000E-03 0.  1.
        -12    1    3    3    0    0 -0.34138298431E+01  0.25227661601E+01 -0.19466760226E+02  0.19924189745E+02  0.00000000000E+00 0.  1.
</event>
<event>
 7    1  0.5155466E-011  0.5052886E+02  0.7816164E-02  0.1300439E+00
        -11   -1    0    0    0    0  0.00000000000E+00  0.00000000000E+00  0.45593999997E+02  0.45594000000E+02  0.51100000000E-03 0. -1.
         11   -1    0    0    0    0 -0.00000000000E+00 -0.00000000000E+00 -0.45593999997E+02  0.45594000000E+02  0.51100000000E-03 0.  1.
    9900012    2    1    2    0    0 -0.26966985612E+02 -0.28220487689E+02  0.11382070515E+02  0.50528858745E+02  0.29999996642E+02 0.  0.
        -12    1    1    2    0    0  0.26966985612E+02  0.28220487689E+02 -0.11382070515E+02  0.40659141255E+02  0.00000000000E+00 0.  1.
         11    1    3    3    0    0 -0.14885772041E+02 -0.17459131153E+02  0.86958337243E+01  0.24536197633E+02  0.51100000000E-03 0. -1.
        -11    1    3    3    0    0  0.50621516534E+01 -0.82637604428E+00 -0.22061483168E+01  0.55834906094E+01  0.51100000000E-03 0.  1.
        -12    1    3    3    0    0 -0.17143365224E+02 -0.99349804919E+01  0.48923851071E+01  0.20409170503E+02  0.00000000000E+00 0.  1.
</event>
<event>
 7    1  0.5155466E-011  0.5052886E+02  0.7816164E-02  0.1300439E+00
        -11   -1    0    0    0    0  0.00000000000E+00  0.00000000000E+00  0.45593999997E+02  0.45594000000E+02  0.51100000000E-03 0.  1.
         11   -1    0    0    0    0 -0.00000000000E+00 -0.00000000000E+00 -0.45593999997E+02  0.45594000000E+02  0.51100000000E-03 0. -1.
    9900012    2    1    2    0    0 -0.10729016871E+01  0.77103196962E+01 -0.39906962697E+02  0.50528858106E+02  0.29999994699E+02 0.  0.
        -12    1    1    2    0    0  0.10729016871E+01 -0.77103196962E+01  0.39906962697E+02  0.40659141894E+02  0.00000000000E+00 0.  1.
         11    1    3    3    0    0 -0.66642001549E+01  0.83109439513E+01 -0.23029927522E+01  0.10898950818E+02  0.51100000000E-03 0. -1.
        -11    1    3    3    0    0  0.38330428984E+01  0.85609237295E+00 -0.37079786038E+02  0.37287204842E+02  0.51100000000E-03 0.  1.
        -12    1    3    3    0    0  0.17582555693E+01 -0.14567166281E+01 -0.52418390708E+00  0.23427024459E+01  0.00000000000E+00 0.  1.
</event>
<event>
 7    1  0.5155466E-011  0.5052887E+02  0.7816164E-02  0.1300439E+00
        -11   -1    0    0    0    0  0.00000000000E+00  0.00000000000E+00  0.45593999997E+02  0.45594000000E+02  0.51100000000E-03 0.  1.
         11   -1    0    0    0    0 -0.00000000000E+00 -0.00000000000E+00 -0.45593999997E+02  0.45594000000E+02  0.51100000000E-03 0. -1.
    9900012    2    1    2    0    0  0.31470789920E+02 -0.11808923347E+02 -0.22875833448E+02  0.50528867634E+02  0.30000023661E+02 0.  0.
        -12    1    1    2    0    0 -0.31470789920E+02  0.11808923347E+02  0.22875833448E+02  0.40659132366E+02  0.00000000000E+00 0.  1.
         11    1    3    3    0    0  0.27387344516E+02 -0.39101986926E+01 -0.25103851707E+02  0.37357190262E+02  0.51100000000E-03 0. -1.
        -11    1    3    3    0    0  0.66306151569E+01 -0.43965560027E+01 -0.63376966175E+00  0.79810040903E+01  0.51100000000E-03 0.  1.
         12    1    3    3    0    0 -0.25471697535E+01 -0.35021686520E+01  0.28617879204E+01  0.51906732821E+01  0.00000000000E+00 0. -1.
</event>
<event>
 7    1  0.5155466E-011  0.5052886E+02  0.7816164E-02  0.1300439E+00
        -11   -1    0    0    0    0  0.00000000000E+00  0.00000000000E+00  0.45593999997E+02  0.45594000000E+02  0.51100000000E-03 0.  1.
         11   -1    0    0    0    0 -0.00000000000E+00 -0.00000000000E+00 -0.45593999997E+02  0.45594000000E+02  0.51100000000E-03 0. -1.
    9900012    2    1    2    0    0 -0.37419191319E+02  0.14841602381E+02  0.57180919987E+01  0.50528860606E+02  0.30000002297E+02 0.  0.
        -12    1    1    2    0    0  0.37419191319E+02 -0.14841602381E+02 -0.57180919987E+01  0.40659139394E+02  0.00000000000E+00 0.  1.
         11    1    3    3    0    0 -0.24210145608E+02 -0.37736653466E+00 -0.21006940336E+00  0.24213997714E+02  0.51100000000E-03 0. -1.
        -11    1    3    3    0    0 -0.78987919154E+00  0.73172585513E+01 -0.41749032913E+01  0.84614419337E+01  0.51100000000E-03 0.  1.
        -12    1    3    3    0    0 -0.12419166519E+02  0.79017103646E+01  0.10103064693E+02  0.17853420958E+02  0.00000000000E+00 0.  1.
</event>
<event>
 7    1  0.5155466E-011  0.5052885E+02  0.7816164E-02  0.1300439E+00
        -11   -1    0    0    0    0  0.00000000000E+00  0.00000000000E+00  0.45593999997E+02  0.45594000000E+02  0.51100000000E-03 0. -1.
         11   -1    0    0    0    0 -0.00000000000E+00 -0.00000000000E+00 -0.45593999997E+02  0.45594000000E+02  0.51100000000E-03 0.  1.
    9900012    2    1    2    0    0 -0.28398131339E+02  0.15726081029E+02  0.24482715588E+02  0.50528845426E+02  0.29999956157E+02 0.  0.
        -12    1    1    2    0    0  0.28398131339E+02 -0.15726081029E+02 -0.24482715588E+02  0.40659154574E+02  0.00000000000E+00 0.  1.
         11    1    3    3    0    0  0.43537860511E+01  0.26990743039E+01  0.10702977973E+02  0.11865672877E+02  0.51100000000E-03 0. -1.
        -11    1    3    3    0    0 -0.24707746727E+02  0.63941037682E+01  0.11488454794E+02  0.27988245839E+02  0.51100000000E-03 0.  1.
         12    1    3    3    0    0 -0.80441706634E+01  0.66329029567E+01  0.22912828214E+01  0.10674926710E+02  0.00000000000E+00 0. -1.
</event>
<event>
 7    1  0.5155466E-011  0.5052878E+02  0.7816164E-02  0.1300439E+00
        -11   -1    0    0    0    0  0.00000000000E+00  0.00000000000E+00  0.45593999997E+02  0.45594000000E+02  0.51100000000E-03 0.  1.
         11   -1    0    0    0    0 -0.00000000000E+00 -0.00000000000E+00 -0.45593999997E+02  0.45594000000E+02  0.51100000000E-03 0. -1.
    9900012    2    1    2    0    0  0.15123081636E+02  0.28894537791E+02 -0.24281059853E+02  0.50528784809E+02  0.29999771906E+02 0.  0.
        -12    1    1    2    0    0 -0.15123081636E+02 -0.28894537791E+02  0.24281059853E+02  0.40659215191E+02  0.00000000000E+00 0.  1.
         11    1    3    3    0    0 -0.40465534152E+01 -0.39182729902E+01 -0.61804950957E+01  0.83621754141E+01  0.51100000000E-03 0.  1.
        -11    1    3    3    0    0  0.15584892147E+02  0.25746665980E+02 -0.15307043550E+02  0.33765148524E+02  0.51100000000E-03 0. -1.
        -12    1    3    3    0    0  0.35847429047E+01  0.70661448014E+01 -0.27935212069E+01  0.84014608718E+01  0.00000000000E+00 0.  1.
</event>
<event>
 7    1  0.5155466E-011  0.5052897E+02  0.7816164E-02  0.1300438E+00
        -11   -1    0    0    0    0  0.00000000000E+00  0.00000000000E+00  0.45593999997E+02  0.45594000000E+02  0.51100000000E-03 0.  1.
         11   -1    0    0    0    0 -0.00000000000E+00 -0.00000000000E+00 -0.45593999997E+02  0.45594000000E+02  0.51100000000E-03 0. -1.
    9900012    2    1    2    0    0  0.81183850412E+01 -0.26677034163E+02 -0.29590272419E+02  0.50528972106E+02  0.30000341212E+02 0.  0.
        -12    1    1    2    0    0 -0.81183850412E+01  0.26677034163E+02  0.29590272419E+02  0.40659027894E+02  0.00000000000E+00 0.  1.
         11    1    3    3    0    0 -0.18229787688E+01 -0.75515584712E+00 -0.90067120528E+01  0.92203239753E+01  0.51100000000E-03 0. -1.
        -11    1    3    3    0    0  0.14449061340E+02 -0.22312421790E+02 -0.22900592934E+02  0.35086417553E+02  0.51100000000E-03 0.  1.
        -12    1    3    3    0    0 -0.45076975305E+01 -0.36094565267E+01  0.23170325674E+01  0.62222305777E+01  0.00000000000E+00 0.  1.
</event>
<event>
 7    1  0.5155466E-011  0.5052883E+02  0.7816164E-02  0.1300439E+00
        -11   -1    0    0    0    0  0.00000000000E+00  0.00000000000E+00  0.45593999997E+02  0.45594000000E+02  0.51100000000E-03 0. -1.
         11   -1    0    0    0    0 -0.00000000000E+00 -0.00000000000E+00 -0.45593999997E+02  0.45594000000E+02  0.51100000000E-03 0.  1.
    9900012    2    1    2    0    0  0.34458488725E+02 -0.14032409830E+02  0.16397324845E+02  0.50528828428E+02  0.29999904489E+02 0.  0.
        -12    1    1    2    0    0 -0.34458488725E+02  0.14032409830E+02 -0.16397324845E+02  0.40659171572E+02  0.00000000000E+00 0.  1.
         11    1    3    3    0    0  0.23914974538E+02 -0.32736239325E+01  0.20370286555E+02  0.31584667094E+02  0.51100000000E-03 0. -1.
        -11    1    3    3    0    0 -0.21974514505E+01 -0.15957896972E+01  0.14351837792E+00  0.27195469147E+01  0.51100000000E-03 0.  1.
         12    1    3    3    0    0  0.12740965638E+02 -0.91629962000E+01 -0.41164800879E+01  0.16224614419E+02  0.00000000000E+00 0. -1.
</event>
<event>
 7    1  0.6001700E-011  0.5052886E+02  0.7816164E-02  0.1300439E+00
        -11   -1    0    0    0    0  0.00000000000E+00  0.00000000000E+00  0.45593999997E+02  0.45594000000E+02  0.51100000000E-03 0. -1.
         11   -1    0    0    0    0 -0.00000000000E+00 -0.00000000000E+00 -0.45593999997E+02  0.45594000000E+02  0.51100000000E-03 0.  1.
    9900012    2    1    2    0    0 -0.32462642596E+02 -0.17777457337E+02  0.16831651076E+02  0.50528860417E+02  0.30000001723E+02 0.  0.
        -12    1    1    2    0    0  0.32462642596E+02  0.17777457337E+02 -0.16831651076E+02  0.40659139583E+02  0.00000000000E+00 0.  1.
         11    1    3    3    0    0 -0.16880854868E+02 -0.86066531269E+00  0.50157956500E+01  0.17631285039E+02  0.51100000000E-03 0. -1.
        -11    1    3    3    0    0  0.11638161838E+01 -0.77009350011E+01 -0.33691410327E+01  0.84858694051E+01  0.51100000000E-03 0.  1.
        -12    1    3    3    0    0 -0.16745603912E+02 -0.92158570229E+01  0.15184996459E+02  0.24411705973E+02  0.00000000000E+00 0.  1.
</event>
<event>
 7    1  0.5155466E-011  0.5052887E+02  0.7816164E-02  0.1300439E+00
        -11   -1    0    0    0    0  0.00000000000E+00  0.00000000000E+00  0.45593999997E+02  0.45594000000E+02  0.51100000000E-03 0.  1.
         11   -1    0    0    0    0 -0.00000000000E+00 -0.00000000000E+00 -0.45593999997E+02  0.45594000000E+02  0.51100000000E-03 0. -1.
    9900012    2    1    2    0    0 -0.36746013986E+02 -0.65950721947E+01 -0.16105915113E+02  0.50528867905E+02  0.30000024483E+02 0.  0.
        -12    1    1    2    0    0  0.36746013986E+02  0.65950721947E+01  0.16105915113E+02  0.40659132095E+02  0.00000000000E+00 0.  1.
         11    1    3    3    0    0 -0.27308079581E+02  0.23289330811E+01 -0.15656427664E+02  0.31563885489E+02  0.51100000000E-03 0. -1.
        -11    1    3    3    0    0 -0.22332796675E+01 -0.11119400806E+02 -0.11558994710E+01  0.11400206849E+02  0.51100000000E-03 0.  1.
         12    1    3    3    0    0 -0.72046547373E+01  0.21953955303E+01  0.70641202181E+00  0.75647755659E+01  0.00000000000E+00 0. -1.
</event>
<event>
 7    1  0.5155466E-011  0.5052886E+02  0.7816164E-02  0.1300439E+00
        -11   -1    0    0    0    0  0.00000000000E+00  0.00000000000E+00  0.45593999997E+02  0.45594000000E+02  0.51100000000E-03 0.  1.
         11   -1    0    0    0    0 -0.00000000000E+00 -0.00000000000E+00 -0.45593999997E+02  0.45594000000E+02  0.51100000000E-03 0. -1.
    9900012    2    1    2    0    0 -0.38159905686E+02 -0.13473525756E+02 -0.39308066944E+01  0.50528861549E+02  0.30000005166E+02 0.  0.
        -12    1    1    2    0    0  0.38159905686E+02  0.13473525756E+02  0.39308066944E+01  0.40659138451E+02  0.00000000000E+00 0.  1.
         11    1    3    3    0    0 -0.21722217932E+02 -0.44362263872E+01 -0.74868697053E+01  0.23400599879E+02  0.51100000000E-03 0. -1.
        -11    1    3    3    0    0  0.43032029949E+01 -0.27753435367E+01  0.16462670403E+01  0.53786878689E+01  0.51100000000E-03 0.  1.
        -12    1    3    3    0    0 -0.20740890749E+02 -0.62619558320E+01  0.19097959707E+01  0.21749573802E+02  0.00000000000E+00 0.  1.
</event>
<event>
 7    1  0.5155466E-011  0.5052886E+02  0.7816164E-02  0.1300439E+00
        -11   -1    0    0    0    0  0.00000000000E+00  0.00000000000E+00  0.45593999997E+02  0.45594000000E+02  0.51100000000E-03 0.  1.
         11   -1    0    0    0    0 -0.00000000000E+00 -0.00000000000E+00 -0.45593999997E+02  0.45594000000E+02  0.51100000000E-03 0. -1.
    9900012    2    1    2    0    0 -0.11904658184E+01 -0.14070210576E+02 -0.38128441131E+02  0.50528855178E+02  0.29999985800E+02 0.  0.
        -12    1    1    2    0    0  0.11904658184E+01  0.14070210576E+02  0.38128441131E+02  0.40659144822E+02  0.00000000000E+00 0.  1.
         11    1    3    3    0    0 -0.39872741627E+01 -0.55528616083E+01 -0.34880244852E+02  0.35543833621E+02  0.51100000000E-03 0. -1.
        -11    1    3    3    0    0  0.67799975758E+01 -0.24524869293E+01 -0.50403703591E+00  0.72275246703E+01  0.51100000000E-03 0.  1.
        -12    1    3    3    0    0 -0.39831892314E+01 -0.60648620383E+01 -0.27441592434E+01  0.77574968869E+01  0.00000000000E+00 0.  1.
</event>
<event>
 7    1  0.5155466E-011  0.5052885E+02  0.7816164E-02  0.1300439E+00
        -11   -1    0    0    0    0  0.00000000000E+00  0.00000000000E+00  0.45593999997E+02  0.45594000000E+02  0.51100000000E-03 0.  1.
         11   -1    0    0    0    0 -0.00000000000E+00 -0.00000000000E+00 -0.45593999997E+02  0.45594000000E+02  0.51100000000E-03 0. -1.
    9900012    2    1    2    0    0 -0.13320851877E+02 -0.37979517137E+02 -0.57686875198E+01  0.50528848848E+02  0.29999966559E+02 0.  0.
        -12    1    1    2    0    0  0.13320851877E+02  0.37979517137E+02  0.57686875198E+01  0.40659151152E+02  0.00000000000E+00 0.  1.
         11    1    3    3    0    0 -0.28164363575E+01 -0.65647537275E+01 -0.97397091851E+01  0.12078503240E+02  0.51100000000E-03 0. -1.
        -11    1    3    3    0    0 -0.16100965364E+02 -0.21532400621E+02  0.29289503320E+01  0.27045593217E+02  0.51100000000E-03 0.  1.
        -12    1    3    3    0    0  0.55965498440E+01 -0.98823627878E+01  0.10420713333E+01  0.11404752391E+02  0.00000000000E+00 0.  1.
</event>
<event>
 7    1  0.5155466E-011  0.5052886E+02  0.7816164E-02  0.1300439E+00
        -11   -1    0    0    0    0  0.00000000000E+00  0.00000000000E+00  0.45593999997E+02  0.45594000000E+02  0.51100000000E-03 0.  1.
         11   -1    0    0    0    0 -0.00000000000E+00 -0.00000000000E+00 -0.45593999997E+02  0.45594000000E+02  0.51100000000E-03 0. -1.
    9900012    2    1    2    0    0  0.21715694205E+02 -0.30888101495E+02 -0.15083748274E+02  0.50528860181E+02  0.30000001007E+02 0.  0.
        -12    1    1    2    0    0 -0.21715694205E+02  0.30888101495E+02  0.15083748274E+02  0.40659139819E+02  0.00000000000E+00 0.  1.
         11    1    3    3    0    0  0.22491785708E+02 -0.22658533522E+02 -0.11010050349E+01  0.31945293519E+02  0.51100000000E-03 0. -1.
        -11    1    3    3    0    0 -0.50287462742E+00  0.18094315739E+01 -0.40220663661E+01  0.44389124373E+01  0.51100000000E-03 0.  1.
         12    1    3    3    0    0 -0.27321687478E+00 -0.10038999547E+02 -0.99606768735E+01  0.14144654225E+02  0.00000000000E+00 0. -1.
</event>
<event>
 7    1  0.5155466E-011  0.5052887E+02  0.7816164E-02  0.1300439E+00
        -11   -1    0    0    0    0  0.00000000000E+00  0.00000000000E+00  0.45593999997E+02  0.45594000000E+02  0.51100000000E-03 0.  1.
         11   -1    0    0    0    0 -0.00000000000E+00 -0.00000000000E+00 -0.45593999997E+02  0.45594000000E+02  0.51100000000E-03 0. -1.
    9900012    2    1    2    0    0  0.38315558724E+02  0.12301168820E+02  0.58106504444E+01  0.50528874908E+02  0.30000045769E+02 0.  0.
        -12    1    1    2    0    0 -0.38315558724E+02 -0.12301168820E+02 -0.58106504444E+01  0.40659125092E+02  0.00000000000E+00 0.  1.
         11    1    3    3    0    0  0.14177894644E+02  0.11731653137E+02 -0.70718562884E+01  0.19714348416E+02  0.51100000000E-03 0. -1.
        -11    1    3    3    0    0  0.56352160845E+01 -0.60980211630E+01  0.43887859343E+01  0.93916433419E+01  0.51100000000E-03 0.  1.
         12    1    3    3    0    0  0.18502447995E+02  0.66675368463E+01  0.84937207986E+01  0.21422883149E+02  0.00000000000E+00 0. -1.
</event>
<event>
 7    1  0.5155466E-011  0.5052886E+02  0.7816164E-02  0.1300439E+00
        -11   -1    0    0    0    0  0.00000000000E+00  0.00000000000E+00  0.45593999997E+02  0.45594000000E+02  0.51100000000E-03 0.  1.
         11   -1    0    0    0    0 -0.00000000000E+00 -0.00000000000E+00 -0.45593999997E+02  0.45594000000E+02  0.51100000000E-03 0. -1.
    9900012    2    1    2    0    0  0.33085516010E+02 -0.23535899973E+02  0.21390439891E+01  0.50528862449E+02  0.30000007900E+02 0.  0.
        -12    1    1    2    0    0 -0.33085516010E+02  0.23535899973E+02 -0.21390439891E+01  0.40659137551E+02  0.00000000000E+00 0.  1.
         11    1    3    3    0    0  0.48479472508E+01 -0.70532420439E+01  0.57749932047E+01  0.10324793589E+02  0.51100000000E-03 0. -1.
        -11    1    3    3    0    0  0.23639058376E+02 -0.95548729568E+01 -0.12201641430E+02  0.28266247221E+02  0.51100000000E-03 0.  1.
        -12    1    3    3    0    0  0.45985103836E+01 -0.69277849726E+01  0.85656922145E+01  0.11937821639E+02  0.00000000000E+00 0.  1.
</event>
<event>
 7    1  0.5155466E-011  0.5052885E+02  0.7816164E-02  0.1300439E+00
        -11   -1    0    0    0    0  0.00000000000E+00  0.00000000000E+00  0.45593999997E+02  0.45594000000E+02  0.51100000000E-03 0.  1.
         11   -1    0    0    0    0 -0.00000000000E+00 -0.00000000000E+00 -0.45593999997E+02  0.45594000000E+02  0.51100000000E-03 0. -1.
    9900012    2    1    2    0    0  0.19918523356E+02 -0.18749857690E+02 -0.30080918399E+02  0.50528851118E+02  0.29999973458E+02 0.  0.
        -12    1    1    2    0    0 -0.19918523356E+02  0.18749857690E+02  0.30080918399E+02  0.40659148882E+02  0.00000000000E+00 0.  1.
         11    1    3    3    0    0  0.18450065248E+02 -0.17865284981E+02 -0.13881865236E+02  0.29193826364E+02  0.51100000000E-03 0. -1.
        -11    1    3    3    0    0  0.44369201279E+01  0.70523501372E+00 -0.17235773585E+02  0.17811667748E+02  0.51100000000E-03 0.  1.
         12    1    3    3    0    0 -0.29684620191E+01 -0.15898077226E+01  0.10367204223E+01  0.35233570055E+01  0.00000000000E+00 0. -1.
</event>
<event>
 7    1  0.5155466E-011  0.5052886E+02  0.7816164E-02  0.1300439E+00
        -11   -1    0    0    0    0  0.00000000000E+00  0.00000000000E+00  0.45593999997E+02  0.45594000000E+02  0.51100000000E-03 0.  1.
         11   -1    0    0    0    0 -0.00000000000E+00 -0.00000000000E+00 -0.45593999997E+02  0.45594000000E+02  0.51100000000E-03 0. -1.
    9900012    2    1    2    0    0  0.14881603625E+02  0.61396391055E+00 -0.37832875663E+02  0.50528861309E+02  0.30000004436E+02 0.  0.
        -12    1    1    2    0    0 -0.14881603625E+02 -0.61396391055E+00  0.37832875663E+02  0.40659138691E+02  0.00000000000E+00 0.  1.
         11    1    3    3    0    0  0.69013180726E+01 -0.47624168830E+00  0.36125948996E+01  0.78042193366E+01  0.51100000000E-03 0. -1.
        -11    1    3    3    0    0  0.34520818792E+01  0.30424681817E+01 -0.28551486539E+02  0.28919904318E+02  0.51100000000E-03 0.  1.
         12    1    3    3    0    0  0.45282036733E+01 -0.19522625829E+01 -0.12893984024E+02  0.13804737654E+02  0.00000000000E+00 0. -1.
</event>
<event>
 7    1  0.5155466E-011  0.5052885E+02  0.7816164E-02  0.1300439E+00
        -11   -1    0    0    0    0  0.00000000000E+00  0.00000000000E+00  0.45593999997E+02  0.45594000000E+02  0.51100000000E-03 0.  1.
         11   -1    0    0    0    0 -0.00000000000E+00 -0.00000000000E+00 -0.45593999997E+02  0.45594000000E+02  0.51100000000E-03 0. -1.
    9900012    2    1    2    0    0  0.12204443011E+02  0.37965737991E+02 -0.79259362665E+01  0.50528853968E+02  0.29999982120E+02 0.  0.
        -12    1    1    2    0    0 -0.12204443011E+02 -0.37965737991E+02  0.79259362665E+01  0.40659146032E+02  0.00000000000E+00 0.  1.
         11    1    3    3    0    0  0.21741673337E+02  0.24593151512E+02 -0.80708677479E+01  0.33803289297E+02  0.51100000000E-03 0. -1.
        -11    1    3    3    0    0 -0.20474822081E+01  0.39192799279E+01  0.13016908262E+01  0.46094834650E+01  0.51100000000E-03 0.  1.
         12    1    3    3    0    0 -0.74897481180E+01  0.94533065506E+01 -0.11567593449E+01  0.12116081206E+02  0.00000000000E+00 0. -1.
</event>
<event>
 7    1  0.5155466E-011  0.5052886E+02  0.7816164E-02  0.1300439E+00
        -11   -1    0    0    0    0  0.00000000000E+00  0.00000000000E+00  0.45593999997E+02  0.45594000000E+02  0.51100000000E-03 0.  1.
         11   -1    0    0    0    0 -0.00000000000E+00 -0.00000000000E+00 -0.45593999997E+02  0.45594000000E+02  0.51100000000E-03 0. -1.
    9900012    2    1    2    0    0  0.14923367554E+02  0.37269498168E+02 -0.64376152699E+01  0.50528864702E+02  0.30000014749E+02 0.  0.
        -12    1    1    2    0    0 -0.14923367554E+02 -0.37269498168E+02  0.64376152699E+01  0.40659135298E+02  0.00000000000E+00 0.  1.
         11    1    3    3    0    0  0.17908563846E+01 -0.23284683358E+01 -0.54217778517E+01  0.61664095481E+01  0.51100000000E-03 0. -1.
        -11    1    3    3    0    0  0.57406422243E+01  0.18433302798E+02  0.70262023473E+01  0.20545294957E+02  0.51100000000E-03 0.  1.
         12    1    3    3    0    0  0.73918689447E+01  0.21164663705E+02 -0.80420397655E+01  0.23817160197E+02  0.00000000000E+00 0. -1.
</event>
<event>
 7    1  0.5155466E-011  0.5052885E+02  0.7816164E-02  0.1300439E+00
        -11   -1    0    0    0    0  0.00000000000E+00  0.00000000000E+00  0.45593999997E+02  0.45594000000E+02  0.51100000000E-03 0. -1.
         11   -1    0    0    0    0 -0.00000000000E+00 -0.00000000000E+00 -0.45593999997E+02  0.45594000000E+02  0.51100000000E-03 0.  1.
    9900012    2    1    2    0    0  0.12508949158E+02 -0.10934848035E+02  0.37109588061E+02  0.50528852977E+02  0.29999979109E+02 0.  0.
        -12    1    1    2    0    0 -0.12508949158E+02  0.10934848035E+02 -0.37109588061E+02  0.40659147023E+02  0.00000000000E+00 0.  1.
         11    1    3    3    0    0  0.60357974274E+01  0.19302890472E+01  0.31539687233E+02  0.32169997473E+02  0.51100000000E-03 0. -1.
        -11    1    3    3    0    0  0.80284553021E+01 -0.11089363189E+02  0.16588651342E+01  0.13790645535E+02  0.51100000000E-03 0.  1.
         12    1    3    3    0    0 -0.15553035717E+01 -0.17757738931E+01  0.39110356936E+01  0.45682099685E+01  0.00000000000E+00 0. -1.
</event>
<event>
 7    1  0.5155466E-011  0.5052886E+02  0.7816164E-02  0.1300439E+00
        -11   -1    0    0    0    0  0.00000000000E+00  0.00000000000E+00  0.45593999997E+02  0.45594000000E+02  0.51100000000E-03 0.  1.
         11   -1    0    0    0    0 -0.00000000000E+00 -0.00000000000E+00 -0.45593999997E+02  0.45594000000E+02  0.51100000000E-03 0. -1.
    9900012    2    1    2    0    0  0.14879684257E+02 -0.21961154866E+02 -0.30813440501E+02  0.50528862747E+02  0.30000008805E+02 0.  0.
        -12    1    1    2    0    0 -0.14879684257E+02  0.21961154866E+02  0.30813440501E+02  0.40659137253E+02  0.00000000000E+00 0.  1.
         11    1    3    3    0    0 -0.10904472964E+01 -0.23272110893E+02 -0.15854974944E+02  0.28180852568E+02  0.51100000000E-03 0. -1.
        -11    1    3    3    0    0  0.78138512283E+01  0.46387375989E+00 -0.44008275578E+01  0.89799072010E+01  0.51100000000E-03 0.  1.
         12    1    3    3    0    0  0.81562803250E+01  0.84708226644E+00 -0.10557638000E+02  0.13368102978E+02  0.00000000000E+00 0. -1.
</event>
<event>
 7    1  0.5155466E-011  0.5052890E+02  0.7816164E-02  0.1300439E+00
        -11   -1    0    0    0    0  0.00000000000E+00  0.00000000000E+00  0.45593999997E+02  0.45594000000E+02  0.51100000000E-03 0.  1.
         11   -1    0    0    0    0 -0.00000000000E+00 -0.00000000000E+00 -0.45593999997E+02  0.45594000000E+02  0.51100000000E-03 0. -1.
    9900012    2    1    2    0    0 -0.36404192348E+02  0.15552407388E+02 -0.92746697106E+01  0.50528903917E+02  0.30000133945E+02 0.  0.
        -12    1    1    2    0    0  0.36404192348E+02 -0.15552407388E+02  0.92746697106E+01  0.40659096083E+02  0.00000000000E+00 0.  1.
         11    1    3    3    0    0 -0.17744155079E+02  0.34648810939E+01 -0.78789696606E+01  0.19721526403E+02  0.51100000000E-03 0. -1.
        -11    1    3    3    0    0 -0.11281379158E+02  0.17556168671E+02  0.21144168507E+01  0.20975207579E+02  0.51100000000E-03 0.  1.
        -12    1    3    3    0    0 -0.73786581109E+01 -0.54686423775E+01 -0.35101169007E+01  0.98321699348E+01  0.00000000000E+00 0.  1.
</event>
<event>
 7    1  0.5155466E-011  0.5052872E+02  0.7816164E-02  0.1300439E+00
        -11   -1    0    0    0    0  0.00000000000E+00  0.00000000000E+00  0.45593999997E+02  0.45594000000E+02  0.51100000000E-03 0.  1.
         11   -1    0    0    0    0 -0.00000000000E+00 -0.00000000000E+00 -0.45593999997E+02  0.45594000000E+02  0.51100000000E-03 0. -1.
    9900012    2    1    2    0    0 -0.10214980638E+02 -0.11157376775E+02 -0.37740480851E+02  0.50528723312E+02  0.29999584975E+02 0.  0.
        -12    1    1    2    0    0  0.10214980638E+02  0.11157376775E+02  0.37740480851E+02  0.40659276688E+02  0.00000000000E+00 0.  1.
         11    1    3    3    0    0  0.12302289530E+01  0.58636270437E+01 -0.28104535540E+01  0.66177212713E+01  0.51100000000E-03 0.  1.
        -11    1    3    3    0    0 -0.97144809424E+01 -0.17027599014E+02 -0.36591385954E+02  0.41511923522E+02  0.51100000000E-03 0. -1.
         12    1    3    3    0    0 -0.17307286488E+01  0.65951953513E-02  0.16613586567E+01  0.23990785187E+01  0.00000000000E+00 0. -1.
</event>
<event>
 7    1  0.5155466E-011  0.5052883E+02  0.7816164E-02  0.1300439E+00
        -11   -1    0    0    0    0  0.00000000000E+00  0.00000000000E+00  0.45593999997E+02  0.45594000000E+02  0.51100000000E-03 0. -1.
         11   -1    0    0    0    0 -0.00000000000E+00 -0.00000000000E+00 -0.45593999997E+02  0.45594000000E+02  0.51100000000E-03 0.  1.
    9900012    2    1    2    0    0 -0.33225720946E+02 -0.16656000034E+02  0.16486278192E+02  0.50528828364E+02  0.29999904294E+02 0.  0.
        -12    1    1    2    0    0  0.33225720946E+02  0.16656000034E+02 -0.16486278192E+02  0.40659171636E+02  0.00000000000E+00 0.  1.
         11    1    3    3    0    0 -0.34778716796E+02 -0.11882078361E+02  0.13242936419E+02  0.39065564035E+02  0.51100000000E-03 0. -1.
        -11    1    3    3    0    0  0.63253155276E+00 -0.57738428666E+01 -0.19251160493E+01  0.61191036662E+01  0.51100000000E-03 0.  1.
         12    1    3    3    0    0  0.92046429694E+00  0.99992119319E+00  0.51684578231E+01  0.53441606622E+01  0.00000000000E+00 0. -1.
</event>
<event>
 7    1  0.5155466E-011  0.5052887E+02  0.7816164E-02  0.1300439E+00
        -11   -1    0    0    0    0  0.00000000000E+00  0.00000000000E+00  0.45593999997E+02  0.45594000000E+02  0.51100000000E-03 0. -1.
         11   -1    0    0    0    0 -0.00000000000E+00 -0.00000000000E+00 -0.45593999997E+02  0.45594000000E+02  0.51100000000E-03 0.  1.
    9900012    2    1    2    0    0  0.14891787397E+02  0.17744404851E+02  0.33414607124E+02  0.50528865668E+02  0.30000017684E+02 0.  0.
        -12    1    1    2    0    0 -0.14891787397E+02 -0.17744404851E+02 -0.33414607124E+02  0.40659134332E+02  0.00000000000E+00 0.  1.
         11    1    3    3    0    0 -0.34654200950E+01  0.99808385176E+01  0.22219381813E+01  0.10796447726E+02  0.51100000000E-03 0. -1.
        -11    1    3    3    0    0  0.14677510471E+02 -0.11880039317E+01  0.21282947905E+02  0.25880582273E+02  0.51100000000E-03 0.  1.
        -12    1    3    3    0    0  0.36796970213E+01  0.89515702654E+01  0.99097210370E+01  0.13851835670E+02  0.00000000000E+00 0.  1.
</event>
<event>
 7    1  0.5155466E-011  0.5052886E+02  0.7816164E-02  0.1300439E+00
        -11   -1    0    0    0    0  0.00000000000E+00  0.00000000000E+00  0.45593999997E+02  0.45594000000E+02  0.51100000000E-03 0. -1.
         11   -1    0    0    0    0 -0.00000000000E+00 -0.00000000000E+00 -0.45593999997E+02  0.45594000000E+02  0.51100000000E-03 0.  1.
    9900012    2    1    2    0    0  0.12898351300E+02 -0.35823614101E+02  0.14264185456E+02  0.50528858589E+02  0.29999996167E+02 0.  0.
        -12    1    1    2    0    0 -0.12898351300E+02  0.35823614101E+02 -0.14264185456E+02  0.40659141411E+02  0.00000000000E+00 0.  1.
         11    1    3    3    0    0  0.79451460621E+01 -0.24098988978E+02  0.18506225812E+02  0.31406480378E+02  0.51100000000E-03 0. -1.
        -11    1    3    3    0    0  0.46257269888E+01 -0.20967074831E+01 -0.74082088139E+01  0.89819313366E+01  0.51100000000E-03 0.  1.
        -12    1    3    3    0    0  0.32747824911E+00 -0.96279176406E+01  0.31661684587E+01  0.10140446874E+02  0.00000000000E+00 0.  1.
</event>
<event>
 7    1  0.5155466E-011  0.5052886E+02  0.7816164E-02  0.1300439E+00
        -11   -1    0    0    0    0  0.00000000000E+00  0.00000000000E+00  0.45593999997E+02  0.45594000000E+02  0.51100000000E-03 0.  1.
         11   -1    0    0    0    0 -0.00000000000E+00 -0.00000000000E+00 -0.45593999997E+02  0.45594000000E+02  0.51100000000E-03 0. -1.
    9900012    2    1    2    0    0  0.20660837425E+02  0.29053120599E+02 -0.19550241340E+02  0.50528856427E+02  0.29999989595E+02 0.  0.
        -12    1    1    2    0    0 -0.20660837425E+02 -0.29053120599E+02  0.19550241340E+02  0.40659143573E+02  0.00000000000E+00 0.  1.
         11    1    3    3    0    0  0.12200735391E+02  0.24559939733E+02 -0.20574409968E+02  0.34283449791E+02  0.51100000000E-03 0. -1.
        -11    1    3    3    0    0  0.16824771199E-01 -0.34694512932E+01  0.28588237715E+01  0.44955810488E+01  0.51100000000E-03 0.  1.
         12    1    3    3    0    0  0.84432772624E+01  0.79626321599E+01 -0.18346551434E+01  0.11749825588E+02  0.00000000000E+00 0. -1.
</event>
<event>
 7    1  0.5155466E-011  0.5052889E+02  0.7816164E-02  0.1300439E+00
        -11   -1    0    0    0    0  0.00000000000E+00  0.00000000000E+00  0.45593999997E+02  0.45594000000E+02  0.51100000000E-03 0.  1.
         11   -1    0    0    0    0 -0.00000000000E+00 -0.00000000000E+00 -0.45593999997E+02  0.45594000000E+02  0.51100000000E-03 0. -1.
    9900012    2    1    2    0    0 -0.35512683400E+02 -0.10766273854E+02 -0.16616252915E+02  0.50528890370E+02  0.30000092767E+02 0.  0.
        -12    1    1    2    0    0  0.35512683400E+02  0.10766273854E+02  0.16616252915E+02  0.40659109630E+02  0.00000000000E+00 0.  1.
         11    1    3    3    0    0 -0.16364676231E+02  0.29399253764E+01 -0.13358540248E+02  0.21328300148E+02  0.51100000000E-03 0. -1.
        -11    1    3    3    0    0 -0.46866095853E+01 -0.11644244884E+02 -0.66492119974E+01  0.14204392587E+02  0.51100000000E-03 0.  1.
        -12    1    3    3    0    0 -0.14461397584E+02 -0.20619543466E+01  0.33914993299E+01  0.14996197635E+02  0.00000000000E+00 0.  1.
</event>
<event>
 7    1  0.5155466E-011  0.5052887E+02  0.7816164E-02  0.1300439E+00
        -11   -1    0    0    0    0  0.00000000000E+00  0.00000000000E+00  0.45593999997E+02  0.45594000000E+02  0.51100000000E-03 0.  1.
         11   -1    0    0    0    0 -0.00000000000E+00 -0.00000000000E+00 -0.45593999997E+02  0.45594000000E+02  0.51100000000E-03 0. -1.
    9900012    2    1    2    0    0  0.35054321904E+02 -0.18371674690E+01 -0.20517908941E+02  0.50528865039E+02  0.30000015773E+02 0.  0.
        -12    1    1    2    0    0 -0.35054321904E+02  0.18371674690E+01  0.20517908941E+02  0.40659134961E+02  0.00000000000E+00 0.  1.
         11    1    3    3    0    0  0.21180979730E+02  0.10012813071E+02 -0.32357141548E+01  0.23650796483E+02  0.51100000000E-03 0. -1.
        -11    1    3    3    0    0  0.58584314290E+01 -0.63004511577E+01 -0.14291057945E+02  0.16680864517E+02  0.51100000000E-03 0.  1.
         12    1    3    3    0    0  0.80149107450E+01 -0.55495293823E+01 -0.29911368413E+01  0.10197204039E+02  0.00000000000E+00 0. -1.
</event>
<event>
 7    1  0.5155466E-011  0.5052880E+02  0.7816164E-02  0.1300439E+00
        -11   -1    0    0    0    0  0.00000000000E+00  0.00000000000E+00  0.45593999997E+02  0.45594000000E+02  0.51100000000E-03 0. -1.
         11   -1    0    0    0    0 -0.00000000000E+00 -0.00000000000E+00 -0.45593999997E+02  0.45594000000E+02  0.51100000000E-03 0.  1.
    9900012    2    1    2    0    0  0.23017385431E+02  0.93457417038E+00  0.33503686885E+02  0.50528800600E+02  0.29999819904E+02 0.  0.
        -12    1    1    2    0    0 -0.23017385431E+02 -0.93457417038E+00 -0.33503686885E+02  0.40659199400E+02  0.00000000000E+00 0.  1.
         11    1    3    3    0    0  0.64533671832E+01  0.61397018982E+01  0.29178975299E+02  0.30508269160E+02  0.51100000000E-03 0. -1.
        -11    1    3    3    0    0  0.12238680623E+02 -0.71731033969E+01  0.53464679457E+01  0.15159928611E+02  0.51100000000E-03 0.  1.
         12    1    3    3    0    0  0.43253376247E+01  0.19679756690E+01 -0.10217563598E+01  0.48606028289E+01  0.00000000000E+00 0. -1.
</event>
<event>
 7    1  0.5155466E-011  0.5052886E+02  0.7816164E-02  0.1300439E+00
        -11   -1    0    0    0    0  0.00000000000E+00  0.00000000000E+00  0.45593999997E+02  0.45594000000E+02  0.51100000000E-03 0.  1.
         11   -1    0    0    0    0 -0.00000000000E+00 -0.00000000000E+00 -0.45593999997E+02  0.45594000000E+02  0.51100000000E-03 0. -1.
    9900012    2    1    2    0    0 -0.96371664965E+00 -0.71854122445E+01 -0.40007583681E+02  0.50528860180E+02  0.30000001003E+02 0.  0.
        -12    1    1    2    0    0  0.96371664965E+00  0.71854122445E+01  0.40007583681E+02  0.40659139820E+02  0.00000000000E+00 0.  1.
         11    1    3    3    0    0  0.95589166862E+01 -0.73039111979E+01 -0.23404469116E+02  0.26315189186E+02  0.51100000000E-03 0. -1.
        -11    1    3    3    0    0 -0.84881694017E+01 -0.64220691224E+01 -0.86343966820E+01  0.13705648395E+02  0.51100000000E-03 0.  1.
         12    1    3    3    0    0 -0.20344639342E+01  0.65405680758E+01 -0.79687178829E+01  0.10508022599E+02  0.00000000000E+00 0. -1.
</event>
<event>
 7    1  0.5155466E-011  0.5052887E+02  0.7816164E-02  0.1300439E+00
        -11   -1    0    0    0    0  0.00000000000E+00  0.00000000000E+00  0.45593999997E+02  0.45594000000E+02  0.51100000000E-03 0.  1.
         11   -1    0    0    0    0 -0.00000000000E+00 -0.00000000000E+00 -0.45593999997E+02  0.45594000000E+02  0.51100000000E-03 0. -1.
    9900012    2    1    2    0    0  0.18097158220E+02 -0.30248030519E+01 -0.36283722905E+02  0.50528866746E+02  0.30000020960E+02 0.  0.
        -12    1    1    2    0    0 -0.18097158220E+02  0.30248030519E+01  0.36283722905E+02  0.40659133254E+02  0.00000000000E+00 0.  1.
         11    1    3    3    0    0  0.22071677867E+02  0.54743554647E-01 -0.27171865521E+02  0.35006745591E+02  0.51100000000E-03 0. -1.
        -11    1    3    3    0    0 -0.19160509038E+01 -0.17423030143E+01  0.25322806062E+01  0.36220596612E+01  0.51100000000E-03 0.  1.
         12    1    3    3    0    0 -0.20584687438E+01 -0.13372435923E+01 -0.11644137991E+02  0.11900061493E+02  0.00000000000E+00 0. -1.
</event>
<event>
 7    1  0.5155466E-011  0.5052888E+02  0.7816164E-02  0.1300439E+00
        -11   -1    0    0    0    0  0.00000000000E+00  0.00000000000E+00  0.45593999997E+02  0.45594000000E+02  0.51100000000E-03 0.  1.
         11   -1    0    0    0    0 -0.00000000000E+00 -0.00000000000E+00 -0.45593999997E+02  0.45594000000E+02  0.51100000000E-03 0. -1.
    9900012    2    1    2    0    0 -0.28107051385E+02  0.28854209780E+02 -0.55310316220E+01  0.50528879616E+02  0.30000060081E+02 0.  0.
        -12    1    1    2    0    0  0.28107051385E+02 -0.28854209780E+02  0.55310316220E+01  0.40659120384E+02  0.00000000000E+00 0.  1.
         11    1    3    3    0    0 -0.13148299764E+02  0.36830163344E+01  0.59670746974E+01  0.14901287754E+02  0.51100000000E-03 0. -1.
        -11    1    3    3    0    0 -0.12172160857E+02  0.26183255672E+02 -0.61638901581E+01  0.29524869512E+02  0.51100000000E-03 0.  1.
        -12    1    3    3    0    0 -0.27865907635E+01 -0.10120622265E+01 -0.53342161613E+01  0.61027223506E+01  0.00000000000E+00 0.  1.
</event>
<event>
 7    1  0.5155466E-011  0.5052874E+02  0.7816164E-02  0.1300439E+00
        -11   -1    0    0    0    0  0.00000000000E+00  0.00000000000E+00  0.45593999997E+02  0.45594000000E+02  0.51100000000E-03 0. -1.
         11   -1    0    0    0    0 -0.00000000000E+00 -0.00000000000E+00 -0.45593999997E+02  0.45594000000E+02  0.51100000000E-03 0.  1.
    9900012    2    1    2    0    0  0.84172560294E+01 -0.34193520229E+02  0.20325555672E+02  0.50528742283E+02  0.29999642642E+02 0.  0.
        -12    1    1    2    0    0 -0.84172560294E+01  0.34193520229E+02 -0.20325555672E+02  0.40659257717E+02  0.00000000000E+00 0.  1.
         11    1    3    3    0    0  0.13226286682E+02 -0.11110369300E+02  0.10786165648E+02  0.20364585314E+02  0.51100000000E-03 0.  1.
        -11    1    3    3    0    0 -0.77714658343E+01 -0.13307799324E+02  0.12146628585E+02  0.19622277908E+02  0.51100000000E-03 0. -1.
        -12    1    3    3    0    0  0.29624351812E+01 -0.97753516054E+01 -0.26072385615E+01  0.10541879061E+02  0.00000000000E+00 0.  1.
</event>
<event>
 7    1  0.5155466E-011  0.5052883E+02  0.7816164E-02  0.1300439E+00
        -11   -1    0    0    0    0  0.00000000000E+00  0.00000000000E+00  0.45593999997E+02  0.45594000000E+02  0.51100000000E-03 0.  1.
         11   -1    0    0    0    0 -0.00000000000E+00 -0.00000000000E+00 -0.45593999997E+02  0.45594000000E+02  0.51100000000E-03 0. -1.
    9900012    2    1    2    0    0 -0.19151085744E+02  0.16108035362E+02 -0.32045823839E+02  0.50528834811E+02  0.29999923891E+02 0.  0.
        -12    1    1    2    0    0  0.19151085744E+02 -0.16108035362E+02  0.32045823839E+02  0.40659165189E+02  0.00000000000E+00 0.  1.
         11    1    3    3    0    0 -0.67393031886E+00  0.29510883902E+01 -0.21867229269E+02  0.22075751876E+02  0.51100000000E-03 0. -1.
        -11    1    3    3    0    0 -0.11851749415E+02  0.28774284788E+01 -0.10682658539E+02  0.16213042668E+02  0.51100000000E-03 0.  1.
         12    1    3    3    0    0 -0.66254060102E+01  0.10279518493E+02  0.50406396875E+00  0.12240040267E+02  0.00000000000E+00 0. -1.
</event>
<event>
 7    1  0.5155466E-011  0.5052887E+02  0.7816164E-02  0.1300439E+00
        -11   -1    0    0    0    0  0.00000000000E+00  0.00000000000E+00  0.45593999997E+02  0.45594000000E+02  0.51100000000E-03 0. -1.
         11   -1    0    0    0    0 -0.00000000000E+00 -0.00000000000E+00 -0.45593999997E+02  0.45594000000E+02  0.51100000000E-03 0.  1.
    9900012    2    1    2    0    0 -0.16373646461E+02  0.71470921514E+01  0.36523799673E+02  0.50528866129E+02  0.30000019085E+02 0.  0.
        -12    1    1    2    0    0  0.16373646461E+02 -0.71470921514E+01 -0.36523799673E+02  0.40659133871E+02  0.00000000000E+00 0.  1.
         11    1    3    3    0    0 -0.20941381813E-01 -0.78425887015E+01  0.26922636171E+01  0.82918586413E+01  0.51100000000E-03 0. -1.
        -11    1    3    3    0    0 -0.12495176334E+02  0.13740836086E+02  0.17888286265E+02  0.25786252029E+02  0.51100000000E-03 0.  1.
         12    1    3    3    0    0 -0.38575287451E+01  0.12488447668E+01  0.15943249790E+02  0.16450755458E+02  0.00000000000E+00 0. -1.
</event>
<event>
 7    1  0.5155466E-011  0.5052886E+02  0.7816164E-02  0.1300439E+00
        -11   -1    0    0    0    0  0.00000000000E+00  0.00000000000E+00  0.45593999997E+02  0.45594000000E+02  0.51100000000E-03 0.  1.
         11   -1    0    0    0    0 -0.00000000000E+00 -0.00000000000E+00 -0.45593999997E+02  0.45594000000E+02  0.51100000000E-03 0. -1.
    9900012    2    1    2    0    0 -0.40238158513E+02 -0.29547841599E+01 -0.50324162285E+01  0.50528863720E+02  0.30000011763E+02 0.  0.
        -12    1    1    2    0    0  0.40238158513E+02  0.29547841599E+01  0.50324162285E+01  0.40659136280E+02  0.00000000000E+00 0.  1.
         11    1    3    3    0    0 -0.68654540958E+01  0.85734205691E+01 -0.82765850480E+01  0.13752812822E+02  0.51100000000E-03 0. -1.
        -11    1    3    3    0    0 -0.21288581425E+01 -0.38490375061E+01  0.10826305432E+01  0.45298141097E+01  0.51100000000E-03 0.  1.
         12    1    3    3    0    0 -0.31243846275E+02 -0.76791672229E+01  0.21615382762E+01  0.32246236788E+02  0.00000000000E+00 0. -1.
</event>
<event>
 7    1  0.5155466E-011  0.5052887E+02  0.7816164E-02  0.1300439E+00
        -11   -1    0    0    0    0  0.00000000000E+00  0.00000000000E+00  0.45593999997E+02  0.45594000000E+02  0.51100000000E-03 0.  1.
         11   -1    0    0    0    0 -0.00000000000E+00 -0.00000000000E+00 -0.45593999997E+02  0.45594000000E+02  0.51100000000E-03 0. -1.
    9900012    2    1    2    0    0  0.11279988407E+02 -0.22574112506E+02 -0.31880033499E+02  0.50528865359E+02  0.30000016746E+02 0.  0.
        -12    1    1    2    0    0 -0.11279988407E+02  0.22574112506E+02  0.31880033499E+02  0.40659134641E+02  0.00000000000E+00 0.  1.
         11    1    3    3    0    0  0.11373194859E+02  0.72055041240E+00 -0.94834025170E+01  0.14825777475E+02  0.51100000000E-03 0. -1.
        -11    1    3    3    0    0 -0.69215793440E+01 -0.14908801608E+02 -0.16887953148E+02  0.23566577770E+02  0.51100000000E-03 0.  1.
        -12    1    3    3    0    0  0.68283728919E+01 -0.83858613098E+01 -0.55086778336E+01  0.12136510113E+02  0.00000000000E+00 0.  1.
</event>
<event>
 7    1  0.5155466E-011  0.5052899E+02  0.7816164E-02  0.1300438E+00
        -11   -1    0    0    0    0  0.00000000000E+00  0.00000000000E+00  0.45593999997E+02  0.45594000000E+02  0.51100000000E-03 0.  1.
         11   -1    0    0    0    0 -0.00000000000E+00 -0.00000000000E+00 -0.45593999997E+02  0.45594000000E+02  0.51100000000E-03 0. -1.
    9900012    2    1    2    0    0 -0.38207021302E+02  0.56925013472E+01 -0.12687558119E+02  0.50528988952E+02  0.30000392416E+02 0.  0.
        -12    1    1    2    0    0  0.38207021302E+02 -0.56925013472E+01  0.12687558119E+02  0.40659011048E+02  0.00000000000E+00 0.  1.
         11    1    3    3    0    0 -0.20040254188E+02  0.10325173702E+02 -0.12606875004E+02  0.25829330179E+02  0.51100000000E-03 0. -1.
        -11    1    3    3    0    0 -0.39987129448E+01 -0.82703831439E+01 -0.32285690032E+01  0.97371762144E+01  0.51100000000E-03 0.  1.
         12    1    3    3    0    0 -0.14168054170E+02  0.36377107892E+01  0.31478858886E+01  0.14962482558E+02  0.00000000000E+00 0. -1.
</event>
<event>
 7    1  0.5155466E-011  0.5052879E+02  0.7816164E-02  0.1300439E+00
        -11   -1    0    0    0    0  0.00000000000E+00  0.00000000000E+00  0.45593999997E+02  0.45594000000E+02  0.51100000000E-03 0. -1.
         11   -1    0    0    0    0 -0.00000000000E+00 -0.00000000000E+00 -0.45593999997E+02  0.45594000000E+02  0.51100000000E-03 0.  1.
    9900012    2    1    2    0    0  0.86069901610E+01  0.32394433053E+02  0.23015035598E+02  0.50528789038E+02  0.29999784759E+02 0.  0.
        -12    1    1    2    0    0 -0.86069901610E+01 -0.32394433053E+02 -0.23015035598E+02  0.40659210962E+02  0.00000000000E+00 0.  1.
         11    1    3    3    0    0  0.12480008931E+02  0.19048797884E+02  0.16765231015E+01  0.22834580217E+02  0.51100000000E-03 0. -1.
        -11    1    3    3    0    0 -0.73213219655E+01  0.11746489047E+02  0.16333849993E+02  0.21409727137E+02  0.51100000000E-03 0.  1.
         12    1    3    3    0    0  0.34483031960E+01  0.15991461224E+01  0.50046625038E+01  0.62844816834E+01  0.00000000000E+00 0. -1.
</event>
<event>
 7    1  0.5155466E-011  0.5052886E+02  0.7816164E-02  0.1300439E+00
        -11   -1    0    0    0    0  0.00000000000E+00  0.00000000000E+00  0.45593999997E+02  0.45594000000E+02  0.51100000000E-03 0.  1.
         11   -1    0    0    0    0 -0.00000000000E+00 -0.00000000000E+00 -0.45593999997E+02  0.45594000000E+02  0.51100000000E-03 0. -1.
    9900012    2    1    2    0    0 -0.10040742002E+02 -0.27555192432E+01 -0.39303382771E+02  0.50528864699E+02  0.30000014738E+02 0.  0.
        -12    1    1    2    0    0  0.10040742002E+02  0.27555192432E+01  0.39303382771E+02  0.40659135301E+02  0.00000000000E+00 0.  1.
         11    1    3    3    0    0 -0.14499212080E+01 -0.10066922173E+02 -0.14143284026E+02  0.17420610691E+02  0.51100000000E-03 0.  1.
        -11    1    3    3    0    0  0.50922532728E+00  0.60291367028E+01  0.28210563681E+00  0.60571762122E+01  0.51100000000E-03 0. -1.
         12    1    3    3    0    0 -0.91000461210E+01  0.12822662274E+01 -0.25442204382E+02  0.27051077795E+02  0.00000000000E+00 0. -1.
</event>
<event>
 7    1  0.5155466E-011  0.5052885E+02  0.7816164E-02  0.1300439E+00
        -11   -1    0    0    0    0  0.00000000000E+00  0.00000000000E+00  0.45593999997E+02  0.45594000000E+02  0.51100000000E-03 0. -1.
         11   -1    0    0    0    0 -0.00000000000E+00 -0.00000000000E+00 -0.45593999997E+02  0.45594000000E+02  0.51100000000E-03 0.  1.
    9900012    2    1    2    0    0  0.97446308265E+00  0.32870465444E+02  0.23911273406E+02  0.50528854993E+02  0.29999985236E+02 0.  0.
        -12    1    1    2    0    0 -0.97446308265E+00 -0.32870465444E+02 -0.23911273406E+02  0.40659145007E+02  0.00000000000E+00 0.  1.
         11    1    3    3    0    0  0.97056092028E+01  0.78362529363E+01  0.22320304924E+01  0.12672319064E+02  0.51100000000E-03 0. -1.
        -11    1    3    3    0    0 -0.92869260382E+01  0.48062533066E+01  0.48029836296E+01  0.11507202879E+02  0.51100000000E-03 0.  1.
         12    1    3    3    0    0  0.55577991801E+00  0.20227959202E+02  0.16876259284E+02  0.26349333050E+02  0.00000000000E+00 0. -1.
</event>
<event>
 7    1  0.5155466E-011  0.5052886E+02  0.7816164E-02  0.1300439E+00
        -11   -1    0    0    0    0  0.00000000000E+00  0.00000000000E+00  0.45593999997E+02  0.45594000000E+02  0.51100000000E-03 0.  1.
         11   -1    0    0    0    0 -0.00000000000E+00 -0.00000000000E+00 -0.45593999997E+02  0.45594000000E+02  0.51100000000E-03 0. -1.
    9900012    2    1    2    0    0 -0.14876195890E+02 -0.37804544173E+02  0.16372399287E+01  0.50528864263E+02  0.30000013413E+02 0.  0.
        -12    1    1    2    0    0  0.14876195890E+02  0.37804544173E+02 -0.16372399287E+01  0.40659135737E+02  0.00000000000E+00 0.  1.
         11    1    3    3    0    0 -0.37945217305E+01 -0.26067749589E+02  0.84953029536E+01  0.27678441725E+02  0.51100000000E-03 0. -1.
        -11    1    3    3    0    0 -0.63888584518E+01  0.65863215367E+00  0.22087490217E+01  0.67918981980E+01  0.51100000000E-03 0.  1.
         12    1    3    3    0    0 -0.46928157082E+01 -0.12395426738E+02 -0.90668120466E+01  0.16058524340E+02  0.00000000000E+00 0. -1.
</event>
<event>
 7    1  0.5355132E-011  0.5052885E+02  0.7816164E-02  0.1300439E+00
        -11   -1    0    0    0    0  0.00000000000E+00  0.00000000000E+00  0.45593999997E+02  0.45594000000E+02  0.51100000000E-03 0. -1.
         11   -1    0    0    0    0 -0.00000000000E+00 -0.00000000000E+00 -0.45593999997E+02  0.45594000000E+02  0.51100000000E-03 0.  1.
    9900012    2    1    2    0    0  0.92839494355E+01 -0.34880943329E+02  0.18716158095E+02  0.50528849757E+02  0.29999969322E+02 0.  0.
        -12    1    1    2    0    0 -0.92839494355E+01  0.34880943329E+02 -0.18716158095E+02  0.40659150243E+02  0.00000000000E+00 0.  1.
         11    1    3    3    0    0 -0.77935778334E+01 -0.18840600023E+02  0.14379446469E+02  0.24949479868E+02  0.51100000000E-03 0. -1.
        -11    1    3    3    0    0  0.88161228712E+01 -0.37535089235E+01 -0.14338745984E+01  0.96885937237E+01  0.51100000000E-03 0.  1.
        -12    1    3    3    0    0  0.82614043978E+01 -0.12286834382E+02  0.57705862239E+01  0.15890776165E+02  0.00000000000E+00 0.  1.
</event>
<event>
 7    1  0.5155466E-011  0.5052886E+02  0.7816164E-02  0.1300439E+00
        -11   -1    0    0    0    0  0.00000000000E+00  0.00000000000E+00  0.45593999997E+02  0.45594000000E+02  0.51100000000E-03 0.  1.
         11   -1    0    0    0    0 -0.00000000000E+00 -0.00000000000E+00 -0.45593999997E+02  0.45594000000E+02  0.51100000000E-03 0. -1.
    9900012    2    1    2    0    0  0.11076593283E+02  0.30336665260E+02 -0.24701446859E+02  0.50528860133E+02  0.30000000859E+02 0.  0.
        -12    1    1    2    0    0 -0.11076593283E+02 -0.30336665260E+02  0.24701446859E+02  0.40659139867E+02  0.00000000000E+00 0.  1.
         11    1    3    3    0    0  0.11791770083E+02  0.11368738707E+02 -0.15822997968E+02  0.22774137227E+02  0.51100000000E-03 0. -1.
        -11    1    3    3    0    0 -0.93586582358E+01  0.94948671582E+01 -0.30907065929E+01  0.13685373719E+02  0.51100000000E-03 0.  1.
        -12    1    3    3    0    0  0.86434814359E+01  0.94730593944E+01 -0.57877422974E+01  0.14069349186E+02  0.00000000000E+00 0.  1.
</event>
<event>
 7    1  0.5175949E-011  0.5052886E+02  0.7816164E-02  0.1300439E+00
        -11   -1    0    0    0    0  0.00000000000E+00  0.00000000000E+00  0.45593999997E+02  0.45594000000E+02  0.51100000000E-03 0. -1.
         11   -1    0    0    0    0 -0.00000000000E+00 -0.00000000000E+00 -0.45593999997E+02  0.45594000000E+02  0.51100000000E-03 0.  1.
    9900012    2    1    2    0    0  0.18329838978E+02 -0.35053873063E+02 -0.94025746940E+01  0.50528862963E+02  0.30000009463E+02 0.  0.
        -12    1    1    2    0    0 -0.18329838978E+02  0.35053873063E+02  0.94025746940E+01  0.40659137037E+02  0.00000000000E+00 0.  1.
         11    1    3    3    0    0  0.93079745375E+01 -0.11794744202E+02 -0.54710787988E-01  0.15025224601E+02  0.51100000000E-03 0. -1.
        -11    1    3    3    0    0  0.39619227380E+01 -0.21883093417E+02 -0.15732916140E+02  0.27241352019E+02  0.51100000000E-03 0.  1.
        -12    1    3    3    0    0  0.50599417029E+01 -0.13760354434E+01  0.63850522339E+01  0.82622863427E+01  0.00000000000E+00 0.  1.
</event>
<event>
 7    1  0.5155466E-011  0.5052886E+02  0.7816164E-02  0.1300439E+00
        -11   -1    0    0    0    0  0.00000000000E+00  0.00000000000E+00  0.45593999997E+02  0.45594000000E+02  0.51100000000E-03 0.  1.
         11   -1    0    0    0    0 -0.00000000000E+00 -0.00000000000E+00 -0.45593999997E+02  0.45594000000E+02  0.51100000000E-03 0. -1.
    9900012    2    1    2    0    0 -0.11146123768E+02  0.15491733921E+02 -0.35901752305E+02  0.50528859410E+02  0.29999998662E+02 0.  0.
        -12    1    1    2    0    0  0.11146123768E+02 -0.15491733921E+02  0.35901752305E+02  0.40659140590E+02  0.00000000000E+00 0.  1.
         11    1    3    3    0    0 -0.16500748517E+02  0.19780368098E+02 -0.32581110754E+02  0.41533919174E+02  0.51100000000E-03 0. -1.
        -11    1    3    3    0    0  0.22657681113E+01 -0.99107946924E+00  0.10701240836E+01  0.26946445896E+01  0.51100000000E-03 0.  1.
        -12    1    3    3    0    0  0.30888566376E+01 -0.32975547072E+01 -0.43907656350E+01  0.63002956467E+01  0.00000000000E+00 0.  1.
</event>
<event>
 7    1  0.5155466E-011  0.5052883E+02  0.7816164E-02  0.1300439E+00
        -11   -1    0    0    0    0  0.00000000000E+00  0.00000000000E+00  0.45593999997E+02  0.45594000000E+02  0.51100000000E-03 0.  1.
         11   -1    0    0    0    0 -0.00000000000E+00 -0.00000000000E+00 -0.45593999997E+02  0.45594000000E+02  0.51100000000E-03 0. -1.
    9900012    2    1    2    0    0 -0.26531896263E+02  0.27318507511E+02  0.14245193064E+02  0.50528832555E+02  0.29999917033E+02 0.  0.
        -12    1    1    2    0    0  0.26531896263E+02 -0.27318507511E+02 -0.14245193064E+02  0.40659167445E+02  0.00000000000E+00 0.  1.
         11    1    3    3    0    0 -0.53604910218E+01  0.12097319919E+00  0.40599266925E+01  0.67255113946E+01  0.51100000000E-03 0. -1.
        -11    1    3    3    0    0 -0.41881962982E+01  0.25147499548E+02  0.63206102038E+01  0.26265715969E+02  0.51100000000E-03 0.  1.
        -12    1    3    3    0    0 -0.16983208943E+02  0.20500347630E+01  0.38646561682E+01  0.17537605191E+02  0.00000000000E+00 0.  1.
</event>
<event>
 7    1  0.5155466E-011  0.5052887E+02  0.7816164E-02  0.1300439E+00
        -11   -1    0    0    0    0  0.00000000000E+00  0.00000000000E+00  0.45593999997E+02  0.45594000000E+02  0.51100000000E-03 0.  1.
         11   -1    0    0    0    0 -0.00000000000E+00 -0.00000000000E+00 -0.45593999997E+02  0.45594000000E+02  0.51100000000E-03 0. -1.
    9900012    2    1    2    0    0  0.32856468048E+01 -0.27290709971E+02 -0.29959753609E+02  0.50528866193E+02  0.30000019279E+02 0.  0.
        -12    1    1    2    0    0 -0.32856468048E+01  0.27290709971E+02  0.29959753609E+02  0.40659133807E+02  0.00000000000E+00 0.  1.
         11    1    3    3    0    0  0.58617659538E+01 -0.13742018321E+02 -0.83530636891E+01  0.17116572112E+02  0.51100000000E-03 0. -1.
        -11    1    3    3    0    0 -0.11104998765E+02 -0.12595913345E+02 -0.12788669415E+02  0.21107536479E+02  0.51100000000E-03 0.  1.
        -12    1    3    3    0    0  0.85288796156E+01 -0.95277830594E+00 -0.88180205046E+01  0.12304757601E+02  0.00000000000E+00 0.  1.
</event>
<event>
 7    1  0.5155466E-011  0.5052887E+02  0.7816164E-02  0.1300439E+00
        -11   -1    0    0    0    0  0.00000000000E+00  0.00000000000E+00  0.45593999997E+02  0.45594000000E+02  0.51100000000E-03 0. -1.
         11   -1    0    0    0    0 -0.00000000000E+00 -0.00000000000E+00 -0.45593999997E+02  0.45594000000E+02  0.51100000000E-03 0.  1.
    9900012    2    1    2    0    0  0.13851450731E+02  0.17146381649E+02  0.34165831822E+02  0.50528866277E+02  0.30000019535E+02 0.  0.
        -12    1    1    2    0    0 -0.13851450731E+02 -0.17146381649E+02 -0.34165831822E+02  0.40659133723E+02  0.00000000000E+00 0.  1.
         11    1    3    3    0    0 -0.35226273399E+01  0.13414068536E+02  0.45193179506E+01  0.14586650509E+02  0.51100000000E-03 0.  1.
        -11    1    3    3    0    0  0.13333659264E+02  0.70332929313E+01  0.22832431545E+02  0.27360073270E+02  0.51100000000E-03 0. -1.
         12    1    3    3    0    0  0.40404188071E+01 -0.33009798185E+01  0.68140823263E+01  0.85821424976E+01  0.00000000000E+00 0. -1.
</event>
<event>
 7    1  0.5155466E-011  0.5052886E+02  0.7816164E-02  0.1300439E+00
        -11   -1    0    0    0    0  0.00000000000E+00  0.00000000000E+00  0.45593999997E+02  0.45594000000E+02  0.51100000000E-03 0.  1.
         11   -1    0    0    0    0 -0.00000000000E+00 -0.00000000000E+00 -0.45593999997E+02  0.45594000000E+02  0.51100000000E-03 0. -1.
    9900012    2    1    2    0    0  0.18261952395E+02  0.12381072181E+02 -0.34152240616E+02  0.50528863355E+02  0.30000010654E+02 0.  0.
        -12    1    1    2    0    0 -0.18261952395E+02 -0.12381072181E+02  0.34152240616E+02  0.40659136645E+02  0.00000000000E+00 0.  1.
         11    1    3    3    0    0  0.38085335129E+01 -0.45748406051E+01 -0.15087228891E+02  0.16219080429E+02  0.51100000000E-03 0. -1.
        -11    1    3    3    0    0  0.69102286784E+01  0.28705331448E+01  0.21177638937E+01  0.77766409904E+01  0.51100000000E-03 0.  1.
        -12    1    3    3    0    0  0.75431902040E+01  0.14085379641E+02 -0.21182775618E+02  0.26533141936E+02  0.00000000000E+00 0.  1.
</event>
<event>
 7    1  0.5155466E-011  0.5052886E+02  0.7816164E-02  0.1300439E+00
        -11   -1    0    0    0    0  0.00000000000E+00  0.00000000000E+00  0.45593999997E+02  0.45594000000E+02  0.51100000000E-03 0.  1.
         11   -1    0    0    0    0 -0.00000000000E+00 -0.00000000000E+00 -0.45593999997E+02  0.45594000000E+02  0.51100000000E-03 0. -1.
    9900012    2    1    2    0    0 -0.21425948430E+02  0.32193384660E+02 -0.12557096580E+02  0.50528856422E+02  0.29999989581E+02 0.  0.
        -12    1    1    2    0    0  0.21425948430E+02 -0.32193384660E+02  0.12557096580E+02  0.40659143578E+02  0.00000000000E+00 0.  1.
         11    1    3    3    0    0 -0.16895453964E+02  0.23773562436E+02 -0.20352633070E+02  0.35564987118E+02  0.51100000000E-03 0. -1.
        -11    1    3    3    0    0 -0.53316053183E+01  0.13369452938E+01  0.22786365392E+01  0.59502624083E+01  0.51100000000E-03 0.  1.
         12    1    3    3    0    0  0.80111085279E+00  0.70828769303E+01  0.55168999511E+01  0.90136068962E+01  0.00000000000E+00 0. -1.
</event>
<event>
 7    1  0.5155466E-011  0.5052885E+02  0.7816164E-02  0.1300439E+00
        -11   -1    0    0    0    0  0.00000000000E+00  0.00000000000E+00  0.45593999997E+02  0.45594000000E+02  0.51100000000E-03 0. -1.
         11   -1    0    0    0    0 -0.00000000000E+00 -0.00000000000E+00 -0.45593999997E+02  0.45594000000E+02  0.51100000000E-03 0.  1.
    9900012    2    1    2    0    0  0.17356803605E+01  0.35015971094E+01  0.40470884603E+02  0.50528852577E+02  0.29999977892E+02 0.  0.
        -12    1    1    2    0    0 -0.17356803605E+01 -0.35015971094E+01 -0.40470884603E+02  0.40659147423E+02  0.00000000000E+00 0.  1.
         11    1    3    3    0    0  0.96118850559E+01  0.56748743852E+01  0.29748770374E+02  0.31773918119E+02  0.51100000000E-03 0. -1.
        -11    1    3    3    0    0 -0.48031646355E+01 -0.24608543067E+01 -0.19301554513E+01  0.57316397969E+01  0.51100000000E-03 0.  1.
        -12    1    3    3    0    0 -0.30730400598E+01  0.28757703090E+00  0.12652269681E+02  0.13023294661E+02  0.00000000000E+00 0.  1.
</event>
<event>
 7    1  0.5155466E-011  0.5052887E+02  0.7816164E-02  0.1300439E+00
        -11   -1    0    0    0    0  0.00000000000E+00  0.00000000000E+00  0.45593999997E+02  0.45594000000E+02  0.51100000000E-03 0.  1.
         11   -1    0    0    0    0 -0.00000000000E+00 -0.00000000000E+00 -0.45593999997E+02  0.45594000000E+02  0.51100000000E-03 0. -1.
    9900012    2    1    2    0    0 -0.29188320341E+02  0.26494518215E+02  0.99622988164E+01  0.50528868953E+02  0.30000027670E+02 0.  0.
        -12    1    1    2    0    0  0.29188320341E+02 -0.26494518215E+02 -0.99622988164E+01  0.40659131047E+02  0.00000000000E+00 0.  1.
         11    1    3    3    0    0 -0.15540226353E+02  0.17058168877E+01 -0.67590074784E+01  0.17032105821E+02  0.51100000000E-03 0. -1.
        -11    1    3    3    0    0 -0.12627417126E+02  0.18897309995E+02  0.15150261057E+02  0.27314655383E+02  0.51100000000E-03 0.  1.
         12    1    3    3    0    0 -0.10206768623E+01  0.58913913321E+01  0.15710452383E+01  0.61821077494E+01  0.00000000000E+00 0. -1.
</event>
<event>
 7    1  0.5155466E-011  0.5052887E+02  0.7816164E-02  0.1300439E+00
        -11   -1    0    0    0    0  0.00000000000E+00  0.00000000000E+00  0.45593999997E+02  0.45594000000E+02  0.51100000000E-03 0.  1.
         11   -1    0    0    0    0 -0.00000000000E+00 -0.00000000000E+00 -0.45593999997E+02  0.45594000000E+02  0.51100000000E-03 0. -1.
    9900012    2    1    2    0    0  0.92802137500E+01 -0.29462925563E+02 -0.26438206090E+02  0.50528867062E+02  0.30000021923E+02 0.  0.
        -12    1    1    2    0    0 -0.92802137500E+01  0.29462925563E+02  0.26438206090E+02  0.40659132938E+02  0.00000000000E+00 0.  1.
         11    1    3    3    0    0  0.32510809126E+01 -0.29662270870E+02 -0.15761228926E+02  0.33746646912E+02  0.51100000000E-03 0. -1.
        -11    1    3    3    0    0  0.12067432638E+01  0.72146207389E+00  0.24294840270E+01  0.28069787543E+01  0.51100000000E-03 0.  1.
         12    1    3    3    0    0  0.48223895736E+01 -0.52211676632E+00 -0.13106461191E+02  0.13975241396E+02  0.00000000000E+00 0. -1.
</event>
<event>
 7    1  0.5155466E-011  0.5052886E+02  0.7816164E-02  0.1300439E+00
        -11   -1    0    0    0    0  0.00000000000E+00  0.00000000000E+00  0.45593999997E+02  0.45594000000E+02  0.51100000000E-03 0.  1.
         11   -1    0    0    0    0 -0.00000000000E+00 -0.00000000000E+00 -0.45593999997E+02  0.45594000000E+02  0.51100000000E-03 0. -1.
    9900012    2    1    2    0    0  0.16955917041E+02  0.25310622971E+02 -0.26926468387E+02  0.50528862556E+02  0.30000008225E+02 0.  0.
        -12    1    1    2    0    0 -0.16955917041E+02 -0.25310622971E+02  0.26926468387E+02  0.40659137444E+02  0.00000000000E+00 0.  1.
         11    1    3    3    0    0  0.57042475693E+01  0.13658616258E+02  0.30513448635E+01  0.15113138130E+02  0.51100000000E-03 0.  1.
        -11    1    3    3    0    0  0.21854054356E-01  0.38423297466E+01 -0.21381449112E+01  0.43972308790E+01  0.51100000000E-03 0. -1.
         12    1    3    3    0    0  0.11229815418E+02  0.78096769665E+01 -0.27839668340E+02  0.31018493546E+02  0.00000000000E+00 0. -1.
</event>
<event>
 7    1  0.5155466E-011  0.5052886E+02  0.7816164E-02  0.1300439E+00
        -11   -1    0    0    0    0  0.00000000000E+00  0.00000000000E+00  0.45593999997E+02  0.45594000000E+02  0.51100000000E-03 0.  1.
         11   -1    0    0    0    0 -0.00000000000E+00 -0.00000000000E+00 -0.45593999997E+02  0.45594000000E+02  0.51100000000E-03 0. -1.
    9900012    2    1    2    0    0 -0.29206905826E+01 -0.22648716031E+02 -0.33640316520E+02  0.50528859983E+02  0.30000000405E+02 0.  0.
        -12    1    1    2    0    0  0.29206905826E+01  0.22648716031E+02  0.33640316520E+02  0.40659140017E+02  0.00000000000E+00 0.  1.
         11    1    3    3    0    0  0.37921164743E+01 -0.10084616787E+02 -0.33742635427E+02  0.35420969622E+02  0.51100000000E-03 0. -1.
        -11    1    3    3    0    0 -0.36628122105E+01 -0.21840277734E+01 -0.35552130869E+00  0.42793184348E+01  0.51100000000E-03 0.  1.
         12    1    3    3    0    0 -0.30499948464E+01 -0.10380071471E+02  0.45784021630E+00  0.10828571927E+02  0.00000000000E+00 0. -1.
</event>
<event>
 7    1  0.5155466E-011  0.5052886E+02  0.7816164E-02  0.1300439E+00
        -11   -1    0    0    0    0  0.00000000000E+00  0.00000000000E+00  0.45593999997E+02  0.45594000000E+02  0.51100000000E-03 0. -1.
         11   -1    0    0    0    0 -0.00000000000E+00 -0.00000000000E+00 -0.45593999997E+02  0.45594000000E+02  0.51100000000E-03 0.  1.
    9900012    2    1    2    0    0 -0.62429805805E+01  0.64050713160E+01  0.39663152672E+02  0.50528862958E+02  0.30000009447E+02 0.  0.
        -12    1    1    2    0    0  0.62429805805E+01 -0.64050713160E+01 -0.39663152672E+02  0.40659137042E+02  0.00000000000E+00 0.  1.
         11    1    3    3    0    0 -0.30596407238E+01  0.10232642822E+02  0.10312206841E+02  0.14846211323E+02  0.51100000000E-03 0. -1.
        -11    1    3    3    0    0  0.37990752724E+01 -0.86685715689E+01  0.70017879472E+01  0.11772941038E+02  0.51100000000E-03 0.  1.
        -12    1    3    3    0    0 -0.69824151291E+01  0.48410000634E+01  0.22349157885E+02  0.23909710596E+02  0.00000000000E+00 0.  1.
</event>
<event>
 7    1  0.5155466E-011  0.5052887E+02  0.7816164E-02  0.1300439E+00
        -11   -1    0    0    0    0  0.00000000000E+00  0.00000000000E+00  0.45593999997E+02  0.45594000000E+02  0.51100000000E-03 0.  1.
         11   -1    0    0    0    0 -0.00000000000E+00 -0.00000000000E+00 -0.45593999997E+02  0.45594000000E+02  0.51100000000E-03 0. -1.
    9900012    2    1    2    0    0  0.93287849982E+01 -0.36204565654E+02 -0.15980247614E+02  0.50528866739E+02  0.30000020940E+02 0.  0.
        -12    1    1    2    0    0 -0.93287849982E+01  0.36204565654E+02  0.15980247614E+02  0.40659133261E+02  0.00000000000E+00 0.  1.
         11    1    3    3    0    0  0.15930629380E+02 -0.13574265270E+02 -0.10798475725E+02  0.23551065969E+02  0.51100000000E-03 0. -1.
        -11    1    3    3    0    0 -0.87950530906E+01 -0.10249950109E+02 -0.35719240390E+00  0.13510811330E+02  0.51100000000E-03 0.  1.
         12    1    3    3    0    0  0.21932087091E+01 -0.12380350275E+02 -0.48245794851E+01  0.13466989440E+02  0.00000000000E+00 0. -1.
</event>
<event>
 7    1  0.5155466E-011  0.5052891E+02  0.7816164E-02  0.1300439E+00
        -11   -1    0    0    0    0  0.00000000000E+00  0.00000000000E+00  0.45593999997E+02  0.45594000000E+02  0.51100000000E-03 0. -1.
         11   -1    0    0    0    0 -0.00000000000E+00 -0.00000000000E+00 -0.45593999997E+02  0.45594000000E+02  0.51100000000E-03 0.  1.
    9900012    2    1    2    0    0 -0.40637135762E+02  0.33733532690E+00 -0.12926939673E+01  0.50528909310E+02  0.30000150337E+02 0.  0.
        -12    1    1    2    0    0  0.40637135762E+02 -0.33733532690E+00  0.12926939673E+01  0.40659090690E+02  0.00000000000E+00 0.  1.
         11    1    3    3    0    0 -0.30631554311E+02 -0.70213950630E+01  0.60703733401E+01  0.32006898332E+02  0.51100000000E-03 0. -1.
        -11    1    3    3    0    0 -0.71092765678E+01  0.63022916714E+01 -0.10474903696E+02  0.14141580581E+02  0.51100000000E-03 0.  1.
        -12    1    3    3    0    0 -0.28963048838E+01  0.10564387186E+01  0.31118363886E+01  0.43804303961E+01  0.00000000000E+00 0.  1.
</event>
<event>
 7    1  0.5155466E-011  0.5052885E+02  0.7816164E-02  0.1300439E+00
        -11   -1    0    0    0    0  0.00000000000E+00  0.00000000000E+00  0.45593999997E+02  0.45594000000E+02  0.51100000000E-03 0.  1.
         11   -1    0    0    0    0 -0.00000000000E+00 -0.00000000000E+00 -0.45593999997E+02  0.45594000000E+02  0.51100000000E-03 0. -1.
    9900012    2    1    2    0    0  0.29551519039E+02  0.20181442966E+02 -0.19302417532E+02  0.50528852932E+02  0.29999978974E+02 0.  0.
        -12    1    1    2    0    0 -0.29551519039E+02 -0.20181442966E+02  0.19302417532E+02  0.40659147068E+02  0.00000000000E+00 0.  1.
         11    1    3    3    0    0  0.77032796323E+01 -0.14258417877E+01 -0.17470016149E+02  0.19146148605E+02  0.51100000000E-03 0. -1.
        -11    1    3    3    0    0  0.19366796228E+02  0.16373785996E+02 -0.27834515418E+01  0.25513158697E+02  0.51100000000E-03 0.  1.
         12    1    3    3    0    0  0.24814431788E+01  0.52334987582E+01  0.95105015929E+00  0.58695456304E+01  0.00000000000E+00 0. -1.
</event>
<event>
 7    1  0.5155466E-011  0.5052888E+02  0.7816164E-02  0.1300439E+00
        -11   -1    0    0    0    0  0.00000000000E+00  0.00000000000E+00  0.45593999997E+02  0.45594000000E+02  0.51100000000E-03 0. -1.
         11   -1    0    0    0    0 -0.00000000000E+00 -0.00000000000E+00 -0.45593999997E+02  0.45594000000E+02  0.51100000000E-03 0.  1.
    9900012    2    1    2    0    0  0.24654448052E+02  0.25897517179E+02  0.19355643625E+02  0.50528878700E+02  0.30000057296E+02 0.  0.
        -12    1    1    2    0    0 -0.24654448052E+02 -0.25897517179E+02 -0.19355643625E+02  0.40659121300E+02  0.00000000000E+00 0.  1.
         11    1    3    3    0    0  0.16954430041E+02  0.23318808619E+02  0.89818845153E+01  0.30197579094E+02  0.51100000000E-03 0. -1.
        -11    1    3    3    0    0 -0.31951747231E+01 -0.30491378499E+01  0.24004042765E+00  0.44231213873E+01  0.51100000000E-03 0.  1.
         12    1    3    3    0    0  0.10895192733E+02  0.56278464099E+01  0.10133718682E+02  0.15908178219E+02  0.00000000000E+00 0. -1.
</event>
<event>
 7    1  0.5155466E-011  0.5052887E+02  0.7816164E-02  0.1300439E+00
        -11   -1    0    0    0    0  0.00000000000E+00  0.00000000000E+00  0.45593999997E+02  0.45594000000E+02  0.51100000000E-03 0. -1.
         11   -1    0    0    0    0 -0.00000000000E+00 -0.00000000000E+00 -0.45593999997E+02  0.45594000000E+02  0.51100000000E-03 0.  1.
    9900012    2    1    2    0    0  0.13614667563E+02  0.28415788156E+02  0.25697257671E+02  0.50528865218E+02  0.30000016318E+02 0.  0.
        -12    1    1    2    0    0 -0.13614667563E+02 -0.28415788156E+02 -0.25697257671E+02  0.40659134782E+02  0.00000000000E+00 0.  1.
         11    1    3    3    0    0 -0.32797826996E+01  0.23415779971E+02  0.13381918869E+02  0.27168575213E+02  0.51100000000E-03 0. -1.
        -11    1    3    3    0    0  0.14161773823E+02  0.57517629354E+01  0.59681419832E+01  0.16409062547E+02  0.51100000000E-03 0.  1.
         12    1    3    3    0    0  0.27326764399E+01 -0.75175475064E+00  0.63471968190E+01  0.69512274592E+01  0.00000000000E+00 0. -1.
</event>
<event>
 7    1  0.5155466E-011  0.5052887E+02  0.7816164E-02  0.1300439E+00
        -11   -1    0    0    0    0  0.00000000000E+00  0.00000000000E+00  0.45593999997E+02  0.45594000000E+02  0.51100000000E-03 0.  1.
         11   -1    0    0    0    0 -0.00000000000E+00 -0.00000000000E+00 -0.45593999997E+02  0.45594000000E+02  0.51100000000E-03 0. -1.
    9900012    2    1    2    0    0  0.22684025500E+02 -0.21394678316E+02 -0.26093443751E+02  0.50528867201E+02  0.30000022345E+02 0.  0.
        -12    1    1    2    0    0 -0.22684025500E+02  0.21394678316E+02  0.26093443751E+02  0.40659132799E+02  0.00000000000E+00 0.  1.
         11    1    3    3    0    0 -0.31387989246E+01 -0.33012007149E+01 -0.58650281608E+01  0.74262063287E+01  0.51100000000E-03 0. -1.
        -11    1    3    3    0    0  0.26855637981E+02 -0.95507446199E+01 -0.11184551314E+02  0.30619212964E+02  0.51100000000E-03 0.  1.
        -12    1    3    3    0    0 -0.10328135566E+01 -0.85427329813E+01 -0.90438642770E+01  0.12483447909E+02  0.00000000000E+00 0.  1.
</event>
<event>
 7    1  0.5155466E-011  0.5052880E+02  0.7816164E-02  0.1300439E+00
        -11   -1    0    0    0    0  0.00000000000E+00  0.00000000000E+00  0.45593999997E+02  0.45594000000E+02  0.51100000000E-03 0.  1.
         11   -1    0    0    0    0 -0.00000000000E+00 -0.00000000000E+00 -0.45593999997E+02  0.45594000000E+02  0.51100000000E-03 0. -1.
    9900012    2    1    2    0    0 -0.39418796755E+02  0.42737134357E+01  0.90035772953E+01  0.50528799709E+02  0.29999817196E+02 0.  0.
        -12    1    1    2    0    0  0.39418796755E+02 -0.42737134357E+01 -0.90035772953E+01  0.40659200291E+02  0.00000000000E+00 0.  1.
         11    1    3    3    0    0 -0.22966519927E+02 -0.39456123072E+01  0.21175429566E+01  0.23398993193E+02  0.51100000000E-03 0. -1.
        -11    1    3    3    0    0 -0.95907099550E+01  0.14033755106E+02  0.27054362640E+01  0.17211838526E+02  0.51100000000E-03 0.  1.
        -12    1    3    3    0    0 -0.68615668734E+01 -0.58144293632E+01  0.41805980747E+01  0.99179679894E+01  0.00000000000E+00 0.  1.
</event>
<event>
 7    1  0.5155466E-011  0.5052887E+02  0.7816164E-02  0.1300439E+00
        -11   -1    0    0    0    0  0.00000000000E+00  0.00000000000E+00  0.45593999997E+02  0.45594000000E+02  0.51100000000E-03 0.  1.
         11   -1    0    0    0    0 -0.00000000000E+00 -0.00000000000E+00 -0.45593999997E+02  0.45594000000E+02  0.51100000000E-03 0. -1.
    9900012    2    1    2    0    0 -0.34451954472E+02 -0.15699984098E+02 -0.14823576052E+02  0.50528867267E+02  0.30000022545E+02 0.  0.
        -12    1    1    2    0    0  0.34451954472E+02  0.15699984098E+02  0.14823576052E+02  0.40659132733E+02  0.00000000000E+00 0.  1.
         11    1    3    3    0    0 -0.11360591654E+02  0.55517784810E+01 -0.68317956715E+01  0.14372150827E+02  0.51100000000E-03 0. -1.
        -11    1    3    3    0    0 -0.41509896412E+01 -0.12822580565E+02  0.10934225657E+01  0.13522013922E+02  0.51100000000E-03 0.  1.
        -12    1    3    3    0    0 -0.18940373177E+02 -0.84291820143E+01 -0.90852029460E+01  0.22634702518E+02  0.00000000000E+00 0.  1.
</event>
<event>
 7    1  0.5155466E-011  0.5052883E+02  0.7816164E-02  0.1300439E+00
        -11   -1    0    0    0    0  0.00000000000E+00  0.00000000000E+00  0.45593999997E+02  0.45594000000E+02  0.51100000000E-03 0. -1.
         11   -1    0    0    0    0 -0.00000000000E+00 -0.00000000000E+00 -0.45593999997E+02  0.45594000000E+02  0.51100000000E-03 0.  1.
    9900012    2    1    2    0    0 -0.55106797486E+01 -0.13932874095E+02  0.37797824169E+02  0.50528830262E+02  0.29999910064E+02 0.  0.
        -12    1    1    2    0    0  0.55106797486E+01  0.13932874095E+02 -0.37797824169E+02  0.40659169738E+02  0.00000000000E+00 0.  1.
         11    1    3    3    0    0  0.70678596047E+01 -0.11687925141E+02  0.19164773949E+02  0.23534034806E+02  0.51100000000E-03 0. -1.
        -11    1    3    3    0    0 -0.61203246143E+01  0.43311428430E+01  0.15571485659E+02  0.17282602166E+02  0.51100000000E-03 0.  1.
        -12    1    3    3    0    0 -0.64582147391E+01 -0.65760917973E+01  0.30615645611E+01  0.97121932901E+01  0.00000000000E+00 0.  1.
</event>
<event>
 7    1  0.5155466E-011  0.5052888E+02  0.7816164E-02  0.1300439E+00
        -11   -1    0    0    0    0  0.00000000000E+00  0.00000000000E+00  0.45593999997E+02  0.45594000000E+02  0.51100000000E-03 0.  1.
         11   -1    0    0    0    0 -0.00000000000E+00 -0.00000000000E+00 -0.45593999997E+02  0.45594000000E+02  0.51100000000E-03 0. -1.
    9900012    2    1    2    0    0  0.22506615908E+02  0.83083659495E+01 -0.32826627553E+02  0.50528878258E+02  0.30000055952E+02 0.  0.
        -12    1    1    2    0    0 -0.22506615908E+02 -0.83083659495E+01  0.32826627553E+02  0.40659121742E+02  0.00000000000E+00 0.  1.
         11    1    3    3    0    0  0.83915302690E+01  0.19192807632E+01 -0.15772833068E+02  0.17968964415E+02  0.51100000000E-03 0. -1.
        -11    1    3    3    0    0  0.10139904917E+02 -0.36052438667E+01  0.17442863600E+01  0.10902201165E+02  0.51100000000E-03 0.  1.
        -12    1    3    3    0    0  0.39751807217E+01  0.99943290530E+01 -0.18798080845E+02  0.21657712678E+02  0.00000000000E+00 0.  1.
</event>
<event>
 7    1  0.5155466E-011  0.5052886E+02  0.7816164E-02  0.1300439E+00
        -11   -1    0    0    0    0  0.00000000000E+00  0.00000000000E+00  0.45593999997E+02  0.45594000000E+02  0.51100000000E-03 0.  1.
         11   -1    0    0    0    0 -0.00000000000E+00 -0.00000000000E+00 -0.45593999997E+02  0.45594000000E+02  0.51100000000E-03 0. -1.
    9900012    2    1    2    0    0  0.49096991706E+01  0.10770772179E+02 -0.38897960710E+02  0.50528855558E+02  0.29999986956E+02 0.  0.
        -12    1    1    2    0    0 -0.49096991706E+01 -0.10770772179E+02  0.38897960710E+02  0.40659144442E+02  0.00000000000E+00 0.  1.
         11    1    3    3    0    0 -0.57405300141E+01  0.16324048138E+02 -0.29117353152E+02  0.33871056779E+02  0.51100000000E-03 0. -1.
        -11    1    3    3    0    0  0.13870012035E+01 -0.37574687173E+01 -0.23177176597E+01  0.46275435073E+01  0.51100000000E-03 0.  1.
         12    1    3    3    0    0  0.92632279812E+01 -0.17958072418E+01 -0.74628898987E+01  0.12030255272E+02  0.00000000000E+00 0. -1.
</event>
<event>
 7    1  0.5155466E-011  0.5052886E+02  0.7816164E-02  0.1300439E+00
        -11   -1    0    0    0    0  0.00000000000E+00  0.00000000000E+00  0.45593999997E+02  0.45594000000E+02  0.51100000000E-03 0. -1.
         11   -1    0    0    0    0 -0.00000000000E+00 -0.00000000000E+00 -0.45593999997E+02  0.45594000000E+02  0.51100000000E-03 0.  1.
    9900012    2    1    2    0    0 -0.27630593009E+02 -0.23534460740E+02 -0.18326068328E+02  0.50528864584E+02  0.30000014391E+02 0.  0.
        -12    1    1    2    0    0  0.27630593009E+02  0.23534460740E+02  0.18326068328E+02  0.40659135416E+02  0.00000000000E+00 0.  1.
         11    1    3    3    0    0 -0.16334740804E+02 -0.51734376696E+01 -0.18327637500E+02  0.25089649480E+02  0.51100000000E-03 0. -1.
        -11    1    3    3    0    0  0.26194468658E+01 -0.43792756174E+00 -0.66801699256E+00  0.27385268659E+01  0.51100000000E-03 0.  1.
         12    1    3    3    0    0 -0.13915299071E+02 -0.17923095509E+02  0.66958616403E+00  0.22700688238E+02  0.00000000000E+00 0. -1.
</event>
<event>
 7    1  0.5155466E-011  0.5052886E+02  0.7816164E-02  0.1300439E+00
        -11   -1    0    0    0    0  0.00000000000E+00  0.00000000000E+00  0.45593999997E+02  0.45594000000E+02  0.51100000000E-03 0.  1.
         11   -1    0    0    0    0 -0.00000000000E+00 -0.00000000000E+00 -0.45593999997E+02  0.45594000000E+02  0.51100000000E-03 0. -1.
    9900012    2    1    2    0    0 -0.12196771975E+02  0.18447912909E+01 -0.38742756505E+02  0.50528859784E+02  0.29999999800E+02 0.  0.
        -12    1    1    2    0    0  0.12196771975E+02 -0.18447912909E+01  0.38742756505E+02  0.40659140216E+02  0.00000000000E+00 0.  1.
         11    1    3    3    0    0 -0.35105508357E+01 -0.48477483670E+01  0.29543106773E+01  0.66747721488E+01  0.51100000000E-03 0. -1.
        -11    1    3    3    0    0 -0.78735286530E+00  0.27227658753E+01 -0.22982293096E+02  0.23156406776E+02  0.51100000000E-03 0.  1.
         12    1    3    3    0    0 -0.78988682736E+01  0.39697737826E+01 -0.18714774086E+02  0.20697680860E+02  0.00000000000E+00 0. -1.
</event>
<event>
 7    1  0.5155466E-011  0.5052886E+02  0.7816164E-02  0.1300439E+00
        -11   -1    0    0    0    0  0.00000000000E+00  0.00000000000E+00  0.45593999997E+02  0.45594000000E+02  0.51100000000E-03 0.  1.
         11   -1    0    0    0    0 -0.00000000000E+00 -0.00000000000E+00 -0.45593999997E+02  0.45594000000E+02  0.51100000000E-03 0. -1.
    9900012    2    1    2    0    0  0.34698511121E+02 -0.96449480858E+01 -0.18872031432E+02  0.50528864890E+02  0.30000015318E+02 0.  0.
        -12    1    1    2    0    0 -0.34698511121E+02  0.96449480858E+01  0.18872031432E+02  0.40659135110E+02  0.00000000000E+00 0.  1.
         11    1    3    3    0    0  0.14693656414E+02  0.57635581651E+01 -0.19040874823E+02  0.24732105770E+02  0.51100000000E-03 0. -1.
        -11    1    3    3    0    0  0.14897982054E+02 -0.10411771960E+02 -0.21091714280E+01  0.18297635613E+02  0.51100000000E-03 0.  1.
        -12    1    3    3    0    0  0.51068726526E+01 -0.49967342906E+01  0.22780148189E+01  0.74991235072E+01  0.00000000000E+00 0.  1.
</event>
<event>
 7    1  0.5155466E-011  0.5052886E+02  0.7816164E-02  0.1300439E+00
        -11   -1    0    0    0    0  0.00000000000E+00  0.00000000000E+00  0.45593999997E+02  0.45594000000E+02  0.51100000000E-03 0.  1.
         11   -1    0    0    0    0 -0.00000000000E+00 -0.00000000000E+00 -0.45593999997E+02  0.45594000000E+02  0.51100000000E-03 0. -1.
    9900012    2    1    2    0    0  0.10049309633E+02 -0.26566612438E+02 -0.29092816409E+02  0.50528862194E+02  0.30000007125E+02 0.  0.
        -12    1    1    2    0    0 -0.10049309633E+02  0.26566612438E+02  0.29092816409E+02  0.40659137806E+02  0.00000000000E+00 0.  1.
         11    1    3    3    0    0  0.59896854765E+01 -0.21153850058E+02 -0.31314772329E+02  0.38261948077E+02  0.51100000000E-03 0. -1.
        -11    1    3    3    0    0  0.56806627696E+01  0.26564591172E+00  0.27899979512E+01  0.63343970574E+01  0.51100000000E-03 0.  1.
         12    1    3    3    0    0 -0.16210386133E+01 -0.56784082917E+01 -0.56804203121E+00  0.59325170596E+01  0.00000000000E+00 0. -1.
</event>
<event>
 7    1  0.5155466E-011  0.5052884E+02  0.7816164E-02  0.1300439E+00
        -11   -1    0    0    0    0  0.00000000000E+00  0.00000000000E+00  0.45593999997E+02  0.45594000000E+02  0.51100000000E-03 0.  1.
         11   -1    0    0    0    0 -0.00000000000E+00 -0.00000000000E+00 -0.45593999997E+02  0.45594000000E+02  0.51100000000E-03 0. -1.
    9900012    2    1    2    0    0  0.49408812466E+01 -0.26890089623E+02 -0.30094487660E+02  0.50528838487E+02  0.29999935066E+02 0.  0.
        -12    1    1    2    0    0 -0.49408812466E+01  0.26890089623E+02  0.30094487660E+02  0.40659161513E+02  0.00000000000E+00 0.  1.
         11    1    3    3    0    0 -0.46121451575E+01 -0.10859594141E+02 -0.27068293938E+02  0.29527871661E+02  0.51100000000E-03 0. -1.
        -11    1    3    3    0    0  0.84872717545E+01 -0.13249881199E+02 -0.59549393449E+01  0.16824221720E+02  0.51100000000E-03 0.  1.
         12    1    3    3    0    0  0.10657546496E+01 -0.27806142827E+01  0.29287456226E+01  0.41767451064E+01  0.00000000000E+00 0. -1.
</event>
<event>
 7    1  0.5155466E-011  0.5052890E+02  0.7816164E-02  0.1300439E+00
        -11   -1    0    0    0    0  0.00000000000E+00  0.00000000000E+00  0.45593999997E+02  0.45594000000E+02  0.51100000000E-03 0.  1.
         11   -1    0    0    0    0 -0.00000000000E+00 -0.00000000000E+00 -0.45593999997E+02  0.45594000000E+02  0.51100000000E-03 0. -1.
    9900012    2    1    2    0    0  0.38486937185E+02 -0.67566615296E+01 -0.11236794832E+02  0.50528900563E+02  0.30000123751E+02 0.  0.
        -12    1    1    2    0    0 -0.38486937185E+02  0.67566615296E+01  0.11236794832E+02  0.40659099437E+02  0.00000000000E+00 0.  1.
         11    1    3    3    0    0  0.19927179222E+02 -0.11463169545E+02 -0.13807090043E+02  0.26816645269E+02  0.51100000000E-03 0. -1.
        -11    1    3    3    0    0  0.75107087736E+01 -0.39005588602E+01  0.44817569725E+01  0.95765991628E+01  0.51100000000E-03 0.  1.
         12    1    3    3    0    0  0.11049049190E+02  0.86070668757E+01 -0.19114617614E+01  0.14135656131E+02  0.00000000000E+00 0. -1.
</event>
<event>
 7    1  0.5155466E-011  0.5052886E+02  0.7816164E-02  0.1300439E+00
        -11   -1    0    0    0    0  0.00000000000E+00  0.00000000000E+00  0.45593999997E+02  0.45594000000E+02  0.51100000000E-03 0.  1.
         11   -1    0    0    0    0 -0.00000000000E+00 -0.00000000000E+00 -0.45593999997E+02  0.45594000000E+02  0.51100000000E-03 0. -1.
    9900012    2    1    2    0    0  0.24405368897E+02 -0.29082593487E+02 -0.14551509638E+02  0.50528859482E+02  0.29999998881E+02 0.  0.
        -12    1    1    2    0    0 -0.24405368897E+02  0.29082593487E+02  0.14551509638E+02  0.40659140518E+02  0.00000000000E+00 0.  1.
         11    1    3    3    0    0  0.14415151908E+02 -0.30450641276E+00 -0.44997341255E+01  0.15104202599E+02  0.51100000000E-03 0.  1.
        -11    1    3    3    0    0  0.11874727877E+02 -0.18978151931E+02 -0.11779124655E+02  0.25296782222E+02  0.51100000000E-03 0. -1.
        -12    1    3    3    0    0 -0.18845108883E+01 -0.97999351429E+01  0.17273491425E+01  0.10127874661E+02  0.00000000000E+00 0.  1.
</event>
<event>
 7    1  0.5155466E-011  0.5052887E+02  0.7816164E-02  0.1300439E+00
        -11   -1    0    0    0    0  0.00000000000E+00  0.00000000000E+00  0.45593999997E+02  0.45594000000E+02  0.51100000000E-03 0. -1.
         11   -1    0    0    0    0 -0.00000000000E+00 -0.00000000000E+00 -0.45593999997E+02  0.45594000000E+02  0.51100000000E-03 0.  1.
    9900012    2    1    2    0    0 -0.18566769901E+02  0.32673980232E+02  0.15519372039E+02  0.50528870186E+02  0.30000031417E+02 0.  0.
        -12    1    1    2    0    0  0.18566769901E+02 -0.32673980232E+02 -0.15519372039E+02  0.40659129814E+02  0.00000000000E+00 0.  1.
         11    1    3    3    0    0 -0.12297066029E+02  0.67337352094E+01  0.15246895171E+02  0.20713011259E+02  0.51100000000E-03 0. -1.
        -11    1    3    3    0    0 -0.18222862879E+01  0.60304410603E+01 -0.57663409746E+01  0.85403533412E+01  0.51100000000E-03 0.  1.
         12    1    3    3    0    0 -0.44474175835E+01  0.19909803963E+02  0.60388178425E+01  0.21275505586E+02  0.00000000000E+00 0. -1.
</event>
<event>
 7    1  0.5163643E-011  0.5052887E+02  0.7816164E-02  0.1300439E+00
        -11   -1    0    0    0    0  0.00000000000E+00  0.00000000000E+00  0.45593999997E+02  0.45594000000E+02  0.51100000000E-03 0.  1.
         11   -1    0    0    0    0 -0.00000000000E+00 -0.00000000000E+00 -0.45593999997E+02  0.45594000000E+02  0.51100000000E-03 0. -1.
    9900012    2    1    2    0    0  0.33671891014E+02 -0.22254796938E+02 -0.49084599505E+01  0.50528865598E+02  0.30000017473E+02 0.  0.
        -12    1    1    2    0    0 -0.33671891014E+02  0.22254796938E+02  0.49084599505E+01  0.40659134402E+02  0.00000000000E+00 0.  1.
         11    1    3    3    0    0  0.20917710319E+02 -0.15180748089E+02  0.10083148557E+01  0.25865467648E+02  0.51100000000E-03 0. -1.
        -11    1    3    3    0    0  0.74691550886E+01  0.54514890740E+01 -0.60813778433E+01  0.11067527619E+02  0.51100000000E-03 0.  1.
        -12    1    3    3    0    0  0.52850256063E+01 -0.12525537923E+02  0.16460303712E+00  0.13595870332E+02  0.00000000000E+00 0.  1.
</event>
<event>
 7    1  0.5155466E-011  0.5052886E+02  0.7816164E-02  0.1300439E+00
        -11   -1    0    0    0    0  0.00000000000E+00  0.00000000000E+00  0.45593999997E+02  0.45594000000E+02  0.51100000000E-03 0.  1.
         11   -1    0    0    0    0 -0.00000000000E+00 -0.00000000000E+00 -0.45593999997E+02  0.45594000000E+02  0.51100000000E-03 0. -1.
    9900012    2    1    2    0    0 -0.22026894657E+02  0.12396273585E+02 -0.31848296377E+02  0.50528859956E+02  0.30000000321E+02 0.  0.
        -12    1    1    2    0    0  0.22026894657E+02 -0.12396273585E+02  0.31848296377E+02  0.40659140044E+02  0.00000000000E+00 0.  1.
         11    1    3    3    0    0 -0.90848251657E+00  0.55617170173E+01 -0.25157277640E+02  0.25780741944E+02  0.51100000000E-03 0. -1.
        -11    1    3    3    0    0 -0.15076902343E+02  0.80586566924E+01 -0.72276188110E+01  0.18560533556E+02  0.51100000000E-03 0.  1.
         12    1    3    3    0    0 -0.60415097978E+01 -0.12241001246E+01  0.53660007432E+00  0.61875844553E+01  0.00000000000E+00 0. -1.
</event>
<event>
 7    1  0.5155466E-011  0.5052886E+02  0.7816164E-02  0.1300439E+00
        -11   -1    0    0    0    0  0.00000000000E+00  0.00000000000E+00  0.45593999997E+02  0.45594000000E+02  0.51100000000E-03 0. -1.
         11   -1    0    0    0    0 -0.00000000000E+00 -0.00000000000E+00 -0.45593999997E+02  0.45594000000E+02  0.51100000000E-03 0.  1.
    9900012    2    1    2    0    0  0.33451174885E+02  0.14510309453E+02  0.17989873427E+02  0.50528859238E+02  0.29999998140E+02 0.  0.
        -12    1    1    2    0    0 -0.33451174885E+02 -0.14510309453E+02 -0.17989873427E+02  0.40659140762E+02  0.00000000000E+00 0.  1.
         11    1    3    3    0    0  0.22955098709E+02 -0.62746085457E+00  0.52962516347E+01  0.23566513223E+02  0.51100000000E-03 0. -1.
        -11    1    3    3    0    0 -0.17477217544E+00  0.12820593230E+02  0.76893173683E+01  0.14950710951E+02  0.51100000000E-03 0.  1.
         12    1    3    3    0    0  0.10670848351E+02  0.23171770778E+01  0.50043044238E+01  0.12011635064E+02  0.00000000000E+00 0. -1.
</event>
<event>
 7    1  0.5155466E-011  0.5052885E+02  0.7816164E-02  0.1300439E+00
        -11   -1    0    0    0    0  0.00000000000E+00  0.00000000000E+00  0.45593999997E+02  0.45594000000E+02  0.51100000000E-03 0.  1.
         11   -1    0    0    0    0 -0.00000000000E+00 -0.00000000000E+00 -0.45593999997E+02  0.45594000000E+02  0.51100000000E-03 0. -1.
    9900012    2    1    2    0    0 -0.26941973557E+02 -0.19508684310E+02 -0.23381783644E+02  0.50528849628E+02  0.29999968928E+02 0.  0.
        -12    1    1    2    0    0  0.26941973557E+02  0.19508684310E+02  0.23381783644E+02  0.40659150372E+02  0.00000000000E+00 0.  1.
         11    1    3    3    0    0 -0.46974489059E+01 -0.87513710969E-01 -0.71379081472E+01  0.85453740616E+01  0.51100000000E-03 0. -1.
        -11    1    3    3    0    0 -0.18584886992E+02 -0.61859407351E+01  0.13864893585E+01  0.19636349973E+02  0.51100000000E-03 0.  1.
        -12    1    3    3    0    0 -0.36596376598E+01 -0.13235229864E+02 -0.17630364855E+02  0.22347125593E+02  0.00000000000E+00 0.  1.
</event>
<event>
 7    1  0.5155466E-011  0.5052886E+02  0.7816164E-02  0.1300439E+00
        -11   -1    0    0    0    0  0.00000000000E+00  0.00000000000E+00  0.45593999997E+02  0.45594000000E+02  0.51100000000E-03 0.  1.
         11   -1    0    0    0    0 -0.00000000000E+00 -0.00000000000E+00 -0.45593999997E+02  0.45594000000E+02  0.51100000000E-03 0. -1.
    9900012    2    1    2    0    0 -0.16931304787E+02 -0.27677963823E+02 -0.24503612696E+02  0.50528858367E+02  0.29999995492E+02 0.  0.
        -12    1    1    2    0    0  0.16931304787E+02  0.27677963823E+02  0.24503612696E+02  0.40659141633E+02  0.00000000000E+00 0.  1.
         11    1    3    3    0    0 -0.15864423447E+02 -0.19679397411E+02 -0.37565123484E+01  0.25555234279E+02  0.51100000000E-03 0.  1.
        -11    1    3    3    0    0  0.48321773105E+01 -0.41528068292E+01 -0.13165348281E+02  0.14626077319E+02  0.51100000000E-03 0. -1.
         12    1    3    3    0    0 -0.58990586505E+01 -0.38457595827E+01 -0.75817520666E+01  0.10347546769E+02  0.00000000000E+00 0. -1.
</event>
<event>
 7    1  0.5155466E-011  0.5052886E+02  0.7816164E-02  0.1300439E+00
        -11   -1    0    0    0    0  0.00000000000E+00  0.00000000000E+00  0.45593999997E+02  0.45594000000E+02  0.51100000000E-03 0.  1.
         11   -1    0    0    0    0 -0.00000000000E+00 -0.00000000000E+00 -0.45593999997E+02  0.45594000000E+02  0.51100000000E-03 0. -1.
    9900012    2    1    2    0    0  0.42676237249E+01 -0.25719207131E+02 -0.31200568075E+02  0.50528859873E+02  0.30000000070E+02 0.  0.
        -12    1    1    2    0    0 -0.42676237249E+01  0.25719207131E+02  0.31200568075E+02  0.40659140127E+02  0.00000000000E+00 0.  1.
         11    1    3    3    0    0  0.21261181799E+01  0.85932200700E+00 -0.19554365628E+02  0.19688372919E+02  0.51100000000E-03 0.  1.
        -11    1    3    3    0    0  0.11089513151E+01 -0.16100173156E+02 -0.14826487197E+01  0.16206282614E+02  0.51100000000E-03 0. -1.
        -12    1    3    3    0    0  0.10325542300E+01 -0.10478355982E+02 -0.10163553727E+02  0.14634204341E+02  0.00000000000E+00 0.  1.
</event>
<event>
 7    1  0.5155466E-011  0.5052886E+02  0.7816164E-02  0.1300439E+00
        -11   -1    0    0    0    0  0.00000000000E+00  0.00000000000E+00  0.45593999997E+02  0.45594000000E+02  0.51100000000E-03 0.  1.
         11   -1    0    0    0    0 -0.00000000000E+00 -0.00000000000E+00 -0.45593999997E+02  0.45594000000E+02  0.51100000000E-03 0. -1.
    9900012    2    1    2    0    0 -0.94198418850E+01  0.12210640377E+02 -0.37620906314E+02  0.50528858944E+02  0.29999997245E+02 0.  0.
        -12    1    1    2    0    0  0.94198418850E+01 -0.12210640377E+02  0.37620906314E+02  0.40659141056E+02  0.00000000000E+00 0.  1.
         11    1    3    3    0    0  0.77512569173E+01  0.76100458912E+01 -0.25557018738E+02  0.27769695520E+02  0.51100000000E-03 0. -1.
        -11    1    3    3    0    0 -0.14447204863E+02  0.37390620032E+01 -0.12959797949E+02  0.19765087304E+02  0.51100000000E-03 0.  1.
         12    1    3    3    0    0 -0.27238939395E+01  0.86153248297E+00  0.89591037248E+00  0.29940761193E+01  0.00000000000E+00 0. -1.
</event>
<event>
 7    1  0.5155466E-011  0.5052885E+02  0.7816164E-02  0.1300439E+00
        -11   -1    0    0    0    0  0.00000000000E+00  0.00000000000E+00  0.45593999997E+02  0.45594000000E+02  0.51100000000E-03 0.  1.
         11   -1    0    0    0    0 -0.00000000000E+00 -0.00000000000E+00 -0.45593999997E+02  0.45594000000E+02  0.51100000000E-03 0. -1.
    9900012    2    1    2    0    0 -0.26536709740E+02  0.22428319469E+02 -0.21117283573E+02  0.50528854122E+02  0.29999982588E+02 0.  0.
        -12    1    1    2    0    0  0.26536709740E+02 -0.22428319469E+02  0.21117283573E+02  0.40659145878E+02  0.00000000000E+00 0.  1.
         11    1    3    3    0    0  0.21033639652E+01 -0.34655415107E+00 -0.77850874074E+00  0.22694307371E+01  0.51100000000E-03 0.  1.
        -11    1    3    3    0    0 -0.22726555981E+02  0.27671782947E+01 -0.11056787310E+02  0.25424519039E+02  0.51100000000E-03 0. -1.
        -12    1    3    3    0    0 -0.59135177243E+01  0.20007695325E+02 -0.92819875230E+01  0.22834904346E+02  0.00000000000E+00 0.  1.
</event>
<event>
 7    1  0.5155466E-011  0.5052886E+02  0.7816164E-02  0.1300439E+00
        -11   -1    0    0    0    0  0.00000000000E+00  0.00000000000E+00  0.45593999997E+02  0.45594000000E+02  0.51100000000E-03 0. -1.
         11   -1    0    0    0    0 -0.00000000000E+00 -0.00000000000E+00 -0.45593999997E+02  0.45594000000E+02  0.51100000000E-03 0.  1.
    9900012    2    1    2    0    0  0.37758721727E+01 -0.40027508410E+02 -0.60586059271E+01  0.50528863930E+02  0.30000012402E+02 0.  0.
        -12    1    1    2    0    0 -0.37758721727E+01  0.40027508410E+02  0.60586059271E+01  0.40659136070E+02  0.00000000000E+00 0.  1.
         11    1    3    3    0    0  0.20094250359E+01 -0.26772062361E+02 -0.98626799011E+01  0.28601635743E+02  0.51100000000E-03 0. -1.
        -11    1    3    3    0    0  0.19872688624E+01  0.29027215878E+01  0.45488510828E+01  0.57503979499E+01  0.51100000000E-03 0.  1.
        -12    1    3    3    0    0 -0.22082172557E+00 -0.16158167636E+02 -0.74477710881E+00  0.16176830238E+02  0.00000000000E+00 0.  1.
</event>
<event>
 7    1  0.5155466E-011  0.5052887E+02  0.7816164E-02  0.1300439E+00
        -11   -1    0    0    0    0  0.00000000000E+00  0.00000000000E+00  0.45593999997E+02  0.45594000000E+02  0.51100000000E-03 0.  1.
         11   -1    0    0    0    0 -0.00000000000E+00 -0.00000000000E+00 -0.45593999997E+02  0.45594000000E+02  0.51100000000E-03 0. -1.
    9900012    2    1    2    0    0  0.36077913241E+02  0.13757543330E+02 -0.12738887629E+02  0.50528867196E+02  0.30000022330E+02 0.  0.
        -12    1    1    2    0    0 -0.36077913241E+02 -0.13757543330E+02  0.12738887629E+02  0.40659132804E+02  0.00000000000E+00 0.  1.
         11    1    3    3    0    0  0.25321082543E+02  0.48963047133E+00 -0.16059764899E+02  0.29988547948E+02  0.51100000000E-03 0. -1.
        -11    1    3    3    0    0  0.89618592617E+01  0.12188753412E+02 -0.15796020025E+01  0.15211041185E+02  0.51100000000E-03 0.  1.
         12    1    3    3    0    0  0.17949714360E+01  0.10791594466E+01  0.49004792732E+01  0.53292780631E+01  0.00000000000E+00 0. -1.
</event>
<event>
 7    1  0.5155466E-011  0.5052886E+02  0.7816164E-02  0.1300439E+00
        -11   -1    0    0    0    0  0.00000000000E+00  0.00000000000E+00  0.45593999997E+02  0.45594000000E+02  0.51100000000E-03 0.  1.
         11   -1    0    0    0    0 -0.00000000000E+00 -0.00000000000E+00 -0.45593999997E+02  0.45594000000E+02  0.51100000000E-03 0. -1.
    9900012    2    1    2    0    0  0.35004818998E+02  0.10571249206E+02 -0.17778562036E+02  0.50528856736E+02  0.29999990536E+02 0.  0.
        -12    1    1    2    0    0 -0.35004818998E+02 -0.10571249206E+02  0.17778562036E+02  0.40659143264E+02  0.00000000000E+00 0.  1.
         11    1    3    3    0    0  0.64134472132E+01 -0.62101707699E+01 -0.90211012658E+01  0.12691682097E+02  0.51100000000E-03 0. -1.
        -11    1    3    3    0    0  0.18362362736E+02  0.17842784858E+02 -0.99820668673E+01  0.27480593078E+02  0.51100000000E-03 0.  1.
         12    1    3    3    0    0  0.10229009049E+02 -0.10613648820E+01  0.12246060972E+01  0.10356581561E+02  0.00000000000E+00 0. -1.
</event>
<event>
 7    1  0.5155466E-011  0.5052885E+02  0.7816164E-02  0.1300439E+00
        -11   -1    0    0    0    0  0.00000000000E+00  0.00000000000E+00  0.45593999997E+02  0.45594000000E+02  0.51100000000E-03 0.  1.
         11   -1    0    0    0    0 -0.00000000000E+00 -0.00000000000E+00 -0.45593999997E+02  0.45594000000E+02  0.51100000000E-03 0. -1.
    9900012    2    1    2    0    0  0.31329765244E+02  0.12444122948E+02  0.22732263303E+02  0.50528853660E+02  0.29999981185E+02 0.  0.
        -12    1    1    2    0    0 -0.31329765244E+02 -0.12444122948E+02 -0.22732263303E+02  0.40659146340E+02  0.00000000000E+00 0.  1.
         11    1    3    3    0    0  0.25405958299E+02 -0.89127133228E+00  0.20903872193E+02  0.32912443765E+02  0.51100000000E-03 0. -1.
        -11    1    3    3    0    0  0.35631137199E+01  0.54682430301E+01 -0.38993801619E+01  0.76028038989E+01  0.51100000000E-03 0.  1.
         12    1    3    3    0    0  0.23606932256E+01  0.78671512498E+01  0.57277712719E+01  0.10013605996E+02  0.00000000000E+00 0. -1.
</event>
<event>
 7    1  0.5155466E-011  0.5052886E+02  0.7816164E-02  0.1300439E+00
        -11   -1    0    0    0    0  0.00000000000E+00  0.00000000000E+00  0.45593999997E+02  0.45594000000E+02  0.51100000000E-03 0.  1.
         11   -1    0    0    0    0 -0.00000000000E+00 -0.00000000000E+00 -0.45593999997E+02  0.45594000000E+02  0.51100000000E-03 0. -1.
    9900012    2    1    2    0    0  0.19793579266E+02  0.26107687859E+02 -0.24078378045E+02  0.50528862837E+02  0.30000009080E+02 0.  0.
        -12    1    1    2    0    0 -0.19793579266E+02 -0.26107687859E+02  0.24078378045E+02  0.40659137163E+02  0.00000000000E+00 0.  1.
         11    1    3    3    0    0  0.63866232304E+01 -0.12143823271E+01 -0.96394089608E+01  0.11626774535E+02  0.51100000000E-03 0. -1.
        -11    1    3    3    0    0  0.11857949074E+02  0.30410905913E+02 -0.13489316571E+02  0.35318491142E+02  0.51100000000E-03 0.  1.
        -12    1    3    3    0    0  0.15490069611E+01 -0.30888357265E+01 -0.94965251335E+00  0.35835971602E+01  0.00000000000E+00 0.  1.
</event>
<event>
 7    1  0.5155466E-011  0.5052886E+02  0.7816164E-02  0.1300439E+00
        -11   -1    0    0    0    0  0.00000000000E+00  0.00000000000E+00  0.45593999997E+02  0.45594000000E+02  0.51100000000E-03 0.  1.
         11   -1    0    0    0    0 -0.00000000000E+00 -0.00000000000E+00 -0.45593999997E+02  0.45594000000E+02  0.51100000000E-03 0. -1.
    9900012    2    1    2    0    0  0.38195499554E+02 -0.73250765099E+01 -0.11858022173E+02  0.50528860537E+02  0.30000002088E+02 0.  0.
        -12    1    1    2    0    0 -0.38195499554E+02  0.73250765099E+01  0.11858022173E+02  0.40659139463E+02  0.00000000000E+00 0.  1.
         11    1    3    3    0    0  0.29286137521E+02  0.29384824568E+01 -0.13362992354E+02  0.32324636038E+02  0.51100000000E-03 0. -1.
        -11    1    3    3    0    0  0.21351918374E+01 -0.71749031739E+01 -0.44163704137E+01  0.86915250463E+01  0.51100000000E-03 0.  1.
         12    1    3    3    0    0  0.67741701953E+01 -0.30886557927E+01  0.59213405951E+01  0.95126994530E+01  0.00000000000E+00 0. -1.
</event>
<event>
 7    1  0.5155466E-011  0.5052885E+02  0.7816164E-02  0.1300439E+00
        -11   -1    0    0    0    0  0.00000000000E+00  0.00000000000E+00  0.45593999997E+02  0.45594000000E+02  0.51100000000E-03 0.  1.
         11   -1    0    0    0    0 -0.00000000000E+00 -0.00000000000E+00 -0.45593999997E+02  0.45594000000E+02  0.51100000000E-03 0. -1.
    9900012    2    1    2    0    0  0.12848488921E+02 -0.37562220786E+02 -0.87842185949E+01  0.50528848579E+02  0.29999965742E+02 0.  0.
        -12    1    1    2    0    0 -0.12848488921E+02  0.37562220786E+02  0.87842185949E+01  0.40659151421E+02  0.00000000000E+00 0.  1.
         11    1    3    3    0    0 -0.12020886453E+01  0.36871990685E+01 -0.93758014959E+00  0.39899261747E+01  0.51100000000E-03 0. -1.
        -11    1    3    3    0    0 -0.26729129293E+01 -0.10450678898E+02 -0.10323218919E+01  0.10836366629E+02  0.51100000000E-03 0.  1.
         12    1    3    3    0    0  0.16723490495E+02 -0.30798740956E+02 -0.68143165534E+01  0.35702555776E+02  0.00000000000E+00 0. -1.
</event>
<event>
 7    1  0.6247817E-011  0.5052885E+02  0.7816164E-02  0.1300439E+00
        -11   -1    0    0    0    0  0.00000000000E+00  0.00000000000E+00  0.45593999997E+02  0.45594000000E+02  0.51100000000E-03 0. -1.
         11   -1    0    0    0    0 -0.00000000000E+00 -0.00000000000E+00 -0.45593999997E+02  0.45594000000E+02  0.51100000000E-03 0.  1.
    9900012    2    1    2    0    0 -0.84399275741E+01 -0.30263468758E+02  0.25808068417E+02  0.50528852023E+02  0.29999976210E+02 0.  0.
        -12    1    1    2    0    0  0.84399275741E+01  0.30263468758E+02 -0.25808068417E+02  0.40659147977E+02  0.00000000000E+00 0.  1.
         11    1    3    3    0    0 -0.40236245433E+01 -0.21903850202E+02  0.17367047676E+02  0.28241504092E+02  0.51100000000E-03 0. -1.
        -11    1    3    3    0    0 -0.64421855046E+01  0.34687223838E+01  0.71285976362E+01  0.10215218724E+02  0.51100000000E-03 0.  1.
        -12    1    3    3    0    0  0.20258824737E+01 -0.11828340941E+02  0.13124231048E+01  0.12072129208E+02  0.00000000000E+00 0.  1.
</event>
<event>
 7    1  0.5155466E-011  0.5052889E+02  0.7816164E-02  0.1300439E+00
        -11   -1    0    0    0    0  0.00000000000E+00  0.00000000000E+00  0.45593999997E+02  0.45594000000E+02  0.51100000000E-03 0. -1.
         11   -1    0    0    0    0 -0.00000000000E+00 -0.00000000000E+00 -0.45593999997E+02  0.45594000000E+02  0.51100000000E-03 0.  1.
    9900012    2    1    2    0    0  0.40099803964E+02  0.45520555312E+01 -0.49444882515E+01  0.50528887226E+02  0.30000083213E+02 0.  0.
        -12    1    1    2    0    0 -0.40099803964E+02 -0.45520555312E+01  0.49444882515E+01  0.40659112774E+02  0.00000000000E+00 0.  1.
         11    1    3    3    0    0  0.21993521940E+01 -0.25096884251E+01 -0.87767835464E+01  0.93897612188E+01  0.51100000000E-03 0. -1.
        -11    1    3    3    0    0  0.52501422469E+01  0.52440734148E+01  0.40163651746E+01  0.84377419414E+01  0.51100000000E-03 0.  1.
         12    1    3    3    0    0  0.32650309523E+02  0.18176705415E+01 -0.18406987972E+00  0.32701384066E+02  0.00000000000E+00 0. -1.
</event>
<event>
 7    1  0.5155466E-011  0.5052885E+02  0.7816164E-02  0.1300439E+00
        -11   -1    0    0    0    0  0.00000000000E+00  0.00000000000E+00  0.45593999997E+02  0.45594000000E+02  0.51100000000E-03 0.  1.
         11   -1    0    0    0    0 -0.00000000000E+00 -0.00000000000E+00 -0.45593999997E+02  0.45594000000E+02  0.51100000000E-03 0. -1.
    9900012    2    1    2    0    0  0.21127168388E+02  0.26414272297E+02 -0.22563135773E+02  0.50528854399E+02  0.29999983433E+02 0.  0.
        -12    1    1    2    0    0 -0.21127168388E+02 -0.26414272297E+02  0.22563135773E+02  0.40659145601E+02  0.00000000000E+00 0.  1.
         11    1    3    3    0    0  0.80504111506E+01  0.11497299558E+02 -0.19700404542E+02  0.24188901509E+02  0.51100000000E-03 0. -1.
        -11    1    3    3    0    0 -0.34021730241E+01 -0.24767026214E+00  0.11272644113E+01  0.35926100761E+01  0.51100000000E-03 0.  1.
        -12    1    3    3    0    0  0.16478930262E+02  0.15164643000E+02 -0.39899956423E+01  0.22747342815E+02  0.00000000000E+00 0.  1.
</event>
<event>
 7    1  0.5155466E-011  0.5052886E+02  0.7816164E-02  0.1300439E+00
        -11   -1    0    0    0    0  0.00000000000E+00  0.00000000000E+00  0.45593999997E+02  0.45594000000E+02  0.51100000000E-03 0.  1.
         11   -1    0    0    0    0 -0.00000000000E+00 -0.00000000000E+00 -0.45593999997E+02  0.45594000000E+02  0.51100000000E-03 0. -1.
    9900012    2    1    2    0    0 -0.39625771598E+02  0.62374133567E+01 -0.66376713427E+01  0.50528858581E+02  0.29999996143E+02 0.  0.
        -12    1    1    2    0    0  0.39625771598E+02 -0.62374133567E+01  0.66376713427E+01  0.40659141419E+02  0.00000000000E+00 0.  1.
         11    1    3    3    0    0 -0.25032179609E+02 -0.86410959332E+01 -0.11479154133E+02  0.28862597506E+02  0.51100000000E-03 0. -1.
        -11    1    3    3    0    0 -0.99479301361E+01  0.78556311981E+01  0.33960941023E+01  0.13122717361E+02  0.51100000000E-03 0.  1.
         12    1    3    3    0    0 -0.46456618520E+01  0.70228780918E+01  0.14453886884E+01  0.85435437141E+01  0.00000000000E+00 0. -1.
</event>
<event>
 7    1  0.5155466E-011  0.5052886E+02  0.7816164E-02  0.1300439E+00
        -11   -1    0    0    0    0  0.00000000000E+00  0.00000000000E+00  0.45593999997E+02  0.45594000000E+02  0.51100000000E-03 0. -1.
         11   -1    0    0    0    0 -0.00000000000E+00 -0.00000000000E+00 -0.45593999997E+02  0.45594000000E+02  0.51100000000E-03 0.  1.
    9900012    2    1    2    0    0 -0.31422777890E+02 -0.22826301487E+02  0.12030577570E+02  0.50528858266E+02  0.29999995184E+02 0.  0.
        -12    1    1    2    0    0  0.31422777890E+02  0.22826301487E+02 -0.12030577570E+02  0.40659141734E+02  0.00000000000E+00 0.  1.
         11    1    3    3    0    0 -0.18707932168E+01 -0.64045841963E+01  0.10422799205E+02  0.12375512495E+02  0.51100000000E-03 0. -1.
        -11    1    3    3    0    0 -0.14228365803E+02 -0.15380265242E+02 -0.48265957357E+01  0.21501045998E+02  0.51100000000E-03 0.  1.
        -12    1    3    3    0    0 -0.15323618870E+02 -0.10414520480E+01  0.64343741007E+01  0.16652299773E+02  0.00000000000E+00 0.  1.
</event>
<event>
 7    1  0.5155466E-011  0.5052885E+02  0.7816164E-02  0.1300439E+00
        -11   -1    0    0    0    0  0.00000000000E+00  0.00000000000E+00  0.45593999997E+02  0.45594000000E+02  0.51100000000E-03 0.  1.
         11   -1    0    0    0    0 -0.00000000000E+00 -0.00000000000E+00 -0.45593999997E+02  0.45594000000E+02  0.51100000000E-03 0. -1.
    9900012    2    1    2    0    0  0.28516433813E+02  0.26781224444E+02  0.11079039002E+02  0.50528854838E+02  0.29999984764E+02 0.  0.
        -12    1    1    2    0    0 -0.28516433813E+02 -0.26781224444E+02 -0.11079039002E+02  0.40659145162E+02  0.00000000000E+00 0.  1.
         11    1    3    3    0    0  0.14034171665E+02 -0.33365219062E+01  0.49822340600E+01  0.15261487779E+02  0.51100000000E-03 0.  1.
        -11    1    3    3    0    0 -0.13946297318E+01  0.25635224060E+01  0.20905649691E+00  0.29258065717E+01  0.51100000000E-03 0. -1.
         12    1    3    3    0    0  0.15876891880E+02  0.27554223945E+02  0.58877484446E+01  0.32341560486E+02  0.00000000000E+00 0. -1.
</event>
<event>
 7    1  0.5155466E-011  0.5052887E+02  0.7816164E-02  0.1300439E+00
        -11   -1    0    0    0    0  0.00000000000E+00  0.00000000000E+00  0.45593999997E+02  0.45594000000E+02  0.51100000000E-03 0. -1.
         11   -1    0    0    0    0 -0.00000000000E+00 -0.00000000000E+00 -0.45593999997E+02  0.45594000000E+02  0.51100000000E-03 0.  1.
    9900012    2    1    2    0    0 -0.35922170695E+02  0.10248796218E+02  0.16053804502E+02  0.50528870516E+02  0.30000032422E+02 0.  0.
        -12    1    1    2    0    0  0.35922170695E+02 -0.10248796218E+02 -0.16053804502E+02  0.40659129484E+02  0.00000000000E+00 0.  1.
         11    1    3    3    0    0 -0.25139045336E+02  0.10734197362E+02  0.19173976130E+02  0.33389159233E+02  0.51100000000E-03 0. -1.
        -11    1    3    3    0    0 -0.62900288276E+01 -0.58572268431E+01  0.15344983651E+01  0.87307648254E+01  0.51100000000E-03 0.  1.
        -12    1    3    3    0    0 -0.44930965318E+01  0.53718257000E+01 -0.46546699929E+01  0.84089464583E+01  0.00000000000E+00 0.  1.
</event>
<event>
 7    1  0.5155466E-011  0.5052885E+02  0.7816164E-02  0.1300439E+00
        -11   -1    0    0    0    0  0.00000000000E+00  0.00000000000E+00  0.45593999997E+02  0.45594000000E+02  0.51100000000E-03 0.  1.
         11   -1    0    0    0    0 -0.00000000000E+00 -0.00000000000E+00 -0.45593999997E+02  0.45594000000E+02  0.51100000000E-03 0. -1.
    9900012    2    1    2    0    0 -0.16068070341E+02 -0.36978435079E+02  0.52515358590E+01  0.50528853744E+02  0.29999981441E+02 0.  0.
        -12    1    1    2    0    0  0.16068070341E+02  0.36978435079E+02 -0.52515358590E+01  0.40659146256E+02  0.00000000000E+00 0.  1.
         11    1    3    3    0    0 -0.15277409239E+02 -0.24430257617E+02 -0.60897424977E+01  0.29450325707E+02  0.51100000000E-03 0. -1.
        -11    1    3    3    0    0 -0.25293553036E+01  0.36440095773E-01  0.73329867448E+01  0.77570394477E+01  0.51100000000E-03 0.  1.
        -12    1    3    3    0    0  0.17386942017E+01 -0.12584617558E+02  0.40082916119E+01  0.13321488590E+02  0.00000000000E+00 0.  1.
</event>
<event>
 7    1  0.5155466E-011  0.5052886E+02  0.7816164E-02  0.1300439E+00
        -11   -1    0    0    0    0  0.00000000000E+00  0.00000000000E+00  0.45593999997E+02  0.45594000000E+02  0.51100000000E-03 0.  1.
         11   -1    0    0    0    0 -0.00000000000E+00 -0.00000000000E+00 -0.45593999997E+02  0.45594000000E+02  0.51100000000E-03 0. -1.
    9900012    2    1    2    0    0  0.28210312271E+02  0.29241762719E+02  0.15043671669E+01  0.50528861717E+02  0.30000005675E+02 0.  0.
        -12    1    1    2    0    0 -0.28210312271E+02 -0.29241762719E+02 -0.15043671669E+01  0.40659138283E+02  0.00000000000E+00 0.  1.
         11    1    3    3    0    0  0.20676621648E+02  0.32683143763E+02  0.82568563746E+00  0.38683230554E+02  0.51100000000E-03 0. -1.
        -11    1    3    3    0    0  0.13954866315E+01 -0.31533668662E+01  0.36488687369E+01  0.50204928893E+01  0.51100000000E-03 0.  1.
        -12    1    3    3    0    0  0.61382039919E+01 -0.28801417851E+00 -0.29701872075E+01  0.68251382741E+01  0.00000000000E+00 0.  1.
</event>
<event>
 7    1  0.5155466E-011  0.5052886E+02  0.7816164E-02  0.1300439E+00
        -11   -1    0    0    0    0  0.00000000000E+00  0.00000000000E+00  0.45593999997E+02  0.45594000000E+02  0.51100000000E-03 0.  1.
         11   -1    0    0    0    0 -0.00000000000E+00 -0.00000000000E+00 -0.45593999997E+02  0.45594000000E+02  0.51100000000E-03 0. -1.
    9900012    2    1    2    0    0 -0.22175153772E+02  0.33232925785E+02  0.75499043991E+01  0.50528857640E+02  0.29999993281E+02 0.  0.
        -12    1    1    2    0    0  0.22175153772E+02 -0.33232925785E+02 -0.75499043991E+01  0.40659142360E+02  0.00000000000E+00 0.  1.
         11    1    3    3    0    0 -0.17578647838E+01 -0.14338100736E+01 -0.13502570945E+01  0.26399042421E+01  0.51100000000E-03 0. -1.
        -11    1    3    3    0    0 -0.20816200061E+01  0.21995442306E+02 -0.35223447442E+01  0.22372740932E+02  0.51100000000E-03 0.  1.
        -12    1    3    3    0    0 -0.18335668982E+02  0.12671293553E+02  0.12422506238E+02  0.25516212465E+02  0.00000000000E+00 0.  1.
</event>
<event>
 7    1  0.5155466E-011  0.5052886E+02  0.7816164E-02  0.1300439E+00
        -11   -1    0    0    0    0  0.00000000000E+00  0.00000000000E+00  0.45593999997E+02  0.45594000000E+02  0.51100000000E-03 0. -1.
         11   -1    0    0    0    0 -0.00000000000E+00 -0.00000000000E+00 -0.45593999997E+02  0.45594000000E+02  0.51100000000E-03 0.  1.
    9900012    2    1    2    0    0  0.78730717135E+01  0.37782363474E+02  0.12793506058E+02  0.50528855332E+02  0.29999986267E+02 0.  0.
        -12    1    1    2    0    0 -0.78730717135E+01 -0.37782363474E+02 -0.12793506058E+02  0.40659144668E+02  0.00000000000E+00 0.  1.
         11    1    3    3    0    0  0.20838072476E+01  0.15401735792E+02  0.12060291129E+02  0.19672476724E+02  0.51100000000E-03 0. -1.
        -11    1    3    3    0    0  0.10474451794E+02  0.23568454711E+02  0.19727868258E+01  0.25866543758E+02  0.51100000000E-03 0.  1.
        -12    1    3    3    0    0 -0.46851873279E+01 -0.11878270291E+01 -0.12395718972E+01  0.49898348507E+01  0.00000000000E+00 0.  1.
</event>
<event>
 7    1  0.5155466E-011  0.5052886E+02  0.7816164E-02  0.1300439E+00
        -11   -1    0    0    0    0  0.00000000000E+00  0.00000000000E+00  0.45593999997E+02  0.45594000000E+02  0.51100000000E-03 0.  1.
         11   -1    0    0    0    0 -0.00000000000E+00 -0.00000000000E+00 -0.45593999997E+02  0.45594000000E+02  0.51100000000E-03 0. -1.
    9900012    2    1    2    0    0 -0.36432034572E+02  0.10336575461E+02 -0.14799582990E+02  0.50528860905E+02  0.30000003206E+02 0.  0.
        -12    1    1    2    0    0  0.36432034572E+02 -0.10336575461E+02  0.14799582990E+02  0.40659139095E+02  0.00000000000E+00 0.  1.
         11    1    3    3    0    0 -0.20042287894E+02  0.13022442853E+02 -0.21663250169E+02  0.32257925073E+02  0.51100000000E-03 0. -1.
        -11    1    3    3    0    0 -0.13643425890E+02 -0.34508037219E+01  0.59256411360E+01  0.15269719692E+02  0.51100000000E-03 0.  1.
         12    1    3    3    0    0 -0.27463207872E+01  0.76493633019E+00  0.93802604327E+00  0.30012161391E+01  0.00000000000E+00 0. -1.
</event>
<event>
 7    1  0.5155466E-011  0.5052884E+02  0.7816164E-02  0.1300439E+00
        -11   -1    0    0    0    0  0.00000000000E+00  0.00000000000E+00  0.45593999997E+02  0.45594000000E+02  0.51100000000E-03 0.  1.
         11   -1    0    0    0    0 -0.00000000000E+00 -0.00000000000E+00 -0.45593999997E+02  0.45594000000E+02  0.51100000000E-03 0. -1.
    9900012    2    1    2    0    0 -0.40444233442E+02  0.41723714608E+01  0.14989428594E+00  0.50528841492E+02  0.29999944198E+02 0.  0.
        -12    1    1    2    0    0  0.40444233442E+02 -0.41723714608E+01 -0.14989428594E+00  0.40659158508E+02  0.00000000000E+00 0.  1.
         11    1    3    3    0    0 -0.27587337203E+02  0.47867936608E+01 -0.28177376661E+01  0.28140970369E+02  0.51100000000E-03 0. -1.
        -11    1    3    3    0    0 -0.57092444494E+01 -0.78024120967E+01  0.65035465836E+01  0.11652005198E+02  0.51100000000E-03 0.  1.
        -12    1    3    3    0    0 -0.71476517893E+01  0.71879898968E+01 -0.35359146316E+01  0.10735865924E+02  0.00000000000E+00 0.  1.
</event>
<event>
 7    1  0.5155466E-011  0.5052887E+02  0.7816164E-02  0.1300439E+00
        -11   -1    0    0    0    0  0.00000000000E+00  0.00000000000E+00  0.45593999997E+02  0.45594000000E+02  0.51100000000E-03 0. -1.
         11   -1    0    0    0    0 -0.00000000000E+00 -0.00000000000E+00 -0.45593999997E+02  0.45594000000E+02  0.51100000000E-03 0.  1.
    9900012    2    1    2    0    0  0.25326838182E+02  0.34604655591E+01  0.31618679840E+02  0.50528874714E+02  0.30000045182E+02 0.  0.
        -12    1    1    2    0    0 -0.25326838182E+02 -0.34604655591E+01 -0.31618679840E+02  0.40659125286E+02  0.00000000000E+00 0.  1.
         11    1    3    3    0    0  0.63845024032E+01 -0.11454091164E+02  0.72855166579E+01  0.15001227568E+02  0.51100000000E-03 0. -1.
        -11    1    3    3    0    0  0.15366939293E+02  0.67788397936E+01  0.13734628145E+02  0.21696439863E+02  0.51100000000E-03 0.  1.
         12    1    3    3    0    0  0.35753964855E+01  0.81357169292E+01  0.10598535036E+02  0.13831207283E+02  0.00000000000E+00 0. -1.
</event>
<event>
 7    1  0.5155466E-011  0.5052887E+02  0.7816164E-02  0.1300439E+00
        -11   -1    0    0    0    0  0.00000000000E+00  0.00000000000E+00  0.45593999997E+02  0.45594000000E+02  0.51100000000E-03 0. -1.
         11   -1    0    0    0    0 -0.00000000000E+00 -0.00000000000E+00 -0.45593999997E+02  0.45594000000E+02  0.51100000000E-03 0.  1.
    9900012    2    1    2    0    0  0.24888292457E+02  0.21864437195E+02 -0.23572961846E+02  0.50528865165E+02  0.30000016156E+02 0.  0.
        -12    1    1    2    0    0 -0.24888292457E+02 -0.21864437195E+02  0.23572961846E+02  0.40659134835E+02  0.00000000000E+00 0.  1.
         11    1    3    3    0    0  0.13851889606E+02  0.44948416217E+01 -0.43816563274E+01  0.15207805867E+02  0.51100000000E-03 0. -1.
        -11    1    3    3    0    0 -0.34098952884E+01 -0.87390029980E+00 -0.94672197421E+01  0.10100462243E+02  0.51100000000E-03 0.  1.
        -12    1    3    3    0    0  0.14446298140E+02  0.18243495873E+02 -0.97240857767E+01  0.25220597055E+02  0.00000000000E+00 0.  1.
</event>
<event>
 7    1  0.5155466E-011  0.5052886E+02  0.7816164E-02  0.1300439E+00
        -11   -1    0    0    0    0  0.00000000000E+00  0.00000000000E+00  0.45593999997E+02  0.45594000000E+02  0.51100000000E-03 0.  1.
         11   -1    0    0    0    0 -0.00000000000E+00 -0.00000000000E+00 -0.45593999997E+02  0.45594000000E+02  0.51100000000E-03 0. -1.
    9900012    2    1    2    0    0  0.51223982037E+01 -0.37941348921E+02 -0.13688707414E+02  0.50528860413E+02  0.30000001712E+02 0.  0.
        -12    1    1    2    0    0 -0.51223982037E+01  0.37941348921E+02  0.13688707414E+02  0.40659139587E+02  0.00000000000E+00 0.  1.
         11    1    3    3    0    0  0.11663879210E+02 -0.73087141369E+01 -0.87970548926E+01  0.16335591682E+02  0.51100000000E-03 0. -1.
        -11    1    3    3    0    0 -0.96666358178E-01 -0.24813695001E+02 -0.57391592570E+01  0.25468937026E+02  0.51100000000E-03 0.  1.
        -12    1    3    3    0    0 -0.64448146477E+01 -0.58189397827E+01  0.84750673575E+00  0.87243317054E+01  0.00000000000E+00 0.  1.
</event>
<event>
 7    1  0.5155466E-011  0.5052888E+02  0.7816164E-02  0.1300439E+00
        -11   -1    0    0    0    0  0.00000000000E+00  0.00000000000E+00  0.45593999997E+02  0.45594000000E+02  0.51100000000E-03 0.  1.
         11   -1    0    0    0    0 -0.00000000000E+00 -0.00000000000E+00 -0.45593999997E+02  0.45594000000E+02  0.51100000000E-03 0. -1.
    9900012    2    1    2    0    0  0.17908043614E+02  0.25246379399E+02  0.26364486961E+02  0.50528882061E+02  0.30000067512E+02 0.  0.
        -12    1    1    2    0    0 -0.17908043614E+02 -0.25246379399E+02 -0.26364486961E+02  0.40659117939E+02  0.00000000000E+00 0.  1.
         11    1    3    3    0    0  0.69611886066E+01  0.26120491934E+01  0.20353022827E+02  0.21668559856E+02  0.51100000000E-03 0. -1.
        -11    1    3    3    0    0  0.30471880491E+00  0.14878747672E+02  0.47981328760E+01  0.15636242042E+02  0.51100000000E-03 0.  1.
         12    1    3    3    0    0  0.10642136203E+02  0.77555825342E+01  0.12133312587E+01  0.13224080163E+02  0.00000000000E+00 0. -1.
</event>
<event>
 7    1  0.5155466E-011  0.5052893E+02  0.7816164E-02  0.1300439E+00
        -11   -1    0    0    0    0  0.00000000000E+00  0.00000000000E+00  0.45593999997E+02  0.45594000000E+02  0.51100000000E-03 0.  1.
         11   -1    0    0    0    0 -0.00000000000E+00 -0.00000000000E+00 -0.45593999997E+02  0.45594000000E+02  0.51100000000E-03 0. -1.
    9900012    2    1    2    0    0 -0.16273861233E+02 -0.36201404816E+02 -0.88192791053E+01  0.50528930236E+02  0.30000213946E+02 0.  0.
        -12    1    1    2    0    0  0.16273861233E+02  0.36201404816E+02  0.88192791053E+01  0.40659069764E+02  0.00000000000E+00 0.  1.
         11    1    3    3    0    0 -0.11869157368E+02 -0.38275827586E+01  0.19904276639E+01  0.12628898960E+02  0.51100000000E-03 0. -1.
        -11    1    3    3    0    0 -0.41637024354E+01 -0.34214096665E+02 -0.10368647165E+02  0.35992355756E+02  0.51100000000E-03 0.  1.
         12    1    3    3    0    0 -0.24100143014E+00  0.18402746071E+01 -0.44105960400E+00  0.19076755209E+01  0.00000000000E+00 0. -1.
</event>
<event>
 7    1  0.5155466E-011  0.5052887E+02  0.7816164E-02  0.1300439E+00
        -11   -1    0    0    0    0  0.00000000000E+00  0.00000000000E+00  0.45593999997E+02  0.45594000000E+02  0.51100000000E-03 0. -1.
         11   -1    0    0    0    0 -0.00000000000E+00 -0.00000000000E+00 -0.45593999997E+02  0.45594000000E+02  0.51100000000E-03 0.  1.
    9900012    2    1    2    0    0 -0.24578878138E+02 -0.31985206456E+02 -0.50980791236E+01  0.50528867037E+02  0.30000021845E+02 0.  0.
        -12    1    1    2    0    0  0.24578878138E+02  0.31985206456E+02  0.50980791236E+01  0.40659132963E+02  0.00000000000E+00 0.  1.
         11    1    3    3    0    0 -0.12533325026E+02  0.14590707685E+01  0.38600643782E+01  0.13195196890E+02  0.51100000000E-03 0. -1.
        -11    1    3    3    0    0 -0.73209677145E+00 -0.11663282862E+02 -0.33543461547E+01  0.12158115445E+02  0.51100000000E-03 0.  1.
        -12    1    3    3    0    0 -0.11313456341E+02 -0.21780994363E+02 -0.56037973471E+01  0.25175554701E+02  0.00000000000E+00 0.  1.
</event>
<event>
 7    1  0.5155466E-011  0.5052887E+02  0.7816164E-02  0.1300439E+00
        -11   -1    0    0    0    0  0.00000000000E+00  0.00000000000E+00  0.45593999997E+02  0.45594000000E+02  0.51100000000E-03 0. -1.
         11   -1    0    0    0    0 -0.00000000000E+00 -0.00000000000E+00 -0.45593999997E+02  0.45594000000E+02  0.51100000000E-03 0.  1.
    9900012    2    1    2    0    0 -0.32010510453E+02  0.15927062945E+02  0.19360291333E+02  0.50528868258E+02  0.30000025556E+02 0.  0.
        -12    1    1    2    0    0  0.32010510453E+02 -0.15927062945E+02 -0.19360291333E+02  0.40659131742E+02  0.00000000000E+00 0.  1.
         11    1    3    3    0    0 -0.29930371708E+02  0.15964746963E+02  0.13732397936E+02  0.36596161677E+02  0.51100000000E-03 0. -1.
        -11    1    3    3    0    0  0.20494588029E+01 -0.19703010452E+01  0.82131835098E+01  0.86913031946E+01  0.51100000000E-03 0.  1.
         12    1    3    3    0    0 -0.41295975483E+01  0.19326170281E+01 -0.25852901130E+01  0.52414033861E+01  0.00000000000E+00 0. -1.
</event>
<event>
 7    1  0.5155466E-011  0.5052887E+02  0.7816164E-02  0.1300439E+00
        -11   -1    0    0    0    0  0.00000000000E+00  0.00000000000E+00  0.45593999997E+02  0.45594000000E+02  0.51100000000E-03 0.  1.
         11   -1    0    0    0    0 -0.00000000000E+00 -0.00000000000E+00 -0.45593999997E+02  0.45594000000E+02  0.51100000000E-03 0. -1.
    9900012    2    1    2    0    0 -0.15775866082E+02 -0.81535850315E+00 -0.37464942954E+02  0.50528871742E+02  0.30000036147E+02 0.  0.
        -12    1    1    2    0    0  0.15775866082E+02  0.81535850315E+00  0.37464942954E+02  0.40659128258E+02  0.00000000000E+00 0.  1.
         11    1    3    3    0    0 -0.87435644912E+01 -0.86886396236E+01 -0.18025210531E+02  0.21836908972E+02  0.51100000000E-03 0. -1.
        -11    1    3    3    0    0  0.13308157092E+01 -0.15716383405E+01  0.25880841440E+01  0.33074608573E+01  0.51100000000E-03 0.  1.
         12    1    3    3    0    0 -0.83631173004E+01  0.94449194609E+01 -0.22027816568E+02  0.25384501912E+02  0.00000000000E+00 0. -1.
</event>
<event>
 7    1  0.5155466E-011  0.5052887E+02  0.7816164E-02  0.1300439E+00
        -11   -1    0    0    0    0  0.00000000000E+00  0.00000000000E+00  0.45593999997E+02  0.45594000000E+02  0.51100000000E-03 0. -1.
         11   -1    0    0    0    0 -0.00000000000E+00 -0.00000000000E+00 -0.45593999997E+02  0.45594000000E+02  0.51100000000E-03 0.  1.
    9900012    2    1    2    0    0 -0.39401536199E+02 -0.68400444706E+01 -0.73415241833E+01  0.50528865226E+02  0.30000016341E+02 0.  0.
        -12    1    1    2    0    0  0.39401536199E+02  0.68400444706E+01  0.73415241833E+01  0.40659134774E+02  0.00000000000E+00 0.  1.
         11    1    3    3    0    0 -0.14779953290E+02 -0.95545298834E+01 -0.27707218280E+01  0.17816087120E+02  0.51100000000E-03 0. -1.
        -11    1    3    3    0    0 -0.48187175078E+01  0.41927765202E+01  0.72027164589E+01  0.96269693059E+01  0.51100000000E-03 0.  1.
        -12    1    3    3    0    0 -0.19802865401E+02 -0.14782911073E+01 -0.11773518814E+02  0.23085808800E+02  0.00000000000E+00 0.  1.
</event>
<event>
 7    1  0.5155466E-011  0.5052887E+02  0.7816164E-02  0.1300439E+00
        -11   -1    0    0    0    0  0.00000000000E+00  0.00000000000E+00  0.45593999997E+02  0.45594000000E+02  0.51100000000E-03 0.  1.
         11   -1    0    0    0    0 -0.00000000000E+00 -0.00000000000E+00 -0.45593999997E+02  0.45594000000E+02  0.51100000000E-03 0. -1.
    9900012    2    1    2    0    0  0.70731932888E+01  0.91623348974E+01 -0.38976745498E+02  0.50528866540E+02  0.30000020335E+02 0.  0.
        -12    1    1    2    0    0 -0.70731932888E+01 -0.91623348974E+01  0.38976745498E+02  0.40659133460E+02  0.00000000000E+00 0.  1.
         11    1    3    3    0    0  0.38848523839E+01 -0.46661590151E+01 -0.63103755019E+01  0.87570518575E+01  0.51100000000E-03 0. -1.
        -11    1    3    3    0    0 -0.32520503038E+01  0.11032289825E+02 -0.32790860712E+02  0.34749500665E+02  0.51100000000E-03 0.  1.
        -12    1    3    3    0    0  0.64403912087E+01  0.27962040879E+01  0.12449071609E+00  0.70223140176E+01  0.00000000000E+00 0.  1.
</event>
<event>
 7    1  0.5155466E-011  0.5052886E+02  0.7816164E-02  0.1300439E+00
        -11   -1    0    0    0    0  0.00000000000E+00  0.00000000000E+00  0.45593999997E+02  0.45594000000E+02  0.51100000000E-03 0.  1.
         11   -1    0    0    0    0 -0.00000000000E+00 -0.00000000000E+00 -0.45593999997E+02  0.45594000000E+02  0.51100000000E-03 0. -1.
    9900012    2    1    2    0    0  0.62052882573E+01 -0.38509960614E+01 -0.39997869822E+02  0.50528863717E+02  0.30000011753E+02 0.  0.
        -12    1    1    2    0    0 -0.62052882573E+01  0.38509960614E+01  0.39997869822E+02  0.40659136283E+02  0.00000000000E+00 0.  1.
         11    1    3    3    0    0  0.97561313988E+01 -0.52353237780E+01 -0.27927295527E+02  0.30042046379E+02  0.51100000000E-03 0. -1.
        -11    1    3    3    0    0 -0.82171878203E+01 -0.29886493304E+01 -0.27173775897E+01  0.91563279605E+01  0.51100000000E-03 0.  1.
        -12    1    3    3    0    0  0.46663446789E+01  0.43729770471E+01 -0.93531967053E+01  0.11330489377E+02  0.00000000000E+00 0.  1.
</event>
<event>
 7    1  0.5155466E-011  0.5052887E+02  0.7816164E-02  0.1300439E+00
        -11   -1    0    0    0    0  0.00000000000E+00  0.00000000000E+00  0.45593999997E+02  0.45594000000E+02  0.51100000000E-03 0. -1.
         11   -1    0    0    0    0 -0.00000000000E+00 -0.00000000000E+00 -0.45593999997E+02  0.45594000000E+02  0.51100000000E-03 0.  1.
    9900012    2    1    2    0    0  0.10217094231E+02  0.38450625214E+02  0.83860252815E+01  0.50528868014E+02  0.30000024815E+02 0.  0.
        -12    1    1    2    0    0 -0.10217094231E+02 -0.38450625214E+02 -0.83860252815E+01  0.40659131986E+02  0.00000000000E+00 0.  1.
         11    1    3    3    0    0 -0.47943714533E+01  0.56956124380E+00  0.66236792955E+01  0.81965556982E+01  0.51100000000E-03 0.  1.
        -11    1    3    3    0    0  0.14463817833E+02  0.35436917128E+02 -0.13970342031E+01  0.38300506872E+02  0.51100000000E-03 0. -1.
         12    1    3    3    0    0  0.54764785177E+00  0.24441468418E+01  0.31593801891E+01  0.40318054434E+01  0.00000000000E+00 0. -1.
</event>
<event>
 7    1  0.5155466E-011  0.5052886E+02  0.7816164E-02  0.1300439E+00
        -11   -1    0    0    0    0  0.00000000000E+00  0.00000000000E+00  0.45593999997E+02  0.45594000000E+02  0.51100000000E-03 0. -1.
         11   -1    0    0    0    0 -0.00000000000E+00 -0.00000000000E+00 -0.45593999997E+02  0.45594000000E+02  0.51100000000E-03 0.  1.
    9900012    2    1    2    0    0  0.65860846074E+01  0.37442108358E+02 -0.14417969908E+02  0.50528857793E+02  0.29999993747E+02 0.  0.
        -12    1    1    2    0    0 -0.65860846074E+01 -0.37442108358E+02  0.14417969908E+02  0.40659142207E+02  0.00000000000E+00 0.  1.
         11    1    3    3    0    0  0.10348548081E+02  0.30534862934E+02 -0.10679545182E+02  0.33963553809E+02  0.51100000000E-03 0. -1.
        -11    1    3    3    0    0 -0.60372179811E+01  0.19713242267E+01 -0.75955459784E+01  0.99008302243E+01  0.51100000000E-03 0.  1.
         12    1    3    3    0    0  0.22747545078E+01  0.49359211968E+01  0.38571212522E+01  0.66644737592E+01  0.00000000000E+00 0. -1.
</event>
<event>
 7    1  0.5155466E-011  0.5052887E+02  0.7816164E-02  0.1300439E+00
        -11   -1    0    0    0    0  0.00000000000E+00  0.00000000000E+00  0.45593999997E+02  0.45594000000E+02  0.51100000000E-03 0.  1.
         11   -1    0    0    0    0 -0.00000000000E+00 -0.00000000000E+00 -0.45593999997E+02  0.45594000000E+02  0.51100000000E-03 0. -1.
    9900012    2    1    2    0    0 -0.26799559084E+02  0.20320180453E+02 -0.22848173061E+02  0.50528866795E+02  0.30000021111E+02 0.  0.
        -12    1    1    2    0    0  0.26799559084E+02 -0.20320180453E+02  0.22848173061E+02  0.40659133205E+02  0.00000000000E+00 0.  1.
         11    1    3    3    0    0 -0.25943477082E+01  0.38892096889E+01 -0.43601779040E+01  0.63927884097E+01  0.51100000000E-03 0. -1.
        -11    1    3    3    0    0 -0.27846024978E+02  0.13168726786E+02 -0.22224174195E+02  0.37983290947E+02  0.51100000000E-03 0.  1.
        -12    1    3    3    0    0  0.36408136021E+01  0.32622439788E+01  0.37361790382E+01  0.61527874388E+01  0.00000000000E+00 0.  1.
</event>
<event>
 7    1  0.5155466E-011  0.5052886E+02  0.7816164E-02  0.1300439E+00
        -11   -1    0    0    0    0  0.00000000000E+00  0.00000000000E+00  0.45593999997E+02  0.45594000000E+02  0.51100000000E-03 0. -1.
         11   -1    0    0    0    0 -0.00000000000E+00 -0.00000000000E+00 -0.45593999997E+02  0.45594000000E+02  0.51100000000E-03 0.  1.
    9900012    2    1    2    0    0 -0.23772098076E+02  0.32596198633E+02 -0.50538004395E+01  0.50528859439E+02  0.29999998751E+02 0.  0.
        -12    1    1    2    0    0  0.23772098076E+02 -0.32596198633E+02  0.50538004395E+01  0.40659140561E+02  0.00000000000E+00 0.  1.
         11    1    3    3    0    0  0.29801978297E+01  0.92481938563E+01  0.53400698983E+01  0.11087245622E+02  0.51100000000E-03 0. -1.
        -11    1    3    3    0    0 -0.20351377131E+02  0.23998289460E+02 -0.72950574241E+01  0.32300376333E+02  0.51100000000E-03 0.  1.
        -12    1    3    3    0    0 -0.64009187748E+01 -0.65028468364E+00 -0.30988129137E+01  0.71412374842E+01  0.00000000000E+00 0.  1.
</event>
<event>
 7    1  0.5155466E-011  0.5052886E+02  0.7816164E-02  0.1300439E+00
        -11   -1    0    0    0    0  0.00000000000E+00  0.00000000000E+00  0.45593999997E+02  0.45594000000E+02  0.51100000000E-03 0.  1.
         11   -1    0    0    0    0 -0.00000000000E+00 -0.00000000000E+00 -0.45593999997E+02  0.45594000000E+02  0.51100000000E-03 0. -1.
    9900012    2    1    2    0    0 -0.12420659879E+02 -0.38689206258E+02  0.14276808446E+01  0.50528859019E+02  0.29999997473E+02 0.  0.
        -12    1    1    2    0    0  0.12420659879E+02  0.38689206258E+02 -0.14276808446E+01  0.40659140981E+02  0.00000000000E+00 0.  1.
         11    1    3    3    0    0 -0.60017498402E+01 -0.33920033687E+02  0.41116074145E+01  0.34691425487E+02  0.51100000000E-03 0. -1.
        -11    1    3    3    0    0  0.33036649373E+01  0.17334143037E+01  0.36870327163E+00  0.37489824660E+01  0.51100000000E-03 0.  1.
         12    1    3    3    0    0 -0.97225749762E+01 -0.65025868747E+01 -0.30526298415E+01  0.12088451066E+02  0.00000000000E+00 0. -1.
</event>
<event>
 7    1  0.5155466E-011  0.5052888E+02  0.7816164E-02  0.1300439E+00
        -11   -1    0    0    0    0  0.00000000000E+00  0.00000000000E+00  0.45593999997E+02  0.45594000000E+02  0.51100000000E-03 0.  1.
         11   -1    0    0    0    0 -0.00000000000E+00 -0.00000000000E+00 -0.45593999997E+02  0.45594000000E+02  0.51100000000E-03 0. -1.
    9900012    2    1    2    0    0 -0.35283621676E+02 -0.19667874992E+02  0.46265703493E+01  0.50528875336E+02  0.30000047070E+02 0.  0.
        -12    1    1    2    0    0  0.35283621676E+02  0.19667874992E+02 -0.46265703493E+01  0.40659124664E+02  0.00000000000E+00 0.  1.
         11    1    3    3    0    0 -0.22280516786E+02 -0.14133804087E+02 -0.70075878299E+01  0.27300039078E+02  0.51100000000E-03 0. -1.
        -11    1    3    3    0    0 -0.14669346389E+02 -0.48095052825E+00  0.95707513188E+01  0.17521995262E+02  0.51100000000E-03 0.  1.
         12    1    3    3    0    0  0.16662414990E+01 -0.50531203765E+01  0.20634068603E+01  0.57068409951E+01  0.00000000000E+00 0. -1.
</event>
<event>
 7    1  0.5155466E-011  0.5052888E+02  0.7816164E-02  0.1300439E+00
        -11   -1    0    0    0    0  0.00000000000E+00  0.00000000000E+00  0.45593999997E+02  0.45594000000E+02  0.51100000000E-03 0. -1.
         11   -1    0    0    0    0 -0.00000000000E+00 -0.00000000000E+00 -0.45593999997E+02  0.45594000000E+02  0.51100000000E-03 0.  1.
    9900012    2    1    2    0    0  0.74723729807E+01 -0.49483127893E+01  0.39659074561E+02  0.50528876147E+02  0.30000049537E+02 0.  0.
        -12    1    1    2    0    0 -0.74723729807E+01  0.49483127893E+01 -0.39659074561E+02  0.40659123853E+02  0.00000000000E+00 0.  1.
         11    1    3    3    0    0 -0.43752583654E+00 -0.18782495649E+01 -0.26564084437E+01  0.32826447213E+01  0.51100000000E-03 0. -1.
        -11    1    3    3    0    0 -0.52521216330E+01 -0.36676754717E+01  0.22923281937E+02  0.23801543648E+02  0.51100000000E-03 0.  1.
         12    1    3    3    0    0  0.13162020450E+02  0.59761224725E+00  0.19392201068E+02  0.23444687778E+02  0.00000000000E+00 0. -1.
</event>
<event>
 7    1  0.5155466E-011  0.5052885E+02  0.7816164E-02  0.1300439E+00
        -11   -1    0    0    0    0  0.00000000000E+00  0.00000000000E+00  0.45593999997E+02  0.45594000000E+02  0.51100000000E-03 0. -1.
         11   -1    0    0    0    0 -0.00000000000E+00 -0.00000000000E+00 -0.45593999997E+02  0.45594000000E+02  0.51100000000E-03 0.  1.
    9900012    2    1    2    0    0  0.24604771962E+02  0.49547322990E+01  0.31987840663E+02  0.50528854340E+02  0.29999983253E+02 0.  0.
        -12    1    1    2    0    0 -0.24604771962E+02 -0.49547322990E+01 -0.31987840663E+02  0.40659145660E+02  0.00000000000E+00 0.  1.
         11    1    3    3    0    0 -0.23911188825E+01  0.90316487615E+00  0.12625900263E+02  0.12882022901E+02  0.51100000000E-03 0. -1.
        -11    1    3    3    0    0  0.23921891291E+02  0.73240919104E+01  0.21202862049E+02  0.32794215414E+02  0.51100000000E-03 0.  1.
        -12    1    3    3    0    0  0.30739995537E+01 -0.32725244875E+01 -0.18409216490E+01  0.48526160260E+01  0.00000000000E+00 0.  1.
</event>
<event>
 7    1  0.5155466E-011  0.5052885E+02  0.7816164E-02  0.1300439E+00
        -11   -1    0    0    0    0  0.00000000000E+00  0.00000000000E+00  0.45593999997E+02  0.45594000000E+02  0.51100000000E-03 0.  1.
         11   -1    0    0    0    0 -0.00000000000E+00 -0.00000000000E+00 -0.45593999997E+02  0.45594000000E+02  0.51100000000E-03 0. -1.
    9900012    2    1    2    0    0  0.37708263664E+02  0.45052250922E+01 -0.14524336057E+02  0.50528849252E+02  0.29999967786E+02 0.  0.
        -12    1    1    2    0    0 -0.37708263664E+02 -0.45052250922E+01  0.14524336057E+02  0.40659150748E+02  0.00000000000E+00 0.  1.
         11    1    3    3    0    0  0.24944545829E+02  0.64621252443E+00 -0.16243328837E+02  0.29774043884E+02  0.51100000000E-03 0. -1.
        -11    1    3    3    0    0  0.44300560858E+01 -0.40079164776E+01  0.60509434091E+01  0.85030998945E+01  0.51100000000E-03 0.  1.
        -12    1    3    3    0    0  0.83336617488E+01  0.78669290453E+01 -0.43319506294E+01  0.12251705473E+02  0.00000000000E+00 0.  1.
</event>
<event>
 7    1  0.5155466E-011  0.5052885E+02  0.7816164E-02  0.1300439E+00
        -11   -1    0    0    0    0  0.00000000000E+00  0.00000000000E+00  0.45593999997E+02  0.45594000000E+02  0.51100000000E-03 0.  1.
         11   -1    0    0    0    0 -0.00000000000E+00 -0.00000000000E+00 -0.45593999997E+02  0.45594000000E+02  0.51100000000E-03 0. -1.
    9900012    2    1    2    0    0  0.24420838956E+02 -0.56041881092E+00 -0.32503460251E+02  0.50528851302E+02  0.29999974017E+02 0.  0.
        -12    1    1    2    0    0 -0.24420838956E+02  0.56041881092E+00  0.32503460251E+02  0.40659148698E+02  0.00000000000E+00 0.  1.
         11    1    3    3    0    0  0.93158166977E+01  0.44363986868E+01 -0.22571963549E+02  0.24818533655E+02  0.51100000000E-03 0. -1.
        -11    1    3    3    0    0  0.40899495081E+01 -0.83944622912E+01  0.15213178018E+01  0.94609244925E+01  0.51100000000E-03 0.  1.
        -12    1    3    3    0    0  0.11015072750E+02  0.33976447935E+01 -0.11452814504E+02  0.16249393155E+02  0.00000000000E+00 0.  1.
</event>
<event>
 7    1  0.5155466E-011  0.5052887E+02  0.7816164E-02  0.1300439E+00
        -11   -1    0    0    0    0  0.00000000000E+00  0.00000000000E+00  0.45593999997E+02  0.45594000000E+02  0.51100000000E-03 0. -1.
         11   -1    0    0    0    0 -0.00000000000E+00 -0.00000000000E+00 -0.45593999997E+02  0.45594000000E+02  0.51100000000E-03 0.  1.
    9900012    2    1    2    0    0 -0.38304211296E+02  0.10951434591E+02  0.81251695081E+01  0.50528869388E+02  0.30000028992E+02 0.  0.
        -12    1    1    2    0    0  0.38304211296E+02 -0.10951434591E+02 -0.81251695081E+01  0.40659130612E+02  0.00000000000E+00 0.  1.
         11    1    3    3    0    0 -0.25564924671E+02  0.17832356379E+01  0.37687441183E+01  0.25902678149E+02  0.51100000000E-03 0. -1.
        -11    1    3    3    0    0  0.71403896784E+00  0.84592337779E+01  0.68710411740E+01  0.10921524382E+02  0.51100000000E-03 0.  1.
        -12    1    3    3    0    0 -0.13453325593E+02  0.70896517502E+00 -0.25146157842E+01  0.13704666857E+02  0.00000000000E+00 0.  1.
</event>
<event>
 7    1  0.5155466E-011  0.5052886E+02  0.7816164E-02  0.1300439E+00
        -11   -1    0    0    0    0  0.00000000000E+00  0.00000000000E+00  0.45593999997E+02  0.45594000000E+02  0.51100000000E-03 0.  1.
         11   -1    0    0    0    0 -0.00000000000E+00 -0.00000000000E+00 -0.45593999997E+02  0.45594000000E+02  0.51100000000E-03 0. -1.
    9900012    2    1    2    0    0 -0.31619897027E+01  0.23001053628E+02 -0.33378426861E+02  0.50528855559E+02  0.29999986958E+02 0.  0.
        -12    1    1    2    0    0  0.31619897027E+01 -0.23001053628E+02  0.33378426861E+02  0.40659144441E+02  0.00000000000E+00 0.  1.
         11    1    3    3    0    0 -0.10198543308E+00  0.86133470667E+01 -0.15233852164E+02  0.17500582869E+02  0.51100000000E-03 0. -1.
        -11    1    3    3    0    0 -0.38564295758E+01 -0.59896831269E+01 -0.36137543326E+01  0.79879643008E+01  0.51100000000E-03 0.  1.
        -12    1    3    3    0    0  0.79642530616E+00  0.20377389689E+02 -0.14530820365E+02  0.25040308390E+02  0.00000000000E+00 0.  1.
</event>
<event>
 7    1  0.5155466E-011  0.5052886E+02  0.7816164E-02  0.1300439E+00
        -11   -1    0    0    0    0  0.00000000000E+00  0.00000000000E+00  0.45593999997E+02  0.45594000000E+02  0.51100000000E-03 0.  1.
         11   -1    0    0    0    0 -0.00000000000E+00 -0.00000000000E+00 -0.45593999997E+02  0.45594000000E+02  0.51100000000E-03 0. -1.
    9900012    2    1    2    0    0  0.69708051372E+01  0.16965320972E+02 -0.36287067411E+02  0.50528862020E+02  0.30000006597E+02 0.  0.
        -12    1    1    2    0    0 -0.69708051372E+01 -0.16965320972E+02  0.36287067411E+02  0.40659137980E+02  0.00000000000E+00 0.  1.
         11    1    3    3    0    0 -0.65775577995E+01  0.12867069683E+02 -0.62479675059E+01  0.15743660535E+02  0.51100000000E-03 0. -1.
        -11    1    3    3    0    0  0.13350732645E+02  0.41265166261E-02 -0.24401495668E+02  0.27815015195E+02  0.51100000000E-03 0.  1.
         12    1    3    3    0    0  0.19763029132E+00  0.40941247718E+01 -0.56376042372E+01  0.69701862898E+01  0.00000000000E+00 0. -1.
</event>
<event>
 7    1  0.5155466E-011  0.5052885E+02  0.7816164E-02  0.1300439E+00
        -11   -1    0    0    0    0  0.00000000000E+00  0.00000000000E+00  0.45593999997E+02  0.45594000000E+02  0.51100000000E-03 0. -1.
         11   -1    0    0    0    0 -0.00000000000E+00 -0.00000000000E+00 -0.45593999997E+02  0.45594000000E+02  0.51100000000E-03 0.  1.
    9900012    2    1    2    0    0  0.22799795120E+02 -0.32707297259E+02 -0.79729881815E+01  0.50528849836E+02  0.29999969562E+02 0.  0.
        -12    1    1    2    0    0 -0.22799795120E+02  0.32707297259E+02  0.79729881815E+01  0.40659150164E+02  0.00000000000E+00 0.  1.
         11    1    3    3    0    0  0.93856893408E+01 -0.38032967901E+01 -0.33361785287E+01  0.10662378642E+02  0.51100000000E-03 0. -1.
        -11    1    3    3    0    0  0.18515976316E+01 -0.21118520978E+02 -0.11727681444E+02  0.24227233734E+02  0.51100000000E-03 0.  1.
        -12    1    3    3    0    0  0.11562508147E+02 -0.77854794911E+01  0.70908717916E+01  0.15639237460E+02  0.00000000000E+00 0.  1.
</event>
<event>
 7    1  0.5155466E-011  0.5052885E+02  0.7816164E-02  0.1300439E+00
        -11   -1    0    0    0    0  0.00000000000E+00  0.00000000000E+00  0.45593999997E+02  0.45594000000E+02  0.51100000000E-03 0.  1.
         11   -1    0    0    0    0 -0.00000000000E+00 -0.00000000000E+00 -0.45593999997E+02  0.45594000000E+02  0.51100000000E-03 0. -1.
    9900012    2    1    2    0    0  0.30082597657E+02  0.12027079269E+00 -0.27353044988E+02  0.50528853219E+02  0.29999979843E+02 0.  0.
        -12    1    1    2    0    0 -0.30082597657E+02 -0.12027079269E+00  0.27353044988E+02  0.40659146781E+02  0.00000000000E+00 0.  1.
         11    1    3    3    0    0  0.18973731362E+02 -0.79501708035E+01 -0.18533899751E+02  0.27689585368E+02  0.51100000000E-03 0. -1.
        -11    1    3    3    0    0  0.84171963433E+01  0.12689939077E+02 -0.42587796086E+01  0.15812050850E+02  0.51100000000E-03 0.  1.
        -12    1    3    3    0    0  0.26916699519E+01 -0.46194974811E+01 -0.45603656287E+01  0.70272170007E+01  0.00000000000E+00 0.  1.
</event>
<event>
 7    1  0.5155466E-011  0.5052886E+02  0.7816164E-02  0.1300439E+00
        -11   -1    0    0    0    0  0.00000000000E+00  0.00000000000E+00  0.45593999997E+02  0.45594000000E+02  0.51100000000E-03 0.  1.
         11   -1    0    0    0    0 -0.00000000000E+00 -0.00000000000E+00 -0.45593999997E+02  0.45594000000E+02  0.51100000000E-03 0. -1.
    9900012    2    1    2    0    0 -0.83121389148E+01 -0.36196729078E+02 -0.16549036478E+02  0.50528862556E+02  0.30000008226E+02 0.  0.
        -12    1    1    2    0    0  0.83121389148E+01  0.36196729078E+02  0.16549036478E+02  0.40659137444E+02  0.00000000000E+00 0.  1.
         11    1    3    3    0    0  0.37343461494E+01 -0.23469870985E+02 -0.10564864419E+01  0.23788576021E+02  0.51100000000E-03 0. -1.
        -11    1    3    3    0    0 -0.62805994967E+01 -0.43993922022E+01 -0.14700896273E+02  0.16580619207E+02  0.51100000000E-03 0.  1.
         12    1    3    3    0    0 -0.57658855676E+01 -0.83274658909E+01 -0.79165376309E+00  0.10159667328E+02  0.00000000000E+00 0. -1.
</event>
<event>
 7    1  0.5155466E-011  0.5052885E+02  0.7816164E-02  0.1300439E+00
        -11   -1    0    0    0    0  0.00000000000E+00  0.00000000000E+00  0.45593999997E+02  0.45594000000E+02  0.51100000000E-03 0. -1.
         11   -1    0    0    0    0 -0.00000000000E+00 -0.00000000000E+00 -0.45593999997E+02  0.45594000000E+02  0.51100000000E-03 0.  1.
    9900012    2    1    2    0    0  0.21415141753E+01  0.22619435584E+02  0.33718567648E+02  0.50528846623E+02  0.29999959794E+02 0.  0.
        -12    1    1    2    0    0 -0.21415141753E+01 -0.22619435584E+02 -0.33718567648E+02  0.40659153377E+02  0.00000000000E+00 0.  1.
         11    1    3    3    0    0 -0.43026039234E+01  0.19363262038E+02  0.89004640746E+01  0.21740896446E+02  0.51100000000E-03 0. -1.
        -11    1    3    3    0    0 -0.10761560050E+01 -0.22441747588E+01  0.15179983856E+02  0.15382663691E+02  0.51100000000E-03 0.  1.
         12    1    3    3    0    0  0.75202741037E+01  0.55003483048E+01  0.96381197177E+01  0.13405286486E+02  0.00000000000E+00 0. -1.
</event>
<event>
 7    1  0.5155466E-011  0.5052886E+02  0.7816164E-02  0.1300439E+00
        -11   -1    0    0    0    0  0.00000000000E+00  0.00000000000E+00  0.45593999997E+02  0.45594000000E+02  0.51100000000E-03 0. -1.
         11   -1    0    0    0    0 -0.00000000000E+00 -0.00000000000E+00 -0.45593999997E+02  0.45594000000E+02  0.51100000000E-03 0.  1.
    9900012    2    1    2    0    0 -0.37290887828E+02 -0.76110947682E+01  0.14304775764E+02  0.50528859721E+02  0.29999999609E+02 0.  0.
        -12    1    1    2    0    0  0.37290887828E+02  0.76110947682E+01 -0.14304775764E+02  0.40659140279E+02  0.00000000000E+00 0.  1.
         11    1    3    3    0    0 -0.23555760560E+02 -0.12387464707E+02  0.20679055784E+02  0.33703805212E+02  0.51100000000E-03 0. -1.
        -11    1    3    3    0    0 -0.87907126044E+01  0.38995562553E+01 -0.13316374469E+01  0.97085748507E+01  0.51100000000E-03 0.  1.
         12    1    3    3    0    0 -0.49444146638E+01  0.87681368349E+00 -0.50426425735E+01  0.71164796583E+01  0.00000000000E+00 0. -1.
</event>
<event>
 7    1  0.5155466E-011  0.5052883E+02  0.7816164E-02  0.1300439E+00
        -11   -1    0    0    0    0  0.00000000000E+00  0.00000000000E+00  0.45593999997E+02  0.45594000000E+02  0.51100000000E-03 0. -1.
         11   -1    0    0    0    0 -0.00000000000E+00 -0.00000000000E+00 -0.45593999997E+02  0.45594000000E+02  0.51100000000E-03 0.  1.
    9900012    2    1    2    0    0  0.16046640072E+02 -0.29003239766E+02 -0.23547509021E+02  0.50528834298E+02  0.29999922331E+02 0.  0.
        -12    1    1    2    0    0 -0.16046640072E+02  0.29003239766E+02  0.23547509021E+02  0.40659165702E+02  0.00000000000E+00 0.  1.
         11    1    3    3    0    0 -0.41627624676E+00 -0.22741654981E+02 -0.10091065805E+02  0.24883443623E+02  0.51100000000E-03 0. -1.
        -11    1    3    3    0    0  0.15640221167E+02 -0.56432041133E+01 -0.53395039740E+01  0.17463463968E+02  0.51100000000E-03 0.  1.
         12    1    3    3    0    0  0.82269515195E+00 -0.61838067108E+00 -0.81169392424E+01  0.81819267066E+01  0.00000000000E+00 0. -1.
</event>
<event>
 7    1  0.5155466E-011  0.5052886E+02  0.7816164E-02  0.1300439E+00
        -11   -1    0    0    0    0  0.00000000000E+00  0.00000000000E+00  0.45593999997E+02  0.45594000000E+02  0.51100000000E-03 0.  1.
         11   -1    0    0    0    0 -0.00000000000E+00 -0.00000000000E+00 -0.45593999997E+02  0.45594000000E+02  0.51100000000E-03 0. -1.
    9900012    2    1    2    0    0  0.87480926426E+01  0.18909329564E+02 -0.34915237219E+02  0.50528860074E+02  0.30000000682E+02 0.  0.
        -12    1    1    2    0    0 -0.87480926426E+01 -0.18909329564E+02  0.34915237219E+02  0.40659139926E+02  0.00000000000E+00 0.  1.
         11    1    3    3    0    0  0.17721382868E+02  0.10298498688E+02 -0.25944110562E+02  0.33063625922E+02  0.51100000000E-03 0. -1.
        -11    1    3    3    0    0 -0.26490228173E+01  0.42317562743E+01 -0.83745257349E+01  0.97497571558E+01  0.51100000000E-03 0.  1.
         12    1    3    3    0    0 -0.63242674082E+01  0.43790746025E+01 -0.59660092158E+00  0.77154769965E+01  0.00000000000E+00 0. -1.
</event>
<event>
 7    1  0.5155466E-011  0.5052886E+02  0.7816164E-02  0.1300439E+00
        -11   -1    0    0    0    0  0.00000000000E+00  0.00000000000E+00  0.45593999997E+02  0.45594000000E+02  0.51100000000E-03 0.  1.
         11   -1    0    0    0    0 -0.00000000000E+00 -0.00000000000E+00 -0.45593999997E+02  0.45594000000E+02  0.51100000000E-03 0. -1.
    9900012    2    1    2    0    0  0.55055751785E+01  0.74101844406E+00 -0.40277852392E+02  0.50528857613E+02  0.29999993200E+02 0.  0.
        -12    1    1    2    0    0 -0.55055751785E+01 -0.74101844406E+00  0.40277852392E+02  0.40659142387E+02  0.00000000000E+00 0.  1.
         11    1    3    3    0    0  0.98573621977E+01  0.77622400903E+01 -0.29139592273E+02  0.31725948352E+02  0.51100000000E-03 0. -1.
        -11    1    3    3    0    0 -0.44207177027E+01 -0.23782137051E+01  0.15806951778E+01  0.52628170156E+01  0.51100000000E-03 0.  1.
         12    1    3    3    0    0  0.68930683530E-01 -0.46430079412E+01 -0.12718955296E+02  0.13540092245E+02  0.00000000000E+00 0. -1.
</event>
<event>
 7    1  0.5155466E-011  0.5052885E+02  0.7816164E-02  0.1300439E+00
        -11   -1    0    0    0    0  0.00000000000E+00  0.00000000000E+00  0.45593999997E+02  0.45594000000E+02  0.51100000000E-03 0.  1.
         11   -1    0    0    0    0 -0.00000000000E+00 -0.00000000000E+00 -0.45593999997E+02  0.45594000000E+02  0.51100000000E-03 0. -1.
    9900012    2    1    2    0    0 -0.24749074860E+02  0.10281569931E+01 -0.32242710719E+02  0.50528853332E+02  0.29999980189E+02 0.  0.
        -12    1    1    2    0    0  0.24749074860E+02 -0.10281569931E+01  0.32242710719E+02  0.40659146668E+02  0.00000000000E+00 0.  1.
         11    1    3    3    0    0 -0.88147295758E+01  0.99806463664E+01 -0.18424663296E+01  0.13442746811E+02  0.51100000000E-03 0. -1.
        -11    1    3    3    0    0 -0.54218446635E+01  0.97488163980E+00 -0.34438390081E+01  0.64966777003E+01  0.51100000000E-03 0.  1.
         12    1    3    3    0    0 -0.10512500621E+02 -0.99273710131E+01 -0.26956405381E+02  0.30589428821E+02  0.00000000000E+00 0. -1.
</event>
<event>
 7    1  0.5155466E-011  0.5052886E+02  0.7816164E-02  0.1300439E+00
        -11   -1    0    0    0    0  0.00000000000E+00  0.00000000000E+00  0.45593999997E+02  0.45594000000E+02  0.51100000000E-03 0.  1.
         11   -1    0    0    0    0 -0.00000000000E+00 -0.00000000000E+00 -0.45593999997E+02  0.45594000000E+02  0.51100000000E-03 0. -1.
    9900012    2    1    2    0    0 -0.26414746266E+02 -0.45213626838E+01  0.30577505213E+02  0.50528863685E+02  0.30000011657E+02 0.  0.
        -12    1    1    2    0    0  0.26414746266E+02  0.45213626838E+01 -0.30577505213E+02  0.40659136315E+02  0.00000000000E+00 0.  1.
         11    1    3    3    0    0 -0.41556920003E+01 -0.11470188896E+02  0.98396201141E+01  0.15673325543E+02  0.51100000000E-03 0. -1.
        -11    1    3    3    0    0 -0.11457121655E+02  0.73967779333E+01  0.28157166354E+01  0.13925021395E+02  0.51100000000E-03 0.  1.
        -12    1    3    3    0    0 -0.10801932610E+02 -0.44795172085E+00  0.17922168464E+02  0.20930516747E+02  0.00000000000E+00 0.  1.
</event>
<event>
 7    1  0.5155466E-011  0.5052887E+02  0.7816164E-02  0.1300439E+00
        -11   -1    0    0    0    0  0.00000000000E+00  0.00000000000E+00  0.45593999997E+02  0.45594000000E+02  0.51100000000E-03 0.  1.
         11   -1    0    0    0    0 -0.00000000000E+00 -0.00000000000E+00 -0.45593999997E+02  0.45594000000E+02  0.51100000000E-03 0. -1.
    9900012    2    1    2    0    0 -0.48962986982E+01  0.76682909646E+01 -0.39628128048E+02  0.50528868678E+02  0.30000026834E+02 0.  0.
        -12    1    1    2    0    0  0.48962986982E+01 -0.76682909646E+01  0.39628128048E+02  0.40659131322E+02  0.00000000000E+00 0.  1.
         11    1    3    3    0    0  0.20865800217E+01  0.15917255519E+01 -0.11160655079E+02  0.11465061207E+02  0.51100000000E-03 0. -1.
        -11    1    3    3    0    0 -0.11965169406E+02 -0.18324391223E+01 -0.38038885653E+01  0.12688289109E+02  0.51100000000E-03 0.  1.
        -12    1    3    3    0    0  0.49822906858E+01  0.79090045350E+01 -0.24663584404E+02  0.26375518362E+02  0.00000000000E+00 0.  1.
</event>
<event>
 7    1  0.5155466E-011  0.5052886E+02  0.7816164E-02  0.1300439E+00
        -11   -1    0    0    0    0  0.00000000000E+00  0.00000000000E+00  0.45593999997E+02  0.45594000000E+02  0.51100000000E-03 0. -1.
         11   -1    0    0    0    0 -0.00000000000E+00 -0.00000000000E+00 -0.45593999997E+02  0.45594000000E+02  0.51100000000E-03 0.  1.
    9900012    2    1    2    0    0  0.37867954252E+02 -0.12867866139E+02  0.73213230998E+01  0.50528859452E+02  0.29999998789E+02 0.  0.
        -12    1    1    2    0    0 -0.37867954252E+02  0.12867866139E+02 -0.73213230998E+01  0.40659140548E+02  0.00000000000E+00 0.  1.
         11    1    3    3    0    0  0.70171919506E+01 -0.63849590777E+01 -0.36395881098E+01  0.10161460878E+02  0.51100000000E-03 0. -1.
        -11    1    3    3    0    0  0.13496060233E+02 -0.11373020244E+02  0.13417636782E+02  0.22170300142E+02  0.51100000000E-03 0.  1.
        -12    1    3    3    0    0  0.17354702068E+02  0.48901131824E+01 -0.24567255729E+01  0.18197098433E+02  0.00000000000E+00 0.  1.
</event>
<event>
 7    1  0.5155466E-011  0.5052886E+02  0.7816164E-02  0.1300439E+00
        -11   -1    0    0    0    0  0.00000000000E+00  0.00000000000E+00  0.45593999997E+02  0.45594000000E+02  0.51100000000E-03 0. -1.
         11   -1    0    0    0    0 -0.00000000000E+00 -0.00000000000E+00 -0.45593999997E+02  0.45594000000E+02  0.51100000000E-03 0.  1.
    9900012    2    1    2    0    0 -0.22361054913E+02 -0.13201727031E+02  0.31286785675E+02  0.50528864111E+02  0.30000012951E+02 0.  0.
        -12    1    1    2    0    0  0.22361054913E+02  0.13201727031E+02 -0.31286785675E+02  0.40659135889E+02  0.00000000000E+00 0.  1.
         11    1    3    3    0    0 -0.19755775061E+02 -0.64315391621E+01  0.31617810238E+02  0.37833071099E+02  0.51100000000E-03 0. -1.
        -11    1    3    3    0    0  0.32522839021E+01 -0.25792618582E+01 -0.28838282634E+01  0.50543454598E+01  0.51100000000E-03 0.  1.
        -12    1    3    3    0    0 -0.58575637540E+01 -0.41909260104E+01  0.25528036996E+01  0.76414475517E+01  0.00000000000E+00 0.  1.
</event>
<event>
 7    1  0.5155466E-011  0.5052886E+02  0.7816164E-02  0.1300439E+00
        -11   -1    0    0    0    0  0.00000000000E+00  0.00000000000E+00  0.45593999997E+02  0.45594000000E+02  0.51100000000E-03 0. -1.
         11   -1    0    0    0    0 -0.00000000000E+00 -0.00000000000E+00 -0.45593999997E+02  0.45594000000E+02  0.51100000000E-03 0.  1.
    9900012    2    1    2    0    0 -0.31129262911E+01 -0.39241329139E+01  0.40349430534E+02  0.50528859900E+02  0.30000000153E+02 0.  0.
        -12    1    1    2    0    0  0.31129262911E+01  0.39241329139E+01 -0.40349430534E+02  0.40659140100E+02  0.00000000000E+00 0.  1.
         11    1    3    3    0    0 -0.70093098798E+01  0.96815801480E+01  0.23186578034E+02  0.26086027301E+02  0.51100000000E-03 0. -1.
        -11    1    3    3    0    0 -0.16379649340E+01 -0.49757166424E+01  0.10463736273E+01  0.53418707641E+01  0.51100000000E-03 0.  1.
         12    1    3    3    0    0  0.55343485227E+01 -0.86299964195E+01  0.16116478873E+02  0.19100961835E+02  0.00000000000E+00 0. -1.
</event>
<event>
 7    1  0.5155466E-011  0.5052886E+02  0.7816164E-02  0.1300439E+00
        -11   -1    0    0    0    0  0.00000000000E+00  0.00000000000E+00  0.45593999997E+02  0.45594000000E+02  0.51100000000E-03 0. -1.
         11   -1    0    0    0    0 -0.00000000000E+00 -0.00000000000E+00 -0.45593999997E+02  0.45594000000E+02  0.51100000000E-03 0.  1.
    9900012    2    1    2    0    0  0.73893346625E+01 -0.35666115942E+02  0.18069077120E+02  0.50528860301E+02  0.30000001370E+02 0.  0.
        -12    1    1    2    0    0 -0.73893346625E+01  0.35666115942E+02 -0.18069077120E+02  0.40659139699E+02  0.00000000000E+00 0.  1.
         11    1    3    3    0    0  0.17776075625E+02 -0.29788181635E+02  0.11301179690E+02  0.36483438604E+02  0.51100000000E-03 0. -1.
        -11    1    3    3    0    0 -0.32058065384E+01 -0.32838937283E+00  0.15359246101E+01  0.35698879270E+01  0.51100000000E-03 0.  1.
         12    1    3    3    0    0 -0.71809344237E+01 -0.55495449341E+01  0.52319728195E+01  0.10475533770E+02  0.00000000000E+00 0. -1.
</event>
<event>
 7    1  0.5155466E-011  0.5052885E+02  0.7816164E-02  0.1300439E+00
        -11   -1    0    0    0    0  0.00000000000E+00  0.00000000000E+00  0.45593999997E+02  0.45594000000E+02  0.51100000000E-03 0.  1.
         11   -1    0    0    0    0 -0.00000000000E+00 -0.00000000000E+00 -0.45593999997E+02  0.45594000000E+02  0.51100000000E-03 0. -1.
    9900012    2    1    2    0    0  0.79682662911E+01  0.19885313869E+02 -0.34557884372E+02  0.50528851612E+02  0.29999974960E+02 0.  0.
        -12    1    1    2    0    0 -0.79682662911E+01 -0.19885313869E+02  0.34557884372E+02  0.40659148388E+02  0.00000000000E+00 0.  1.
         11    1    3    3    0    0  0.94058877982E+01  0.19457300879E+02 -0.23882312908E+02  0.32209038372E+02  0.51100000000E-03 0. -1.
        -11    1    3    3    0    0 -0.26316052991E+01 -0.23560503574E+01 -0.13634867002E+02  0.14084953609E+02  0.51100000000E-03 0.  1.
        -12    1    3    3    0    0  0.11939837920E+01  0.27840633479E+01  0.29592955375E+01  0.42348596315E+01  0.00000000000E+00 0.  1.
</event>
<event>
 7    1  0.5155466E-011  0.5052888E+02  0.7816164E-02  0.1300439E+00
        -11   -1    0    0    0    0  0.00000000000E+00  0.00000000000E+00  0.45593999997E+02  0.45594000000E+02  0.51100000000E-03 0. -1.
         11   -1    0    0    0    0 -0.00000000000E+00 -0.00000000000E+00 -0.45593999997E+02  0.45594000000E+02  0.51100000000E-03 0.  1.
    9900012    2    1    2    0    0  0.51541709045E+00  0.31484288187E+02  0.25722326299E+02  0.50528878912E+02  0.30000057941E+02 0.  0.
        -12    1    1    2    0    0 -0.51541709045E+00 -0.31484288187E+02 -0.25722326299E+02  0.40659121088E+02  0.00000000000E+00 0.  1.
         11    1    3    3    0    0  0.33183135477E+01 -0.19676174142E+01  0.28961557268E+01  0.48239445835E+01  0.51100000000E-03 0. -1.
        -11    1    3    3    0    0 -0.83186703149E+00  0.36183142499E+02  0.20321272859E+02  0.41507420237E+02  0.51100000000E-03 0.  1.
        -12    1    3    3    0    0 -0.19710294257E+01 -0.27312368986E+01  0.25048977133E+01  0.41975140914E+01  0.00000000000E+00 0.  1.
</event>
<event>
 7    1  0.5155466E-011  0.5052886E+02  0.7816164E-02  0.1300439E+00
        -11   -1    0    0    0    0  0.00000000000E+00  0.00000000000E+00  0.45593999997E+02  0.45594000000E+02  0.51100000000E-03 0.  1.
         11   -1    0    0    0    0 -0.00000000000E+00 -0.00000000000E+00 -0.45593999997E+02  0.45594000000E+02  0.51100000000E-03 0. -1.
    9900012    2    1    2    0    0  0.14419137246E+02  0.27910744685E+01 -0.37913900569E+02  0.50528862380E+02  0.30000007691E+02 0.  0.
        -12    1    1    2    0    0 -0.14419137246E+02 -0.27910744685E+01  0.37913900569E+02  0.40659137620E+02  0.00000000000E+00 0.  1.
         11    1    3    3    0    0  0.21314044740E+01  0.73681954683E+01  0.18117572457E+01  0.78813484931E+01  0.51100000000E-03 0. -1.
        -11    1    3    3    0    0  0.19121836951E+01 -0.46433759256E+01 -0.10611348261E+02  0.11739595336E+02  0.51100000000E-03 0.  1.
         12    1    3    3    0    0  0.10375549077E+02  0.66254925789E-01 -0.29114309554E+02  0.30907918551E+02  0.00000000000E+00 0. -1.
</event>
<event>
 7    1  0.5155466E-011  0.5052887E+02  0.7816164E-02  0.1300439E+00
        -11   -1    0    0    0    0  0.00000000000E+00  0.00000000000E+00  0.45593999997E+02  0.45594000000E+02  0.51100000000E-03 0.  1.
         11   -1    0    0    0    0 -0.00000000000E+00 -0.00000000000E+00 -0.45593999997E+02  0.45594000000E+02  0.51100000000E-03 0. -1.
    9900012    2    1    2    0    0  0.33824519758E+02 -0.11531822847E+02  0.19392886663E+02  0.50528866609E+02  0.30000020543E+02 0.  0.
        -12    1    1    2    0    0 -0.33824519758E+02  0.11531822847E+02 -0.19392886663E+02  0.40659133391E+02  0.00000000000E+00 0.  1.
         11    1    3    3    0    0  0.32851227494E+02 -0.73078265943E+01  0.22568406223E+02  0.40520864220E+02  0.51100000000E-03 0. -1.
        -11    1    3    3    0    0 -0.34937567827E+01 -0.34488758914E+00 -0.62745374403E+00  0.35663682323E+01  0.51100000000E-03 0.  1.
         12    1    3    3    0    0  0.44670490466E+01 -0.38791086634E+01 -0.25480658158E+01  0.64416341567E+01  0.00000000000E+00 0. -1.
</event>
<event>
 7    1  0.5155466E-011  0.5052885E+02  0.7816164E-02  0.1300439E+00
        -11   -1    0    0    0    0  0.00000000000E+00  0.00000000000E+00  0.45593999997E+02  0.45594000000E+02  0.51100000000E-03 0.  1.
         11   -1    0    0    0    0 -0.00000000000E+00 -0.00000000000E+00 -0.45593999997E+02  0.45594000000E+02  0.51100000000E-03 0. -1.
    9900012    2    1    2    0    0 -0.66921297079E+01 -0.81061815314E+01 -0.39276856181E+02  0.50528853298E+02  0.29999980086E+02 0.  0.
        -12    1    1    2    0    0  0.66921297079E+01  0.81061815314E+01  0.39276856181E+02  0.40659146702E+02  0.00000000000E+00 0.  1.
         11    1    3    3    0    0  0.29214248260E+01  0.72751029055E+01 -0.15806656333E+02  0.17644042337E+02  0.51100000000E-03 0. -1.
        -11    1    3    3    0    0 -0.12722930563E+02 -0.15054992985E+02 -0.21599289260E+02  0.29241324742E+02  0.51100000000E-03 0.  1.
        -12    1    3    3    0    0  0.31093760291E+01 -0.32629145187E+00 -0.18709105881E+01  0.36434862193E+01  0.00000000000E+00 0.  1.
</event>
<event>
 7    1  0.5155466E-011  0.5052885E+02  0.7816164E-02  0.1300439E+00
        -11   -1    0    0    0    0  0.00000000000E+00  0.00000000000E+00  0.45593999997E+02  0.45594000000E+02  0.51100000000E-03 0.  1.
         11   -1    0    0    0    0 -0.00000000000E+00 -0.00000000000E+00 -0.45593999997E+02  0.45594000000E+02  0.51100000000E-03 0. -1.
    9900012    2    1    2    0    0  0.24325928355E+02  0.15040204098E+02 -0.28899959738E+02  0.50528853397E+02  0.29999980384E+02 0.  0.
        -12    1    1    2    0    0 -0.24325928355E+02 -0.15040204098E+02  0.28899959738E+02  0.40659146603E+02  0.00000000000E+00 0.  1.
         11    1    3    3    0    0 -0.10194369303E+01  0.14250992747E+02 -0.15823185538E+02  0.21319081752E+02  0.51100000000E-03 0. -1.
        -11    1    3    3    0    0  0.52109407663E+01 -0.21351396681E+01 -0.16182876443E+01  0.58593156796E+01  0.51100000000E-03 0.  1.
         12    1    3    3    0    0  0.20134424519E+02  0.29243510189E+01 -0.11458486556E+02  0.23350455965E+02  0.00000000000E+00 0. -1.
</event>
<event>
 7    1  0.5155466E-011  0.5052886E+02  0.7816164E-02  0.1300439E+00
        -11   -1    0    0    0    0  0.00000000000E+00  0.00000000000E+00  0.45593999997E+02  0.45594000000E+02  0.51100000000E-03 0.  1.
         11   -1    0    0    0    0 -0.00000000000E+00 -0.00000000000E+00 -0.45593999997E+02  0.45594000000E+02  0.51100000000E-03 0. -1.
    9900012    2    1    2    0    0 -0.67742891043E+01 -0.15842523910E+02 -0.36827829626E+02  0.50528860908E+02  0.30000003217E+02 0.  0.
        -12    1    1    2    0    0  0.67742891043E+01  0.15842523910E+02  0.36827829626E+02  0.40659139092E+02  0.00000000000E+00 0.  1.
         11    1    3    3    0    0 -0.48149978208E+01 -0.13461947284E+02 -0.18778422530E+02  0.23601639385E+02  0.51100000000E-03 0. -1.
        -11    1    3    3    0    0 -0.22747717483E+01  0.10101993172E+00  0.40716884262E+01  0.46651300555E+01  0.51100000000E-03 0.  1.
        -12    1    3    3    0    0  0.31548046490E+00 -0.24815965575E+01 -0.22121095522E+02  0.22262091468E+02  0.00000000000E+00 0.  1.
</event>
<event>
 7    1  0.5155466E-011  0.5052886E+02  0.7816164E-02  0.1300439E+00
        -11   -1    0    0    0    0  0.00000000000E+00  0.00000000000E+00  0.45593999997E+02  0.45594000000E+02  0.51100000000E-03 0.  1.
         11   -1    0    0    0    0 -0.00000000000E+00 -0.00000000000E+00 -0.45593999997E+02  0.45594000000E+02  0.51100000000E-03 0. -1.
    9900012    2    1    2    0    0  0.33257782133E+02 -0.11173925820E+02 -0.20548208627E+02  0.50528861194E+02  0.30000004086E+02 0.  0.
        -12    1    1    2    0    0 -0.33257782133E+02  0.11173925820E+02  0.20548208627E+02  0.40659138806E+02  0.00000000000E+00 0.  1.
         11    1    3    3    0    0  0.19122157916E+02 -0.19498984837E+02 -0.52080956829E+01  0.27802726376E+02  0.51100000000E-03 0. -1.
        -11    1    3    3    0    0  0.28114588663E+01  0.34063116343E+01 -0.42829637104E+01  0.61523197505E+01  0.51100000000E-03 0.  1.
         12    1    3    3    0    0  0.11324165351E+02  0.49187473828E+01 -0.11057149234E+02  0.16573815068E+02  0.00000000000E+00 0. -1.
</event>
<event>
 7    1  0.5155466E-011  0.5052886E+02  0.7816164E-02  0.1300439E+00
        -11   -1    0    0    0    0  0.00000000000E+00  0.00000000000E+00  0.45593999997E+02  0.45594000000E+02  0.51100000000E-03 0. -1.
         11   -1    0    0    0    0 -0.00000000000E+00 -0.00000000000E+00 -0.45593999997E+02  0.45594000000E+02  0.51100000000E-03 0.  1.
    9900012    2    1    2    0    0 -0.25296964204E+02 -0.88472675232E+01  0.30577034685E+02  0.50528860921E+02  0.30000003256E+02 0.  0.
        -12    1    1    2    0    0  0.25296964204E+02  0.88472675232E+01 -0.30577034685E+02  0.40659139079E+02  0.00000000000E+00 0.  1.
         11    1    3    3    0    0 -0.69459868876E+01  0.10245746893E+02  0.10307480308E+02  0.16107954984E+02  0.51100000000E-03 0. -1.
        -11    1    3    3    0    0 -0.46279642877E+01 -0.94647472328E+01  0.46790311699E+01  0.11527915101E+02  0.51100000000E-03 0.  1.
         12    1    3    3    0    0 -0.13723013028E+02 -0.96282671830E+01  0.15590523207E+02  0.22892990835E+02  0.00000000000E+00 0. -1.
</event>
<event>
 7    1  0.5155466E-011  0.5052886E+02  0.7816164E-02  0.1300439E+00
        -11   -1    0    0    0    0  0.00000000000E+00  0.00000000000E+00  0.45593999997E+02  0.45594000000E+02  0.51100000000E-03 0.  1.
         11   -1    0    0    0    0 -0.00000000000E+00 -0.00000000000E+00 -0.45593999997E+02  0.45594000000E+02  0.51100000000E-03 0. -1.
    9900012    2    1    2    0    0 -0.26708841743E+02  0.14381295082E+02 -0.27073632396E+02  0.50528862692E+02  0.30000008639E+02 0.  0.
        -12    1    1    2    0    0  0.26708841743E+02 -0.14381295082E+02  0.27073632396E+02  0.40659137308E+02  0.00000000000E+00 0.  1.
         11    1    3    3    0    0 -0.13947744694E+02 -0.51825722365E+01 -0.16083286086E+02  0.21910516393E+02  0.51100000000E-03 0. -1.
        -11    1    3    3    0    0 -0.69597067804E+01  0.11266746223E+02  0.56526777806E+00  0.13255060047E+02  0.51100000000E-03 0.  1.
        -12    1    3    3    0    0 -0.58013902693E+01  0.82971210957E+01 -0.11555614087E+02  0.15363286252E+02  0.00000000000E+00 0.  1.
</event>
<event>
 7    1  0.5155466E-011  0.5052886E+02  0.7816164E-02  0.1300439E+00
        -11   -1    0    0    0    0  0.00000000000E+00  0.00000000000E+00  0.45593999997E+02  0.45594000000E+02  0.51100000000E-03 0.  1.
         11   -1    0    0    0    0 -0.00000000000E+00 -0.00000000000E+00 -0.45593999997E+02  0.45594000000E+02  0.51100000000E-03 0. -1.
    9900012    2    1    2    0    0  0.16871924856E+02 -0.31514936521E+02 -0.19372990334E+02  0.50528858018E+02  0.29999994431E+02 0.  0.
        -12    1    1    2    0    0 -0.16871924856E+02  0.31514936521E+02  0.19372990334E+02  0.40659141982E+02  0.00000000000E+00 0.  1.
         11    1    3    3    0    0  0.12353764314E+02 -0.83150358805E+01 -0.17986368086E+00  0.14892537246E+02  0.51100000000E-03 0. -1.
        -11    1    3    3    0    0 -0.61520577948E+01 -0.26185660047E+01 -0.28304424609E+01  0.72605859142E+01  0.51100000000E-03 0.  1.
        -12    1    3    3    0    0  0.10670218336E+02 -0.20581334636E+02 -0.16362684192E+02  0.28375734858E+02  0.00000000000E+00 0.  1.
</event>
<event>
 7    1  0.5159570E-011  0.5052884E+02  0.7816164E-02  0.1300439E+00
        -11   -1    0    0    0    0  0.00000000000E+00  0.00000000000E+00  0.45593999997E+02  0.45594000000E+02  0.51100000000E-03 0.  1.
         11   -1    0    0    0    0 -0.00000000000E+00 -0.00000000000E+00 -0.45593999997E+02  0.45594000000E+02  0.51100000000E-03 0. -1.
    9900012    2    1    2    0    0  0.14093317492E+02 -0.38048240343E+02 -0.26224039732E+01  0.50528841208E+02  0.29999943334E+02 0.  0.
        -12    1    1    2    0    0 -0.14093317492E+02  0.38048240343E+02  0.26224039732E+01  0.40659158792E+02  0.00000000000E+00 0.  1.
         11    1    3    3    0    0  0.15927120873E+02 -0.31775992492E+02 -0.28492505588E+01  0.35658170272E+02  0.51100000000E-03 0. -1.
        -11    1    3    3    0    0 -0.70516883303E+01 -0.36887534298E+01 -0.26347541195E+01  0.83830268820E+01  0.51100000000E-03 0.  1.
        -12    1    3    3    0    0  0.52178849496E+01 -0.25834944213E+01  0.28616007052E+01  0.64876440537E+01  0.00000000000E+00 0.  1.
</event>
<event>
 7    1  0.5155466E-011  0.5052886E+02  0.7816164E-02  0.1300439E+00
        -11   -1    0    0    0    0  0.00000000000E+00  0.00000000000E+00  0.45593999997E+02  0.45594000000E+02  0.51100000000E-03 0.  1.
         11   -1    0    0    0    0 -0.00000000000E+00 -0.00000000000E+00 -0.45593999997E+02  0.45594000000E+02  0.51100000000E-03 0. -1.
    9900012    2    1    2    0    0 -0.31836123529E+02  0.20722818229E+02 -0.14497991155E+02  0.50528859524E+02  0.29999999010E+02 0.  0.
        -12    1    1    2    0    0  0.31836123529E+02 -0.20722818229E+02  0.14497991155E+02  0.40659140476E+02  0.00000000000E+00 0.  1.
         11    1    3    3    0    0 -0.43268233039E+01 -0.23420928173E+01 -0.13561304902E+02  0.14426218824E+02  0.51100000000E-03 0. -1.
        -11    1    3    3    0    0 -0.16713934347E+02  0.16172738795E+02  0.39948181932E-01  0.23257572479E+02  0.51100000000E-03 0.  1.
         12    1    3    3    0    0 -0.10795365878E+02  0.68921722511E+01 -0.97663443520E+00  0.12845068221E+02  0.00000000000E+00 0. -1.
</event>
<event>
 7    1  0.5155466E-011  0.5052886E+02  0.7816164E-02  0.1300439E+00
        -11   -1    0    0    0    0  0.00000000000E+00  0.00000000000E+00  0.45593999997E+02  0.45594000000E+02  0.51100000000E-03 0.  1.
         11   -1    0    0    0    0 -0.00000000000E+00 -0.00000000000E+00 -0.45593999997E+02  0.45594000000E+02  0.51100000000E-03 0. -1.
    9900012    2    1    2    0    0  0.40807048829E+01  0.36228924133E+02  0.17999414462E+02  0.50528855676E+02  0.29999987314E+02 0.  0.
        -12    1    1    2    0    0 -0.40807048829E+01 -0.36228924133E+02 -0.17999414462E+02  0.40659144324E+02  0.00000000000E+00 0.  1.
         11    1    3    3    0    0 -0.83814394226E+01  0.26942768134E+02  0.15683253366E+02  0.32281972026E+02  0.51100000000E-03 0. -1.
        -11    1    3    3    0    0  0.11299333196E+02  0.63761877661E+01 -0.17732619899E+01  0.13094852403E+02  0.51100000000E-03 0.  1.
         12    1    3    3    0    0  0.11628111091E+01  0.29099682329E+01  0.40894230865E+01  0.51520312472E+01  0.00000000000E+00 0. -1.
</event>
<event>
 7    1  0.5155466E-011  0.5052886E+02  0.7816164E-02  0.1300439E+00
        -11   -1    0    0    0    0  0.00000000000E+00  0.00000000000E+00  0.45593999997E+02  0.45594000000E+02  0.51100000000E-03 0.  1.
         11   -1    0    0    0    0 -0.00000000000E+00 -0.00000000000E+00 -0.45593999997E+02  0.45594000000E+02  0.51100000000E-03 0. -1.
    9900012    2    1    2    0    0  0.10936787237E+02 -0.22485494629E+02 -0.32061738201E+02  0.50528857852E+02  0.29999993926E+02 0.  0.
        -12    1    1    2    0    0 -0.10936787237E+02  0.22485494629E+02  0.32061738201E+02  0.40659142148E+02  0.00000000000E+00 0.  1.
         11    1    3    3    0    0 -0.93994421257E+01 -0.97270540208E+01 -0.14339435165E+02  0.19712546597E+02  0.51100000000E-03 0. -1.
        -11    1    3    3    0    0  0.11242468460E+02 -0.83675562739E+01 -0.57356265689E+01  0.15142869856E+02  0.51100000000E-03 0.  1.
         12    1    3    3    0    0  0.90937609022E+01 -0.43908843342E+01 -0.11986676466E+02  0.15673441399E+02  0.00000000000E+00 0. -1.
</event>
<event>
 7    1  0.5155466E-011  0.5052888E+02  0.7816164E-02  0.1300439E+00
        -11   -1    0    0    0    0  0.00000000000E+00  0.00000000000E+00  0.45593999997E+02  0.45594000000E+02  0.51100000000E-03 0.  1.
         11   -1    0    0    0    0 -0.00000000000E+00 -0.00000000000E+00 -0.45593999997E+02  0.45594000000E+02  0.51100000000E-03 0. -1.
    9900012    2    1    2    0    0  0.28783552709E+02 -0.27905090552E+02  0.67806180128E+01  0.50528883361E+02  0.30000071463E+02 0.  0.
        -12    1    1    2    0    0 -0.28783552709E+02  0.27905090552E+02 -0.67806180128E+01  0.40659116639E+02  0.00000000000E+00 0.  1.
         11    1    3    3    0    0  0.96532085907E+01 -0.23563168160E+02 -0.55225836002E+01  0.26055829669E+02  0.51100000000E-03 0. -1.
        -11    1    3    3    0    0  0.47740426371E+01  0.21350255231E+01  0.44854499842E+01  0.68897807590E+01  0.51100000000E-03 0.  1.
         12    1    3    3    0    0  0.14356301481E+02 -0.64769479148E+01  0.78177516288E+01  0.17583272933E+02  0.00000000000E+00 0. -1.
</event>
<event>
 7    1  0.6309404E-011  0.5052886E+02  0.7816164E-02  0.1300439E+00
        -11   -1    0    0    0    0  0.00000000000E+00  0.00000000000E+00  0.45593999997E+02  0.45594000000E+02  0.51100000000E-03 0. -1.
         11   -1    0    0    0    0 -0.00000000000E+00 -0.00000000000E+00 -0.45593999997E+02  0.45594000000E+02  0.51100000000E-03 0.  1.
    9900012    2    1    2    0    0 -0.41218946864E+01  0.22560744042E+02  0.33573622956E+02  0.50528863930E+02  0.30000012403E+02 0.  0.
        -12    1    1    2    0    0  0.41218946864E+01 -0.22560744042E+02 -0.33573622956E+02  0.40659136070E+02  0.00000000000E+00 0.  1.
         11    1    3    3    0    0  0.39502083030E+01  0.67358000759E+01  0.12242261555E+02  0.14520610061E+02  0.51100000000E-03 0. -1.
        -11    1    3    3    0    0 -0.11167231782E+02  0.19304008978E+02  0.11415090961E+02  0.25053066284E+02  0.51100000000E-03 0.  1.
        -12    1    3    3    0    0  0.30951287924E+01 -0.34790650122E+01  0.99162704404E+01  0.10955187586E+02  0.00000000000E+00 0.  1.
</event>
<event>
 7    1  0.5155466E-011  0.5052900E+02  0.7816164E-02  0.1300438E+00
        -11   -1    0    0    0    0  0.00000000000E+00  0.00000000000E+00  0.45593999997E+02  0.45594000000E+02  0.51100000000E-03 0.  1.
         11   -1    0    0    0    0 -0.00000000000E+00 -0.00000000000E+00 -0.45593999997E+02  0.45594000000E+02  0.51100000000E-03 0. -1.
    9900012    2    1    2    0    0  0.12251945487E+02 -0.36304895013E+02 -0.13601435030E+02  0.50528996016E+02  0.30000413886E+02 0.  0.
        -12    1    1    2    0    0 -0.12251945487E+02  0.36304895013E+02  0.13601435030E+02  0.40659003984E+02  0.00000000000E+00 0.  1.
         11    1    3    3    0    0 -0.61910536152E+01 -0.23005828332E+02 -0.49464250572E+01  0.24332373563E+02  0.51100000000E-03 0. -1.
        -11    1    3    3    0    0  0.40128585818E+01  0.12594066956E+01 -0.18890424833E+01  0.46105987667E+01  0.51100000000E-03 0.  1.
         12    1    3    3    0    0  0.14430140520E+02 -0.14558473377E+02 -0.67659674897E+01  0.21586023686E+02  0.00000000000E+00 0. -1.
</event>
<event>
 7    1  0.5155466E-011  0.5052886E+02  0.7816164E-02  0.1300439E+00
        -11   -1    0    0    0    0  0.00000000000E+00  0.00000000000E+00  0.45593999997E+02  0.45594000000E+02  0.51100000000E-03 0. -1.
         11   -1    0    0    0    0 -0.00000000000E+00 -0.00000000000E+00 -0.45593999997E+02  0.45594000000E+02  0.51100000000E-03 0.  1.
    9900012    2    1    2    0    0  0.33694863212E+02  0.15879961553E+02  0.16298741042E+02  0.50528856560E+02  0.29999989999E+02 0.  0.
        -12    1    1    2    0    0 -0.33694863212E+02 -0.15879961553E+02 -0.16298741042E+02  0.40659143440E+02  0.00000000000E+00 0.  1.
         11    1    3    3    0    0  0.17483293291E+02 -0.13312788920E+01  0.13528297032E+02  0.22146166003E+02  0.51100000000E-03 0. -1.
        -11    1    3    3    0    0  0.12241818981E+02  0.98022176029E+01 -0.54723485628E+01  0.16610003039E+02  0.51100000000E-03 0.  1.
         12    1    3    3    0    0  0.39697509394E+01  0.74090228416E+01  0.82427925729E+01  0.11772687518E+02  0.00000000000E+00 0. -1.
</event>
<event>
 7    1  0.5155466E-011  0.5052884E+02  0.7816164E-02  0.1300439E+00
        -11   -1    0    0    0    0  0.00000000000E+00  0.00000000000E+00  0.45593999997E+02  0.45594000000E+02  0.51100000000E-03 0. -1.
         11   -1    0    0    0    0 -0.00000000000E+00 -0.00000000000E+00 -0.45593999997E+02  0.45594000000E+02  0.51100000000E-03 0.  1.
    9900012    2    1    2    0    0 -0.27930761157E+02  0.22553962938E+02 -0.19088185812E+02  0.50528837433E+02  0.29999931863E+02 0.  0.
        -12    1    1    2    0    0  0.27930761157E+02 -0.22553962938E+02  0.19088185812E+02  0.40659162567E+02  0.00000000000E+00 0.  1.
         11    1    3    3    0    0 -0.24669006515E+02  0.18927258577E+02 -0.16295581815E+02  0.35104800051E+02  0.51100000000E-03 0. -1.
        -11    1    3    3    0    0  0.36427307041E+01  0.24052398925E+01 -0.62363680266E+01  0.76122895601E+01  0.51100000000E-03 0.  1.
         12    1    3    3    0    0 -0.69044853466E+01  0.12214644688E+01  0.34437640300E+01  0.78117478226E+01  0.00000000000E+00 0. -1.
</event>
<event>
 7    1  0.5155466E-011  0.5052886E+02  0.7816164E-02  0.1300439E+00
        -11   -1    0    0    0    0  0.00000000000E+00  0.00000000000E+00  0.45593999997E+02  0.45594000000E+02  0.51100000000E-03 0.  1.
         11   -1    0    0    0    0 -0.00000000000E+00 -0.00000000000E+00 -0.45593999997E+02  0.45594000000E+02  0.51100000000E-03 0. -1.
    9900012    2    1    2    0    0 -0.77601133048E+01 -0.23333514722E+02 -0.32380449218E+02  0.50528858846E+02  0.29999996948E+02 0.  0.
        -12    1    1    2    0    0  0.77601133048E+01  0.23333514722E+02  0.32380449218E+02  0.40659141154E+02  0.00000000000E+00 0.  1.
         11    1    3    3    0    0 -0.22011670970E+00 -0.17971514940E+02 -0.26854091141E+02  0.32313557710E+02  0.51100000000E-03 0. -1.
        -11    1    3    3    0    0 -0.80284595189E+01 -0.99229974792E+01 -0.42680960923E+01  0.13458777275E+02  0.51100000000E-03 0.  1.
         12    1    3    3    0    0  0.48846292384E+00  0.45609976968E+01 -0.12582619853E+01  0.47565238612E+01  0.00000000000E+00 0. -1.
</event>
<event>
 7    1  0.5155466E-011  0.5052885E+02  0.7816164E-02  0.1300439E+00
        -11   -1    0    0    0    0  0.00000000000E+00  0.00000000000E+00  0.45593999997E+02  0.45594000000E+02  0.51100000000E-03 0.  1.
         11   -1    0    0    0    0 -0.00000000000E+00 -0.00000000000E+00 -0.45593999997E+02  0.45594000000E+02  0.51100000000E-03 0. -1.
    9900012    2    1    2    0    0  0.17812381472E+02 -0.25316913449E+02 -0.26361711099E+02  0.50528845405E+02  0.29999956094E+02 0.  0.
        -12    1    1    2    0    0 -0.17812381472E+02  0.25316913449E+02  0.26361711099E+02  0.40659154595E+02  0.00000000000E+00 0.  1.
         11    1    3    3    0    0  0.13415790429E+02 -0.18052225515E+02 -0.20147933671E+02  0.30196117471E+02  0.51100000000E-03 0. -1.
        -11    1    3    3    0    0 -0.21842769328E+01  0.30992471540E+01  0.31203576119E+01  0.49105020648E+01  0.51100000000E-03 0.  1.
        -12    1    3    3    0    0  0.65808679756E+01 -0.10363935088E+02 -0.93341350400E+01  0.15422225869E+02  0.00000000000E+00 0.  1.
</event>
<event>
 7    1  0.5155466E-011  0.5052886E+02  0.7816164E-02  0.1300439E+00
        -11   -1    0    0    0    0  0.00000000000E+00  0.00000000000E+00  0.45593999997E+02  0.45594000000E+02  0.51100000000E-03 0.  1.
         11   -1    0    0    0    0 -0.00000000000E+00 -0.00000000000E+00 -0.45593999997E+02  0.45594000000E+02  0.51100000000E-03 0. -1.
    9900012    2    1    2    0    0  0.17084604948E+02  0.42017367149E+01 -0.36655522459E+02  0.50528860260E+02  0.30000001246E+02 0.  0.
        -12    1    1    2    0    0 -0.17084604948E+02 -0.42017367149E+01  0.36655522459E+02  0.40659139740E+02  0.00000000000E+00 0.  1.
         11    1    3    3    0    0  0.37218071404E+01 -0.52851325350E+01 -0.14823784199E+02  0.16171859898E+02  0.51100000000E-03 0. -1.
        -11    1    3    3    0    0  0.11866736380E+02  0.11051355998E+02 -0.44147492584E+01  0.16806008240E+02  0.51100000000E-03 0.  1.
        -12    1    3    3    0    0  0.14960614277E+01 -0.15644867482E+01 -0.17416989002E+02  0.17550992122E+02  0.00000000000E+00 0.  1.
</event>
<event>
 7    1  0.5155466E-011  0.5052885E+02  0.7816164E-02  0.1300439E+00
        -11   -1    0    0    0    0  0.00000000000E+00  0.00000000000E+00  0.45593999997E+02  0.45594000000E+02  0.51100000000E-03 0.  1.
         11   -1    0    0    0    0 -0.00000000000E+00 -0.00000000000E+00 -0.45593999997E+02  0.45594000000E+02  0.51100000000E-03 0. -1.
    9900012    2    1    2    0    0 -0.18991200075E+02 -0.30518591470E+02 -0.19003054979E+02  0.50528853377E+02  0.29999980324E+02 0.  0.
        -12    1    1    2    0    0  0.18991200075E+02  0.30518591470E+02  0.19003054979E+02  0.40659146623E+02  0.00000000000E+00 0.  1.
         11    1    3    3    0    0 -0.81425046682E+00 -0.10379384463E+02  0.46005950294E+01  0.11382447037E+02  0.51100000000E-03 0. -1.
        -11    1    3    3    0    0 -0.12121965369E+02 -0.15281219489E+02 -0.24517432629E+02  0.31329893336E+02  0.51100000000E-03 0.  1.
        -12    1    3    3    0    0 -0.60549842391E+01 -0.48579875179E+01  0.91378262115E+00  0.78165130038E+01  0.00000000000E+00 0.  1.
</event>
<event>
 7    1  0.5155466E-011  0.5052886E+02  0.7816164E-02  0.1300439E+00
        -11   -1    0    0    0    0  0.00000000000E+00  0.00000000000E+00  0.45593999997E+02  0.45594000000E+02  0.51100000000E-03 0.  1.
         11   -1    0    0    0    0 -0.00000000000E+00 -0.00000000000E+00 -0.45593999997E+02  0.45594000000E+02  0.51100000000E-03 0. -1.
    9900012    2    1    2    0    0 -0.67493597548E+01 -0.30427738404E+02 -0.26110623828E+02  0.50528858369E+02  0.29999995497E+02 0.  0.
        -12    1    1    2    0    0  0.67493597548E+01  0.30427738404E+02  0.26110623828E+02  0.40659141631E+02  0.00000000000E+00 0.  1.
         11    1    3    3    0    0  0.68227722279E+01 -0.28597577578E+02 -0.18597656735E+02  0.34788568532E+02  0.51100000000E-03 0. -1.
        -11    1    3    3    0    0 -0.21428910495E+01 -0.90292541026E+00 -0.83527481035E+00  0.24708178031E+01  0.51100000000E-03 0.  1.
         12    1    3    3    0    0 -0.11429240933E+02 -0.92723541604E+00 -0.66776922828E+01  0.13269472034E+02  0.00000000000E+00 0. -1.
</event>
<event>
 7    1  0.5155466E-011  0.5052886E+02  0.7816164E-02  0.1300439E+00
        -11   -1    0    0    0    0  0.00000000000E+00  0.00000000000E+00  0.45593999997E+02  0.45594000000E+02  0.51100000000E-03 0. -1.
         11   -1    0    0    0    0 -0.00000000000E+00 -0.00000000000E+00 -0.45593999997E+02  0.45594000000E+02  0.51100000000E-03 0.  1.
    9900012    2    1    2    0    0  0.72405137140E-01 -0.14340651452E+02  0.38046106155E+02  0.50528859329E+02  0.29999998416E+02 0.  0.
        -12    1    1    2    0    0 -0.72405137140E-01  0.14340651452E+02 -0.38046106155E+02  0.40659140671E+02  0.00000000000E+00 0.  1.
         11    1    3    3    0    0 -0.12877385679E+02 -0.11007833053E+02  0.24476236847E+02  0.29767190342E+02  0.51100000000E-03 0. -1.
        -11    1    3    3    0    0  0.98273299803E+01 -0.36513143895E+01  0.49605822693E+01  0.11598098466E+02  0.51100000000E-03 0.  1.
         12    1    3    3    0    0  0.31224608360E+01  0.31849598971E+00  0.86092870387E+01  0.91635705204E+01  0.00000000000E+00 0. -1.
</event>
<event>
 7    1  0.5155466E-011  0.5052887E+02  0.7816164E-02  0.1300439E+00
        -11   -1    0    0    0    0  0.00000000000E+00  0.00000000000E+00  0.45593999997E+02  0.45594000000E+02  0.51100000000E-03 0.  1.
         11   -1    0    0    0    0 -0.00000000000E+00 -0.00000000000E+00 -0.45593999997E+02  0.45594000000E+02  0.51100000000E-03 0. -1.
    9900012    2    1    2    0    0 -0.21579351533E+02  0.83242812493E+01 -0.33439542191E+02  0.50528867534E+02  0.30000023358E+02 0.  0.
        -12    1    1    2    0    0  0.21579351533E+02 -0.83242812493E+01  0.33439542191E+02  0.40659132466E+02  0.00000000000E+00 0.  1.
         11    1    3    3    0    0 -0.10333775532E+02 -0.46508528867E+01 -0.18645592687E+02  0.21819153884E+02  0.51100000000E-03 0. -1.
        -11    1    3    3    0    0 -0.72195031153E+01  0.16631067078E+02 -0.75213883117E+01  0.19628675447E+02  0.51100000000E-03 0.  1.
        -12    1    3    3    0    0 -0.40260728857E+01 -0.36559329420E+01 -0.72725611926E+01  0.90810382038E+01  0.00000000000E+00 0.  1.
</event>
<event>
 7    1  0.5155466E-011  0.5052885E+02  0.7816164E-02  0.1300439E+00
        -11   -1    0    0    0    0  0.00000000000E+00  0.00000000000E+00  0.45593999997E+02  0.45594000000E+02  0.51100000000E-03 0.  1.
         11   -1    0    0    0    0 -0.00000000000E+00 -0.00000000000E+00 -0.45593999997E+02  0.45594000000E+02  0.51100000000E-03 0. -1.
    9900012    2    1    2    0    0  0.13954430706E+02 -0.20892567486E+02 -0.31967808150E+02  0.50528852561E+02  0.29999977846E+02 0.  0.
        -12    1    1    2    0    0 -0.13954430706E+02  0.20892567486E+02  0.31967808150E+02  0.40659147439E+02  0.00000000000E+00 0.  1.
         11    1    3    3    0    0  0.95431256085E+01 -0.12399403856E+01  0.11417418890E+01  0.96908345018E+01  0.51100000000E-03 0.  1.
        -11    1    3    3    0    0  0.18939243996E+01 -0.11961432634E+02 -0.29666848257E+02  0.32043481490E+02  0.51100000000E-03 0. -1.
        -12    1    3    3    0    0  0.25173806978E+01 -0.76911944666E+01 -0.34427017829E+01  0.87945365692E+01  0.00000000000E+00 0.  1.
</event>
<event>
 7    1  0.5155466E-011  0.5052886E+02  0.7816164E-02  0.1300439E+00
        -11   -1    0    0    0    0  0.00000000000E+00  0.00000000000E+00  0.45593999997E+02  0.45594000000E+02  0.51100000000E-03 0. -1.
         11   -1    0    0    0    0 -0.00000000000E+00 -0.00000000000E+00 -0.45593999997E+02  0.45594000000E+02  0.51100000000E-03 0.  1.
    9900012    2    1    2    0    0  0.90999556974E+00 -0.10637911914E+02  0.39232284051E+02  0.50528863589E+02  0.30000011366E+02 0.  0.
        -12    1    1    2    0    0 -0.90999556974E+00  0.10637911914E+02 -0.39232284051E+02  0.40659136411E+02  0.00000000000E+00 0.  1.
         11    1    3    3    0    0 -0.10294711676E+02 -0.23268398859E+01  0.19249967108E+02  0.21953507835E+02  0.51100000000E-03 0. -1.
        -11    1    3    3    0    0  0.10681693170E+02 -0.54244629052E+01  0.44681002990E+01  0.12786214738E+02  0.51100000000E-03 0.  1.
        -12    1    3    3    0    0  0.52301407604E+00 -0.28866091228E+01  0.15514216644E+02  0.15789141016E+02  0.00000000000E+00 0.  1.
</event>
<event>
 7    1  0.5699259E-011  0.5052887E+02  0.7816164E-02  0.1300439E+00
        -11   -1    0    0    0    0  0.00000000000E+00  0.00000000000E+00  0.45593999997E+02  0.45594000000E+02  0.51100000000E-03 0.  1.
         11   -1    0    0    0    0 -0.00000000000E+00 -0.00000000000E+00 -0.45593999997E+02  0.45594000000E+02  0.51100000000E-03 0. -1.
    9900012    2    1    2    0    0  0.37398850660E+01 -0.39976621181E+02  0.64068817237E+01  0.50528866773E+02  0.30000021043E+02 0.  0.
        -12    1    1    2    0    0 -0.37398850660E+01  0.39976621181E+02 -0.64068817237E+01  0.40659133227E+02  0.00000000000E+00 0.  1.
         11    1    3    3    0    0 -0.58158060639E+01 -0.22679314540E+02  0.86049143457E+01  0.24944327197E+02  0.51100000000E-03 0. -1.
        -11    1    3    3    0    0  0.31706954142E+01  0.21836539333E+01 -0.32767201502E+01  0.50555463714E+01  0.51100000000E-03 0.  1.
        -12    1    3    3    0    0  0.63849957157E+01 -0.19480960574E+02  0.10786875281E+01  0.20528993204E+02  0.00000000000E+00 0.  1.
</event>
<event>
 7    1  0.5155466E-011  0.5052886E+02  0.7816164E-02  0.1300439E+00
        -11   -1    0    0    0    0  0.00000000000E+00  0.00000000000E+00  0.45593999997E+02  0.45594000000E+02  0.51100000000E-03 0.  1.
         11   -1    0    0    0    0 -0.00000000000E+00 -0.00000000000E+00 -0.45593999997E+02  0.45594000000E+02  0.51100000000E-03 0. -1.
    9900012    2    1    2    0    0  0.23699503969E+02 -0.32156774986E+02 -0.75789789735E+01  0.50528860952E+02  0.30000003349E+02 0.  0.
        -12    1    1    2    0    0 -0.23699503969E+02  0.32156774986E+02  0.75789789735E+01  0.40659139048E+02  0.00000000000E+00 0.  1.
         11    1    3    3    0    0  0.16481528460E+02 -0.29134077048E+02 -0.67437022674E+01  0.34145464506E+02  0.51100000000E-03 0. -1.
        -11    1    3    3    0    0  0.13732628754E+01 -0.74884302176E+00  0.65271625894E+01  0.67119645802E+01  0.51100000000E-03 0.  1.
         12    1    3    3    0    0  0.58447126328E+01 -0.22738549166E+01 -0.73624392956E+01  0.96714318652E+01  0.00000000000E+00 0. -1.
</event>
<event>
 7    1  0.5155466E-011  0.5052886E+02  0.7816164E-02  0.1300439E+00
        -11   -1    0    0    0    0  0.00000000000E+00  0.00000000000E+00  0.45593999997E+02  0.45594000000E+02  0.51100000000E-03 0.  1.
         11   -1    0    0    0    0 -0.00000000000E+00 -0.00000000000E+00 -0.45593999997E+02  0.45594000000E+02  0.51100000000E-03 0. -1.
    9900012    2    1    2    0    0  0.32815983889E+02  0.21981496342E+02 -0.96483657526E+01  0.50528856604E+02  0.29999990133E+02 0.  0.
        -12    1    1    2    0    0 -0.32815983889E+02 -0.21981496342E+02  0.96483657526E+01  0.40659143396E+02  0.00000000000E+00 0.  1.
         11    1    3    3    0    0  0.10295581214E+02  0.78475014851E+01  0.28446253235E+01  0.13254213126E+02  0.51100000000E-03 0. -1.
        -11    1    3    3    0    0  0.10104516468E+02 -0.47748512193E+01 -0.90765024928E+01  0.14397338469E+02  0.51100000000E-03 0.  1.
        -12    1    3    3    0    0  0.12415886206E+02  0.18908846076E+02 -0.34164885833E+01  0.22877305009E+02  0.00000000000E+00 0.  1.
</event>
<event>
 7    1  0.5155466E-011  0.5052887E+02  0.7816164E-02  0.1300439E+00
        -11   -1    0    0    0    0  0.00000000000E+00  0.00000000000E+00  0.45593999997E+02  0.45594000000E+02  0.51100000000E-03 0.  1.
         11   -1    0    0    0    0 -0.00000000000E+00 -0.00000000000E+00 -0.45593999997E+02  0.45594000000E+02  0.51100000000E-03 0. -1.
    9900012    2    1    2    0    0 -0.21147169500E+02 -0.21064541954E+02 -0.27608829153E+02  0.50528866305E+02  0.30000019621E+02 0.  0.
        -12    1    1    2    0    0  0.21147169500E+02  0.21064541954E+02  0.27608829153E+02  0.40659133695E+02  0.00000000000E+00 0.  1.
         11    1    3    3    0    0  0.29902300435E+01 -0.10195100626E+02  0.11885705399E+00  0.10625237868E+02  0.51100000000E-03 0. -1.
        -11    1    3    3    0    0 -0.18456548173E+02 -0.30414661496E+01 -0.15365109635E+02  0.24207050237E+02  0.51100000000E-03 0.  1.
         12    1    3    3    0    0 -0.56808513703E+01 -0.78279751785E+01 -0.12362576572E+02  0.15696578200E+02  0.00000000000E+00 0. -1.
</event>
<event>
 7    1  0.5155466E-011  0.5052886E+02  0.7816164E-02  0.1300439E+00
        -11   -1    0    0    0    0  0.00000000000E+00  0.00000000000E+00  0.45593999997E+02  0.45594000000E+02  0.51100000000E-03 0.  1.
         11   -1    0    0    0    0 -0.00000000000E+00 -0.00000000000E+00 -0.45593999997E+02  0.45594000000E+02  0.51100000000E-03 0. -1.
    9900012    2    1    2    0    0 -0.24781737912E+02 -0.28934023547E+00 -0.32232713219E+02  0.50528855234E+02  0.29999985968E+02 0.  0.
        -12    1    1    2    0    0  0.24781737912E+02  0.28934023547E+00  0.32232713219E+02  0.40659144766E+02  0.00000000000E+00 0.  1.
         11    1    3    3    0    0 -0.15447586510E+02 -0.33018010869E+01 -0.13805104487E+02  0.20978816210E+02  0.51100000000E-03 0. -1.
        -11    1    3    3    0    0  0.56764152753E+01  0.54406728202E+01 -0.55524684136E+01  0.96256177391E+01  0.51100000000E-03 0.  1.
        -12    1    3    3    0    0 -0.15010566677E+02 -0.24282119688E+01 -0.12875140318E+02  0.19924421285E+02  0.00000000000E+00 0.  1.
</event>
<event>
 7    1  0.5155466E-011  0.5052885E+02  0.7816164E-02  0.1300439E+00
        -11   -1    0    0    0    0  0.00000000000E+00  0.00000000000E+00  0.45593999997E+02  0.45594000000E+02  0.51100000000E-03 0.  1.
         11   -1    0    0    0    0 -0.00000000000E+00 -0.00000000000E+00 -0.45593999997E+02  0.45594000000E+02  0.51100000000E-03 0. -1.
    9900012    2    1    2    0    0 -0.17810238217E+02  0.22755888956E+02 -0.28602993149E+02  0.50528852387E+02  0.29999977314E+02 0.  0.
        -12    1    1    2    0    0  0.17810238217E+02 -0.22755888956E+02  0.28602993149E+02  0.40659147613E+02  0.00000000000E+00 0.  1.
         11    1    3    3    0    0 -0.21856025673E+01  0.13764017249E+02 -0.21110210012E+02  0.25295572665E+02  0.51100000000E-03 0. -1.
        -11    1    3    3    0    0 -0.95406371565E+01  0.75341655450E+01  0.34425447501E+01  0.12634813906E+02  0.51100000000E-03 0.  1.
        -12    1    3    3    0    0 -0.60839984933E+01  0.14577061623E+01 -0.10935327887E+02  0.12598465816E+02  0.00000000000E+00 0.  1.
</event>
<event>
 7    1  0.5155466E-011  0.5052886E+02  0.7816164E-02  0.1300439E+00
        -11   -1    0    0    0    0  0.00000000000E+00  0.00000000000E+00  0.45593999997E+02  0.45594000000E+02  0.51100000000E-03 0.  1.
         11   -1    0    0    0    0 -0.00000000000E+00 -0.00000000000E+00 -0.45593999997E+02  0.45594000000E+02  0.51100000000E-03 0. -1.
    9900012    2    1    2    0    0 -0.38443590505E+02 -0.90438238905E+01  0.96677501704E+01  0.50528858410E+02  0.29999995622E+02 0.  0.
        -12    1    1    2    0    0  0.38443590505E+02  0.90438238905E+01 -0.96677501704E+01  0.40659141590E+02  0.00000000000E+00 0.  1.
         11    1    3    3    0    0 -0.73681910103E+01  0.25039208999E+01  0.13104482223E+02  0.15240974813E+02  0.51100000000E-03 0. -1.
        -11    1    3    3    0    0 -0.81030717225E+01 -0.44759584286E+01 -0.61277993395E+01  0.11101526931E+02  0.51100000000E-03 0.  1.
         12    1    3    3    0    0 -0.22972327773E+02 -0.70717863618E+01  0.26910672867E+01  0.24186356666E+02  0.00000000000E+00 0. -1.
</event>
<event>
 7    1  0.7079331E-011  0.5052887E+02  0.7816164E-02  0.1300439E+00
        -11   -1    0    0    0    0  0.00000000000E+00  0.00000000000E+00  0.45593999997E+02  0.45594000000E+02  0.51100000000E-03 0. -1.
         11   -1    0    0    0    0 -0.00000000000E+00 -0.00000000000E+00 -0.45593999997E+02  0.45594000000E+02  0.51100000000E-03 0.  1.
    9900012    2    1    2    0    0 -0.14714325219E+02 -0.33342813519E+02  0.18025275346E+02  0.50528866570E+02  0.30000020425E+02 0.  0.
        -12    1    1    2    0    0  0.14714325219E+02  0.33342813519E+02 -0.18025275346E+02  0.40659133430E+02  0.00000000000E+00 0.  1.
         11    1    3    3    0    0 -0.17241177602E+02 -0.15896618564E+02  0.70484854716E+01  0.24487585316E+02  0.51100000000E-03 0. -1.
        -11    1    3    3    0    0  0.29426152866E+01 -0.20406618816E+02  0.98042930168E+01  0.22830095007E+02  0.51100000000E-03 0.  1.
        -12    1    3    3    0    0 -0.41576290331E+00  0.29604238612E+01  0.11724968579E+01  0.32111862468E+01  0.00000000000E+00 0.  1.
</event>
<event>
 7    1  0.5155466E-011  0.5052886E+02  0.7816164E-02  0.1300439E+00
        -11   -1    0    0    0    0  0.00000000000E+00  0.00000000000E+00  0.45593999997E+02  0.45594000000E+02  0.51100000000E-03 0.  1.
         11   -1    0    0    0    0 -0.00000000000E+00 -0.00000000000E+00 -0.45593999997E+02  0.45594000000E+02  0.51100000000E-03 0. -1.
    9900012    2    1    2    0    0 -0.22171604948E+02  0.34082008379E+02  0.51146162398E-01  0.50528856169E+02  0.29999988812E+02 0.  0.
        -12    1    1    2    0    0  0.22171604948E+02 -0.34082008379E+02 -0.51146162398E-01  0.40659143831E+02  0.00000000000E+00 0.  1.
         11    1    3    3    0    0 -0.95650668347E+01  0.26666301503E+02  0.94556425547E+01  0.29866223661E+02  0.51100000000E-03 0. -1.
        -11    1    3    3    0    0 -0.12141661780E+02  0.12656621138E+01 -0.67351924719E+01  0.13942190260E+02  0.51100000000E-03 0.  1.
         12    1    3    3    0    0 -0.46487633345E+00  0.61500447624E+01 -0.26693039204E+01  0.67204422477E+01  0.00000000000E+00 0. -1.
</event>
<event>
 7    1  0.5155466E-011  0.5052886E+02  0.7816164E-02  0.1300439E+00
        -11   -1    0    0    0    0  0.00000000000E+00  0.00000000000E+00  0.45593999997E+02  0.45594000000E+02  0.51100000000E-03 0.  1.
         11   -1    0    0    0    0 -0.00000000000E+00 -0.00000000000E+00 -0.45593999997E+02  0.45594000000E+02  0.51100000000E-03 0. -1.
    9900012    2    1    2    0    0  0.19202780513E+02 -0.47017702465E+01 -0.35529039026E+02  0.50528855433E+02  0.29999986573E+02 0.  0.
        -12    1    1    2    0    0 -0.19202780513E+02  0.47017702465E+01  0.35529039026E+02  0.40659144567E+02  0.00000000000E+00 0.  1.
         11    1    3    3    0    0  0.39069482035E+01  0.44942504052E+01 -0.84011507801E+01  0.10297663116E+02  0.51100000000E-03 0. -1.
        -11    1    3    3    0    0  0.21389286679E+02 -0.98473118944E+01 -0.20732318743E+02  0.31373558563E+02  0.51100000000E-03 0.  1.
        -12    1    3    3    0    0 -0.60934543699E+01  0.65129124274E+00 -0.63955695026E+01  0.88576337530E+01  0.00000000000E+00 0.  1.
</event>
<event>
 7    1  0.5155466E-011  0.5052883E+02  0.7816164E-02  0.1300439E+00
        -11   -1    0    0    0    0  0.00000000000E+00  0.00000000000E+00  0.45593999997E+02  0.45594000000E+02  0.51100000000E-03 0.  1.
         11   -1    0    0    0    0 -0.00000000000E+00 -0.00000000000E+00 -0.45593999997E+02  0.45594000000E+02  0.51100000000E-03 0. -1.
    9900012    2    1    2    0    0  0.24330689350E+02 -0.91187733249E+00 -0.32563079192E+02  0.50528830174E+02  0.29999909795E+02 0.  0.
        -12    1    1    2    0    0 -0.24330689350E+02  0.91187733249E+00  0.32563079192E+02  0.40659169826E+02  0.00000000000E+00 0.  1.
         11    1    3    3    0    0 -0.22524421324E+01 -0.39983109545E+01 -0.13372893613E+02  0.14138397006E+02  0.51100000000E-03 0. -1.
        -11    1    3    3    0    0  0.69865846254E+01  0.17068358888E+01  0.20298372311E+01  0.74730109678E+01  0.51100000000E-03 0.  1.
         12    1    3    3    0    0  0.19596546857E+02  0.13795977332E+01 -0.21220022810E+02  0.28917422200E+02  0.00000000000E+00 0. -1.
</event>
<event>
 7    1  0.5155466E-011  0.5052886E+02  0.7816164E-02  0.1300439E+00
        -11   -1    0    0    0    0  0.00000000000E+00  0.00000000000E+00  0.45593999997E+02  0.45594000000E+02  0.51100000000E-03 0.  1.
         11   -1    0    0    0    0 -0.00000000000E+00 -0.00000000000E+00 -0.45593999997E+02  0.45594000000E+02  0.51100000000E-03 0. -1.
    9900012    2    1    2    0    0  0.22239268775E+02 -0.19404886519E+02 -0.27964821751E+02  0.50528856477E+02  0.29999989748E+02 0.  0.
        -12    1    1    2    0    0 -0.22239268775E+02  0.19404886519E+02  0.27964821751E+02  0.40659143523E+02  0.00000000000E+00 0.  1.
         11    1    3    3    0    0  0.97988385558E+01  0.60965501767E+01 -0.27861527211E+01  0.11872144219E+02  0.51100000000E-03 0.  1.
        -11    1    3    3    0    0  0.38513585648E+01 -0.15558206190E+02 -0.11784208044E+02  0.19893674928E+02  0.51100000000E-03 0. -1.
         12    1    3    3    0    0  0.85890716540E+01 -0.99432305057E+01 -0.13394460986E+02  0.18763037331E+02  0.00000000000E+00 0. -1.
</event>
<event>
 7    1  0.5155466E-011  0.5052885E+02  0.7816164E-02  0.1300439E+00
        -11   -1    0    0    0    0  0.00000000000E+00  0.00000000000E+00  0.45593999997E+02  0.45594000000E+02  0.51100000000E-03 0.  1.
         11   -1    0    0    0    0 -0.00000000000E+00 -0.00000000000E+00 -0.45593999997E+02  0.45594000000E+02  0.51100000000E-03 0. -1.
    9900012    2    1    2    0    0 -0.35249243805E+02  0.47520107031E+01 -0.19699642273E+02  0.50528847276E+02  0.29999961780E+02 0.  0.
        -12    1    1    2    0    0  0.35249243805E+02 -0.47520107031E+01  0.19699642273E+02  0.40659152724E+02  0.00000000000E+00 0.  1.
         11    1    3    3    0    0 -0.89408694186E+01  0.14019802956E+02 -0.10956914874E+02  0.19913513118E+02  0.51100000000E-03 0. -1.
        -11    1    3    3    0    0 -0.18440723457E+02 -0.36382267640E+01 -0.92067652712E+01  0.20929918839E+02  0.51100000000E-03 0.  1.
         12    1    3    3    0    0 -0.78676509300E+01 -0.56295654888E+01  0.46403787254E+00  0.96854153188E+01  0.00000000000E+00 0. -1.
</event>
<event>
 7    1  0.5155466E-011  0.5052886E+02  0.7816164E-02  0.1300439E+00
        -11   -1    0    0    0    0  0.00000000000E+00  0.00000000000E+00  0.45593999997E+02  0.45594000000E+02  0.51100000000E-03 0.  1.
         11   -1    0    0    0    0 -0.00000000000E+00 -0.00000000000E+00 -0.45593999997E+02  0.45594000000E+02  0.51100000000E-03 0. -1.
    9900012    2    1    2    0    0  0.15889670297E+02  0.37042179354E+02 -0.53442441594E+01  0.50528860571E+02  0.30000002193E+02 0.  0.
        -12    1    1    2    0    0 -0.15889670297E+02 -0.37042179354E+02  0.53442441594E+01  0.40659139429E+02  0.00000000000E+00 0.  1.
         11    1    3    3    0    0  0.78673918012E+01  0.16318848143E+02 -0.93479180017E+01  0.20385883098E+02  0.51100000000E-03 0. -1.
        -11    1    3    3    0    0  0.69172924666E+01  0.11768864015E+00  0.63297751512E+01  0.93770378804E+01  0.51100000000E-03 0.  1.
        -12    1    3    3    0    0  0.11049860295E+01  0.20605642570E+02 -0.23261013088E+01  0.20765939593E+02  0.00000000000E+00 0.  1.
</event>
<event>
 7    1  0.5155466E-011  0.5052885E+02  0.7816164E-02  0.1300439E+00
        -11   -1    0    0    0    0  0.00000000000E+00  0.00000000000E+00  0.45593999997E+02  0.45594000000E+02  0.51100000000E-03 0.  1.
         11   -1    0    0    0    0 -0.00000000000E+00 -0.00000000000E+00 -0.45593999997E+02  0.45594000000E+02  0.51100000000E-03 0. -1.
    9900012    2    1    2    0    0 -0.10195311933E+01 -0.36203383390E+02 -0.18478144720E+02  0.50528852874E+02  0.29999978796E+02 0.  0.
        -12    1    1    2    0    0  0.10195311933E+01  0.36203383390E+02  0.18478144720E+02  0.40659147126E+02  0.00000000000E+00 0.  1.
         11    1    3    3    0    0 -0.27048400365E+00 -0.10470619373E+01 -0.24526207370E+01  0.26804568711E+01  0.51100000000E-03 0. -1.
        -11    1    3    3    0    0  0.81640957300E+01 -0.59942680073E+01  0.45074015208E+01  0.11086044234E+02  0.51100000000E-03 0.  1.
        -12    1    3    3    0    0 -0.89131429197E+01 -0.29162053445E+02 -0.20532925504E+02  0.36762351769E+02  0.00000000000E+00 0.  1.
</event>
<event>
 7    1  0.5155466E-011  0.5052887E+02  0.7816164E-02  0.1300439E+00
        -11   -1    0    0    0    0  0.00000000000E+00  0.00000000000E+00  0.45593999997E+02  0.45594000000E+02  0.51100000000E-03 0.  1.
         11   -1    0    0    0    0 -0.00000000000E+00 -0.00000000000E+00 -0.45593999997E+02  0.45594000000E+02  0.51100000000E-03 0. -1.
    9900012    2    1    2    0    0  0.10493672070E+02 -0.39176293852E+02  0.28750784668E+01  0.50528865360E+02  0.30000016748E+02 0.  0.
        -12    1    1    2    0    0 -0.10493672070E+02  0.39176293852E+02 -0.28750784668E+01  0.40659134640E+02  0.00000000000E+00 0.  1.
         11    1    3    3    0    0  0.29945561814E+01 -0.37060719905E+01 -0.59783559684E+01  0.76448071701E+01  0.51100000000E-03 0. -1.
        -11    1    3    3    0    0  0.99372105925E+01 -0.35853159693E+02  0.39745776002E+01  0.37416500126E+02  0.51100000000E-03 0.  1.
        -12    1    3    3    0    0 -0.24380947039E+01  0.38293783112E+00  0.48788568349E+01  0.54675580640E+01  0.00000000000E+00 0.  1.
</event>
<event>
 7    1  0.5155466E-011  0.5052887E+02  0.7816164E-02  0.1300439E+00
        -11   -1    0    0    0    0  0.00000000000E+00  0.00000000000E+00  0.45593999997E+02  0.45594000000E+02  0.51100000000E-03 0. -1.
         11   -1    0    0    0    0 -0.00000000000E+00 -0.00000000000E+00 -0.45593999997E+02  0.45594000000E+02  0.51100000000E-03 0.  1.
    9900012    2    1    2    0    0  0.30183588760E+02 -0.83883652953E+01  0.25918155067E+02  0.50528874766E+02  0.30000045339E+02 0.  0.
        -12    1    1    2    0    0 -0.30183588760E+02  0.83883652953E+01 -0.25918155067E+02  0.40659125234E+02  0.00000000000E+00 0.  1.
         11    1    3    3    0    0  0.78991087425E+01 -0.68339555142E+01  0.24487615549E+02  0.26622212201E+02  0.51100000000E-03 0. -1.
        -11    1    3    3    0    0  0.11881469587E+02 -0.49947777416E+01  0.12363882463E+01  0.12947809868E+02  0.51100000000E-03 0.  1.
         12    1    3    3    0    0  0.10403010431E+02  0.34403679605E+01  0.19415127085E+00  0.10958852697E+02  0.00000000000E+00 0. -1.
</event>
<event>
 7    1  0.5155466E-011  0.5052886E+02  0.7816164E-02  0.1300439E+00
        -11   -1    0    0    0    0  0.00000000000E+00  0.00000000000E+00  0.45593999997E+02  0.45594000000E+02  0.51100000000E-03 0.  1.
         11   -1    0    0    0    0 -0.00000000000E+00 -0.00000000000E+00 -0.45593999997E+02  0.45594000000E+02  0.51100000000E-03 0. -1.
    9900012    2    1    2    0    0 -0.25155553061E+02  0.21719650336E+02 -0.23422652850E+02  0.50528859244E+02  0.29999998157E+02 0.  0.
        -12    1    1    2    0    0  0.25155553061E+02 -0.21719650336E+02  0.23422652850E+02  0.40659140756E+02  0.00000000000E+00 0.  1.
         11    1    3    3    0    0 -0.89635692502E+01 -0.44009076312E+01 -0.13963888593E+01  0.10082830148E+02  0.51100000000E-03 0.  1.
        -11    1    3    3    0    0 -0.18754418455E+02  0.24167150257E+02 -0.20830031024E+02  0.37009046946E+02  0.51100000000E-03 0. -1.
        -12    1    3    3    0    0  0.25624346442E+01  0.19534077102E+01 -0.11962329668E+01  0.34369821499E+01  0.00000000000E+00 0.  1.
</event>
<event>
 7    1  0.5155466E-011  0.5052886E+02  0.7816164E-02  0.1300439E+00
        -11   -1    0    0    0    0  0.00000000000E+00  0.00000000000E+00  0.45593999997E+02  0.45594000000E+02  0.51100000000E-03 0.  1.
         11   -1    0    0    0    0 -0.00000000000E+00 -0.00000000000E+00 -0.45593999997E+02  0.45594000000E+02  0.51100000000E-03 0. -1.
    9900012    2    1    2    0    0 -0.40293065463E+02 -0.22955552868E+01  0.49361245214E+01  0.50528855595E+02  0.29999987065E+02 0.  0.
        -12    1    1    2    0    0  0.40293065463E+02  0.22955552868E+01 -0.49361245214E+01  0.40659144405E+02  0.00000000000E+00 0.  1.
         11    1    3    3    0    0 -0.17099550165E+02  0.49374084946E+01  0.74098077387E+01  0.19278948868E+02  0.51100000000E-03 0. -1.
        -11    1    3    3    0    0 -0.35618226839E+01  0.57019426630E+00 -0.85399773053E+01  0.92705401660E+01  0.51100000000E-03 0.  1.
        -12    1    3    3    0    0 -0.19631692615E+02 -0.78031580477E+01  0.60662940880E+01  0.21979366560E+02  0.00000000000E+00 0.  1.
</event>
<event>
 7    1  0.5155466E-011  0.5052886E+02  0.7816164E-02  0.1300439E+00
        -11   -1    0    0    0    0  0.00000000000E+00  0.00000000000E+00  0.45593999997E+02  0.45594000000E+02  0.51100000000E-03 0.  1.
         11   -1    0    0    0    0 -0.00000000000E+00 -0.00000000000E+00 -0.45593999997E+02  0.45594000000E+02  0.51100000000E-03 0. -1.
    9900012    2    1    2    0    0 -0.21468611560E+02  0.26919414705E+02 -0.21624280364E+02  0.50528859925E+02  0.30000000228E+02 0.  0.
        -12    1    1    2    0    0  0.21468611560E+02 -0.26919414705E+02  0.21624280364E+02  0.40659140075E+02  0.00000000000E+00 0.  1.
         11    1    3    3    0    0 -0.22625539706E+01  0.14242571629E+01 -0.15558001894E+02  0.15786040736E+02  0.51100000000E-03 0. -1.
        -11    1    3    3    0    0 -0.19562590800E+02  0.17929095080E+02 -0.36109168806E+01  0.26780331032E+02  0.51100000000E-03 0.  1.
         12    1    3    3    0    0  0.35653321125E+00  0.75660624617E+01 -0.24553615901E+01  0.79624881566E+01  0.00000000000E+00 0. -1.
</event>
<event>
 7    1  0.5155466E-011  0.5052885E+02  0.7816164E-02  0.1300439E+00
        -11   -1    0    0    0    0  0.00000000000E+00  0.00000000000E+00  0.45593999997E+02  0.45594000000E+02  0.51100000000E-03 0. -1.
         11   -1    0    0    0    0 -0.00000000000E+00 -0.00000000000E+00 -0.45593999997E+02  0.45594000000E+02  0.51100000000E-03 0.  1.
    9900012    2    1    2    0    0 -0.70072703186E+01 -0.27674459040E+01  0.39955044931E+02  0.50528853309E+02  0.29999980119E+02 0.  0.
        -12    1    1    2    0    0  0.70072703186E+01  0.27674459040E+01 -0.39955044931E+02  0.40659146691E+02  0.00000000000E+00 0.  1.
         11    1    3    3    0    0 -0.89808932790E+01 -0.16819041975E+01 -0.61219915040E+00  0.91575124285E+01  0.51100000000E-03 0. -1.
        -11    1    3    3    0    0  0.23799421077E+00 -0.32874348171E+01  0.75856064400E+01  0.82707493157E+01  0.51100000000E-03 0.  1.
         12    1    3    3    0    0  0.17356287496E+01  0.22018931105E+01  0.32981637642E+02  0.33100591565E+02  0.00000000000E+00 0. -1.
</event>
<event>
 7    1  0.5155466E-011  0.5052875E+02  0.7816164E-02  0.1300439E+00
        -11   -1    0    0    0    0  0.00000000000E+00  0.00000000000E+00  0.45593999997E+02  0.45594000000E+02  0.51100000000E-03 0. -1.
         11   -1    0    0    0    0 -0.00000000000E+00 -0.00000000000E+00 -0.45593999997E+02  0.45594000000E+02  0.51100000000E-03 0.  1.
    9900012    2    1    2    0    0  0.86737246417E+01 -0.39398232285E+02  0.50715550608E+01  0.50528746722E+02  0.29999656136E+02 0.  0.
        -12    1    1    2    0    0 -0.86737246417E+01  0.39398232285E+02 -0.50715550608E+01  0.40659253278E+02  0.00000000000E+00 0.  1.
         11    1    3    3    0    0  0.12206688833E+02 -0.20404237878E+02 -0.26393795014E+01  0.23922844732E+02  0.51100000000E-03 0. -1.
        -11    1    3    3    0    0 -0.84695401007E+01 -0.42575887606E+01  0.55334376641E+00  0.94955969353E+01  0.51100000000E-03 0.  1.
        -12    1    3    3    0    0  0.49365759094E+01 -0.14736405647E+02  0.71575907958E+01  0.17110305055E+02  0.00000000000E+00 0.  1.
</event>
<event>
 7    1  0.5155466E-011  0.5052886E+02  0.7816164E-02  0.1300439E+00
        -11   -1    0    0    0    0  0.00000000000E+00  0.00000000000E+00  0.45593999997E+02  0.45594000000E+02  0.51100000000E-03 0.  1.
         11   -1    0    0    0    0 -0.00000000000E+00 -0.00000000000E+00 -0.45593999997E+02  0.45594000000E+02  0.51100000000E-03 0. -1.
    9900012    2    1    2    0    0  0.23000520568E+02  0.29967611956E+01 -0.33394032514E+02  0.50528856728E+02  0.29999990511E+02 0.  0.
        -12    1    1    2    0    0 -0.23000520568E+02 -0.29967611956E+01  0.33394032514E+02  0.40659143272E+02  0.00000000000E+00 0.  1.
         11    1    3    3    0    0 -0.52168068897E+01 -0.47630141958E+01 -0.97985782720E+01  0.12079466659E+02  0.51100000000E-03 0. -1.
        -11    1    3    3    0    0  0.23256755918E+02  0.94131035471E+01 -0.20249119996E+02  0.32241434135E+02  0.51100000000E-03 0.  1.
         12    1    3    3    0    0  0.49605715402E+01 -0.16533281557E+01 -0.33463342454E+01  0.62079559340E+01  0.00000000000E+00 0. -1.
</event>
<event>
 7    1  0.5155466E-011  0.5052886E+02  0.7816164E-02  0.1300439E+00
        -11   -1    0    0    0    0  0.00000000000E+00  0.00000000000E+00  0.45593999997E+02  0.45594000000E+02  0.51100000000E-03 0.  1.
         11   -1    0    0    0    0 -0.00000000000E+00 -0.00000000000E+00 -0.45593999997E+02  0.45594000000E+02  0.51100000000E-03 0. -1.
    9900012    2    1    2    0    0 -0.30441490085E+02  0.28183579987E+01 -0.26805555708E+02  0.50528864775E+02  0.30000014971E+02 0.  0.
        -12    1    1    2    0    0  0.30441490085E+02 -0.28183579987E+01  0.26805555708E+02  0.40659135225E+02  0.00000000000E+00 0.  1.
         11    1    3    3    0    0 -0.31196446879E+02 -0.68996402287E+01 -0.15617501937E+02  0.35563038399E+02  0.51100000000E-03 0. -1.
        -11    1    3    3    0    0  0.20885262500E+00  0.86695330716E+01 -0.10417717497E+02  0.13554824278E+02  0.51100000000E-03 0.  1.
         12    1    3    3    0    0  0.54610416887E+00  0.10484651559E+01 -0.77033627345E+00  0.14110020980E+01  0.00000000000E+00 0. -1.
</event>
<event>
 7    1  0.5155466E-011  0.5052886E+02  0.7816164E-02  0.1300439E+00
        -11   -1    0    0    0    0  0.00000000000E+00  0.00000000000E+00  0.45593999997E+02  0.45594000000E+02  0.51100000000E-03 0.  1.
         11   -1    0    0    0    0 -0.00000000000E+00 -0.00000000000E+00 -0.45593999997E+02  0.45594000000E+02  0.51100000000E-03 0. -1.
    9900012    2    1    2    0    0 -0.77706572621E+00  0.23287136851E+02 -0.33320730357E+02  0.50528860248E+02  0.30000001210E+02 0.  0.
        -12    1    1    2    0    0  0.77706572621E+00 -0.23287136851E+02  0.33320730357E+02  0.40659139752E+02  0.00000000000E+00 0.  1.
         11    1    3    3    0    0  0.58631002778E+01  0.93883771631E+01 -0.11517624349E+02  0.15974142904E+02  0.51100000000E-03 0. -1.
        -11    1    3    3    0    0 -0.11761778097E+02  0.49377891891E+00 -0.13744181675E+02  0.18096567956E+02  0.51100000000E-03 0.  1.
        -12    1    3    3    0    0  0.51216120929E+01  0.13404980769E+02 -0.80589243327E+01  0.16458149387E+02  0.00000000000E+00 0.  1.
</event>
<event>
 7    1  0.5155466E-011  0.5052886E+02  0.7816164E-02  0.1300439E+00
        -11   -1    0    0    0    0  0.00000000000E+00  0.00000000000E+00  0.45593999997E+02  0.45594000000E+02  0.51100000000E-03 0.  1.
         11   -1    0    0    0    0 -0.00000000000E+00 -0.00000000000E+00 -0.45593999997E+02  0.45594000000E+02  0.51100000000E-03 0. -1.
    9900012    2    1    2    0    0 -0.24018851587E+02  0.19811636337E+02 -0.26148790657E+02  0.50528863035E+02  0.30000009682E+02 0.  0.
        -12    1    1    2    0    0  0.24018851587E+02 -0.19811636337E+02  0.26148790657E+02  0.40659136965E+02  0.00000000000E+00 0.  1.
         11    1    3    3    0    0 -0.28929108685E+01 -0.30105024382E+01 -0.14286478981E+02  0.14884070013E+02  0.51100000000E-03 0. -1.
        -11    1    3    3    0    0 -0.79766840322E+01  0.17778482472E+02 -0.77802183368E+01  0.20981747419E+02  0.51100000000E-03 0.  1.
         12    1    3    3    0    0 -0.13149256686E+02  0.50436563037E+01 -0.40820933387E+01  0.14663045603E+02  0.00000000000E+00 0. -1.
</event>
<event>
 7    1  0.5155466E-011  0.5052886E+02  0.7816164E-02  0.1300439E+00
        -11   -1    0    0    0    0  0.00000000000E+00  0.00000000000E+00  0.45593999997E+02  0.45594000000E+02  0.51100000000E-03 0.  1.
         11   -1    0    0    0    0 -0.00000000000E+00 -0.00000000000E+00 -0.45593999997E+02  0.45594000000E+02  0.51100000000E-03 0. -1.
    9900012    2    1    2    0    0 -0.13176174757E+02 -0.33695745180E+01 -0.38317101662E+02  0.50528857197E+02  0.29999991936E+02 0.  0.
        -12    1    1    2    0    0  0.13176174757E+02  0.33695745180E+01  0.38317101662E+02  0.40659142803E+02  0.00000000000E+00 0.  1.
         11    1    3    3    0    0 -0.46315193929E+01 -0.46318356982E+01 -0.14293445679E+02  0.15722832552E+02  0.51100000000E-03 0. -1.
        -11    1    3    3    0    0  0.67508776584E+01 -0.21075683109E+01 -0.12737971333E+01  0.71860109061E+01  0.51100000000E-03 0.  1.
        -12    1    3    3    0    0 -0.15295533022E+02  0.33698294911E+01 -0.22749858851E+02  0.27620013739E+02  0.00000000000E+00 0.  1.
</event>
<event>
 7    1  0.5155466E-011  0.5052886E+02  0.7816164E-02  0.1300439E+00
        -11   -1    0    0    0    0  0.00000000000E+00  0.00000000000E+00  0.45593999997E+02  0.45594000000E+02  0.51100000000E-03 0. -1.
         11   -1    0    0    0    0 -0.00000000000E+00 -0.00000000000E+00 -0.45593999997E+02  0.45594000000E+02  0.51100000000E-03 0.  1.
    9900012    2    1    2    0    0  0.45427305402E+01  0.32780780234E+02 -0.23620957221E+02  0.50528861131E+02  0.30000003894E+02 0.  0.
        -12    1    1    2    0    0 -0.45427305402E+01 -0.32780780234E+02  0.23620957221E+02  0.40659138869E+02  0.00000000000E+00 0.  1.
         11    1    3    3    0    0  0.36658472034E+00  0.24624714465E+02 -0.20946140636E+02  0.32330353457E+02  0.51100000000E-03 0. -1.
        -11    1    3    3    0    0  0.47704147558E+01 -0.36690877588E+01  0.17318759276E+00  0.60207189045E+01  0.51100000000E-03 0.  1.
        -12    1    3    3    0    0 -0.59426893590E+00  0.11825153528E+02 -0.28480041776E+01  0.12177788770E+02  0.00000000000E+00 0.  1.
</event>
<event>
 7    1  0.5155466E-011  0.5052886E+02  0.7816164E-02  0.1300439E+00
        -11   -1    0    0    0    0  0.00000000000E+00  0.00000000000E+00  0.45593999997E+02  0.45594000000E+02  0.51100000000E-03 0.  1.
         11   -1    0    0    0    0 -0.00000000000E+00 -0.00000000000E+00 -0.45593999997E+02  0.45594000000E+02  0.51100000000E-03 0. -1.
    9900012    2    1    2    0    0 -0.83253413576E+01  0.44459721254E+01 -0.39548547896E+02  0.50528860590E+02  0.30000002249E+02 0.  0.
        -12    1    1    2    0    0  0.83253413576E+01 -0.44459721254E+01  0.39548547896E+02  0.40659139410E+02  0.00000000000E+00 0.  1.
         11    1    3    3    0    0  0.32793887366E+01 -0.54585932725E+00 -0.11702901888E+02  0.12165946973E+02  0.51100000000E-03 0. -1.
        -11    1    3    3    0    0 -0.17959293217E+01  0.16162276163E+01  0.41089905627E+01  0.47666925160E+01  0.51100000000E-03 0.  1.
        -12    1    3    3    0    0 -0.98088007726E+01  0.33756038363E+01 -0.31954636571E+02  0.33596221101E+02  0.00000000000E+00 0.  1.
</event>
<event>
 7    1  0.5155466E-011  0.5052886E+02  0.7816164E-02  0.1300439E+00
        -11   -1    0    0    0    0  0.00000000000E+00  0.00000000000E+00  0.45593999997E+02  0.45594000000E+02  0.51100000000E-03 0. -1.
         11   -1    0    0    0    0 -0.00000000000E+00 -0.00000000000E+00 -0.45593999997E+02  0.45594000000E+02  0.51100000000E-03 0.  1.
    9900012    2    1    2    0    0  0.26652236273E+02  0.11935870263E+02  0.28290621837E+02  0.50528856118E+02  0.29999988655E+02 0.  0.
        -12    1    1    2    0    0 -0.26652236273E+02 -0.11935870263E+02 -0.28290621837E+02  0.40659143882E+02  0.00000000000E+00 0.  1.
         11    1    3    3    0    0  0.19033045956E+02  0.11196344138E+02  0.21513890540E+02  0.30829570980E+02  0.51100000000E-03 0. -1.
        -11    1    3    3    0    0 -0.11790045180E+01  0.48593692837E+01 -0.30693204460E+01  0.58672182293E+01  0.51100000000E-03 0.  1.
        -12    1    3    3    0    0  0.87981948357E+01 -0.41198431582E+01  0.98460517431E+01  0.13832066908E+02  0.00000000000E+00 0.  1.
</event>
<event>
 7    1  0.5155466E-011  0.5052886E+02  0.7816164E-02  0.1300439E+00
        -11   -1    0    0    0    0  0.00000000000E+00  0.00000000000E+00  0.45593999997E+02  0.45594000000E+02  0.51100000000E-03 0.  1.
         11   -1    0    0    0    0 -0.00000000000E+00 -0.00000000000E+00 -0.45593999997E+02  0.45594000000E+02  0.51100000000E-03 0. -1.
    9900012    2    1    2    0    0  0.39542349328E+02  0.37957477970E+01 -0.86695375415E+01  0.50528856220E+02  0.29999988966E+02 0.  0.
        -12    1    1    2    0    0 -0.39542349328E+02 -0.37957477970E+01  0.86695375415E+01  0.40659143780E+02  0.00000000000E+00 0.  1.
         11    1    3    3    0    0  0.27431677654E+02  0.24203623550E+01  0.25040146419E+01  0.27651856763E+02  0.51100000000E-03 0. -1.
        -11    1    3    3    0    0 -0.12112020023E+01  0.53981749312E+01 -0.95981144961E+00  0.56150281529E+01  0.51100000000E-03 0.  1.
        -12    1    3    3    0    0  0.13321873677E+02 -0.40227894893E+01 -0.10213740734E+02  0.17261971304E+02  0.00000000000E+00 0.  1.
</event>
<event>
 7    1  0.5155466E-011  0.5052898E+02  0.7816164E-02  0.1300438E+00
        -11   -1    0    0    0    0  0.00000000000E+00  0.00000000000E+00  0.45593999997E+02  0.45594000000E+02  0.51100000000E-03 0.  1.
         11   -1    0    0    0    0 -0.00000000000E+00 -0.00000000000E+00 -0.45593999997E+02  0.45594000000E+02  0.51100000000E-03 0. -1.
    9900012    2    1    2    0    0  0.18496270689E+02  0.36724601268E+01 -0.36021613659E+02  0.50528983246E+02  0.30000375074E+02 0.  0.
        -12    1    1    2    0    0 -0.18496270689E+02 -0.36724601268E+01  0.36021613659E+02  0.40659016754E+02  0.00000000000E+00 0.  1.
         11    1    3    3    0    0  0.18257145838E+02 -0.82333790811E+00 -0.20211929461E+02  0.27249281684E+02  0.51100000000E-03 0. -1.
        -11    1    3    3    0    0 -0.55375936740E+01 -0.33151190999E+01 -0.10173881842E+02  0.12048353843E+02  0.51100000000E-03 0.  1.
        -12    1    3    3    0    0  0.57767185242E+01  0.78109171348E+01 -0.56358023560E+01  0.11231347719E+02  0.00000000000E+00 0.  1.
</event>
<event>
 7    1  0.5155466E-011  0.5052886E+02  0.7816164E-02  0.1300439E+00
        -11   -1    0    0    0    0  0.00000000000E+00  0.00000000000E+00  0.45593999997E+02  0.45594000000E+02  0.51100000000E-03 0. -1.
         11   -1    0    0    0    0 -0.00000000000E+00 -0.00000000000E+00 -0.45593999997E+02  0.45594000000E+02  0.51100000000E-03 0.  1.
    9900012    2    1    2    0    0 -0.10725434587E+02 -0.11928962955E+01  0.39200864701E+02  0.50528859061E+02  0.29999997600E+02 0.  0.
        -12    1    1    2    0    0  0.10725434587E+02  0.11928962955E+01 -0.39200864701E+02  0.40659140939E+02  0.00000000000E+00 0.  1.
         11    1    3    3    0    0 -0.88469411304E+01  0.52903237978E+00  0.58083994622E+01  0.10596496930E+02  0.51100000000E-03 0. -1.
        -11    1    3    3    0    0  0.80278090159E+01 -0.69013621808E+01  0.14049568395E+02  0.17591614192E+02  0.51100000000E-03 0.  1.
        -12    1    3    3    0    0 -0.99063024727E+01  0.51794335056E+01  0.19342896844E+02  0.22340747938E+02  0.00000000000E+00 0.  1.
</event>
<event>
 7    1  0.5155466E-011  0.5052886E+02  0.7816164E-02  0.1300439E+00
        -11   -1    0    0    0    0  0.00000000000E+00  0.00000000000E+00  0.45593999997E+02  0.45594000000E+02  0.51100000000E-03 0.  1.
         11   -1    0    0    0    0 -0.00000000000E+00 -0.00000000000E+00 -0.45593999997E+02  0.45594000000E+02  0.51100000000E-03 0. -1.
    9900012    2    1    2    0    0 -0.16149103385E+02 -0.33428052348E+02 -0.16581234095E+02  0.50528861445E+02  0.30000004848E+02 0.  0.
        -12    1    1    2    0    0  0.16149103385E+02  0.33428052348E+02  0.16581234095E+02  0.40659138555E+02  0.00000000000E+00 0.  1.
         11    1    3    3    0    0  0.54810721668E+01 -0.21388452624E+02 -0.96656378841E+01  0.24102543719E+02  0.51100000000E-03 0. -1.
        -11    1    3    3    0    0 -0.35705400418E+01 -0.16523268243E+01  0.11293728023E+01  0.40932167438E+01  0.51100000000E-03 0.  1.
         12    1    3    3    0    0 -0.18059635510E+02 -0.10387272899E+02 -0.80449690130E+01  0.22333100982E+02  0.00000000000E+00 0. -1.
</event>
<event>
 7    1  0.5155466E-011  0.5052885E+02  0.7816164E-02  0.1300439E+00
        -11   -1    0    0    0    0  0.00000000000E+00  0.00000000000E+00  0.45593999997E+02  0.45594000000E+02  0.51100000000E-03 0.  1.
         11   -1    0    0    0    0 -0.00000000000E+00 -0.00000000000E+00 -0.45593999997E+02  0.45594000000E+02  0.51100000000E-03 0. -1.
    9900012    2    1    2    0    0 -0.28332111298E+02 -0.49043022293E+00 -0.29158486595E+02  0.50528851055E+02  0.29999973267E+02 0.  0.
        -12    1    1    2    0    0  0.28332111298E+02  0.49043022293E+00  0.29158486595E+02  0.40659148945E+02  0.00000000000E+00 0.  1.
         11    1    3    3    0    0 -0.37297564274E+01 -0.18833718018E+01 -0.23972010549E+01  0.48171304228E+01  0.51100000000E-03 0. -1.
        -11    1    3    3    0    0 -0.29371782996E+01 -0.94190502212E+01 -0.33791606872E+00  0.98721685036E+01  0.51100000000E-03 0.  1.
        -12    1    3    3    0    0 -0.21665176571E+02  0.10811991800E+02 -0.26423369472E+02  0.35839552129E+02  0.00000000000E+00 0.  1.
</event>
<event>
 7    1  0.5155466E-011  0.5052890E+02  0.7816164E-02  0.1300439E+00
        -11   -1    0    0    0    0  0.00000000000E+00  0.00000000000E+00  0.45593999997E+02  0.45594000000E+02  0.51100000000E-03 0. -1.
         11   -1    0    0    0    0 -0.00000000000E+00 -0.00000000000E+00 -0.45593999997E+02  0.45594000000E+02  0.51100000000E-03 0.  1.
    9900012    2    1    2    0    0 -0.38530349963E+02  0.11590022102E+02 -0.58520322770E+01  0.50528895701E+02  0.30000108973E+02 0.  0.
        -12    1    1    2    0    0  0.38530349963E+02 -0.11590022102E+02  0.58520322770E+01  0.40659104299E+02  0.00000000000E+00 0.  1.
         11    1    3    3    0    0 -0.37338970619E+02  0.12550277170E+02 -0.11489646335E+02  0.41033159238E+02  0.51100000000E-03 0. -1.
        -11    1    3    3    0    0  0.81127877291E+00  0.96687107577E+00 -0.14264035055E+01  0.19046364866E+01  0.51100000000E-03 0.  1.
         12    1    3    3    0    0 -0.20026581175E+01 -0.19271261438E+01  0.70640175635E+01  0.75910999761E+01  0.00000000000E+00 0. -1.
</event>
<event>
 7    1  0.5155466E-011  0.5052886E+02  0.7816164E-02  0.1300439E+00
        -11   -1    0    0    0    0  0.00000000000E+00  0.00000000000E+00  0.45593999997E+02  0.45594000000E+02  0.51100000000E-03 0.  1.
         11   -1    0    0    0    0 -0.00000000000E+00 -0.00000000000E+00 -0.45593999997E+02  0.45594000000E+02  0.51100000000E-03 0. -1.
    9900012    2    1    2    0    0  0.79069583237E+01  0.32522366582E+02 -0.23085522719E+02  0.50528859856E+02  0.30000000018E+02 0.  0.
        -12    1    1    2    0    0 -0.79069583237E+01 -0.32522366582E+02  0.23085522719E+02  0.40659140144E+02  0.00000000000E+00 0.  1.
         11    1    3    3    0    0 -0.53058580742E+01  0.71242336651E+01 -0.32889115282E+01  0.94722634318E+01  0.51100000000E-03 0. -1.
        -11    1    3    3    0    0  0.14125058732E+02  0.92261416635E+01 -0.18142318211E+02  0.24774637929E+02  0.51100000000E-03 0.  1.
        -12    1    3    3    0    0 -0.91224233385E+00  0.16171991254E+02 -0.16542929796E+01  0.16281958496E+02  0.00000000000E+00 0.  1.
</event>
<event>
 7    1  0.5155466E-011  0.5052886E+02  0.7816164E-02  0.1300439E+00
        -11   -1    0    0    0    0  0.00000000000E+00  0.00000000000E+00  0.45593999997E+02  0.45594000000E+02  0.51100000000E-03 0.  1.
         11   -1    0    0    0    0 -0.00000000000E+00 -0.00000000000E+00 -0.45593999997E+02  0.45594000000E+02  0.51100000000E-03 0. -1.
    9900012    2    1    2    0    0  0.13799383889E+02  0.32646567716E+02 -0.19923453070E+02  0.50528863738E+02  0.30000011817E+02 0.  0.
        -12    1    1    2    0    0 -0.13799383889E+02 -0.32646567716E+02  0.19923453070E+02  0.40659136262E+02  0.00000000000E+00 0.  1.
         11    1    3    3    0    0  0.69529718175E+01  0.12638905878E+02 -0.14765992216E+02  0.20642681156E+02  0.51100000000E-03 0. -1.
        -11    1    3    3    0    0 -0.44835235654E+01  0.17179836343E+02 -0.33821279968E+01  0.18074500004E+02  0.51100000000E-03 0.  1.
        -12    1    3    3    0    0  0.11329935637E+02  0.28278254948E+01 -0.17753328567E+01  0.11811682578E+02  0.00000000000E+00 0.  1.
</event>
<event>
 7    1  0.5155466E-011  0.5052887E+02  0.7816164E-02  0.1300439E+00
        -11   -1    0    0    0    0  0.00000000000E+00  0.00000000000E+00  0.45593999997E+02  0.45594000000E+02  0.51100000000E-03 0.  1.
         11   -1    0    0    0    0 -0.00000000000E+00 -0.00000000000E+00 -0.45593999997E+02  0.45594000000E+02  0.51100000000E-03 0. -1.
    9900012    2    1    2    0    0 -0.56308899631E+00 -0.38458412395E+02 -0.13183271598E+02  0.50528865686E+02  0.30000017738E+02 0.  0.
        -12    1    1    2    0    0  0.56308899631E+00  0.38458412395E+02  0.13183271598E+02  0.40659134314E+02  0.00000000000E+00 0.  1.
         11    1    3    3    0    0 -0.10720614363E+02 -0.21686415312E+02  0.33447112560E+01  0.24421696810E+02  0.51100000000E-03 0. -1.
        -11    1    3    3    0    0  0.79436557787E+01 -0.12683408716E+02 -0.15059991650E+02  0.21231435951E+02  0.51100000000E-03 0.  1.
         12    1    3    3    0    0  0.22138695876E+01 -0.40885883665E+01 -0.14679912040E+01  0.48757329250E+01  0.00000000000E+00 0. -1.
</event>
<event>
 7    1  0.5155466E-011  0.5052886E+02  0.7816164E-02  0.1300439E+00
        -11   -1    0    0    0    0  0.00000000000E+00  0.00000000000E+00  0.45593999997E+02  0.45594000000E+02  0.51100000000E-03 0.  1.
         11   -1    0    0    0    0 -0.00000000000E+00 -0.00000000000E+00 -0.45593999997E+02  0.45594000000E+02  0.51100000000E-03 0. -1.
    9900012    2    1    2    0    0  0.35191290625E+02  0.37138680640E+01 -0.20023629841E+02  0.50528861988E+02  0.30000006500E+02 0.  0.
        -12    1    1    2    0    0 -0.35191290625E+02 -0.37138680640E+01  0.20023629841E+02  0.40659138012E+02  0.00000000000E+00 0.  1.
         11    1    3    3    0    0  0.85807809042E+01  0.39961497464E+01 -0.13510256319E+02  0.16496243202E+02  0.51100000000E-03 0. -1.
        -11    1    3    3    0    0  0.37791931790E+01 -0.72962679350E+01  0.23665015639E+01  0.85509155519E+01  0.51100000000E-03 0.  1.
        -12    1    3    3    0    0  0.22831316541E+02  0.70139862525E+01 -0.88798750862E+01  0.25481703234E+02  0.00000000000E+00 0.  1.
</event>
<event>
 7    1  0.5155466E-011  0.5052888E+02  0.7816164E-02  0.1300439E+00
        -11   -1    0    0    0    0  0.00000000000E+00  0.00000000000E+00  0.45593999997E+02  0.45594000000E+02  0.51100000000E-03 0. -1.
         11   -1    0    0    0    0 -0.00000000000E+00 -0.00000000000E+00 -0.45593999997E+02  0.45594000000E+02  0.51100000000E-03 0.  1.
    9900012    2    1    2    0    0  0.58757286564E+01  0.32762940075E+02  0.23350149051E+02  0.50528881831E+02  0.30000066812E+02 0.  0.
        -12    1    1    2    0    0 -0.58757286564E+01 -0.32762940075E+02 -0.23350149051E+02  0.40659118169E+02  0.00000000000E+00 0.  1.
         11    1    3    3    0    0 -0.26621764783E+01  0.16165607680E+02  0.26452295520E+02  0.31114915938E+02  0.51100000000E-03 0. -1.
        -11    1    3    3    0    0  0.40030159531E+01  0.12034027678E+02 -0.14014695419E+01  0.12759548425E+02  0.51100000000E-03 0.  1.
         12    1    3    3    0    0  0.45348891817E+01  0.45633047169E+01 -0.17006769267E+01  0.66544174680E+01  0.00000000000E+00 0. -1.
</event>
<event>
 7    1  0.5155466E-011  0.5052885E+02  0.7816164E-02  0.1300439E+00
        -11   -1    0    0    0    0  0.00000000000E+00  0.00000000000E+00  0.45593999997E+02  0.45594000000E+02  0.51100000000E-03 0. -1.
         11   -1    0    0    0    0 -0.00000000000E+00 -0.00000000000E+00 -0.45593999997E+02  0.45594000000E+02  0.51100000000E-03 0.  1.
    9900012    2    1    2    0    0 -0.33624787400E+02 -0.22508321196E+02  0.39894189345E+01  0.50528852023E+02  0.29999976210E+02 0.  0.
        -12    1    1    2    0    0  0.33624787400E+02  0.22508321196E+02 -0.39894189345E+01  0.40659147977E+02  0.00000000000E+00 0.  1.
         11    1    3    3    0    0 -0.39697949473E+01 -0.85317334065E+01  0.39862772636E+01  0.10219596544E+02  0.51100000000E-03 0. -1.
        -11    1    3    3    0    0 -0.27253668111E+02 -0.33479066687E+01 -0.56496192226E+01  0.28033713671E+02  0.51100000000E-03 0.  1.
        -12    1    3    3    0    0 -0.24013243415E+01 -0.10628681121E+02  0.56527608935E+01  0.12275541808E+02  0.00000000000E+00 0.  1.
</event>
<event>
 7    1  0.5155466E-011  0.5052887E+02  0.7816164E-02  0.1300439E+00
        -11   -1    0    0    0    0  0.00000000000E+00  0.00000000000E+00  0.45593999997E+02  0.45594000000E+02  0.51100000000E-03 0.  1.
         11   -1    0    0    0    0 -0.00000000000E+00 -0.00000000000E+00 -0.45593999997E+02  0.45594000000E+02  0.51100000000E-03 0. -1.
    9900012    2    1    2    0    0 -0.22803930734E+02 -0.33250896672E+02  0.52462574009E+01  0.50528873065E+02  0.30000040168E+02 0.  0.
        -12    1    1    2    0    0  0.22803930734E+02  0.33250896672E+02 -0.52462574009E+01  0.40659126935E+02  0.00000000000E+00 0.  1.
         11    1    3    3    0    0 -0.25545568508E+02 -0.24395911619E+02  0.47122550539E+01  0.35636244501E+02  0.51100000000E-03 0. -1.
        -11    1    3    3    0    0 -0.64495370666E+00 -0.15312091627E+01  0.52774175547E+01  0.55327843887E+01  0.51100000000E-03 0.  1.
         12    1    3    3    0    0  0.33865914814E+01 -0.73237758906E+01 -0.47434152078E+01  0.93598441756E+01  0.00000000000E+00 0. -1.
</event>
<event>
 7    1  0.5155466E-011  0.5052886E+02  0.7816164E-02  0.1300439E+00
        -11   -1    0    0    0    0  0.00000000000E+00  0.00000000000E+00  0.45593999997E+02  0.45594000000E+02  0.51100000000E-03 0.  1.
         11   -1    0    0    0    0 -0.00000000000E+00 -0.00000000000E+00 -0.45593999997E+02  0.45594000000E+02  0.51100000000E-03 0. -1.
    9900012    2    1    2    0    0  0.29314584599E+02  0.24941459496E+02 -0.13105128799E+02  0.50528859910E+02  0.30000000183E+02 0.  0.
        -12    1    1    2    0    0 -0.29314584599E+02 -0.24941459496E+02  0.13105128799E+02  0.40659140090E+02  0.00000000000E+00 0.  1.
         11    1    3    3    0    0  0.33666820903E+02  0.16719609400E+02 -0.85819920379E+01  0.38557110314E+02  0.51100000000E-03 0. -1.
        -11    1    3    3    0    0 -0.23741822343E+01 -0.16547451211E+00 -0.38002248292E+00  0.24100913768E+01  0.51100000000E-03 0.  1.
         12    1    3    3    0    0 -0.19780540690E+01  0.83873246082E+01 -0.41431142781E+01  0.95616582194E+01  0.00000000000E+00 0. -1.
</event>
<event>
 7    1  0.5155466E-011  0.5052886E+02  0.7816164E-02  0.1300439E+00
        -11   -1    0    0    0    0  0.00000000000E+00  0.00000000000E+00  0.45593999997E+02  0.45594000000E+02  0.51100000000E-03 0.  1.
         11   -1    0    0    0    0 -0.00000000000E+00 -0.00000000000E+00 -0.45593999997E+02  0.45594000000E+02  0.51100000000E-03 0. -1.
    9900012    2    1    2    0    0 -0.16873697591E+02  0.14567155043E+02 -0.34003557144E+02  0.50528861115E+02  0.30000003845E+02 0.  0.
        -12    1    1    2    0    0  0.16873697591E+02 -0.14567155043E+02  0.34003557144E+02  0.40659138885E+02  0.00000000000E+00 0.  1.
         11    1    3    3    0    0 -0.15415200564E+02  0.21447295648E+01 -0.28357593191E+02  0.32347818554E+02  0.51100000000E-03 0. -1.
        -11    1    3    3    0    0  0.41359335315E+01  0.51955440023E+01  0.12176808604E+01  0.67514717356E+01  0.51100000000E-03 0.  1.
        -12    1    3    3    0    0 -0.55944305584E+01  0.72268814757E+01 -0.68636448128E+01  0.11429570825E+02  0.00000000000E+00 0.  1.
</event>
<event>
 7    1  0.5155466E-011  0.5052886E+02  0.7816164E-02  0.1300439E+00
        -11   -1    0    0    0    0  0.00000000000E+00  0.00000000000E+00  0.45593999997E+02  0.45594000000E+02  0.51100000000E-03 0.  1.
         11   -1    0    0    0    0 -0.00000000000E+00 -0.00000000000E+00 -0.45593999997E+02  0.45594000000E+02  0.51100000000E-03 0. -1.
    9900012    2    1    2    0    0 -0.28232630304E+02 -0.26226421526E+02  0.12971467356E+02  0.50528861232E+02  0.30000004201E+02 0.  0.
        -12    1    1    2    0    0  0.28232630304E+02  0.26226421526E+02 -0.12971467356E+02  0.40659138768E+02  0.00000000000E+00 0.  1.
         11    1    3    3    0    0 -0.12328633662E+02 -0.14392695809E+02  0.84165127242E+01  0.20736021492E+02  0.51100000000E-03 0. -1.
        -11    1    3    3    0    0 -0.13874585681E+02  0.20694836105E+01 -0.22056608865E+01  0.14200416559E+02  0.51100000000E-03 0.  1.
        -12    1    3    3    0    0 -0.20294109609E+01 -0.13903209327E+02  0.67606155188E+01  0.15592423181E+02  0.00000000000E+00 0.  1.
</event>
<event>
 7    1  0.7773041E-011  0.5052886E+02  0.7816164E-02  0.1300439E+00
        -11   -1    0    0    0    0  0.00000000000E+00  0.00000000000E+00  0.45593999997E+02  0.45594000000E+02  0.51100000000E-03 0. -1.
         11   -1    0    0    0    0 -0.00000000000E+00 -0.00000000000E+00 -0.45593999997E+02  0.45594000000E+02  0.51100000000E-03 0.  1.
    9900012    2    1    2    0    0 -0.10789269198E+02  0.31223153203E+02  0.23703840620E+02  0.50528859750E+02  0.29999999695E+02 0.  0.
        -12    1    1    2    0    0  0.10789269198E+02 -0.31223153203E+02 -0.23703840620E+02  0.40659140250E+02  0.00000000000E+00 0.  1.
         11    1    3    3    0    0 -0.57399412520E+01  0.21190709594E+02  0.26597514993E+02  0.34487982005E+02  0.51100000000E-03 0. -1.
        -11    1    3    3    0    0  0.26856034609E+01  0.44808113605E+01 -0.38246999896E+01  0.64744472095E+01  0.51100000000E-03 0.  1.
        -12    1    3    3    0    0 -0.77349314069E+01  0.55516322487E+01  0.93102561615E+00  0.95664305355E+01  0.00000000000E+00 0.  1.
</event>
<event>
 7    1  0.5155466E-011  0.5052884E+02  0.7816164E-02  0.1300439E+00
        -11   -1    0    0    0    0  0.00000000000E+00  0.00000000000E+00  0.45593999997E+02  0.45594000000E+02  0.51100000000E-03 0. -1.
         11   -1    0    0    0    0 -0.00000000000E+00 -0.00000000000E+00 -0.45593999997E+02  0.45594000000E+02  0.51100000000E-03 0.  1.
    9900012    2    1    2    0    0  0.40141899110E+02  0.10706506434E+01  0.63756777161E+01  0.50528835924E+02  0.29999927276E+02 0.  0.
        -12    1    1    2    0    0 -0.40141899110E+02 -0.10706506434E+01 -0.63756777161E+01  0.40659164076E+02  0.00000000000E+00 0.  1.
         11    1    3    3    0    0  0.23788266145E+02  0.19882621533E+01 -0.15078064555E+01  0.23918784943E+02  0.51100000000E-03 0. -1.
        -11    1    3    3    0    0  0.24127430839E+01  0.13274278651E+01  0.11670130657E+02  0.11990635669E+02  0.51100000000E-03 0.  1.
        -12    1    3    3    0    0  0.13940889881E+02 -0.22450393750E+01 -0.37866464854E+01  0.14619415313E+02  0.00000000000E+00 0.  1.
</event>
<event>
 7    1  0.5155466E-011  0.5052888E+02  0.7816164E-02  0.1300439E+00
        -11   -1    0    0    0    0  0.00000000000E+00  0.00000000000E+00  0.45593999997E+02  0.45594000000E+02  0.51100000000E-03 0.  1.
         11   -1    0    0    0    0 -0.00000000000E+00 -0.00000000000E+00 -0.45593999997E+02  0.45594000000E+02  0.51100000000E-03 0. -1.
    9900012    2    1    2    0    0 -0.16809325351E+02  0.26096470446E+02 -0.26259946574E+02  0.50528880696E+02  0.30000063364E+02 0.  0.
        -12    1    1    2    0    0  0.16809325351E+02 -0.26096470446E+02  0.26259946574E+02  0.40659119304E+02  0.00000000000E+00 0.  1.
         11    1    3    3    0    0  0.29484354144E+01 -0.29871998155E+01 -0.29875085807E+01  0.51518775133E+01  0.51100000000E-03 0. -1.
        -11    1    3    3    0    0 -0.11436626595E+02  0.85308061565E+01 -0.17277952000E+02  0.22407559151E+02  0.51100000000E-03 0.  1.
        -12    1    3    3    0    0 -0.83211341697E+01  0.20552864105E+02 -0.59944859939E+01  0.22969444031E+02  0.00000000000E+00 0.  1.
</event>
<event>
 7    1  0.5155466E-011  0.5052887E+02  0.7816164E-02  0.1300439E+00
        -11   -1    0    0    0    0  0.00000000000E+00  0.00000000000E+00  0.45593999997E+02  0.45594000000E+02  0.51100000000E-03 0.  1.
         11   -1    0    0    0    0 -0.00000000000E+00 -0.00000000000E+00 -0.45593999997E+02  0.45594000000E+02  0.51100000000E-03 0. -1.
    9900012    2    1    2    0    0  0.81574434168E+01 -0.39627237086E+02 -0.40377073872E+01  0.50528869621E+02  0.30000029701E+02 0.  0.
        -12    1    1    2    0    0 -0.81574434168E+01  0.39627237086E+02  0.40377073872E+01  0.40659130379E+02  0.00000000000E+00 0.  1.
         11    1    3    3    0    0  0.10306873861E+02 -0.30413174453E+02 -0.68977609370E+01  0.32844663727E+02  0.51100000000E-03 0. -1.
        -11    1    3    3    0    0 -0.83510634319E+01 -0.55093932984E+01  0.26456837098E+00  0.10008180236E+02  0.51100000000E-03 0.  1.
         12    1    3    3    0    0  0.62016329875E+01 -0.37046693346E+01  0.25954851788E+01  0.76760256581E+01  0.00000000000E+00 0. -1.
</event>
<event>
 7    1  0.5155466E-011  0.5052886E+02  0.7816164E-02  0.1300439E+00
        -11   -1    0    0    0    0  0.00000000000E+00  0.00000000000E+00  0.45593999997E+02  0.45594000000E+02  0.51100000000E-03 0.  1.
         11   -1    0    0    0    0 -0.00000000000E+00 -0.00000000000E+00 -0.45593999997E+02  0.45594000000E+02  0.51100000000E-03 0. -1.
    9900012    2    1    2    0    0  0.94163154805E+01 -0.11635886605E+02 -0.37803499307E+02  0.50528863091E+02  0.30000009853E+02 0.  0.
        -12    1    1    2    0    0 -0.94163154805E+01  0.11635886605E+02  0.37803499307E+02  0.40659136909E+02  0.00000000000E+00 0.  1.
         11    1    3    3    0    0  0.53724172994E+01  0.40924200416E+01 -0.35962662919E+01  0.76513986263E+01  0.51100000000E-03 0.  1.
        -11    1    3    3    0    0 -0.57795412110E+01 -0.75010478715E+01 -0.25975211460E+02  0.27647430738E+02  0.51100000000E-03 0. -1.
        -12    1    3    3    0    0  0.98234393921E+01 -0.82272587752E+01 -0.82320215551E+01  0.15230033727E+02  0.00000000000E+00 0.  1.
</event>
<event>
 7    1  0.5155466E-011  0.5052887E+02  0.7816164E-02  0.1300439E+00
        -11   -1    0    0    0    0  0.00000000000E+00  0.00000000000E+00  0.45593999997E+02  0.45594000000E+02  0.51100000000E-03 0.  1.
         11   -1    0    0    0    0 -0.00000000000E+00 -0.00000000000E+00 -0.45593999997E+02  0.45594000000E+02  0.51100000000E-03 0. -1.
    9900012    2    1    2    0    0 -0.30468219730E+02  0.24079010875E+02 -0.12043835579E+02  0.50528866295E+02  0.30000019589E+02 0.  0.
        -12    1    1    2    0    0  0.30468219730E+02 -0.24079010875E+02  0.12043835579E+02  0.40659133705E+02  0.00000000000E+00 0.  1.
         11    1    3    3    0    0 -0.14076322975E+02  0.94926846459E+01 -0.19853991622E+02  0.26123455244E+02  0.51100000000E-03 0. -1.
        -11    1    3    3    0    0 -0.17788282375E+01  0.14590202176E+01  0.36681805924E+01  0.43299560059E+01  0.51100000000E-03 0.  1.
         12    1    3    3    0    0 -0.14613068517E+02  0.13127306011E+02  0.41419754513E+01  0.20075455045E+02  0.00000000000E+00 0. -1.
</event>
<event>
 7    1  0.5155466E-011  0.5052886E+02  0.7816164E-02  0.1300439E+00
        -11   -1    0    0    0    0  0.00000000000E+00  0.00000000000E+00  0.45593999997E+02  0.45594000000E+02  0.51100000000E-03 0.  1.
         11   -1    0    0    0    0 -0.00000000000E+00 -0.00000000000E+00 -0.45593999997E+02  0.45594000000E+02  0.51100000000E-03 0. -1.
    9900012    2    1    2    0    0  0.20762576662E+02 -0.21348617013E+02 -0.27682437278E+02  0.50528863614E+02  0.30000011442E+02 0.  0.
        -12    1    1    2    0    0 -0.20762576662E+02  0.21348617013E+02  0.27682437278E+02  0.40659136386E+02  0.00000000000E+00 0.  1.
         11    1    3    3    0    0  0.13835960481E+02 -0.19866989122E+02 -0.18835083425E+02  0.30673953561E+02  0.51100000000E-03 0. -1.
        -11    1    3    3    0    0  0.33587633876E+01  0.60409218763E+01 -0.92172603247E+01  0.11520933850E+02  0.51100000000E-03 0.  1.
        -12    1    3    3    0    0  0.35678527937E+01 -0.75225497675E+01  0.36990647210E+00  0.83339762035E+01  0.00000000000E+00 0.  1.
</event>
<event>
 7    1  0.5155466E-011  0.5052891E+02  0.7816164E-02  0.1300439E+00
        -11   -1    0    0    0    0  0.00000000000E+00  0.00000000000E+00  0.45593999997E+02  0.45594000000E+02  0.51100000000E-03 0.  1.
         11   -1    0    0    0    0 -0.00000000000E+00 -0.00000000000E+00 -0.45593999997E+02  0.45594000000E+02  0.51100000000E-03 0. -1.
    9900012    2    1    2    0    0 -0.13154310098E+02  0.37793622290E+02 -0.71949906347E+01  0.50528909378E+02  0.30000150546E+02 0.  0.
        -12    1    1    2    0    0  0.13154310098E+02 -0.37793622290E+02  0.71949906347E+01  0.40659090622E+02  0.00000000000E+00 0.  1.
         11    1    3    3    0    0  0.48990333513E+01  0.40814309725E+01 -0.87369012044E+01  0.10816286307E+02  0.51100000000E-03 0. -1.
        -11    1    3    3    0    0 -0.53036686799E+01  0.27175359920E+01 -0.12254478919E+01  0.60840468548E+01  0.51100000000E-03 0.  1.
         12    1    3    3    0    0 -0.12749674770E+02  0.30994655325E+02  0.27673584616E+01  0.33628576216E+02  0.00000000000E+00 0. -1.
</event>
<event>
 7    1  0.5155466E-011  0.5052886E+02  0.7816164E-02  0.1300439E+00
        -11   -1    0    0    0    0  0.00000000000E+00  0.00000000000E+00  0.45593999997E+02  0.45594000000E+02  0.51100000000E-03 0. -1.
         11   -1    0    0    0    0 -0.00000000000E+00 -0.00000000000E+00 -0.45593999997E+02  0.45594000000E+02  0.51100000000E-03 0.  1.
    9900012    2    1    2    0    0  0.14544681714E+02  0.34647798103E+02  0.15528940935E+02  0.50528859746E+02  0.29999999685E+02 0.  0.
        -12    1    1    2    0    0 -0.14544681714E+02 -0.34647798103E+02 -0.15528940935E+02  0.40659140254E+02  0.00000000000E+00 0.  1.
         11    1    3    3    0    0  0.37454704066E+01  0.17771830257E+02  0.19591540832E+02  0.26715070123E+02  0.51100000000E-03 0. -1.
        -11    1    3    3    0    0  0.68623204951E+01  0.11332529856E+02 -0.84576284640E+01  0.15717797397E+02  0.51100000000E-03 0.  1.
        -12    1    3    3    0    0  0.39368908122E+01  0.55434379912E+01  0.43950285674E+01  0.80959922269E+01  0.00000000000E+00 0.  1.
</event>
<event>
 7    1  0.5155466E-011  0.5052886E+02  0.7816164E-02  0.1300439E+00
        -11   -1    0    0    0    0  0.00000000000E+00  0.00000000000E+00  0.45593999997E+02  0.45594000000E+02  0.51100000000E-03 0.  1.
         11   -1    0    0    0    0 -0.00000000000E+00 -0.00000000000E+00 -0.45593999997E+02  0.45594000000E+02  0.51100000000E-03 0. -1.
    9900012    2    1    2    0    0 -0.32507398735E+02  0.67362190031E+01 -0.23474631292E+02  0.50528856708E+02  0.29999990448E+02 0.  0.
        -12    1    1    2    0    0  0.32507398735E+02 -0.67362190031E+01  0.23474631292E+02  0.40659143292E+02  0.00000000000E+00 0.  1.
         11    1    3    3    0    0  0.89171703511E+00  0.90300909734E+01 -0.86206962352E+01  0.12516153806E+02  0.51100000000E-03 0. -1.
        -11    1    3    3    0    0 -0.32973861336E+02 -0.35477417199E+01 -0.15418787007E+02  0.36573227855E+02  0.51100000000E-03 0.  1.
        -12    1    3    3    0    0 -0.42525443391E+00  0.12538697497E+01  0.56485195013E+00  0.14394750461E+01  0.00000000000E+00 0.  1.
</event>
<event>
 7    1  0.5155466E-011  0.5052890E+02  0.7816164E-02  0.1300439E+00
        -11   -1    0    0    0    0  0.00000000000E+00  0.00000000000E+00  0.45593999997E+02  0.45594000000E+02  0.51100000000E-03 0. -1.
         11   -1    0    0    0    0 -0.00000000000E+00 -0.00000000000E+00 -0.45593999997E+02  0.45594000000E+02  0.51100000000E-03 0.  1.
    9900012    2    1    2    0    0 -0.12021771322E+02 -0.35235432469E+02  0.16343308817E+02  0.50528899788E+02  0.30000121394E+02 0.  0.
        -12    1    1    2    0    0  0.12021771322E+02  0.35235432469E+02 -0.16343308817E+02  0.40659100212E+02  0.00000000000E+00 0.  1.
         11    1    3    3    0    0  0.20911081081E+01 -0.27778528214E+02  0.18472131907E+02  0.33425125584E+02  0.51100000000E-03 0. -1.
        -11    1    3    3    0    0 -0.41989499362E+01  0.45213397814E+00  0.11397156847E+00  0.42247598134E+01  0.51100000000E-03 0.  1.
         12    1    3    3    0    0 -0.99139294942E+01 -0.79090382329E+01 -0.22427946583E+01  0.12879014390E+02  0.00000000000E+00 0. -1.
</event>
<event>
 7    1  0.5155466E-011  0.5052885E+02  0.7816164E-02  0.1300439E+00
        -11   -1    0    0    0    0  0.00000000000E+00  0.00000000000E+00  0.45593999997E+02  0.45594000000E+02  0.51100000000E-03 0. -1.
         11   -1    0    0    0    0 -0.00000000000E+00 -0.00000000000E+00 -0.45593999997E+02  0.45594000000E+02  0.51100000000E-03 0.  1.
    9900012    2    1    2    0    0 -0.14719623763E+02  0.32845438430E+02  0.18912325437E+02  0.50528853393E+02  0.29999980374E+02 0.  0.
        -12    1    1    2    0    0  0.14719623763E+02 -0.32845438430E+02 -0.18912325437E+02  0.40659146607E+02  0.00000000000E+00 0.  1.
         11    1    3    3    0    0  0.16732458686E+01  0.40815833357E+01  0.13643166650E+02  0.14338586777E+02  0.51100000000E-03 0. -1.
        -11    1    3    3    0    0 -0.13668482445E+02  0.12596379297E+02 -0.10549701202E+01  0.18617441982E+02  0.51100000000E-03 0.  1.
        -12    1    3    3    0    0 -0.27243871870E+01  0.16167475796E+02  0.63241289069E+01  0.17572824634E+02  0.00000000000E+00 0.  1.
</event>
<event>
 7    1  0.5155466E-011  0.5052885E+02  0.7816164E-02  0.1300439E+00
        -11   -1    0    0    0    0  0.00000000000E+00  0.00000000000E+00  0.45593999997E+02  0.45594000000E+02  0.51100000000E-03 0.  1.
         11   -1    0    0    0    0 -0.00000000000E+00 -0.00000000000E+00 -0.45593999997E+02  0.45594000000E+02  0.51100000000E-03 0. -1.
    9900012    2    1    2    0    0  0.34698957531E+02  0.19283231411E+02 -0.87923755411E+01  0.50528849308E+02  0.29999967956E+02 0.  0.
        -12    1    1    2    0    0 -0.34698957531E+02 -0.19283231411E+02  0.87923755411E+01  0.40659150692E+02  0.00000000000E+00 0.  1.
         11    1    3    3    0    0  0.31757552251E+02  0.26037486102E+02 -0.50582882911E+01  0.41377277438E+02  0.51100000000E-03 0. -1.
        -11    1    3    3    0    0  0.66493128136E+00 -0.21705023130E+01 -0.33133248177E+01  0.40163833867E+01  0.51100000000E-03 0.  1.
         12    1    3    3    0    0  0.22764739981E+01 -0.45837523782E+01 -0.42076243227E+00  0.51351884827E+01  0.00000000000E+00 0. -1.
</event>
<event>
 7    1  0.5155466E-011  0.5052886E+02  0.7816164E-02  0.1300439E+00
        -11   -1    0    0    0    0  0.00000000000E+00  0.00000000000E+00  0.45593999997E+02  0.45594000000E+02  0.51100000000E-03 0. -1.
         11   -1    0    0    0    0 -0.00000000000E+00 -0.00000000000E+00 -0.45593999997E+02  0.45594000000E+02  0.51100000000E-03 0.  1.
    9900012    2    1    2    0    0 -0.25047799222E+02  0.10657345691E+02  0.30202553198E+02  0.50528862248E+02  0.30000007290E+02 0.  0.
        -12    1    1    2    0    0  0.25047799222E+02 -0.10657345691E+02 -0.30202553198E+02  0.40659137752E+02  0.00000000000E+00 0.  1.
         11    1    3    3    0    0 -0.17437664742E+02 -0.61832430325E+01  0.15902186822E+02  0.24396397112E+02  0.51100000000E-03 0.  1.
        -11    1    3    3    0    0 -0.70633385475E+01  0.18142892671E+02  0.14979697952E+02  0.24565151270E+02  0.51100000000E-03 0. -1.
         12    1    3    3    0    0 -0.54679593265E+00 -0.13023039482E+01 -0.67933157655E+00  0.15673138666E+01  0.00000000000E+00 0. -1.
</event>
<event>
 7    1  0.5155466E-011  0.5052885E+02  0.7816164E-02  0.1300439E+00
        -11   -1    0    0    0    0  0.00000000000E+00  0.00000000000E+00  0.45593999997E+02  0.45594000000E+02  0.51100000000E-03 0.  1.
         11   -1    0    0    0    0 -0.00000000000E+00 -0.00000000000E+00 -0.45593999997E+02  0.45594000000E+02  0.51100000000E-03 0. -1.
    9900012    2    1    2    0    0  0.23169337005E+02 -0.30986719629E+01 -0.33267797894E+02  0.50528851929E+02  0.29999975922E+02 0.  0.
        -12    1    1    2    0    0 -0.23169337005E+02  0.30986719629E+01  0.33267797894E+02  0.40659148071E+02  0.00000000000E+00 0.  1.
         11    1    3    3    0    0  0.82541883562E+01  0.59668890126E+01 -0.23958481219E+02  0.26033520940E+02  0.51100000000E-03 0. -1.
        -11    1    3    3    0    0 -0.34088505744E+00 -0.12495263126E+01  0.30825590343E+01  0.33436042064E+01  0.51100000000E-03 0.  1.
         12    1    3    3    0    0  0.15256033706E+02 -0.78160346630E+01 -0.12391875709E+02  0.21151726783E+02  0.00000000000E+00 0. -1.
</event>
<event>
 7    1  0.5155466E-011  0.5052886E+02  0.7816164E-02  0.1300439E+00
        -11   -1    0    0    0    0  0.00000000000E+00  0.00000000000E+00  0.45593999997E+02  0.45594000000E+02  0.51100000000E-03 0.  1.
         11   -1    0    0    0    0 -0.00000000000E+00 -0.00000000000E+00 -0.45593999997E+02  0.45594000000E+02  0.51100000000E-03 0. -1.
    9900012    2    1    2    0    0 -0.28786549325E+02 -0.25928110386E+02 -0.12338272532E+02  0.50528864503E+02  0.30000014144E+02 0.  0.
        -12    1    1    2    0    0  0.28786549325E+02  0.25928110386E+02  0.12338272532E+02  0.40659135497E+02  0.00000000000E+00 0.  1.
         11    1    3    3    0    0 -0.24502638171E+00 -0.18420458490E+02 -0.11725266885E+01  0.18459364778E+02  0.51100000000E-03 0. -1.
        -11    1    3    3    0    0 -0.14149355006E+02 -0.36434021384E+01 -0.85830936312E+01  0.16945445488E+02  0.51100000000E-03 0.  1.
         12    1    3    3    0    0 -0.14392167938E+02 -0.38642497578E+01 -0.25826522127E+01  0.15124054238E+02  0.00000000000E+00 0. -1.
</event>
<event>
 7    1  0.7007588E-011  0.5052892E+02  0.7816164E-02  0.1300439E+00
        -11   -1    0    0    0    0  0.00000000000E+00  0.00000000000E+00  0.45593999997E+02  0.45594000000E+02  0.51100000000E-03 0.  1.
         11   -1    0    0    0    0 -0.00000000000E+00 -0.00000000000E+00 -0.45593999997E+02  0.45594000000E+02  0.51100000000E-03 0. -1.
    9900012    2    1    2    0    0  0.30889119616E+02 -0.13059762962E+02 -0.22988374923E+02  0.50528923512E+02  0.30000193506E+02 0.  0.
        -12    1    1    2    0    0 -0.30889119616E+02  0.13059762962E+02  0.22988374923E+02  0.40659076488E+02  0.00000000000E+00 0.  1.
         11    1    3    3    0    0  0.48533743819E+01 -0.33799125626E+01 -0.12863769856E+02  0.14158235306E+02  0.51100000000E-03 0. -1.
        -11    1    3    3    0    0  0.17691029151E+02 -0.11288173024E+02  0.25192287560E+01  0.21136269217E+02  0.51100000000E-03 0.  1.
        -12    1    3    3    0    0  0.83447160832E+01  0.16083226240E+01 -0.12643833823E+02  0.15234418988E+02  0.00000000000E+00 0.  1.
</event>
<event>
 7    1  0.5155466E-011  0.5052886E+02  0.7816164E-02  0.1300439E+00
        -11   -1    0    0    0    0  0.00000000000E+00  0.00000000000E+00  0.45593999997E+02  0.45594000000E+02  0.51100000000E-03 0.  1.
         11   -1    0    0    0    0 -0.00000000000E+00 -0.00000000000E+00 -0.45593999997E+02  0.45594000000E+02  0.51100000000E-03 0. -1.
    9900012    2    1    2    0    0  0.14160835433E+02  0.21754616493E+02 -0.31294935373E+02  0.50528861066E+02  0.30000003695E+02 0.  0.
        -12    1    1    2    0    0 -0.14160835433E+02 -0.21754616493E+02  0.31294935373E+02  0.40659138934E+02  0.00000000000E+00 0.  1.
         11    1    3    3    0    0 -0.35602601777E+01  0.82144126430E+01 -0.22223213445E+02  0.23958782183E+02  0.51100000000E-03 0. -1.
        -11    1    3    3    0    0  0.15589382955E+02  0.15567664057E+02 -0.80352809771E+01  0.23450943814E+02  0.51100000000E-03 0.  1.
        -12    1    3    3    0    0  0.21317126551E+01 -0.20274602071E+01 -0.10364409508E+01  0.31191350691E+01  0.00000000000E+00 0.  1.
</event>
<event>
 7    1  0.5155466E-011  0.5052886E+02  0.7816164E-02  0.1300439E+00
        -11   -1    0    0    0    0  0.00000000000E+00  0.00000000000E+00  0.45593999997E+02  0.45594000000E+02  0.51100000000E-03 0.  1.
         11   -1    0    0    0    0 -0.00000000000E+00 -0.00000000000E+00 -0.45593999997E+02  0.45594000000E+02  0.51100000000E-03 0. -1.
    9900012    2    1    2    0    0  0.11455392857E+02  0.30426549829E+02 -0.24416481733E+02  0.50528861541E+02  0.30000005140E+02 0.  0.
        -12    1    1    2    0    0 -0.11455392857E+02 -0.30426549829E+02  0.24416481733E+02  0.40659138459E+02  0.00000000000E+00 0.  1.
         11    1    3    3    0    0  0.90587265134E+01 -0.84237875180E+00 -0.13106107953E+02  0.15954315840E+02  0.51100000000E-03 0. -1.
        -11    1    3    3    0    0  0.59180374532E+01  0.20896663372E+02 -0.75239248184E+01  0.22984846145E+02  0.51100000000E-03 0.  1.
         12    1    3    3    0    0 -0.35213711092E+01  0.10372265208E+02 -0.37864489619E+01  0.11589699555E+02  0.00000000000E+00 0. -1.
</event>
<event>
 7    1  0.5155466E-011  0.5052878E+02  0.7816164E-02  0.1300439E+00
        -11   -1    0    0    0    0  0.00000000000E+00  0.00000000000E+00  0.45593999997E+02  0.45594000000E+02  0.51100000000E-03 0.  1.
         11   -1    0    0    0    0 -0.00000000000E+00 -0.00000000000E+00 -0.45593999997E+02  0.45594000000E+02  0.51100000000E-03 0. -1.
    9900012    2    1    2    0    0 -0.67808934025E+01  0.38763614050E+02  0.10226131379E+02  0.50528781457E+02  0.29999761715E+02 0.  0.
        -12    1    1    2    0    0  0.67808934025E+01 -0.38763614050E+02 -0.10226131379E+02  0.40659218543E+02  0.00000000000E+00 0.  1.
         11    1    3    3    0    0 -0.49718784756E+00  0.21017548866E+02 -0.16440811244E+01  0.21087616249E+02  0.51100000000E-03 0.  1.
        -11    1    3    3    0    0  0.16404419621E+01 -0.36567994616E+01  0.27655296488E+01  0.48694339130E+01  0.51100000000E-03 0. -1.
        -12    1    3    3    0    0 -0.79241475170E+01  0.21402864646E+02  0.91046828550E+01  0.24571731295E+02  0.00000000000E+00 0.  1.
</event>
<event>
 7    1  0.5155466E-011  0.5052885E+02  0.7816164E-02  0.1300439E+00
        -11   -1    0    0    0    0  0.00000000000E+00  0.00000000000E+00  0.45593999997E+02  0.45594000000E+02  0.51100000000E-03 0.  1.
         11   -1    0    0    0    0 -0.00000000000E+00 -0.00000000000E+00 -0.45593999997E+02  0.45594000000E+02  0.51100000000E-03 0. -1.
    9900012    2    1    2    0    0 -0.38329540575E+02 -0.13995567788E+01 -0.13492729701E+02  0.50528853494E+02  0.29999980679E+02 0.  0.
        -12    1    1    2    0    0  0.38329540575E+02  0.13995567788E+01  0.13492729701E+02  0.40659146506E+02  0.00000000000E+00 0.  1.
         11    1    3    3    0    0 -0.30961960005E+02 -0.15648496296E+01 -0.22728023725E+02  0.38440275551E+02  0.51100000000E-03 0. -1.
        -11    1    3    3    0    0 -0.78678638836E+00  0.60339131112E+00  0.23674897374E+01  0.25667336857E+01  0.51100000000E-03 0.  1.
         12    1    3    3    0    0 -0.65807941818E+01 -0.43809846032E+00  0.68678042874E+01  0.95218442570E+01  0.00000000000E+00 0. -1.
</event>
<event>
 7    1  0.5155466E-011  0.5052889E+02  0.7816164E-02  0.1300439E+00
        -11   -1    0    0    0    0  0.00000000000E+00  0.00000000000E+00  0.45593999997E+02  0.45594000000E+02  0.51100000000E-03 0.  1.
         11   -1    0    0    0    0 -0.00000000000E+00 -0.00000000000E+00 -0.45593999997E+02  0.45594000000E+02  0.51100000000E-03 0. -1.
    9900012    2    1    2    0    0 -0.38169022825E+02  0.62062469039E+01 -0.12560720031E+02  0.50528886731E+02  0.30000081709E+02 0.  0.
        -12    1    1    2    0    0  0.38169022825E+02 -0.62062469039E+01  0.12560720031E+02  0.40659113269E+02  0.00000000000E+00 0.  1.
         11    1    3    3    0    0 -0.16553352126E+02  0.75569136981E+01 -0.21581806350E+01  0.18324250466E+02  0.51100000000E-03 0. -1.
        -11    1    3    3    0    0 -0.42354722314E+01 -0.90146169902E+01 -0.85375009058E+01  0.13118363712E+02  0.51100000000E-03 0.  1.
        -12    1    3    3    0    0 -0.17380198468E+02  0.76639501961E+01 -0.18650384906E+01  0.19086272553E+02  0.00000000000E+00 0.  1.
</event>
<event>
 7    1  0.5155466E-011  0.5052886E+02  0.7816164E-02  0.1300439E+00
        -11   -1    0    0    0    0  0.00000000000E+00  0.00000000000E+00  0.45593999997E+02  0.45594000000E+02  0.51100000000E-03 0.  1.
         11   -1    0    0    0    0 -0.00000000000E+00 -0.00000000000E+00 -0.45593999997E+02  0.45594000000E+02  0.51100000000E-03 0. -1.
    9900012    2    1    2    0    0 -0.16277595203E+01  0.74202866619E+01 -0.39943150143E+02  0.50528862054E+02  0.30000006699E+02 0.  0.
        -12    1    1    2    0    0  0.16277595203E+01 -0.74202866619E+01  0.39943150143E+02  0.40659137946E+02  0.00000000000E+00 0.  1.
         11    1    3    3    0    0 -0.16821664160E+01  0.88502949152E+01 -0.15239986182E+02  0.17703518944E+02  0.51100000000E-03 0. -1.
        -11    1    3    3    0    0 -0.71632448535E+01 -0.78155317804E+01 -0.71079600225E+01  0.12763922194E+02  0.51100000000E-03 0.  1.
        -12    1    3    3    0    0  0.72176517492E+01  0.63855235272E+01 -0.17595203938E+02  0.20061420915E+02  0.00000000000E+00 0.  1.
</event>
<event>
 7    1  0.5155466E-011  0.5052887E+02  0.7816164E-02  0.1300439E+00
        -11   -1    0    0    0    0  0.00000000000E+00  0.00000000000E+00  0.45593999997E+02  0.45594000000E+02  0.51100000000E-03 0. -1.
         11   -1    0    0    0    0 -0.00000000000E+00 -0.00000000000E+00 -0.45593999997E+02  0.45594000000E+02  0.51100000000E-03 0.  1.
    9900012    2    1    2    0    0  0.14283153425E+02 -0.36598400485E+02  0.10474416933E+02  0.50528870645E+02  0.30000032812E+02 0.  0.
        -12    1    1    2    0    0 -0.14283153425E+02  0.36598400485E+02 -0.10474416933E+02  0.40659129355E+02  0.00000000000E+00 0.  1.
         11    1    3    3    0    0  0.18761162381E+02 -0.18133376664E+02  0.58802920135E+01  0.26746558611E+02  0.51100000000E-03 0. -1.
        -11    1    3    3    0    0 -0.73897927287E+01 -0.13189120234E+02  0.77401249437E+01  0.16984447696E+02  0.51100000000E-03 0.  1.
        -12    1    3    3    0    0  0.29117837726E+01 -0.52759035875E+01 -0.31460000242E+01  0.67978643379E+01  0.00000000000E+00 0.  1.
</event>
<event>
 7    1  0.5155466E-011  0.5052886E+02  0.7816164E-02  0.1300439E+00
        -11   -1    0    0    0    0  0.00000000000E+00  0.00000000000E+00  0.45593999997E+02  0.45594000000E+02  0.51100000000E-03 0.  1.
         11   -1    0    0    0    0 -0.00000000000E+00 -0.00000000000E+00 -0.45593999997E+02  0.45594000000E+02  0.51100000000E-03 0. -1.
    9900012    2    1    2    0    0 -0.29293152265E+02 -0.28175590991E+02 -0.11013742327E+01  0.50528859300E+02  0.29999998328E+02 0.  0.
        -12    1    1    2    0    0  0.29293152265E+02  0.28175590991E+02  0.11013742327E+01  0.40659140700E+02  0.00000000000E+00 0.  1.
         11    1    3    3    0    0  0.77541475020E+00 -0.30346643914E+01  0.82327003843E+01  0.88083943986E+01  0.51100000000E-03 0.  1.
        -11    1    3    3    0    0 -0.23690515721E+02 -0.14703155248E+02 -0.32876435932E+01  0.28075468118E+02  0.51100000000E-03 0. -1.
         12    1    3    3    0    0 -0.63780512935E+01 -0.10437771352E+02 -0.60464310238E+01  0.13644996783E+02  0.00000000000E+00 0. -1.
</event>
<event>
 7    1  0.5155466E-011  0.5052884E+02  0.7816164E-02  0.1300439E+00
        -11   -1    0    0    0    0  0.00000000000E+00  0.00000000000E+00  0.45593999997E+02  0.45594000000E+02  0.51100000000E-03 0. -1.
         11   -1    0    0    0    0 -0.00000000000E+00 -0.00000000000E+00 -0.45593999997E+02  0.45594000000E+02  0.51100000000E-03 0.  1.
    9900012    2    1    2    0    0  0.26578073869E+02 -0.28598184421E+02 -0.11354153204E+02  0.50528844109E+02  0.29999952155E+02 0.  0.
        -12    1    1    2    0    0 -0.26578073869E+02  0.28598184421E+02  0.11354153204E+02  0.40659155891E+02  0.00000000000E+00 0.  1.
         11    1    3    3    0    0  0.83740913581E+01 -0.44925030291E+01  0.76427573800E+01  0.12195069912E+02  0.51100000000E-03 0. -1.
        -11    1    3    3    0    0  0.26562720418E+01 -0.15032074240E+02 -0.95142005387E+01  0.17987191256E+02  0.51100000000E-03 0.  1.
         12    1    3    3    0    0  0.15547710469E+02 -0.90736071520E+01 -0.94827100454E+01  0.20346582941E+02  0.00000000000E+00 0. -1.
</event>
<event>
 7    1  0.5155466E-011  0.5052886E+02  0.7816164E-02  0.1300439E+00
        -11   -1    0    0    0    0  0.00000000000E+00  0.00000000000E+00  0.45593999997E+02  0.45594000000E+02  0.51100000000E-03 0.  1.
         11   -1    0    0    0    0 -0.00000000000E+00 -0.00000000000E+00 -0.45593999997E+02  0.45594000000E+02  0.51100000000E-03 0. -1.
    9900012    2    1    2    0    0  0.26029242728E+02 -0.29465223442E+02 -0.10365547468E+02  0.50528862727E+02  0.30000008746E+02 0.  0.
        -12    1    1    2    0    0 -0.26029242728E+02  0.29465223442E+02  0.10365547468E+02  0.40659137273E+02  0.00000000000E+00 0.  1.
         11    1    3    3    0    0  0.18589949334E+01 -0.17989905508E+02  0.30371618139E+01  0.18338945294E+02  0.51100000000E-03 0. -1.
        -11    1    3    3    0    0  0.10713232632E+02  0.86027281826E+00 -0.70823346934E+01  0.12871398049E+02  0.51100000000E-03 0.  1.
         12    1    3    3    0    0  0.13457015162E+02 -0.12335590752E+02 -0.63203745886E+01  0.19318519384E+02  0.00000000000E+00 0. -1.
</event>
<event>
 7    1  0.5155466E-011  0.5052886E+02  0.7816164E-02  0.1300439E+00
        -11   -1    0    0    0    0  0.00000000000E+00  0.00000000000E+00  0.45593999997E+02  0.45594000000E+02  0.51100000000E-03 0.  1.
         11   -1    0    0    0    0 -0.00000000000E+00 -0.00000000000E+00 -0.45593999997E+02  0.45594000000E+02  0.51100000000E-03 0. -1.
    9900012    2    1    2    0    0  0.13740843153E+02  0.35001888096E+02 -0.15466821177E+02  0.50528862059E+02  0.30000006713E+02 0.  0.
        -12    1    1    2    0    0 -0.13740843153E+02 -0.35001888096E+02  0.15466821177E+02  0.40659137941E+02  0.00000000000E+00 0.  1.
         11    1    3    3    0    0 -0.23571453696E+01  0.90231681975E+00 -0.69922754723E+01  0.74338567701E+01  0.51100000000E-03 0. -1.
        -11    1    3    3    0    0  0.18632534583E+02  0.17839297981E+02 -0.50065481258E+01  0.26276937071E+02  0.51100000000E-03 0.  1.
        -12    1    3    3    0    0 -0.25345460603E+01  0.16260273295E+02 -0.34679975787E+01  0.16818068217E+02  0.00000000000E+00 0.  1.
</event>
<event>
 7    1  0.5155466E-011  0.5052884E+02  0.7816164E-02  0.1300439E+00
        -11   -1    0    0    0    0  0.00000000000E+00  0.00000000000E+00  0.45593999997E+02  0.45594000000E+02  0.51100000000E-03 0. -1.
         11   -1    0    0    0    0 -0.00000000000E+00 -0.00000000000E+00 -0.45593999997E+02  0.45594000000E+02  0.51100000000E-03 0.  1.
    9900012    2    1    2    0    0  0.80419903034E+01 -0.17175571145E+02  0.35965172717E+02  0.50528837431E+02  0.29999931857E+02 0.  0.
        -12    1    1    2    0    0 -0.80419903034E+01  0.17175571145E+02 -0.35965172717E+02  0.40659162569E+02  0.00000000000E+00 0.  1.
         11    1    3    3    0    0  0.33366512788E+01 -0.21402041152E+02  0.10946832338E+02  0.24269605388E+02  0.51100000000E-03 0.  1.
        -11    1    3    3    0    0  0.50271764174E+01  0.50123060032E+01  0.21583893943E+02  0.22721359823E+02  0.51100000000E-03 0. -1.
        -12    1    3    3    0    0 -0.32183739274E+00 -0.78583599671E+00  0.34344464367E+01  0.35378722204E+01  0.00000000000E+00 0.  1.
</event>
<event>
 7    1  0.5155466E-011  0.5052876E+02  0.7816164E-02  0.1300439E+00
        -11   -1    0    0    0    0  0.00000000000E+00  0.00000000000E+00  0.45593999997E+02  0.45594000000E+02  0.51100000000E-03 0. -1.
         11   -1    0    0    0    0 -0.00000000000E+00 -0.00000000000E+00 -0.45593999997E+02  0.45594000000E+02  0.51100000000E-03 0.  1.
    9900012    2    1    2    0    0 -0.75808650965E+01  0.31326657963E+02  0.24785972671E+02  0.50528764199E+02  0.29999709257E+02 0.  0.
        -12    1    1    2    0    0  0.75808650965E+01 -0.31326657963E+02 -0.24785972671E+02  0.40659235801E+02  0.00000000000E+00 0.  1.
         11    1    3    3    0    0 -0.84046032393E+01  0.15141879577E+02  0.27958038290E+02  0.32887167376E+02  0.51100000000E-03 0. -1.
        -11    1    3    3    0    0 -0.21486222513E+01  0.95159489863E+01 -0.19702416289E+00  0.97574936060E+01  0.51100000000E-03 0.  1.
         12    1    3    3    0    0  0.29723603941E+01  0.66688293995E+01 -0.29750414559E+01  0.78841032170E+01  0.00000000000E+00 0. -1.
</event>
<event>
 7    1  0.5155466E-011  0.5052886E+02  0.7816164E-02  0.1300439E+00
        -11   -1    0    0    0    0  0.00000000000E+00  0.00000000000E+00  0.45593999997E+02  0.45594000000E+02  0.51100000000E-03 0.  1.
         11   -1    0    0    0    0 -0.00000000000E+00 -0.00000000000E+00 -0.45593999997E+02  0.45594000000E+02  0.51100000000E-03 0. -1.
    9900012    2    1    2    0    0  0.10801730409E+02 -0.17883824578E+02 -0.34880609122E+02  0.50528862600E+02  0.30000008359E+02 0.  0.
        -12    1    1    2    0    0 -0.10801730409E+02  0.17883824578E+02  0.34880609122E+02  0.40659137400E+02  0.00000000000E+00 0.  1.
         11    1    3    3    0    0  0.43100880678E+01  0.29483192050E+01 -0.26488196396E+02  0.26998036852E+02  0.51100000000E-03 0. -1.
        -11    1    3    3    0    0  0.58926966419E+01 -0.16012852686E+02 -0.72671119055E+01  0.18545787677E+02  0.51100000000E-03 0.  1.
         12    1    3    3    0    0  0.59894569977E+00 -0.48192910968E+01 -0.11253008203E+01  0.49850380704E+01  0.00000000000E+00 0. -1.
</event>
<event>
 7    1  0.5155466E-011  0.5052885E+02  0.7816164E-02  0.1300439E+00
        -11   -1    0    0    0    0  0.00000000000E+00  0.00000000000E+00  0.45593999997E+02  0.45594000000E+02  0.51100000000E-03 0. -1.
         11   -1    0    0    0    0 -0.00000000000E+00 -0.00000000000E+00 -0.45593999997E+02  0.45594000000E+02  0.51100000000E-03 0.  1.
    9900012    2    1    2    0    0 -0.31781568256E+01  0.32405274998E+02  0.24350854209E+02  0.50528848150E+02  0.29999964435E+02 0.  0.
        -12    1    1    2    0    0  0.31781568256E+01 -0.32405274998E+02 -0.24350854209E+02  0.40659151850E+02  0.00000000000E+00 0.  1.
         11    1    3    3    0    0 -0.67383039718E+01  0.93426529960E+01 -0.10453930218E+00  0.11519584808E+02  0.51100000000E-03 0. -1.
        -11    1    3    3    0    0  0.57501767039E+01  0.25036875913E+01  0.15031841276E+02  0.16287701989E+02  0.51100000000E-03 0.  1.
         12    1    3    3    0    0 -0.21900295578E+01  0.20558934411E+02  0.94235522349E+01  0.22721561352E+02  0.00000000000E+00 0. -1.
</event>
<event>
 7    1  0.5155466E-011  0.5052885E+02  0.7816164E-02  0.1300439E+00
        -11   -1    0    0    0    0  0.00000000000E+00  0.00000000000E+00  0.45593999997E+02  0.45594000000E+02  0.51100000000E-03 0. -1.
         11   -1    0    0    0    0 -0.00000000000E+00 -0.00000000000E+00 -0.45593999997E+02  0.45594000000E+02  0.51100000000E-03 0.  1.
    9900012    2    1    2    0    0 -0.86643960413E+01  0.25309113206E+02  0.30619327407E+02  0.50528853663E+02  0.29999981193E+02 0.  0.
        -12    1    1    2    0    0  0.86643960413E+01 -0.25309113206E+02 -0.30619327407E+02  0.40659146337E+02  0.00000000000E+00 0.  1.
         11    1    3    3    0    0 -0.37338608224E-02  0.17685996822E+02  0.25902290071E+01  0.17874668783E+02  0.51100000000E-03 0. -1.
        -11    1    3    3    0    0 -0.12315174367E+01 -0.32938263773E+01  0.51078828492E+01  0.62013220254E+01  0.51100000000E-03 0.  1.
         12    1    3    3    0    0 -0.74291447438E+01  0.10916942761E+02  0.22921215551E+02  0.26452862854E+02  0.00000000000E+00 0. -1.
</event>
<event>
 7    1  0.5155466E-011  0.5052886E+02  0.7816164E-02  0.1300439E+00
        -11   -1    0    0    0    0  0.00000000000E+00  0.00000000000E+00  0.45593999997E+02  0.45594000000E+02  0.51100000000E-03 0.  1.
         11   -1    0    0    0    0 -0.00000000000E+00 -0.00000000000E+00 -0.45593999997E+02  0.45594000000E+02  0.51100000000E-03 0. -1.
    9900012    2    1    2    0    0 -0.78668564208E+01  0.31776150153E+02 -0.24115440786E+02  0.50528860402E+02  0.30000001679E+02 0.  0.
        -12    1    1    2    0    0  0.78668564208E+01 -0.31776150153E+02  0.24115440786E+02  0.40659139598E+02  0.00000000000E+00 0.  1.
         11    1    3    3    0    0 -0.73657631397E+00  0.11917029300E+01 -0.17349882308E+02  0.17406352775E+02  0.51100000000E-03 0. -1.
        -11    1    3    3    0    0 -0.24121813697E+01  0.10543573702E+02 -0.63238028878E+01  0.12529008284E+02  0.51100000000E-03 0.  1.
         12    1    3    3    0    0 -0.47180987370E+01  0.20040873522E+02 -0.44175559005E+00  0.20593499343E+02  0.00000000000E+00 0. -1.
</event>
<event>
 7    1  0.5155466E-011  0.5052886E+02  0.7816164E-02  0.1300439E+00
        -11   -1    0    0    0    0  0.00000000000E+00  0.00000000000E+00  0.45593999997E+02  0.45594000000E+02  0.51100000000E-03 0.  1.
         11   -1    0    0    0    0 -0.00000000000E+00 -0.00000000000E+00 -0.45593999997E+02  0.45594000000E+02  0.51100000000E-03 0. -1.
    9900012    2    1    2    0    0 -0.35458128937E+01  0.83086201454E+01 -0.39642899559E+02  0.50528862734E+02  0.30000008765E+02 0.  0.
        -12    1    1    2    0    0  0.35458128937E+01 -0.83086201454E+01  0.39642899559E+02  0.40659137266E+02  0.00000000000E+00 0.  1.
         11    1    3    3    0    0 -0.26448132355E+01  0.76330339999E+00 -0.32975837551E+02  0.33090535378E+02  0.51100000000E-03 0. -1.
        -11    1    3    3    0    0  0.16118386447E+01 -0.11773072244E+01  0.33628868044E+01  0.39106372930E+01  0.51100000000E-03 0.  1.
         12    1    3    3    0    0 -0.25128383029E+01  0.87226239698E+01 -0.10029948812E+02  0.13527690063E+02  0.00000000000E+00 0. -1.
</event>
<event>
 7    1  0.5155466E-011  0.5052880E+02  0.7816164E-02  0.1300439E+00
        -11   -1    0    0    0    0  0.00000000000E+00  0.00000000000E+00  0.45593999997E+02  0.45594000000E+02  0.51100000000E-03 0. -1.
         11   -1    0    0    0    0 -0.00000000000E+00 -0.00000000000E+00 -0.45593999997E+02  0.45594000000E+02  0.51100000000E-03 0.  1.
    9900012    2    1    2    0    0 -0.27493826747E+01 -0.34459233830E+02  0.21404973636E+02  0.50528796889E+02  0.29999808624E+02 0.  0.
        -12    1    1    2    0    0  0.27493826747E+01  0.34459233830E+02 -0.21404973636E+02  0.40659203111E+02  0.00000000000E+00 0.  1.
         11    1    3    3    0    0 -0.76323127848E+01 -0.27871280539E+01  0.14435954971E+02  0.16565538851E+02  0.51100000000E-03 0. -1.
        -11    1    3    3    0    0 -0.24102132989E+01 -0.59655422867E+01  0.39949407814E+00  0.64464268164E+01  0.51100000000E-03 0.  1.
         12    1    3    3    0    0  0.72931434090E+01 -0.25706563489E+02  0.65695245872E+01  0.27516831222E+02  0.00000000000E+00 0. -1.
</event>
<event>
 7    1  0.5155466E-011  0.5052886E+02  0.7816164E-02  0.1300439E+00
        -11   -1    0    0    0    0  0.00000000000E+00  0.00000000000E+00  0.45593999997E+02  0.45594000000E+02  0.51100000000E-03 0.  1.
         11   -1    0    0    0    0 -0.00000000000E+00 -0.00000000000E+00 -0.45593999997E+02  0.45594000000E+02  0.51100000000E-03 0. -1.
    9900012    2    1    2    0    0 -0.38964204967E+02  0.37601653376E+01 -0.10991699554E+02  0.50528861160E+02  0.30000003983E+02 0.  0.
        -12    1    1    2    0    0  0.38964204967E+02 -0.37601653376E+01  0.10991699554E+02  0.40659138840E+02  0.00000000000E+00 0.  1.
         11    1    3    3    0    0 -0.32773424329E+02  0.24291801123E+01 -0.11453982264E+02  0.34802183383E+02  0.51100000000E-03 0. -1.
        -11    1    3    3    0    0  0.58173858853E+00  0.16420155902E+01  0.64502007725E+01  0.66812966743E+01  0.51100000000E-03 0.  1.
        -12    1    3    3    0    0 -0.67725192266E+01 -0.31103036485E+00 -0.59879180627E+01  0.90453811024E+01  0.00000000000E+00 0.  1.
</event>
<event>
 7    1  0.5209026E-011  0.5052886E+02  0.7816164E-02  0.1300439E+00
        -11   -1    0    0    0    0  0.00000000000E+00  0.00000000000E+00  0.45593999997E+02  0.45594000000E+02  0.51100000000E-03 0. -1.
         11   -1    0    0    0    0 -0.00000000000E+00 -0.00000000000E+00 -0.45593999997E+02  0.45594000000E+02  0.51100000000E-03 0.  1.
    9900012    2    1    2    0    0  0.35962731011E+02 -0.14705772012E+02 -0.11982814467E+02  0.50528860870E+02  0.30000003100E+02 0.  0.
        -12    1    1    2    0    0 -0.35962731011E+02  0.14705772012E+02  0.11982814467E+02  0.40659139130E+02  0.00000000000E+00 0.  1.
         11    1    3    3    0    0  0.22788088252E+02  0.12473110137E+01 -0.49285712533E+01  0.23348309700E+02  0.51100000000E-03 0. -1.
        -11    1    3    3    0    0  0.93910174200E+01 -0.14117113741E+02 -0.11937353089E+02  0.20736067795E+02  0.51100000000E-03 0.  1.
        -12    1    3    3    0    0  0.37836253386E+01 -0.18359692852E+01  0.48831098755E+01  0.64444833753E+01  0.00000000000E+00 0.  1.
</event>
<event>
 7    1  0.5155466E-011  0.5052887E+02  0.7816164E-02  0.1300439E+00
        -11   -1    0    0    0    0  0.00000000000E+00  0.00000000000E+00  0.45593999997E+02  0.45594000000E+02  0.51100000000E-03 0.  1.
         11   -1    0    0    0    0 -0.00000000000E+00 -0.00000000000E+00 -0.45593999997E+02  0.45594000000E+02  0.51100000000E-03 0. -1.
    9900012    2    1    2    0    0 -0.36582606399E+02 -0.13252960415E+02 -0.11799880959E+02  0.50528865216E+02  0.30000016312E+02 0.  0.
        -12    1    1    2    0    0  0.36582606399E+02  0.13252960415E+02  0.11799880959E+02  0.40659134784E+02  0.00000000000E+00 0.  1.
         11    1    3    3    0    0 -0.34408519381E+02 -0.59988605952E+01 -0.12549605288E+02  0.37113678443E+02  0.51100000000E-03 0. -1.
        -11    1    3    3    0    0 -0.52793686604E+01 -0.69266224536E+01  0.33704748548E+01  0.93386258666E+01  0.51100000000E-03 0.  1.
         12    1    3    3    0    0  0.31052816426E+01 -0.32747736568E+00 -0.26207505264E+01  0.40765609068E+01  0.00000000000E+00 0. -1.
</event>
<event>
 7    1  0.5155466E-011  0.5052885E+02  0.7816164E-02  0.1300439E+00
        -11   -1    0    0    0    0  0.00000000000E+00  0.00000000000E+00  0.45593999997E+02  0.45594000000E+02  0.51100000000E-03 0. -1.
         11   -1    0    0    0    0 -0.00000000000E+00 -0.00000000000E+00 -0.45593999997E+02  0.45594000000E+02  0.51100000000E-03 0.  1.
    9900012    2    1    2    0    0  0.37018657609E+02  0.14531390176E+02  0.84630943675E+01  0.50528852469E+02  0.29999977566E+02 0.  0.
        -12    1    1    2    0    0 -0.37018657609E+02 -0.14531390176E+02 -0.84630943675E+01  0.40659147531E+02  0.00000000000E+00 0.  1.
         11    1    3    3    0    0  0.31830209668E+02  0.18918549333E+02  0.12518634832E+02  0.39086954022E+02  0.51100000000E-03 0. -1.
        -11    1    3    3    0    0  0.51878524649E+01 -0.66124640357E+01 -0.37212006750E+01  0.91916172976E+01  0.51100000000E-03 0.  1.
         12    1    3    3    0    0  0.59547599017E-03  0.22253048789E+01 -0.33433978979E+00  0.22502811499E+01  0.00000000000E+00 0. -1.
</event>
<event>
 7    1  0.5155466E-011  0.5052891E+02  0.7816164E-02  0.1300439E+00
        -11   -1    0    0    0    0  0.00000000000E+00  0.00000000000E+00  0.45593999997E+02  0.45594000000E+02  0.51100000000E-03 0.  1.
         11   -1    0    0    0    0 -0.00000000000E+00 -0.00000000000E+00 -0.45593999997E+02  0.45594000000E+02  0.51100000000E-03 0. -1.
    9900012    2    1    2    0    0 -0.28412640481E+02 -0.27894570297E+02 -0.82326266438E+01  0.50528913284E+02  0.30000162417E+02 0.  0.
        -12    1    1    2    0    0  0.28412640481E+02  0.27894570297E+02  0.82326266438E+01  0.40659086716E+02  0.00000000000E+00 0.  1.
         11    1    3    3    0    0 -0.93253334430E+01 -0.22012187560E+02  0.43937850101E+01  0.24306451653E+02  0.51100000000E-03 0. -1.
        -11    1    3    3    0    0 -0.36474192145E+01  0.16353566887E+01  0.12020012460E+01  0.41740706369E+01  0.51100000000E-03 0.  1.
         12    1    3    3    0    0 -0.15439887824E+02 -0.75177394258E+01 -0.13828412900E+02  0.22048390994E+02  0.00000000000E+00 0. -1.
</event>
<event>
 7    1  0.5155466E-011  0.5052889E+02  0.7816164E-02  0.1300439E+00
        -11   -1    0    0    0    0  0.00000000000E+00  0.00000000000E+00  0.45593999997E+02  0.45594000000E+02  0.51100000000E-03 0.  1.
         11   -1    0    0    0    0 -0.00000000000E+00 -0.00000000000E+00 -0.45593999997E+02  0.45594000000E+02  0.51100000000E-03 0. -1.
    9900012    2    1    2    0    0  0.31197916792E+02 -0.12314756651E+02 -0.22982603890E+02  0.50528888781E+02  0.30000087940E+02 0.  0.
        -12    1    1    2    0    0 -0.31197916792E+02  0.12314756651E+02  0.22982603890E+02  0.40659111219E+02  0.00000000000E+00 0.  1.
         11    1    3    3    0    0 -0.33321248816E+01  0.39025384484E+00  0.22386396024E+01  0.40332197834E+01  0.51100000000E-03 0. -1.
        -11    1    3    3    0    0  0.61742419033E+01 -0.73777356811E+01 -0.99942316327E+01  0.13872163243E+02  0.51100000000E-03 0.  1.
         12    1    3    3    0    0  0.28355799770E+02 -0.53272748147E+01 -0.15227011860E+02  0.32623505755E+02  0.00000000000E+00 0. -1.
</event>
<event>
 7    1  0.5155466E-011  0.5052885E+02  0.7816164E-02  0.1300439E+00
        -11   -1    0    0    0    0  0.00000000000E+00  0.00000000000E+00  0.45593999997E+02  0.45594000000E+02  0.51100000000E-03 0.  1.
         11   -1    0    0    0    0 -0.00000000000E+00 -0.00000000000E+00 -0.45593999997E+02  0.45594000000E+02  0.51100000000E-03 0. -1.
    9900012    2    1    2    0    0 -0.24529444044E+02 -0.71500456112E+01 -0.31628309406E+02  0.50528846870E+02  0.29999960547E+02 0.  0.
        -12    1    1    2    0    0  0.24529444044E+02  0.71500456112E+01  0.31628309406E+02  0.40659153130E+02  0.00000000000E+00 0.  1.
         11    1    3    3    0    0  0.54906015709E+01  0.41521399343E+01 -0.45061763513E+01  0.82275511068E+01  0.51100000000E-03 0.  1.
        -11    1    3    3    0    0 -0.18862656212E+02 -0.44959545298E+01 -0.15999158064E+02  0.25139340992E+02  0.51100000000E-03 0. -1.
        -12    1    3    3    0    0 -0.11157389402E+02 -0.68062310157E+01 -0.11122974991E+02  0.17161954771E+02  0.00000000000E+00 0.  1.
</event>
<event>
 7    1  0.5155466E-011  0.5052886E+02  0.7816164E-02  0.1300439E+00
        -11   -1    0    0    0    0  0.00000000000E+00  0.00000000000E+00  0.45593999997E+02  0.45594000000E+02  0.51100000000E-03 0. -1.
         11   -1    0    0    0    0 -0.00000000000E+00 -0.00000000000E+00 -0.45593999997E+02  0.45594000000E+02  0.51100000000E-03 0.  1.
    9900012    2    1    2    0    0 -0.66688117758E+01 -0.34449534004E+02  0.20540753725E+02  0.50528855799E+02  0.29999987687E+02 0.  0.
        -12    1    1    2    0    0  0.66688117758E+01  0.34449534004E+02 -0.20540753725E+02  0.40659144201E+02  0.00000000000E+00 0.  1.
         11    1    3    3    0    0 -0.14642499493E+02 -0.62950535057E+01  0.46751913835E+01  0.16609873713E+02  0.51100000000E-03 0. -1.
        -11    1    3    3    0    0  0.36509417138E+01 -0.39525077972E+01  0.32517682391E+01  0.62869460175E+01  0.51100000000E-03 0.  1.
         12    1    3    3    0    0  0.43227460034E+01 -0.24201972701E+02  0.12613794102E+02  0.27632036068E+02  0.00000000000E+00 0. -1.
</event>
<event>
 7    1  0.5155466E-011  0.5052890E+02  0.7816164E-02  0.1300439E+00
        -11   -1    0    0    0    0  0.00000000000E+00  0.00000000000E+00  0.45593999997E+02  0.45594000000E+02  0.51100000000E-03 0.  1.
         11   -1    0    0    0    0 -0.00000000000E+00 -0.00000000000E+00 -0.45593999997E+02  0.45594000000E+02  0.51100000000E-03 0. -1.
    9900012    2    1    2    0    0 -0.28059611031E+02 -0.24223413753E+02 -0.16704692562E+02  0.50528901404E+02  0.30000126307E+02 0.  0.
        -12    1    1    2    0    0  0.28059611031E+02  0.24223413753E+02  0.16704692562E+02  0.40659098596E+02  0.00000000000E+00 0.  1.
         11    1    3    3    0    0 -0.12099435658E+02 -0.68114698541E+00 -0.25011518261E+01  0.12374007644E+02  0.51100000000E-03 0. -1.
        -11    1    3    3    0    0 -0.11636813582E+02 -0.27280973173E+02 -0.11249505633E+02  0.31720944261E+02  0.51100000000E-03 0.  1.
        -12    1    3    3    0    0 -0.43233617904E+01  0.37387064051E+01 -0.29540351032E+01  0.64339494981E+01  0.00000000000E+00 0.  1.
</event>
<event>
 7    1  0.5155466E-011  0.5052886E+02  0.7816164E-02  0.1300439E+00
        -11   -1    0    0    0    0  0.00000000000E+00  0.00000000000E+00  0.45593999997E+02  0.45594000000E+02  0.51100000000E-03 0. -1.
         11   -1    0    0    0    0 -0.00000000000E+00 -0.00000000000E+00 -0.45593999997E+02  0.45594000000E+02  0.51100000000E-03 0.  1.
    9900012    2    1    2    0    0 -0.16751442419E+02 -0.13115428064E+02  0.34648815162E+02  0.50528859963E+02  0.30000000345E+02 0.  0.
        -12    1    1    2    0    0  0.16751442419E+02  0.13115428064E+02 -0.34648815162E+02  0.40659140037E+02  0.00000000000E+00 0.  1.
         11    1    3    3    0    0 -0.92533037995E+01  0.54150825912E+01  0.26783706722E+02  0.28849847430E+02  0.51100000000E-03 0. -1.
        -11    1    3    3    0    0 -0.29258970965E+01 -0.78878412095E+01  0.17979506189E+01  0.86029959581E+01  0.51100000000E-03 0.  1.
         12    1    3    3    0    0 -0.45722415230E+01 -0.10642669445E+02  0.60671578206E+01  0.13076016576E+02  0.00000000000E+00 0. -1.
</event>
<event>
 7    1  0.5155466E-011  0.5052886E+02  0.7816164E-02  0.1300439E+00
        -11   -1    0    0    0    0  0.00000000000E+00  0.00000000000E+00  0.45593999997E+02  0.45594000000E+02  0.51100000000E-03 0.  1.
         11   -1    0    0    0    0 -0.00000000000E+00 -0.00000000000E+00 -0.45593999997E+02  0.45594000000E+02  0.51100000000E-03 0. -1.
    9900012    2    1    2    0    0  0.83035239130E+01  0.15795326196E+02 -0.36533883973E+02  0.50528861825E+02  0.30000006003E+02 0.  0.
        -12    1    1    2    0    0 -0.83035239130E+01 -0.15795326196E+02  0.36533883973E+02  0.40659138175E+02  0.00000000000E+00 0.  1.
         11    1    3    3    0    0 -0.39995699875E+01  0.19593617395E+02 -0.24951024109E+02  0.31975928557E+02  0.51100000000E-03 0. -1.
        -11    1    3    3    0    0  0.86150675958E+01 -0.30709176192E+01 -0.37888328238E+01  0.98997565188E+01  0.51100000000E-03 0.  1.
         12    1    3    3    0    0  0.36880263047E+01 -0.72737358054E+00 -0.77940270401E+01  0.86531767491E+01  0.00000000000E+00 0. -1.
</event>
<event>
 7    1  0.5155466E-011  0.5052888E+02  0.7816164E-02  0.1300439E+00
        -11   -1    0    0    0    0  0.00000000000E+00  0.00000000000E+00  0.45593999997E+02  0.45594000000E+02  0.51100000000E-03 0.  1.
         11   -1    0    0    0    0 -0.00000000000E+00 -0.00000000000E+00 -0.45593999997E+02  0.45594000000E+02  0.51100000000E-03 0. -1.
    9900012    2    1    2    0    0  0.40209057191E+02 -0.25856656898E+01 -0.54506903503E+01  0.50528880819E+02  0.30000063738E+02 0.  0.
        -12    1    1    2    0    0 -0.40209057191E+02  0.25856656898E+01  0.54506903503E+01  0.40659119181E+02  0.00000000000E+00 0.  1.
         11    1    3    3    0    0  0.20254969456E+02  0.50434682750E+01 -0.14797473630E+02  0.25586433632E+02  0.51100000000E-03 0. -1.
        -11    1    3    3    0    0  0.16846196324E+02 -0.41714166958E+01  0.39120094452E+01  0.17790415003E+02  0.51100000000E-03 0.  1.
        -12    1    3    3    0    0  0.31078914113E+01 -0.34577172690E+01  0.54347738342E+01  0.71520321843E+01  0.00000000000E+00 0.  1.
</event>
<event>
 7    1  0.5155466E-011  0.5052886E+02  0.7816164E-02  0.1300439E+00
        -11   -1    0    0    0    0  0.00000000000E+00  0.00000000000E+00  0.45593999997E+02  0.45594000000E+02  0.51100000000E-03 0. -1.
         11   -1    0    0    0    0 -0.00000000000E+00 -0.00000000000E+00 -0.45593999997E+02  0.45594000000E+02  0.51100000000E-03 0.  1.
    9900012    2    1    2    0    0  0.24537081135E+02 -0.22391229597E+02 -0.23446326091E+02  0.50528859322E+02  0.29999998396E+02 0.  0.
        -12    1    1    2    0    0 -0.24537081135E+02  0.22391229597E+02  0.23446326091E+02  0.40659140678E+02  0.00000000000E+00 0.  1.
         11    1    3    3    0    0  0.57905020806E+00 -0.61550582376E+01  0.59148084976E+01  0.85559921035E+01  0.51100000000E-03 0. -1.
        -11    1    3    3    0    0  0.17982286395E+02 -0.15906043820E+02 -0.23676306749E+02  0.33718427536E+02  0.51100000000E-03 0.  1.
         12    1    3    3    0    0  0.59757445315E+01 -0.33012753973E+00 -0.56848278398E+01  0.82544396821E+01  0.00000000000E+00 0. -1.
</event>
<event>
 7    1  0.5155466E-011  0.5052886E+02  0.7816164E-02  0.1300439E+00
        -11   -1    0    0    0    0  0.00000000000E+00  0.00000000000E+00  0.45593999997E+02  0.45594000000E+02  0.51100000000E-03 0.  1.
         11   -1    0    0    0    0 -0.00000000000E+00 -0.00000000000E+00 -0.45593999997E+02  0.45594000000E+02  0.51100000000E-03 0. -1.
    9900012    2    1    2    0    0 -0.45271926398E+01  0.24815589173E+02 -0.31888194287E+02  0.50528857436E+02  0.29999992662E+02 0.  0.
        -12    1    1    2    0    0  0.45271926398E+01 -0.24815589173E+02  0.31888194287E+02  0.40659142564E+02  0.00000000000E+00 0.  1.
         11    1    3    3    0    0  0.85203076086E+01  0.21325176556E+02 -0.17317123662E+02  0.28761807472E+02  0.51100000000E-03 0. -1.
        -11    1    3    3    0    0 -0.75728268765E+01 -0.43469706785E+00 -0.12670912142E+02  0.14767825948E+02  0.51100000000E-03 0.  1.
        -12    1    3    3    0    0 -0.54746733719E+01  0.39251096844E+01 -0.19001584824E+01  0.69992240157E+01  0.00000000000E+00 0.  1.
</event>
<event>
 7    1  0.5155466E-011  0.5052889E+02  0.7816164E-02  0.1300439E+00
        -11   -1    0    0    0    0  0.00000000000E+00  0.00000000000E+00  0.45593999997E+02  0.45594000000E+02  0.51100000000E-03 0. -1.
         11   -1    0    0    0    0 -0.00000000000E+00 -0.00000000000E+00 -0.45593999997E+02  0.45594000000E+02  0.51100000000E-03 0.  1.
    9900012    2    1    2    0    0  0.26213293761E+02 -0.17924186986E+02  0.25391925532E+02  0.50528891167E+02  0.30000095190E+02 0.  0.
        -12    1    1    2    0    0 -0.26213293761E+02  0.17924186986E+02 -0.25391925532E+02  0.40659108833E+02  0.00000000000E+00 0.  1.
         11    1    3    3    0    0  0.15722556347E+02 -0.76906242352E+00  0.99467004700E+01  0.18620609163E+02  0.51100000000E-03 0. -1.
        -11    1    3    3    0    0 -0.54509066397E+01 -0.72623225246E+01  0.61763497730E+01  0.10981849044E+02  0.51100000000E-03 0.  1.
        -12    1    3    3    0    0  0.15941644054E+02 -0.98928020378E+01  0.92688752892E+01  0.20926432960E+02  0.00000000000E+00 0.  1.
</event>
<event>
 7    1  0.5155466E-011  0.5052886E+02  0.7816164E-02  0.1300439E+00
        -11   -1    0    0    0    0  0.00000000000E+00  0.00000000000E+00  0.45593999997E+02  0.45594000000E+02  0.51100000000E-03 0.  1.
         11   -1    0    0    0    0 -0.00000000000E+00 -0.00000000000E+00 -0.45593999997E+02  0.45594000000E+02  0.51100000000E-03 0. -1.
    9900012    2    1    2    0    0 -0.30171161697E+02 -0.20117935926E+02 -0.18388466865E+02  0.50528855177E+02  0.29999985797E+02 0.  0.
        -12    1    1    2    0    0  0.30171161697E+02  0.20117935926E+02  0.18388466865E+02  0.40659144823E+02  0.00000000000E+00 0.  1.
         11    1    3    3    0    0 -0.26953373855E+02 -0.66837967229E+01 -0.14826529568E+02  0.31479890090E+02  0.51100000000E-03 0. -1.
        -11    1    3    3    0    0  0.25405393868E-02 -0.14961777391E+02 -0.17898617257E+01  0.15068456935E+02  0.51100000000E-03 0.  1.
         12    1    3    3    0    0 -0.32203283821E+01  0.15276381879E+01 -0.17720755712E+01  0.39805081524E+01  0.00000000000E+00 0. -1.
</event>
<event>
 7    1  0.5155466E-011  0.5052886E+02  0.7816164E-02  0.1300439E+00
        -11   -1    0    0    0    0  0.00000000000E+00  0.00000000000E+00  0.45593999997E+02  0.45594000000E+02  0.51100000000E-03 0.  1.
         11   -1    0    0    0    0 -0.00000000000E+00 -0.00000000000E+00 -0.45593999997E+02  0.45594000000E+02  0.51100000000E-03 0. -1.
    9900012    2    1    2    0    0  0.28458193507E+02 -0.20999591200E+01 -0.28963550911E+02  0.50528857272E+02  0.29999992163E+02 0.  0.
        -12    1    1    2    0    0 -0.28458193507E+02  0.20999591200E+01  0.28963550911E+02  0.40659142728E+02  0.00000000000E+00 0.  1.
         11    1    3    3    0    0  0.20547795004E+02 -0.49081246221E+01 -0.11170366062E+02  0.23897251830E+02  0.51100000000E-03 0. -1.
        -11    1    3    3    0    0 -0.12013536176E+01 -0.58829164480E+01 -0.10457458153E+02  0.12058622962E+02  0.51100000000E-03 0.  1.
        -12    1    3    3    0    0  0.91117521210E+01  0.86910819501E+01 -0.73357266969E+01  0.14572982480E+02  0.00000000000E+00 0.  1.
</event>
<event>
 7    1  0.5155466E-011  0.5052885E+02  0.7816164E-02  0.1300439E+00
        -11   -1    0    0    0    0  0.00000000000E+00  0.00000000000E+00  0.45593999997E+02  0.45594000000E+02  0.51100000000E-03 0. -1.
         11   -1    0    0    0    0 -0.00000000000E+00 -0.00000000000E+00 -0.45593999997E+02  0.45594000000E+02  0.51100000000E-03 0.  1.
    9900012    2    1    2    0    0  0.21831318255E+02 -0.33732507161E+02  0.62191356326E+01  0.50528854114E+02  0.29999982566E+02 0.  0.
        -12    1    1    2    0    0 -0.21831318255E+02  0.33732507161E+02 -0.62191356326E+01  0.40659145886E+02  0.00000000000E+00 0.  1.
         11    1    3    3    0    0  0.11863605699E+02 -0.12980578833E+02 -0.92415355797E+01  0.19865712853E+02  0.51100000000E-03 0. -1.
        -11    1    3    3    0    0  0.13204490960E+02 -0.16570973129E+02  0.12586798458E+02  0.24645146128E+02  0.51100000000E-03 0.  1.
        -12    1    3    3    0    0 -0.32367784048E+01 -0.41809551996E+01  0.28738727544E+01  0.60179951338E+01  0.00000000000E+00 0.  1.
</event>
<event>
 7    1  0.5155466E-011  0.5052885E+02  0.7816164E-02  0.1300439E+00
        -11   -1    0    0    0    0  0.00000000000E+00  0.00000000000E+00  0.45593999997E+02  0.45594000000E+02  0.51100000000E-03 0.  1.
         11   -1    0    0    0    0 -0.00000000000E+00 -0.00000000000E+00 -0.45593999997E+02  0.45594000000E+02  0.51100000000E-03 0. -1.
    9900012    2    1    2    0    0  0.16944434452E+02 -0.18842364446E+02 -0.31796501847E+02  0.50528854823E+02  0.29999984721E+02 0.  0.
        -12    1    1    2    0    0 -0.16944434452E+02  0.18842364446E+02  0.31796501847E+02  0.40659145177E+02  0.00000000000E+00 0.  1.
         11    1    3    3    0    0  0.18929180757E+02 -0.19967120189E+02 -0.35683731050E+02  0.45059165934E+02  0.51100000000E-03 0. -1.
        -11    1    3    3    0    0 -0.89637928448E+00  0.13431886194E+01  0.20983089226E+00  0.16283982171E+01  0.51100000000E-03 0.  1.
         12    1    3    3    0    0 -0.10883670196E+01 -0.21843287626E+00  0.36773983110E+01  0.38412906722E+01  0.00000000000E+00 0. -1.
</event>
<event>
 7    1  0.5155466E-011  0.5052886E+02  0.7816164E-02  0.1300439E+00
        -11   -1    0    0    0    0  0.00000000000E+00  0.00000000000E+00  0.45593999997E+02  0.45594000000E+02  0.51100000000E-03 0.  1.
         11   -1    0    0    0    0 -0.00000000000E+00 -0.00000000000E+00 -0.45593999997E+02  0.45594000000E+02  0.51100000000E-03 0. -1.
    9900012    2    1    2    0    0  0.17823608661E+02 -0.35112834286E+02 -0.10127855597E+02  0.50528860606E+02  0.30000002298E+02 0.  0.
        -12    1    1    2    0    0 -0.17823608661E+02  0.35112834286E+02  0.10127855597E+02  0.40659139394E+02  0.00000000000E+00 0.  1.
         11    1    3    3    0    0  0.10411671252E+02 -0.36741414662E+02 -0.42474956350E+01  0.38423634251E+02  0.51100000000E-03 0. -1.
        -11    1    3    3    0    0  0.73517821774E+01  0.33207610525E+01 -0.27081963804E+01  0.85094349429E+01  0.51100000000E-03 0.  1.
         12    1    3    3    0    0  0.60155231609E-01 -0.16921806768E+01 -0.31721635813E+01  0.35957914124E+01  0.00000000000E+00 0. -1.
</event>
<event>
 7    1  0.5155466E-011  0.5052886E+02  0.7816164E-02  0.1300439E+00
        -11   -1    0    0    0    0  0.00000000000E+00  0.00000000000E+00  0.45593999997E+02  0.45594000000E+02  0.51100000000E-03 0. -1.
         11   -1    0    0    0    0 -0.00000000000E+00 -0.00000000000E+00 -0.45593999997E+02  0.45594000000E+02  0.51100000000E-03 0.  1.
    9900012    2    1    2    0    0 -0.14968408802E+02  0.27425070834E+02 -0.26018791238E+02  0.50528864866E+02  0.30000015247E+02 0.  0.
        -12    1    1    2    0    0  0.14968408802E+02 -0.27425070834E+02  0.26018791238E+02  0.40659135134E+02  0.00000000000E+00 0.  1.
         11    1    3    3    0    0 -0.19441626364E+02  0.17417014624E+02 -0.10879671676E+02  0.28278905391E+02  0.51100000000E-03 0. -1.
        -11    1    3    3    0    0  0.81896488704E+01  0.38665123498E+01 -0.74112668931E+01  0.11702441779E+02  0.51100000000E-03 0.  1.
         12    1    3    3    0    0 -0.37164313085E+01  0.61415438606E+01 -0.77278526694E+01  0.10547517696E+02  0.00000000000E+00 0. -1.
</event>
<event>
 7    1  0.5155466E-011  0.5052886E+02  0.7816164E-02  0.1300439E+00
        -11   -1    0    0    0    0  0.00000000000E+00  0.00000000000E+00  0.45593999997E+02  0.45594000000E+02  0.51100000000E-03 0.  1.
         11   -1    0    0    0    0 -0.00000000000E+00 -0.00000000000E+00 -0.45593999997E+02  0.45594000000E+02  0.51100000000E-03 0. -1.
    9900012    2    1    2    0    0  0.29921936382E+02  0.80401439247E+01 -0.26328687635E+02  0.50528856087E+02  0.29999988562E+02 0.  0.
        -12    1    1    2    0    0 -0.29921936382E+02 -0.80401439247E+01  0.26328687635E+02  0.40659143913E+02  0.00000000000E+00 0.  1.
         11    1    3    3    0    0  0.17794452652E+02 -0.68961532317E+01 -0.13287247347E+02  0.23254040872E+02  0.51100000000E-03 0. -1.
        -11    1    3    3    0    0  0.12521871372E+02  0.14605855284E+02 -0.15535570540E+02  0.24728166602E+02  0.51100000000E-03 0.  1.
        -12    1    3    3    0    0 -0.39438764216E+00  0.33044187273E+00  0.24941302519E+01  0.25466486128E+01  0.00000000000E+00 0.  1.
</event>
<event>
 7    1  0.5155466E-011  0.5052887E+02  0.7816164E-02  0.1300439E+00
        -11   -1    0    0    0    0  0.00000000000E+00  0.00000000000E+00  0.45593999997E+02  0.45594000000E+02  0.51100000000E-03 0.  1.
         11   -1    0    0    0    0 -0.00000000000E+00 -0.00000000000E+00 -0.45593999997E+02  0.45594000000E+02  0.51100000000E-03 0. -1.
    9900012    2    1    2    0    0 -0.81933773664E+01 -0.36340574215E+02 -0.16290990739E+02  0.50528866386E+02  0.30000019868E+02 0.  0.
        -12    1    1    2    0    0  0.81933773664E+01  0.36340574215E+02  0.16290990739E+02  0.40659133614E+02  0.00000000000E+00 0.  1.
         11    1    3    3    0    0 -0.94025249336E+00  0.25646555085E+01  0.22748828659E+01  0.35548030808E+01  0.51100000000E-03 0.  1.
        -11    1    3    3    0    0 -0.45295840971E+01 -0.28090003304E+02 -0.41597886349E+01  0.28755334452E+02  0.51100000000E-03 0. -1.
         12    1    3    3    0    0 -0.27235407759E+01 -0.10815226420E+02 -0.14406084970E+02  0.18218728853E+02  0.00000000000E+00 0. -1.
</event>
<event>
 7    1  0.5155466E-011  0.5052886E+02  0.7816164E-02  0.1300439E+00
        -11   -1    0    0    0    0  0.00000000000E+00  0.00000000000E+00  0.45593999997E+02  0.45594000000E+02  0.51100000000E-03 0.  1.
         11   -1    0    0    0    0 -0.00000000000E+00 -0.00000000000E+00 -0.45593999997E+02  0.45594000000E+02  0.51100000000E-03 0. -1.
    9900012    2    1    2    0    0  0.25703281703E+02 -0.71555297968E+01 -0.30680696815E+02  0.50528862601E+02  0.30000008362E+02 0.  0.
        -12    1    1    2    0    0 -0.25703281703E+02  0.71555297968E+01  0.30680696815E+02  0.40659137399E+02  0.00000000000E+00 0.  1.
         11    1    3    3    0    0  0.53443472332E+01  0.40894110784E+01 -0.81426524396E+01  0.10563527788E+02  0.51100000000E-03 0.  1.
        -11    1    3    3    0    0  0.13559406988E+02 -0.16796644067E+02 -0.22509021662E+02  0.31187190099E+02  0.51100000000E-03 0. -1.
        -12    1    3    3    0    0  0.67995274814E+01  0.55517031920E+01 -0.29022713245E-01  0.87781447140E+01  0.00000000000E+00 0.  1.
</event>
<event>
 7    1  0.5155466E-011  0.5052886E+02  0.7816164E-02  0.1300439E+00
        -11   -1    0    0    0    0  0.00000000000E+00  0.00000000000E+00  0.45593999997E+02  0.45594000000E+02  0.51100000000E-03 0. -1.
         11   -1    0    0    0    0 -0.00000000000E+00 -0.00000000000E+00 -0.45593999997E+02  0.45594000000E+02  0.51100000000E-03 0.  1.
    9900012    2    1    2    0    0 -0.27499030479E+02  0.28725544347E+02  0.84742016204E+01  0.50528859964E+02  0.30000000348E+02 0.  0.
        -12    1    1    2    0    0  0.27499030479E+02 -0.28725544347E+02 -0.84742016204E+01  0.40659140036E+02  0.00000000000E+00 0.  1.
         11    1    3    3    0    0 -0.53065738649E+01  0.21182972206E+01  0.87535265209E+01  0.10453283509E+02  0.51100000000E-03 0. -1.
        -11    1    3    3    0    0 -0.13767022144E+02  0.57044854776E+01 -0.71306494563E+01  0.16520236536E+02  0.51100000000E-03 0.  1.
         12    1    3    3    0    0 -0.84254344706E+01  0.20902761649E+02  0.68513245558E+01  0.23555339920E+02  0.00000000000E+00 0. -1.
</event>
<event>
 7    1  0.5155466E-011  0.5052886E+02  0.7816164E-02  0.1300439E+00
        -11   -1    0    0    0    0  0.00000000000E+00  0.00000000000E+00  0.45593999997E+02  0.45594000000E+02  0.51100000000E-03 0.  1.
         11   -1    0    0    0    0 -0.00000000000E+00 -0.00000000000E+00 -0.45593999997E+02  0.45594000000E+02  0.51100000000E-03 0. -1.
    9900012    2    1    2    0    0 -0.39863723241E+02  0.79394062665E+01  0.10074616772E+01  0.50528861033E+02  0.30000003596E+02 0.  0.
        -12    1    1    2    0    0  0.39863723241E+02 -0.79394062665E+01 -0.10074616772E+01  0.40659138967E+02  0.00000000000E+00 0.  1.
         11    1    3    3    0    0  0.27318445163E+00  0.52843377375E+01 -0.30900331739E+01  0.61275737732E+01  0.51100000000E-03 0. -1.
        -11    1    3    3    0    0 -0.11624873159E+02  0.34967973582E+01  0.94437086143E+01  0.15380146306E+02  0.51100000000E-03 0.  1.
        -12    1    3    3    0    0 -0.28512034534E+02 -0.84172882920E+00 -0.53462137631E+01  0.29021140954E+02  0.00000000000E+00 0.  1.
</event>
<event>
 7    1  0.5155466E-011  0.5052887E+02  0.7816164E-02  0.1300439E+00
        -11   -1    0    0    0    0  0.00000000000E+00  0.00000000000E+00  0.45593999997E+02  0.45594000000E+02  0.51100000000E-03 0. -1.
         11   -1    0    0    0    0 -0.00000000000E+00 -0.00000000000E+00 -0.45593999997E+02  0.45594000000E+02  0.51100000000E-03 0.  1.
    9900012    2    1    2    0    0  0.27579970809E+02 -0.25301278853E+02  0.15885689468E+02  0.50528872718E+02  0.30000039115E+02 0.  0.
        -12    1    1    2    0    0 -0.27579970809E+02  0.25301278853E+02 -0.15885689468E+02  0.40659127282E+02  0.00000000000E+00 0.  1.
         11    1    3    3    0    0  0.16810901534E+02 -0.21350314188E+02  0.36053836263E+01  0.27412426336E+02  0.51100000000E-03 0. -1.
        -11    1    3    3    0    0  0.10539548453E+01  0.43804438518E+01 -0.10613026583E+01  0.46287657911E+01  0.51100000000E-03 0.  1.
         12    1    3    3    0    0  0.97151144299E+01 -0.83314085173E+01  0.13341608500E+02  0.18487680591E+02  0.00000000000E+00 0. -1.
</event>
<event>
 7    1  0.5155466E-011  0.5052877E+02  0.7816164E-02  0.1300439E+00
        -11   -1    0    0    0    0  0.00000000000E+00  0.00000000000E+00  0.45593999997E+02  0.45594000000E+02  0.51100000000E-03 0.  1.
         11   -1    0    0    0    0 -0.00000000000E+00 -0.00000000000E+00 -0.45593999997E+02  0.45594000000E+02  0.51100000000E-03 0. -1.
    9900012    2    1    2    0    0  0.17559710413E+02 -0.30493236506E+02 -0.20371349691E+02  0.50528772380E+02  0.29999734126E+02 0.  0.
        -12    1    1    2    0    0 -0.17559710413E+02  0.30493236506E+02  0.20371349691E+02  0.40659227620E+02  0.00000000000E+00 0.  1.
         11    1    3    3    0    0  0.21842900750E+02 -0.30096884831E+02 -0.22216122129E+02  0.43318481881E+02  0.51100000000E-03 0. -1.
        -11    1    3    3    0    0 -0.36415624716E+01 -0.13319768247E+01  0.34866514742E+01  0.52145832297E+01  0.51100000000E-03 0.  1.
         12    1    3    3    0    0 -0.64162786560E+00  0.93562514954E+00 -0.16418790361E+01  0.19957072700E+01  0.00000000000E+00 0. -1.
</event>
<event>
 7    1  0.5155466E-011  0.5052886E+02  0.7816164E-02  0.1300439E+00
        -11   -1    0    0    0    0  0.00000000000E+00  0.00000000000E+00  0.45593999997E+02  0.45594000000E+02  0.51100000000E-03 0.  1.
         11   -1    0    0    0    0 -0.00000000000E+00 -0.00000000000E+00 -0.45593999997E+02  0.45594000000E+02  0.51100000000E-03 0. -1.
    9900012    2    1    2    0    0 -0.91060045180E+01 -0.11925921620E+02 -0.37789131195E+02  0.50528863742E+02  0.30000011831E+02 0.  0.
        -12    1    1    2    0    0  0.91060045180E+01  0.11925921620E+02  0.37789131195E+02  0.40659136258E+02  0.00000000000E+00 0.  1.
         11    1    3    3    0    0 -0.98950207806E+01 -0.12559804090E+02 -0.34097680053E+02  0.37660481945E+02  0.51100000000E-03 0. -1.
        -11    1    3    3    0    0 -0.22869250162E+01  0.58000553367E+01 -0.11453947284E+01  0.63389744662E+01  0.51100000000E-03 0.  1.
         12    1    3    3    0    0  0.30759412788E+01 -0.51661728671E+01 -0.25460564127E+01  0.65294073314E+01  0.00000000000E+00 0. -1.
</event>
<event>
 7    1  0.5155466E-011  0.5052887E+02  0.7816164E-02  0.1300439E+00
        -11   -1    0    0    0    0  0.00000000000E+00  0.00000000000E+00  0.45593999997E+02  0.45594000000E+02  0.51100000000E-03 0. -1.
         11   -1    0    0    0    0 -0.00000000000E+00 -0.00000000000E+00 -0.45593999997E+02  0.45594000000E+02  0.51100000000E-03 0.  1.
    9900012    2    1    2    0    0 -0.11084985610E+02 -0.37074943263E+02  0.12479453675E+02  0.50528867103E+02  0.30000022046E+02 0.  0.
        -12    1    1    2    0    0  0.11084985610E+02  0.37074943263E+02 -0.12479453675E+02  0.40659132897E+02  0.00000000000E+00 0.  1.
         11    1    3    3    0    0 -0.12262486811E+02 -0.16004176326E+02  0.98304241086E+01  0.22430770854E+02  0.51100000000E-03 0. -1.
        -11    1    3    3    0    0  0.28014448923E+01  0.28490166028E+01  0.50946157347E+00  0.40279697670E+01  0.51100000000E-03 0.  1.
         12    1    3    3    0    0 -0.16239436919E+01 -0.23919783539E+02  0.21395679933E+01  0.24070126482E+02  0.00000000000E+00 0. -1.
</event>
<event>
 7    1  0.5155466E-011  0.5052889E+02  0.7816164E-02  0.1300439E+00
        -11   -1    0    0    0    0  0.00000000000E+00  0.00000000000E+00  0.45593999997E+02  0.45594000000E+02  0.51100000000E-03 0.  1.
         11   -1    0    0    0    0 -0.00000000000E+00 -0.00000000000E+00 -0.45593999997E+02  0.45594000000E+02  0.51100000000E-03 0. -1.
    9900012    2    1    2    0    0 -0.24499850585E+01  0.39625063753E+02 -0.87758391776E+01  0.50528887153E+02  0.30000082991E+02 0.  0.
        -12    1    1    2    0    0  0.24499850585E+01 -0.39625063753E+02  0.87758391776E+01  0.40659112847E+02  0.00000000000E+00 0.  1.
         11    1    3    3    0    0  0.62832313931E+01  0.11350857295E+02 -0.11373145514E+02  0.17253098192E+02  0.51100000000E-03 0. -1.
        -11    1    3    3    0    0 -0.42741233621E+01  0.62026141873E+01  0.70558350466E+01  0.10321112427E+02  0.51100000000E-03 0.  1.
         12    1    3    3    0    0 -0.44590930895E+01  0.22071592271E+02 -0.44585287100E+01  0.22954676535E+02  0.00000000000E+00 0. -1.
</event>
<event>
 7    1  0.5155466E-011  0.5052886E+02  0.7816164E-02  0.1300439E+00
        -11   -1    0    0    0    0  0.00000000000E+00  0.00000000000E+00  0.45593999997E+02  0.45594000000E+02  0.51100000000E-03 0.  1.
         11   -1    0    0    0    0 -0.00000000000E+00 -0.00000000000E+00 -0.45593999997E+02  0.45594000000E+02  0.51100000000E-03 0. -1.
    9900012    2    1    2    0    0 -0.26632697801E+02 -0.26505332056E+02 -0.15534878789E+02  0.50528859840E+02  0.29999999969E+02 0.  0.
        -12    1    1    2    0    0  0.26632697801E+02  0.26505332056E+02  0.15534878789E+02  0.40659140160E+02  0.00000000000E+00 0.  1.
         11    1    3    3    0    0 -0.10828752446E+02 -0.20940232051E+02 -0.40819627272E+01  0.23925250633E+02  0.51100000000E-03 0. -1.
        -11    1    3    3    0    0 -0.18995664118E+02 -0.18067772839E+01 -0.91130001187E+01  0.21145838145E+02  0.51100000000E-03 0.  1.
        -12    1    3    3    0    0  0.31917187628E+01 -0.37583227209E+01 -0.23399159434E+01  0.54577710613E+01  0.00000000000E+00 0.  1.
</event>
<event>
 7    1  0.5155466E-011  0.5052889E+02  0.7816164E-02  0.1300439E+00
        -11   -1    0    0    0    0  0.00000000000E+00  0.00000000000E+00  0.45593999997E+02  0.45594000000E+02  0.51100000000E-03 0.  1.
         11   -1    0    0    0    0 -0.00000000000E+00 -0.00000000000E+00 -0.45593999997E+02  0.45594000000E+02  0.51100000000E-03 0. -1.
    9900012    2    1    2    0    0 -0.14918896986E+01 -0.29716503681E+02  0.27710416721E+02  0.50528886375E+02  0.30000080625E+02 0.  0.
        -12    1    1    2    0    0  0.14918896986E+01  0.29716503681E+02 -0.27710416721E+02  0.40659113625E+02  0.00000000000E+00 0.  1.
         11    1    3    3    0    0  0.40402647583E+01 -0.42701033854E+01 -0.42233936415E+01  0.72384097944E+01  0.51100000000E-03 0. -1.
        -11    1    3    3    0    0  0.50868541325E-01 -0.38309881546E+01  0.14406721062E+02  0.14907470271E+02  0.51100000000E-03 0.  1.
         12    1    3    3    0    0 -0.55830229983E+01 -0.21615412141E+02  0.17527089300E+02  0.28383006310E+02  0.00000000000E+00 0. -1.
</event>
<event>
 7    1  0.7700168E-011  0.5052889E+02  0.7816164E-02  0.1300439E+00
        -11   -1    0    0    0    0  0.00000000000E+00  0.00000000000E+00  0.45593999997E+02  0.45594000000E+02  0.51100000000E-03 0. -1.
         11   -1    0    0    0    0 -0.00000000000E+00 -0.00000000000E+00 -0.45593999997E+02  0.45594000000E+02  0.51100000000E-03 0.  1.
    9900012    2    1    2    0    0 -0.21793526106E+02 -0.39528279864E+01  0.34096632348E+02  0.50528893188E+02  0.30000101335E+02 0.  0.
        -12    1    1    2    0    0  0.21793526106E+02  0.39528279864E+01 -0.34096632348E+02  0.40659106812E+02  0.00000000000E+00 0.  1.
         11    1    3    3    0    0 -0.18147997002E+02 -0.73254277243E+01  0.22990467735E+02  0.30192272082E+02  0.51100000000E-03 0. -1.
        -11    1    3    3    0    0  0.32910645885E+01  0.16348451775E+01  0.12519212217E+02  0.13047394364E+02  0.51100000000E-03 0.  1.
        -12    1    3    3    0    0 -0.69365936933E+01  0.17377545604E+01 -0.14130476043E+01  0.72892267430E+01  0.00000000000E+00 0.  1.
</event>
<event>
 7    1  0.5155466E-011  0.5052885E+02  0.7816164E-02  0.1300439E+00
        -11   -1    0    0    0    0  0.00000000000E+00  0.00000000000E+00  0.45593999997E+02  0.45594000000E+02  0.51100000000E-03 0.  1.
         11   -1    0    0    0    0 -0.00000000000E+00 -0.00000000000E+00 -0.45593999997E+02  0.45594000000E+02  0.51100000000E-03 0. -1.
    9900012    2    1    2    0    0  0.11074499188E+02 -0.26582284316E+00 -0.39120981351E+02  0.50528851264E+02  0.29999973902E+02 0.  0.
        -12    1    1    2    0    0 -0.11074499188E+02  0.26582284316E+00  0.39120981351E+02  0.40659148736E+02  0.00000000000E+00 0.  1.
         11    1    3    3    0    0  0.93773463327E+01  0.74220752622E+01 -0.16010954084E+02  0.19984305752E+02  0.51100000000E-03 0. -1.
        -11    1    3    3    0    0 -0.39148245476E+01 -0.24912057849E+01 -0.22385958464E+02  0.22861826132E+02  0.51100000000E-03 0.  1.
         12    1    3    3    0    0  0.56119774025E+01 -0.51966923205E+01 -0.72406880405E+00  0.76827193801E+01  0.00000000000E+00 0. -1.
</event>
<event>
 7    1  0.5155466E-011  0.5052884E+02  0.7816164E-02  0.1300439E+00
        -11   -1    0    0    0    0  0.00000000000E+00  0.00000000000E+00  0.45593999997E+02  0.45594000000E+02  0.51100000000E-03 0.  1.
         11   -1    0    0    0    0 -0.00000000000E+00 -0.00000000000E+00 -0.45593999997E+02  0.45594000000E+02  0.51100000000E-03 0. -1.
    9900012    2    1    2    0    0  0.36713219917E+02 -0.15162423304E+02 -0.86837681184E+01  0.50528838352E+02  0.29999934656E+02 0.  0.
        -12    1    1    2    0    0 -0.36713219917E+02  0.15162423304E+02  0.86837681184E+01  0.40659161648E+02  0.00000000000E+00 0.  1.
         11    1    3    3    0    0  0.97118518228E+00  0.56047440544E+01 -0.37641847498E+01  0.68209562134E+01  0.51100000000E-03 0. -1.
        -11    1    3    3    0    0  0.11526783432E+02 -0.11320792972E+02  0.32131054078E+01  0.16472739190E+02  0.51100000000E-03 0.  1.
         12    1    3    3    0    0  0.24215251303E+02 -0.94463743861E+01 -0.81326887764E+01  0.27235142949E+02  0.00000000000E+00 0. -1.
</event>
<event>
 7    1  0.5155466E-011  0.5052887E+02  0.7816164E-02  0.1300439E+00
        -11   -1    0    0    0    0  0.00000000000E+00  0.00000000000E+00  0.45593999997E+02  0.45594000000E+02  0.51100000000E-03 0.  1.
         11   -1    0    0    0    0 -0.00000000000E+00 -0.00000000000E+00 -0.45593999997E+02  0.45594000000E+02  0.51100000000E-03 0. -1.
    9900012    2    1    2    0    0  0.18902468711E+02  0.41610197623E+01 -0.35756785594E+02  0.50528866649E+02  0.30000020667E+02 0.  0.
        -12    1    1    2    0    0 -0.18902468711E+02 -0.41610197623E+01  0.35756785594E+02  0.40659133351E+02  0.00000000000E+00 0.  1.
         11    1    3    3    0    0  0.10347989712E+00 -0.46341329188E+01 -0.16836599644E+02  0.17463017604E+02  0.51100000000E-03 0.  1.
        -11    1    3    3    0    0  0.48116019083E+01  0.82850021492E+00  0.31044730325E+01  0.57858170210E+01  0.51100000000E-03 0. -1.
        -12    1    3    3    0    0  0.13987386906E+02  0.79666524662E+01 -0.22024658982E+02  0.27280032024E+02  0.00000000000E+00 0.  1.
</event>
<event>
 7    1  0.5155466E-011  0.5052886E+02  0.7816164E-02  0.1300439E+00
        -11   -1    0    0    0    0  0.00000000000E+00  0.00000000000E+00  0.45593999997E+02  0.45594000000E+02  0.51100000000E-03 0.  1.
         11   -1    0    0    0    0 -0.00000000000E+00 -0.00000000000E+00 -0.45593999997E+02  0.45594000000E+02  0.51100000000E-03 0. -1.
    9900012    2    1    2    0    0 -0.36784283297E+02 -0.10851989711E+02 -0.13502460964E+02  0.50528860432E+02  0.30000001768E+02 0.  0.
        -12    1    1    2    0    0  0.36784283297E+02  0.10851989711E+02  0.13502460964E+02  0.40659139568E+02  0.00000000000E+00 0.  1.
         11    1    3    3    0    0 -0.23738663442E+02 -0.53852925727E+01 -0.13180988141E+02  0.27681473349E+02  0.51100000000E-03 0. -1.
        -11    1    3    3    0    0 -0.31418658382E+01 -0.10976049375E+02  0.88067066333E+00  0.11450788702E+02  0.51100000000E-03 0.  1.
        -12    1    3    3    0    0 -0.99037540165E+01  0.55093522365E+01 -0.12021434861E+01  0.11396598381E+02  0.00000000000E+00 0.  1.
</event>
<event>
 7    1  0.5155466E-011  0.5052889E+02  0.7816164E-02  0.1300439E+00
        -11   -1    0    0    0    0  0.00000000000E+00  0.00000000000E+00  0.45593999997E+02  0.45594000000E+02  0.51100000000E-03 0. -1.
         11   -1    0    0    0    0 -0.00000000000E+00 -0.00000000000E+00 -0.45593999997E+02  0.45594000000E+02  0.51100000000E-03 0.  1.
    9900012    2    1    2    0    0  0.40102031254E+02  0.46617918811E+01  0.48226512394E+01  0.50528890576E+02  0.30000093394E+02 0.  0.
        -12    1    1    2    0    0 -0.40102031254E+02 -0.46617918811E+01 -0.48226512394E+01  0.40659109424E+02  0.00000000000E+00 0.  1.
         11    1    3    3    0    0  0.42833063313E+01  0.37671597325E+01  0.81801892576E+01  0.99726476990E+01  0.51100000000E-03 0. -1.
        -11    1    3    3    0    0  0.37754104078E+02  0.61524627710E+00 -0.48865273479E+01  0.38073994438E+02  0.51100000000E-03 0.  1.
        -12    1    3    3    0    0 -0.19353791554E+01  0.27938587146E+00  0.15289893297E+01  0.24822484385E+01  0.00000000000E+00 0.  1.
</event>
<event>
 7    1  0.5155466E-011  0.5052886E+02  0.7816164E-02  0.1300439E+00
        -11   -1    0    0    0    0  0.00000000000E+00  0.00000000000E+00  0.45593999997E+02  0.45594000000E+02  0.51100000000E-03 0.  1.
         11   -1    0    0    0    0 -0.00000000000E+00 -0.00000000000E+00 -0.45593999997E+02  0.45594000000E+02  0.51100000000E-03 0. -1.
    9900012    2    1    2    0    0  0.14688744729E+02 -0.97468648728E+01 -0.36638846857E+02  0.50528859631E+02  0.29999999333E+02 0.  0.
        -12    1    1    2    0    0 -0.14688744729E+02  0.97468648728E+01  0.36638846857E+02  0.40659140369E+02  0.00000000000E+00 0.  1.
         11    1    3    3    0    0  0.10176149415E+02 -0.14812908602E+02 -0.13813524867E+02  0.22666930707E+02  0.51100000000E-03 0. -1.
        -11    1    3    3    0    0  0.84881726452E+00  0.65163287932E+01 -0.23007041557E+01  0.69624903276E+01  0.51100000000E-03 0.  1.
        -12    1    3    3    0    0  0.36637780494E+01 -0.14502850636E+01 -0.20524617835E+02  0.20899438596E+02  0.00000000000E+00 0.  1.
</event>
<event>
 7    1  0.5155466E-011  0.5052888E+02  0.7816164E-02  0.1300439E+00
        -11   -1    0    0    0    0  0.00000000000E+00  0.00000000000E+00  0.45593999997E+02  0.45594000000E+02  0.51100000000E-03 0.  1.
         11   -1    0    0    0    0 -0.00000000000E+00 -0.00000000000E+00 -0.45593999997E+02  0.45594000000E+02  0.51100000000E-03 0. -1.
    9900012    2    1    2    0    0  0.23824619170E+02  0.32716212008E+02 -0.38988335932E+01  0.50528881587E+02  0.30000066070E+02 0.  0.
        -12    1    1    2    0    0 -0.23824619170E+02 -0.32716212008E+02  0.38988335932E+01  0.40659118413E+02  0.00000000000E+00 0.  1.
         11    1    3    3    0    0 -0.30725326264E+01  0.16403051464E+02 -0.49030224464E+01  0.17393682285E+02  0.51100000000E-03 0. -1.
        -11    1    3    3    0    0  0.15902723420E+02  0.13630778264E+02  0.42291522374E+01  0.21367743380E+02  0.51100000000E-03 0.  1.
         12    1    3    3    0    0  0.10994428377E+02  0.26823822802E+01 -0.32249633842E+01  0.11767455921E+02  0.00000000000E+00 0. -1.
</event>
<event>
 7    1  0.5155466E-011  0.5052887E+02  0.7816164E-02  0.1300439E+00
        -11   -1    0    0    0    0  0.00000000000E+00  0.00000000000E+00  0.45593999997E+02  0.45594000000E+02  0.51100000000E-03 0.  1.
         11   -1    0    0    0    0 -0.00000000000E+00 -0.00000000000E+00 -0.45593999997E+02  0.45594000000E+02  0.51100000000E-03 0. -1.
    9900012    2    1    2    0    0 -0.10364809133E+02  0.27059044333E+02 -0.28522687657E+02  0.50528869909E+02  0.30000030575E+02 0.  0.
        -12    1    1    2    0    0  0.10364809133E+02 -0.27059044333E+02  0.28522687657E+02  0.40659130091E+02  0.00000000000E+00 0.  1.
         11    1    3    3    0    0 -0.11338805607E+02  0.22656586543E+02 -0.24368594589E+02  0.35152778395E+02  0.51100000000E-03 0. -1.
        -11    1    3    3    0    0  0.69241707906E+01  0.87266712655E+00  0.56456139563E+00  0.70017439886E+01  0.51100000000E-03 0.  1.
        -12    1    3    3    0    0 -0.59501743164E+01  0.35297906629E+01 -0.47186544642E+01  0.83743475251E+01  0.00000000000E+00 0.  1.
</event>
<event>
 7    1  0.5155466E-011  0.5052886E+02  0.7816164E-02  0.1300439E+00
        -11   -1    0    0    0    0  0.00000000000E+00  0.00000000000E+00  0.45593999997E+02  0.45594000000E+02  0.51100000000E-03 0. -1.
         11   -1    0    0    0    0 -0.00000000000E+00 -0.00000000000E+00 -0.45593999997E+02  0.45594000000E+02  0.51100000000E-03 0.  1.
    9900012    2    1    2    0    0 -0.24521219003E+02  0.13379256020E+02  0.29544391819E+02  0.50528858826E+02  0.29999996888E+02 0.  0.
        -12    1    1    2    0    0  0.24521219003E+02 -0.13379256020E+02 -0.29544391819E+02  0.40659141174E+02  0.00000000000E+00 0.  1.
         11    1    3    3    0    0 -0.10746321833E+02  0.10719920668E+02  0.62789472144E+01  0.16426360231E+02  0.51100000000E-03 0. -1.
        -11    1    3    3    0    0  0.33750153801E+01 -0.38967184150E+01  0.10631255947E+02  0.11815191344E+02  0.51100000000E-03 0.  1.
        -12    1    3    3    0    0 -0.17149912549E+02  0.65560537672E+01  0.12634188658E+02  0.22287307251E+02  0.00000000000E+00 0.  1.
</event>
<event>
 7    1  0.5155466E-011  0.5052885E+02  0.7816164E-02  0.1300439E+00
        -11   -1    0    0    0    0  0.00000000000E+00  0.00000000000E+00  0.45593999997E+02  0.45594000000E+02  0.51100000000E-03 0. -1.
         11   -1    0    0    0    0 -0.00000000000E+00 -0.00000000000E+00 -0.45593999997E+02  0.45594000000E+02  0.51100000000E-03 0.  1.
    9900012    2    1    2    0    0 -0.40142732094E+02  0.46560973490E+01  0.44775436100E+01  0.50528848763E+02  0.29999966301E+02 0.  0.
        -12    1    1    2    0    0  0.40142732094E+02 -0.46560973490E+01 -0.44775436100E+01  0.40659151237E+02  0.00000000000E+00 0.  1.
         11    1    3    3    0    0 -0.27261511832E+02 -0.51734508479E+01  0.10280038679E+02  0.29591110431E+02  0.51100000000E-03 0. -1.
        -11    1    3    3    0    0  0.15513634808E+01 -0.31166063718E+00 -0.25500881882E+01  0.30011349571E+01  0.51100000000E-03 0.  1.
         12    1    3    3    0    0 -0.14432583743E+02  0.10141208834E+02 -0.32524068809E+01  0.17936603375E+02  0.00000000000E+00 0. -1.
</event>
<event>
 7    1  0.5155466E-011  0.5052888E+02  0.7816164E-02  0.1300439E+00
        -11   -1    0    0    0    0  0.00000000000E+00  0.00000000000E+00  0.45593999997E+02  0.45594000000E+02  0.51100000000E-03 0.  1.
         11   -1    0    0    0    0 -0.00000000000E+00 -0.00000000000E+00 -0.45593999997E+02  0.45594000000E+02  0.51100000000E-03 0. -1.
    9900012    2    1    2    0    0 -0.27589009276E+02  0.28656841929E+02 -0.84140202862E+01  0.50528883439E+02  0.30000071700E+02 0.  0.
        -12    1    1    2    0    0  0.27589009276E+02 -0.28656841929E+02  0.84140202862E+01  0.40659116561E+02  0.00000000000E+00 0.  1.
         11    1    3    3    0    0 -0.20614190521E+02  0.26389863712E+01 -0.60969357644E+01  0.21658294621E+02  0.51100000000E-03 0. -1.
        -11    1    3    3    0    0 -0.88368375101E+01  0.21305578358E+02 -0.42384732191E+01  0.23451695500E+02  0.51100000000E-03 0.  1.
        -12    1    3    3    0    0  0.18620187559E+01  0.47122772001E+01  0.19213886974E+01  0.54188933173E+01  0.00000000000E+00 0.  1.
</event>
<event>
 7    1  0.5155466E-011  0.5052886E+02  0.7816164E-02  0.1300439E+00
        -11   -1    0    0    0    0  0.00000000000E+00  0.00000000000E+00  0.45593999997E+02  0.45594000000E+02  0.51100000000E-03 0.  1.
         11   -1    0    0    0    0 -0.00000000000E+00 -0.00000000000E+00 -0.45593999997E+02  0.45594000000E+02  0.51100000000E-03 0. -1.
    9900012    2    1    2    0    0  0.21052598821E+02  0.19478486080E+02 -0.28819129897E+02  0.50528860989E+02  0.30000003461E+02 0.  0.
        -12    1    1    2    0    0 -0.21052598821E+02 -0.19478486080E+02  0.28819129897E+02  0.40659139011E+02  0.00000000000E+00 0.  1.
         11    1    3    3    0    0  0.19460531633E+02  0.33141222327E+01 -0.12308973893E+02  0.23263846118E+02  0.51100000000E-03 0. -1.
        -11    1    3    3    0    0 -0.11818064946E+01  0.88595475400E+01  0.67377524245E-01  0.89382766346E+01  0.51100000000E-03 0.  1.
        -12    1    3    3    0    0  0.27738736824E+01  0.73048163077E+01 -0.16577533529E+02  0.18326738236E+02  0.00000000000E+00 0.  1.
</event>
<event>
 7    1  0.5155466E-011  0.5052890E+02  0.7816164E-02  0.1300439E+00
        -11   -1    0    0    0    0  0.00000000000E+00  0.00000000000E+00  0.45593999997E+02  0.45594000000E+02  0.51100000000E-03 0.  1.
         11   -1    0    0    0    0 -0.00000000000E+00 -0.00000000000E+00 -0.45593999997E+02  0.45594000000E+02  0.51100000000E-03 0. -1.
    9900012    2    1    2    0    0 -0.34558326916E+02  0.64511533280E+01 -0.20427119806E+02  0.50528898165E+02  0.30000116462E+02 0.  0.
        -12    1    1    2    0    0  0.34558326916E+02 -0.64511533280E+01  0.20427119806E+02  0.40659101835E+02  0.00000000000E+00 0.  1.
         11    1    3    3    0    0 -0.25965927115E+02  0.10201633788E+02 -0.85968750074E+01  0.29192618297E+02  0.51100000000E-03 0. -1.
        -11    1    3    3    0    0 -0.35524464712E+01 -0.82555707915E+01 -0.16832506112E+01  0.91437223222E+01  0.51100000000E-03 0.  1.
        -12    1    3    3    0    0 -0.50399533291E+01  0.45050903317E+01 -0.10146994187E+02  0.12192557545E+02  0.00000000000E+00 0.  1.
</event>
<event>
 7    1  0.5155466E-011  0.5052886E+02  0.7816164E-02  0.1300439E+00
        -11   -1    0    0    0    0  0.00000000000E+00  0.00000000000E+00  0.45593999997E+02  0.45594000000E+02  0.51100000000E-03 0.  1.
         11   -1    0    0    0    0 -0.00000000000E+00 -0.00000000000E+00 -0.45593999997E+02  0.45594000000E+02  0.51100000000E-03 0. -1.
    9900012    2    1    2    0    0 -0.22235566237E+02  0.16203718392E+02 -0.29936349957E+02  0.50528856571E+02  0.29999990034E+02 0.  0.
        -12    1    1    2    0    0  0.22235566237E+02 -0.16203718392E+02  0.29936349957E+02  0.40659143429E+02  0.00000000000E+00 0.  1.
         11    1    3    3    0    0  0.50073873175E+01  0.38676229813E+01 -0.20540628032E+00  0.63304523751E+01  0.51100000000E-03 0.  1.
        -11    1    3    3    0    0 -0.21118847107E+02  0.79889025732E+01 -0.13482831940E+02  0.26298574578E+02  0.51100000000E-03 0. -1.
         12    1    3    3    0    0 -0.61241064472E+01  0.43471928371E+01 -0.16248111737E+02  0.17899829618E+02  0.00000000000E+00 0. -1.
</event>
<event>
 7    1  0.5155466E-011  0.5052886E+02  0.7816164E-02  0.1300439E+00
        -11   -1    0    0    0    0  0.00000000000E+00  0.00000000000E+00  0.45593999997E+02  0.45594000000E+02  0.51100000000E-03 0.  1.
         11   -1    0    0    0    0 -0.00000000000E+00 -0.00000000000E+00 -0.45593999997E+02  0.45594000000E+02  0.51100000000E-03 0. -1.
    9900012    2    1    2    0    0  0.63743331524E+01 -0.55496152173E+01 -0.39771036782E+02  0.50528859343E+02  0.29999998460E+02 0.  0.
        -12    1    1    2    0    0 -0.63743331524E+01  0.55496152173E+01  0.39771036782E+02  0.40659140657E+02  0.00000000000E+00 0.  1.
         11    1    3    3    0    0  0.54355726442E+01 -0.83821524559E+01 -0.38012120884E+02  0.39303018512E+02  0.51100000000E-03 0. -1.
        -11    1    3    3    0    0 -0.21857709837E+01 -0.32813416776E+01 -0.18592627245E+01  0.43590889115E+01  0.51100000000E-03 0.  1.
         12    1    3    3    0    0  0.31245314919E+01  0.61138789162E+01  0.10034682614E+00  0.68667519200E+01  0.00000000000E+00 0. -1.
</event>
<event>
 7    1  0.5155466E-011  0.5052888E+02  0.7816164E-02  0.1300439E+00
        -11   -1    0    0    0    0  0.00000000000E+00  0.00000000000E+00  0.45593999997E+02  0.45594000000E+02  0.51100000000E-03 0.  1.
         11   -1    0    0    0    0 -0.00000000000E+00 -0.00000000000E+00 -0.45593999997E+02  0.45594000000E+02  0.51100000000E-03 0. -1.
    9900012    2    1    2    0    0  0.29230520172E+02 -0.22015111826E+02 -0.17722183992E+02  0.50528877239E+02  0.30000052855E+02 0.  0.
        -12    1    1    2    0    0 -0.29230520172E+02  0.22015111826E+02  0.17722183992E+02  0.40659122761E+02  0.00000000000E+00 0.  1.
         11    1    3    3    0    0  0.28194600112E+02 -0.25511599848E+02 -0.17704901150E+02  0.41943303724E+02  0.51100000000E-03 0. -1.
        -11    1    3    3    0    0 -0.17810966452E+01  0.12350473104E+01  0.31213786171E+01  0.38000857689E+01  0.51100000000E-03 0.  1.
         12    1    3    3    0    0  0.28170167056E+01  0.22614407117E+01 -0.31386614597E+01  0.47854877464E+01  0.00000000000E+00 0. -1.
</event>
<event>
 7    1  0.5155466E-011  0.5052885E+02  0.7816164E-02  0.1300439E+00
        -11   -1    0    0    0    0  0.00000000000E+00  0.00000000000E+00  0.45593999997E+02  0.45594000000E+02  0.51100000000E-03 0. -1.
         11   -1    0    0    0    0 -0.00000000000E+00 -0.00000000000E+00 -0.45593999997E+02  0.45594000000E+02  0.51100000000E-03 0.  1.
    9900012    2    1    2    0    0 -0.37954541326E+02 -0.61581068232E+00  0.14568449825E+02  0.50528853915E+02  0.29999981961E+02 0.  0.
        -12    1    1    2    0    0  0.37954541326E+02  0.61581068232E+00 -0.14568449825E+02  0.40659146085E+02  0.00000000000E+00 0.  1.
         11    1    3    3    0    0 -0.29011201531E+02 -0.78918545772E+01  0.27302985828E+01  0.30189165499E+02  0.51100000000E-03 0. -1.
        -11    1    3    3    0    0 -0.86865708796E+01  0.97461048956E+01  0.12153001602E+02  0.17836438055E+02  0.51100000000E-03 0.  1.
        -12    1    3    3    0    0 -0.25676891561E+00 -0.24700610007E+01 -0.31485035996E+00  0.25032503615E+01  0.00000000000E+00 0.  1.
</event>
<event>
 7    1  0.5155466E-011  0.5052889E+02  0.7816164E-02  0.1300439E+00
        -11   -1    0    0    0    0  0.00000000000E+00  0.00000000000E+00  0.45593999997E+02  0.45594000000E+02  0.51100000000E-03 0.  1.
         11   -1    0    0    0    0 -0.00000000000E+00 -0.00000000000E+00 -0.45593999997E+02  0.45594000000E+02  0.51100000000E-03 0. -1.
    9900012    2    1    2    0    0  0.92979451255E+01  0.35446190778E+02 -0.17614739395E+02  0.50528889482E+02  0.30000090068E+02 0.  0.
        -12    1    1    2    0    0 -0.92979451255E+01 -0.35446190778E+02  0.17614739395E+02  0.40659110518E+02  0.00000000000E+00 0.  1.
         11    1    3    3    0    0 -0.91215618941E+01  0.50721971488E+01  0.44102965890E+00  0.10446271235E+02  0.51100000000E-03 0. -1.
        -11    1    3    3    0    0  0.93779135188E+01  0.11704746788E+02 -0.85595157815E+01  0.17268806270E+02  0.51100000000E-03 0.  1.
         12    1    3    3    0    0  0.90415935007E+01  0.18669246841E+02 -0.94962532721E+01  0.22813811976E+02  0.00000000000E+00 0. -1.
</event>
<event>
 7    1  0.5155466E-011  0.5052891E+02  0.7816164E-02  0.1300439E+00
        -11   -1    0    0    0    0  0.00000000000E+00  0.00000000000E+00  0.45593999997E+02  0.45594000000E+02  0.51100000000E-03 0.  1.
         11   -1    0    0    0    0 -0.00000000000E+00 -0.00000000000E+00 -0.45593999997E+02  0.45594000000E+02  0.51100000000E-03 0. -1.
    9900012    2    1    2    0    0 -0.19726843093E+02  0.34738841854E+02 -0.75647822660E+01  0.50528912424E+02  0.30000159804E+02 0.  0.
        -12    1    1    2    0    0  0.19726843093E+02 -0.34738841854E+02  0.75647822660E+01  0.40659087576E+02  0.00000000000E+00 0.  1.
         11    1    3    3    0    0 -0.16484496583E+02  0.20834547950E+02  0.41410897458E+01  0.26888020389E+02  0.51100000000E-03 0. -1.
        -11    1    3    3    0    0 -0.43582773383E+01  0.15431523501E+02 -0.13554205995E+02  0.20996261556E+02  0.51100000000E-03 0.  1.
         12    1    3    3    0    0  0.11159308283E+01 -0.15272295974E+01  0.18483339834E+01  0.26446304791E+01  0.00000000000E+00 0. -1.
</event>
<event>
 7    1  0.5155466E-011  0.5052885E+02  0.7816164E-02  0.1300439E+00
        -11   -1    0    0    0    0  0.00000000000E+00  0.00000000000E+00  0.45593999997E+02  0.45594000000E+02  0.51100000000E-03 0.  1.
         11   -1    0    0    0    0 -0.00000000000E+00 -0.00000000000E+00 -0.45593999997E+02  0.45594000000E+02  0.51100000000E-03 0. -1.
    9900012    2    1    2    0    0 -0.26880971545E+02  0.86136636688E+01 -0.29264045349E+02  0.50528853634E+02  0.29999981107E+02 0.  0.
        -12    1    1    2    0    0  0.26880971545E+02 -0.86136636688E+01  0.29264045349E+02  0.40659146366E+02  0.00000000000E+00 0.  1.
         11    1    3    3    0    0 -0.19204517261E+02 -0.23773721420E+01 -0.20142766725E+02  0.27931996583E+02  0.51100000000E-03 0. -1.
        -11    1    3    3    0    0 -0.11298731047E+02  0.10113937607E+02 -0.30423370825E+01  0.15466378774E+02  0.51100000000E-03 0.  1.
        -12    1    3    3    0    0  0.36222767624E+01  0.87709820381E+00 -0.60789415414E+01  0.71304782776E+01  0.00000000000E+00 0.  1.
</event>
<event>
 7    1  0.5155466E-011  0.5052884E+02  0.7816164E-02  0.1300439E+00
        -11   -1    0    0    0    0  0.00000000000E+00  0.00000000000E+00  0.45593999997E+02  0.45594000000E+02  0.51100000000E-03 0. -1.
         11   -1    0    0    0    0 -0.00000000000E+00 -0.00000000000E+00 -0.45593999997E+02  0.45594000000E+02  0.51100000000E-03 0.  1.
    9900012    2    1    2    0    0  0.17360049136E+02  0.29494637875E+02  0.21951364466E+02  0.50528839023E+02  0.29999936696E+02 0.  0.
        -12    1    1    2    0    0 -0.17360049136E+02 -0.29494637875E+02 -0.21951364466E+02  0.40659160977E+02  0.00000000000E+00 0.  1.
         11    1    3    3    0    0  0.22147288459E+02  0.13404374068E+02  0.19686335771E+02  0.32522783500E+02  0.51100000000E-03 0. -1.
        -11    1    3    3    0    0 -0.27182091625E+01  0.97086118426E+01 -0.16836301173E+01  0.10221566201E+02  0.51100000000E-03 0.  1.
         12    1    3    3    0    0 -0.20690301600E+01  0.63816519646E+01  0.39486588127E+01  0.77844893230E+01  0.00000000000E+00 0. -1.
</event>
<event>
 7    1  0.5155466E-011  0.5052882E+02  0.7816164E-02  0.1300439E+00
        -11   -1    0    0    0    0  0.00000000000E+00  0.00000000000E+00  0.45593999997E+02  0.45594000000E+02  0.51100000000E-03 0. -1.
         11   -1    0    0    0    0 -0.00000000000E+00 -0.00000000000E+00 -0.45593999997E+02  0.45594000000E+02  0.51100000000E-03 0.  1.
    9900012    2    1    2    0    0 -0.26749388829E+02  0.28085907296E+02  0.12199227191E+02  0.50528817330E+02  0.29999870755E+02 0.  0.
        -12    1    1    2    0    0  0.26749388829E+02 -0.28085907296E+02 -0.12199227191E+02  0.40659182670E+02  0.00000000000E+00 0.  1.
         11    1    3    3    0    0 -0.48361933007E+01  0.20988563101E+02  0.21158185804E+01  0.21642209573E+02  0.51100000000E-03 0. -1.
        -11    1    3    3    0    0 -0.71105789315E+01 -0.39479379465E+01  0.68044522340E+00  0.81614675601E+01  0.51100000000E-03 0.  1.
         12    1    3    3    0    0 -0.14802616597E+02  0.11045282141E+02  0.94029633873E+01  0.20725140196E+02  0.00000000000E+00 0. -1.
</event>
<event>
 7    1  0.5155466E-011  0.5052887E+02  0.7816164E-02  0.1300439E+00
        -11   -1    0    0    0    0  0.00000000000E+00  0.00000000000E+00  0.45593999997E+02  0.45594000000E+02  0.51100000000E-03 0.  1.
         11   -1    0    0    0    0 -0.00000000000E+00 -0.00000000000E+00 -0.45593999997E+02  0.45594000000E+02  0.51100000000E-03 0. -1.
    9900012    2    1    2    0    0  0.98600297381E+01  0.39226229272E+02  0.41530281061E+01  0.50528869515E+02  0.30000029377E+02 0.  0.
        -12    1    1    2    0    0 -0.98600297381E+01 -0.39226229272E+02 -0.41530281061E+01  0.40659130485E+02  0.00000000000E+00 0.  1.
         11    1    3    3    0    0  0.30212576499E+01 -0.31976263213E+01 -0.15413104707E+01  0.46613785629E+01  0.51100000000E-03 0. -1.
        -11    1    3    3    0    0 -0.30870216873E+01  0.23083158782E+02 -0.39408439261E+00  0.23291999163E+02  0.51100000000E-03 0.  1.
        -12    1    3    3    0    0  0.99257937755E+01  0.19340696812E+02  0.60884229695E+01  0.22575491789E+02  0.00000000000E+00 0.  1.
</event>
<event>
 7    1  0.5155466E-011  0.5052888E+02  0.7816164E-02  0.1300439E+00
        -11   -1    0    0    0    0  0.00000000000E+00  0.00000000000E+00  0.45593999997E+02  0.45594000000E+02  0.51100000000E-03 0.  1.
         11   -1    0    0    0    0 -0.00000000000E+00 -0.00000000000E+00 -0.45593999997E+02  0.45594000000E+02  0.51100000000E-03 0. -1.
    9900012    2    1    2    0    0 -0.17890652550E+02  0.98154795548E+01 -0.35167382250E+02  0.50528882180E+02  0.30000067875E+02 0.  0.
        -12    1    1    2    0    0  0.17890652550E+02 -0.98154795548E+01  0.35167382250E+02  0.40659117820E+02  0.00000000000E+00 0.  1.
         11    1    3    3    0    0 -0.24731591409E+01 -0.64226452986E+01 -0.24658108560E+02  0.25600570438E+02  0.51100000000E-03 0. -1.
        -11    1    3    3    0    0 -0.11712751656E+02  0.12951642792E+02 -0.94815599143E+01  0.19870419750E+02  0.51100000000E-03 0.  1.
         12    1    3    3    0    0 -0.37047417532E+01  0.32864820609E+01 -0.10277137757E+01  0.50578919917E+01  0.00000000000E+00 0. -1.
</event>
<event>
 7    1  0.5155466E-011  0.5052886E+02  0.7816164E-02  0.1300439E+00
        -11   -1    0    0    0    0  0.00000000000E+00  0.00000000000E+00  0.45593999997E+02  0.45594000000E+02  0.51100000000E-03 0. -1.
         11   -1    0    0    0    0 -0.00000000000E+00 -0.00000000000E+00 -0.45593999997E+02  0.45594000000E+02  0.51100000000E-03 0.  1.
    9900012    2    1    2    0    0 -0.28633061907E+02 -0.14248449505E+02  0.25105677607E+02  0.50528860861E+02  0.30000003073E+02 0.  0.
        -12    1    1    2    0    0  0.28633061907E+02  0.14248449505E+02 -0.25105677607E+02  0.40659139139E+02  0.00000000000E+00 0.  1.
         11    1    3    3    0    0 -0.16516873999E+02 -0.39546429084E+01  0.16694288961E+02  0.23814819155E+02  0.51100000000E-03 0. -1.
        -11    1    3    3    0    0  0.62978001688E+00 -0.10801577076E+02 -0.99390511579E+00  0.10865474580E+02  0.51100000000E-03 0.  1.
        -12    1    3    3    0    0 -0.12745967925E+02  0.50777047963E+00  0.94052937612E+01  0.15848567126E+02  0.00000000000E+00 0.  1.
</event>
