<event>
 7    1  0.2429906E-015  0.9000780E+02  0.7816164E-02  0.1186339E+00
        -11   -1    0    0    0    0  0.00000000000E+00  0.00000000000E+00  0.45593999997E+02  0.45594000000E+02  0.51100000000E-03 0. -1.
         11   -1    0    0    0    0 -0.00000000000E+00 -0.00000000000E+00 -0.45593999997E+02  0.45594000000E+02  0.51100000000E-03 0.  1.
    9900012    2    1    2    0    0  0.10406863084E+01  0.51766890002E+00 -0.20457980461E+00  0.90007804262E+02  0.90000066479E+02 0.  0.
        -12    1    1    2    0    0 -0.10406863084E+01 -0.51766890002E+00  0.20457980461E+00  0.11801957375E+01  0.00000000000E+00 0.  1.
         11    1    3    3    0    0  0.15072452271E+02 -0.25334435135E+02  0.11021794379E+02  0.31472088788E+02  0.51100000000E-03 0. -1.
        -11    1    3    3    0    0 -0.59748317482E+01 -0.14234427575E+02  0.19884604001E+01  0.15565073653E+02  0.51100000000E-03 0.  1.
        -12    1    3    3    0    0 -0.80569342144E+01  0.40086531610E+02 -0.13214834584E+02  0.42970641821E+02  0.00000000000E+00 0.  1.
</event>
<event>
 7    1  0.2429906E-015  0.9000767E+02  0.7816164E-02  0.1186339E+00
        -11   -1    0    0    0    0  0.00000000000E+00  0.00000000000E+00  0.45593999997E+02  0.45594000000E+02  0.51100000000E-03 0. -1.
         11   -1    0    0    0    0 -0.00000000000E+00 -0.00000000000E+00 -0.45593999997E+02  0.45594000000E+02  0.51100000000E-03 0.  1.
    9900012    2    1    2    0    0  0.75070180057E+00  0.42810122319E+00  0.80396879169E+00  0.90007665442E+02  0.89999925826E+02 0.  0.
        -12    1    1    2    0    0 -0.75070180057E+00 -0.42810122319E+00 -0.80396879169E+00  0.11803345579E+01  0.00000000000E+00 0.  1.
         11    1    3    3    0    0  0.67707099586E+01 -0.10958582612E+02 -0.13478655833E+02  0.18644227244E+02  0.51100000000E-03 0. -1.
        -11    1    3    3    0    0 -0.11544653896E+02  0.19602872555E+02 -0.23260828512E+02  0.32536407136E+02  0.51100000000E-03 0.  1.
         12    1    3    3    0    0  0.55246457375E+01 -0.82161887205E+01  0.37543453137E+02  0.38827031062E+02  0.00000000000E+00 0. -1.
</event>
<event>
 7    1  0.2429906E-015  0.9000769E+02  0.7816164E-02  0.1186339E+00
        -11   -1    0    0    0    0  0.00000000000E+00  0.00000000000E+00  0.45593999997E+02  0.45594000000E+02  0.51100000000E-03 0.  1.
         11   -1    0    0    0    0 -0.00000000000E+00 -0.00000000000E+00 -0.45593999997E+02  0.45594000000E+02  0.51100000000E-03 0. -1.
    9900012    2    1    2    0    0  0.70392817518E+00 -0.86410178896E+00 -0.38851866643E+00  0.90007689222E+02  0.89999949920E+02 0.  0.
        -12    1    1    2    0    0 -0.70392817518E+00  0.86410178896E+00  0.38851866643E+00  0.11803107776E+01  0.00000000000E+00 0.  1.
         11    1    3    3    0    0  0.11216697966E+01  0.36484393951E+02 -0.34005777963E+01  0.36659692780E+02  0.51100000000E-03 0. -1.
        -11    1    3    3    0    0  0.79432769498E+01  0.54124219261E+01  0.16750006843E+01  0.97568226058E+01  0.51100000000E-03 0.  1.
        -12    1    3    3    0    0 -0.83610185713E+01 -0.42760917666E+02  0.13370584455E+01  0.43591173837E+02  0.00000000000E+00 0.  1.
</event>
<event>
 7    1  0.2429906E-015  0.9000764E+02  0.7816164E-02  0.1186339E+00
        -11   -1    0    0    0    0  0.00000000000E+00  0.00000000000E+00  0.45593999997E+02  0.45594000000E+02  0.51100000000E-03 0.  1.
         11   -1    0    0    0    0 -0.00000000000E+00 -0.00000000000E+00 -0.45593999997E+02  0.45594000000E+02  0.51100000000E-03 0. -1.
    9900012    2    1    2    0    0  0.11045477293E+01 -0.40068369667E+00 -0.11262452150E+00  0.90007636753E+02  0.89999896759E+02 0.  0.
        -12    1    1    2    0    0 -0.11045477293E+01  0.40068369667E+00  0.11262452150E+00  0.11803632466E+01  0.00000000000E+00 0.  1.
         11    1    3    3    0    0  0.20752171513E+02  0.22519451526E+02 -0.29776513249E+02  0.42713218810E+02  0.51100000000E-03 0. -1.
        -11    1    3    3    0    0 -0.50915744114E+01  0.38295860563E+01  0.55604472857E+01  0.84562659388E+01  0.51100000000E-03 0.  1.
        -12    1    3    3    0    0 -0.14556049372E+02 -0.26749721279E+02  0.24103441442E+02  0.38838152005E+02  0.00000000000E+00 0.  1.
</event>
<event>
 7    1  0.2429906E-015  0.9000782E+02  0.7816164E-02  0.1186339E+00
        -11   -1    0    0    0    0  0.00000000000E+00  0.00000000000E+00  0.45593999997E+02  0.45594000000E+02  0.51100000000E-03 0.  1.
         11   -1    0    0    0    0 -0.00000000000E+00 -0.00000000000E+00 -0.45593999997E+02  0.45594000000E+02  0.51100000000E-03 0. -1.
    9900012    2    1    2    0    0  0.55319252905E+00  0.87734916918E+00  0.56307493168E+00  0.90007823353E+02  0.90000085821E+02 0.  0.
        -12    1    1    2    0    0 -0.55319252905E+00 -0.87734916918E+00 -0.56307493168E+00  0.11801766468E+01  0.00000000000E+00 0.  1.
         11    1    3    3    0    0 -0.31678491311E+02  0.18278875954E+01 -0.12156058151E+02  0.33979960783E+02  0.51100000000E-03 0. -1.
        -11    1    3    3    0    0 -0.10131233717E+02  0.16693786894E+01 -0.31098201280E+01  0.10728452979E+02  0.51100000000E-03 0.  1.
        -12    1    3    3    0    0  0.42362917557E+02 -0.26199171156E+01  0.15828953210E+02  0.45299409591E+02  0.00000000000E+00 0.  1.
</event>
<event>
 7    1  0.2429906E-015  0.9000774E+02  0.7816164E-02  0.1186339E+00
        -11   -1    0    0    0    0  0.00000000000E+00  0.00000000000E+00  0.45593999997E+02  0.45594000000E+02  0.51100000000E-03 0.  1.
         11   -1    0    0    0    0 -0.00000000000E+00 -0.00000000000E+00 -0.45593999997E+02  0.45594000000E+02  0.51100000000E-03 0. -1.
    9900012    2    1    2    0    0 -0.49593350670E+00  0.16670220163E-02 -0.10710088262E+01  0.90007740398E+02  0.90000001771E+02 0.  0.
        -12    1    1    2    0    0  0.49593350670E+00 -0.16670220163E-02  0.10710088262E+01  0.11802596019E+01  0.00000000000E+00 0.  1.
         11    1    3    3    0    0  0.16629636726E+02 -0.69146982342E+01 -0.99607154936E+00  0.18037461798E+02  0.51100000000E-03 0. -1.
        -11    1    3    3    0    0 -0.19905323469E+02 -0.18840353910E+02  0.24129709830E+02  0.36516075016E+02  0.51100000000E-03 0.  1.
         12    1    3    3    0    0  0.27797532358E+01  0.25756719166E+02 -0.24204647107E+02  0.35454203584E+02  0.00000000000E+00 0. -1.
</event>
<event>
 7    1  0.2429906E-015  0.9000765E+02  0.7816164E-02  0.1186339E+00
        -11   -1    0    0    0    0  0.00000000000E+00  0.00000000000E+00  0.45593999997E+02  0.45594000000E+02  0.51100000000E-03 0.  1.
         11   -1    0    0    0    0 -0.00000000000E+00 -0.00000000000E+00 -0.45593999997E+02  0.45594000000E+02  0.51100000000E-03 0. -1.
    9900012    2    1    2    0    0  0.12963076697E+00  0.94478657891E+00  0.69555145110E+00  0.90007653595E+02  0.89999913822E+02 0.  0.
        -12    1    1    2    0    0 -0.12963076697E+00 -0.94478657891E+00 -0.69555145110E+00  0.11803464053E+01  0.00000000000E+00 0.  1.
         11    1    3    3    0    0  0.11311711530E+02 -0.29689265264E+01  0.61091426088E+01  0.13194353570E+02  0.51100000000E-03 0. -1.
        -11    1    3    3    0    0 -0.10329925159E+02 -0.28275891048E+02 -0.24993509250E+02  0.39126830606E+02  0.51100000000E-03 0.  1.
         12    1    3    3    0    0 -0.85215560401E+00  0.32189604153E+02  0.19579918093E+02  0.37686469419E+02  0.00000000000E+00 0. -1.
</event>
<event>
 7    1  0.2429906E-015  0.9000769E+02  0.7816164E-02  0.1186339E+00
        -11   -1    0    0    0    0  0.00000000000E+00  0.00000000000E+00  0.45593999997E+02  0.45594000000E+02  0.51100000000E-03 0.  1.
         11   -1    0    0    0    0 -0.00000000000E+00 -0.00000000000E+00 -0.45593999997E+02  0.45594000000E+02  0.51100000000E-03 0. -1.
    9900012    2    1    2    0    0 -0.43348598500E-01  0.93577463169E+00 -0.71803544745E+00  0.90007691495E+02  0.89999952223E+02 0.  0.
        -12    1    1    2    0    0  0.43348598500E-01 -0.93577463169E+00  0.71803544745E+00  0.11803085046E+01  0.00000000000E+00 0.  1.
         11    1    3    3    0    0  0.40209424850E+01 -0.84372494919E+01  0.32259009703E+01  0.98874463229E+01  0.51100000000E-03 0. -1.
        -11    1    3    3    0    0  0.28766672101E+02 -0.20250191353E+01  0.22396071021E+02  0.36513095236E+02  0.51100000000E-03 0.  1.
         12    1    3    3    0    0 -0.32830963184E+02  0.11398043259E+02 -0.26340007439E+02  0.43607149937E+02  0.00000000000E+00 0. -1.
</event>
<event>
 7    1  0.2429906E-015  0.9000769E+02  0.7816164E-02  0.1186339E+00
        -11   -1    0    0    0    0  0.00000000000E+00  0.00000000000E+00  0.45593999997E+02  0.45594000000E+02  0.51100000000E-03 0.  1.
         11   -1    0    0    0    0 -0.00000000000E+00 -0.00000000000E+00 -0.45593999997E+02  0.45594000000E+02  0.51100000000E-03 0. -1.
    9900012    2    1    2    0    0  0.92769353716E+00 -0.18747956997E+00 -0.70523555914E+00  0.90007694496E+02  0.89999955264E+02 0.  0.
        -12    1    1    2    0    0 -0.92769353716E+00  0.18747956997E+00  0.70523555914E+00  0.11803055036E+01  0.00000000000E+00 0.  1.
         11    1    3    3    0    0  0.14141328879E+02  0.78197405846E+01 -0.33173541127E+02  0.36899991280E+02  0.51100000000E-03 0. -1.
        -11    1    3    3    0    0 -0.45046804941E+00  0.21028644241E+01 -0.86340203200E+01  0.88978237450E+01  0.51100000000E-03 0.  1.
        -12    1    3    3    0    0 -0.12763167292E+02 -0.10110084579E+02  0.41102325888E+02  0.44209879472E+02  0.00000000000E+00 0.  1.
</event>
<event>
 7    1  0.2429906E-015  0.9000778E+02  0.7816164E-02  0.1186339E+00
        -11   -1    0    0    0    0  0.00000000000E+00  0.00000000000E+00  0.45593999997E+02  0.45594000000E+02  0.51100000000E-03 0. -1.
         11   -1    0    0    0    0 -0.00000000000E+00 -0.00000000000E+00 -0.45593999997E+02  0.45594000000E+02  0.51100000000E-03 0.  1.
    9900012    2    1    2    0    0  0.95993814871E+00 -0.46743026019E+00  0.50294806075E+00  0.90007775848E+02  0.90000037689E+02 0.  0.
        -12    1    1    2    0    0 -0.95993814871E+00  0.46743026019E+00 -0.50294806075E+00  0.11802241521E+01  0.00000000000E+00 0.  1.
         11    1    3    3    0    0 -0.99059240194E+00 -0.74367818408E+01 -0.53872697705E+01  0.92363235811E+01  0.51100000000E-03 0. -1.
        -11    1    3    3    0    0 -0.11654305574E+01  0.40900345871E+02 -0.11519556142E+02  0.42507607492E+02  0.51100000000E-03 0.  1.
         12    1    3    3    0    0  0.31159611080E+01 -0.33930994290E+02  0.17409773973E+02  0.38263844775E+02  0.00000000000E+00 0. -1.
</event>
<event>
 7    1  0.2429906E-015  0.9000780E+02  0.7816164E-02  0.1186339E+00
        -11   -1    0    0    0    0  0.00000000000E+00  0.00000000000E+00  0.45593999997E+02  0.45594000000E+02  0.51100000000E-03 0.  1.
         11   -1    0    0    0    0 -0.00000000000E+00 -0.00000000000E+00 -0.45593999997E+02  0.45594000000E+02  0.51100000000E-03 0. -1.
    9900012    2    1    2    0    0 -0.11638943148E+01 -0.16271861980E+00  0.10834513697E+00  0.90007802561E+02  0.90000064755E+02 0.  0.
        -12    1    1    2    0    0  0.11638943148E+01  0.16271861980E+00 -0.10834513697E+00  0.11801974385E+01  0.00000000000E+00 0.  1.
         11    1    3    3    0    0 -0.30093927763E+01  0.61395577937E+01 -0.74472970248E+01  0.10110036994E+02  0.51100000000E-03 0. -1.
        -11    1    3    3    0    0  0.17752418210E+02 -0.10986485682E+01  0.39786170598E+02  0.43580898936E+02  0.51100000000E-03 0.  1.
         12    1    3    3    0    0 -0.15906919748E+02 -0.52036278454E+01 -0.32230528436E+02  0.36316866631E+02  0.00000000000E+00 0. -1.
</event>
<event>
 7    1  0.2429906E-015  0.9000879E+02  0.7816164E-02  0.1186337E+00
        -11   -1    0    0    0    0  0.00000000000E+00  0.00000000000E+00  0.45593999997E+02  0.45594000000E+02  0.51100000000E-03 0.  1.
         11   -1    0    0    0    0 -0.00000000000E+00 -0.00000000000E+00 -0.45593999997E+02  0.45594000000E+02  0.51100000000E-03 0. -1.
    9900012    2    1    2    0    0 -0.61642203685E+00  0.81744057150E-01 -0.10019403135E+01  0.90008787292E+02  0.90001062478E+02 0.  0.
        -12    1    1    2    0    0  0.61642203685E+00 -0.81744057150E-01  0.10019403135E+01  0.11792127077E+01  0.00000000000E+00 0.  1.
         11    1    3    3    0    0 -0.26971792979E+02  0.65257765370E+01 -0.29058710399E+02  0.40180493106E+02  0.51100000000E-03 0. -1.
        -11    1    3    3    0    0  0.18227476065E+01 -0.65217307840E+01 -0.51745533023E+01  0.85224047895E+01  0.51100000000E-03 0.  1.
        -12    1    3    3    0    0  0.24532623335E+02  0.77698304218E-01  0.33231323388E+02  0.41305889397E+02  0.00000000000E+00 0.  1.
</event>
<event>
 7    1  0.2429906E-015  0.9000796E+02  0.7816164E-02  0.1186339E+00
        -11   -1    0    0    0    0  0.00000000000E+00  0.00000000000E+00  0.45593999997E+02  0.45594000000E+02  0.51100000000E-03 0. -1.
         11   -1    0    0    0    0 -0.00000000000E+00 -0.00000000000E+00 -0.45593999997E+02  0.45594000000E+02  0.51100000000E-03 0.  1.
    9900012    2    1    2    0    0 -0.61084389499E+00  0.78725633088E-01  0.10065661191E+01  0.90007956212E+02  0.90000220434E+02 0.  0.
        -12    1    1    2    0    0  0.61084389499E+00 -0.78725633088E-01 -0.10065661191E+01  0.11800437879E+01  0.00000000000E+00 0.  1.
         11    1    3    3    0    0  0.14510099070E+01  0.86411901093E+01  0.39813430011E+01  0.96242760044E+01  0.51100000000E-03 0. -1.
        -11    1    3    3    0    0 -0.22480853779E+02  0.15710493151E+02 -0.28586167020E+02  0.39615367306E+02  0.51100000000E-03 0.  1.
         12    1    3    3    0    0  0.20418999977E+02 -0.24272957627E+02  0.25611390138E+02  0.40768312901E+02  0.00000000000E+00 0. -1.
</event>
<event>
 7    1  0.2895742E-015  0.9000766E+02  0.7816164E-02  0.1186339E+00
        -11   -1    0    0    0    0  0.00000000000E+00  0.00000000000E+00  0.45593999997E+02  0.45594000000E+02  0.51100000000E-03 0. -1.
         11   -1    0    0    0    0 -0.00000000000E+00 -0.00000000000E+00 -0.45593999997E+02  0.45594000000E+02  0.51100000000E-03 0.  1.
    9900012    2    1    2    0    0 -0.14359899423E+00  0.10801152931E+01  0.45379058323E+00  0.90007662925E+02  0.89999923275E+02 0.  0.
        -12    1    1    2    0    0  0.14359899423E+00 -0.10801152931E+01 -0.45379058323E+00  0.11803370752E+01  0.00000000000E+00 0.  1.
         11    1    3    3    0    0 -0.36833452731E+02 -0.13873650905E+02 -0.91722174526E+01  0.40414242573E+02  0.51100000000E-03 0. -1.
        -11    1    3    3    0    0  0.40800301185E+01 -0.77147991089E+01  0.35272302310E+01  0.94130826206E+01  0.51100000000E-03 0.  1.
        -12    1    3    3    0    0  0.32609823618E+02  0.22668565307E+02  0.60987778049E+01  0.40180337731E+02  0.00000000000E+00 0.  1.
</event>
<event>
 7    1  0.2429906E-015  0.9000773E+02  0.7816164E-02  0.1186339E+00
        -11   -1    0    0    0    0  0.00000000000E+00  0.00000000000E+00  0.45593999997E+02  0.45594000000E+02  0.51100000000E-03 0. -1.
         11   -1    0    0    0    0 -0.00000000000E+00 -0.00000000000E+00 -0.45593999997E+02  0.45594000000E+02  0.51100000000E-03 0.  1.
    9900012    2    1    2    0    0  0.69322613425E+00  0.16383178259E+00  0.94108071859E+00  0.90007730435E+02  0.89999991677E+02 0.  0.
        -12    1    1    2    0    0 -0.69322613425E+00 -0.16383178259E+00 -0.94108071859E+00  0.11802695646E+01  0.00000000000E+00 0.  1.
         11    1    3    3    0    0 -0.70331335194E+01 -0.14857866743E+02  0.33015771668E+01  0.16766680748E+02  0.51100000000E-03 0.  1.
        -11    1    3    3    0    0 -0.11007041102E+02  0.64770192683E+01  0.31287169497E+02  0.33793397400E+02  0.51100000000E-03 0. -1.
         12    1    3    3    0    0  0.18733400755E+02  0.85446792571E+01 -0.33647665945E+02  0.39447652288E+02  0.00000000000E+00 0. -1.
</event>
<event>
 7    1  0.2429906E-015  0.9000796E+02  0.7816164E-02  0.1186339E+00
        -11   -1    0    0    0    0  0.00000000000E+00  0.00000000000E+00  0.45593999997E+02  0.45594000000E+02  0.51100000000E-03 0. -1.
         11   -1    0    0    0    0 -0.00000000000E+00 -0.00000000000E+00 -0.45593999997E+02  0.45594000000E+02  0.51100000000E-03 0.  1.
    9900012    2    1    2    0    0  0.29840362934E+00 -0.64181988955E+00  0.94419826802E+00  0.90007962769E+02  0.90000227078E+02 0.  0.
        -12    1    1    2    0    0 -0.29840362934E+00  0.64181988955E+00 -0.94419826802E+00  0.11800372308E+01  0.00000000000E+00 0.  1.
         11    1    3    3    0    0 -0.29208517197E+02  0.12597648040E+02  0.61116654267E+01  0.32391212814E+02  0.51100000000E-03 0. -1.
        -11    1    3    3    0    0 -0.12067816878E+02  0.11253747723E+01  0.38470923234E+01  0.12716083995E+02  0.51100000000E-03 0.  1.
        -12    1    3    3    0    0  0.41574737704E+02 -0.14364842702E+02 -0.90145594820E+01  0.44900665960E+02  0.00000000000E+00 0.  1.
</event>
<event>
 7    1  0.2429906E-015  0.9000781E+02  0.7816164E-02  0.1186339E+00
        -11   -1    0    0    0    0  0.00000000000E+00  0.00000000000E+00  0.45593999997E+02  0.45594000000E+02  0.51100000000E-03 0.  1.
         11   -1    0    0    0    0 -0.00000000000E+00 -0.00000000000E+00 -0.45593999997E+02  0.45594000000E+02  0.51100000000E-03 0. -1.
    9900012    2    1    2    0    0  0.49522074584E+00  0.31169585383E+00 -0.10249150685E+01  0.90007809850E+02  0.90000072140E+02 0.  0.
        -12    1    1    2    0    0 -0.49522074584E+00 -0.31169585383E+00  0.10249150685E+01  0.11801901499E+01  0.00000000000E+00 0.  1.
         11    1    3    3    0    0 -0.14846822041E+01  0.27548303083E+01 -0.85324146170E+01  0.90882050335E+01  0.51100000000E-03 0. -1.
        -11    1    3    3    0    0  0.19526576103E+02 -0.32633977502E+02  0.21049014283E+02  0.43466362448E+02  0.51100000000E-03 0.  1.
         12    1    3    3    0    0 -0.17546673153E+02  0.30190843048E+02 -0.13541514734E+02  0.37453242369E+02  0.00000000000E+00 0. -1.
</event>
<event>
 7    1  0.2429906E-015  0.9000760E+02  0.7816164E-02  0.1186339E+00
        -11   -1    0    0    0    0  0.00000000000E+00  0.00000000000E+00  0.45593999997E+02  0.45594000000E+02  0.51100000000E-03 0. -1.
         11   -1    0    0    0    0 -0.00000000000E+00 -0.00000000000E+00 -0.45593999997E+02  0.45594000000E+02  0.51100000000E-03 0.  1.
    9900012    2    1    2    0    0 -0.36571391494E+00 -0.12536750076E+00  0.11152971836E+01  0.90007596897E+02  0.89999856376E+02 0.  0.
        -12    1    1    2    0    0  0.36571391494E+00  0.12536750076E+00 -0.11152971836E+01  0.11804031030E+01  0.00000000000E+00 0.  1.
         11    1    3    3    0    0 -0.25791758860E+01 -0.12327790585E+02  0.42545191455E+01  0.13293889664E+02  0.51100000000E-03 0. -1.
        -11    1    3    3    0    0  0.24615349103E+02  0.12943378698E+02 -0.30545135156E+02  0.41309221072E+02  0.51100000000E-03 0.  1.
         12    1    3    3    0    0 -0.22401887132E+02 -0.74095561358E+00  0.27405913195E+02  0.35404486161E+02  0.00000000000E+00 0. -1.
</event>
<event>
 7    1  0.2429906E-015  0.9000771E+02  0.7816164E-02  0.1186339E+00
        -11   -1    0    0    0    0  0.00000000000E+00  0.00000000000E+00  0.45593999997E+02  0.45594000000E+02  0.51100000000E-03 0. -1.
         11   -1    0    0    0    0 -0.00000000000E+00 -0.00000000000E+00 -0.45593999997E+02  0.45594000000E+02  0.51100000000E-03 0.  1.
    9900012    2    1    2    0    0 -0.88884976229E+00  0.69028077565E+00 -0.35574507405E+00  0.90007705119E+02  0.89999966026E+02 0.  0.
        -12    1    1    2    0    0  0.88884976229E+00 -0.69028077565E+00  0.35574507405E+00  0.11802948813E+01  0.00000000000E+00 0.  1.
         11    1    3    3    0    0  0.37536708965E+01  0.36086252843E+02  0.68909029649E+01  0.36929557720E+02  0.51100000000E-03 0. -1.
        -11    1    3    3    0    0 -0.38199984967E+01  0.78164621152E+01  0.18895524990E+01  0.89028016613E+01  0.51100000000E-03 0.  1.
        -12    1    3    3    0    0 -0.82252216207E+00 -0.43212434183E+02 -0.91362005379E+01  0.44175345737E+02  0.00000000000E+00 0.  1.
</event>
<event>
 7    1  0.2429906E-015  0.9000769E+02  0.7816164E-02  0.1186339E+00
        -11   -1    0    0    0    0  0.00000000000E+00  0.00000000000E+00  0.45593999997E+02  0.45594000000E+02  0.51100000000E-03 0. -1.
         11   -1    0    0    0    0 -0.00000000000E+00 -0.00000000000E+00 -0.45593999997E+02  0.45594000000E+02  0.51100000000E-03 0.  1.
    9900012    2    1    2    0    0  0.55761331869E+00 -0.32167605680E+00  0.98930392239E+00  0.90007690570E+02  0.89999951286E+02 0.  0.
        -12    1    1    2    0    0 -0.55761331869E+00  0.32167605680E+00 -0.98930392239E+00  0.11803094296E+01  0.00000000000E+00 0.  1.
         11    1    3    3    0    0  0.73771483367E+01 -0.53346100796E+00  0.45634007538E+01  0.86908874650E+01  0.51100000000E-03 0. -1.
        -11    1    3    3    0    0  0.12261199501E+01  0.21127444618E+02  0.32538932782E+02  0.38815646756E+02  0.51100000000E-03 0.  1.
         12    1    3    3    0    0 -0.80456549681E+01 -0.20915659667E+02 -0.36113029614E+02  0.42501156349E+02  0.00000000000E+00 0. -1.
</event>
<event>
 7    1  0.2429906E-015  0.9000772E+02  0.7816164E-02  0.1186339E+00
        -11   -1    0    0    0    0  0.00000000000E+00  0.00000000000E+00  0.45593999997E+02  0.45594000000E+02  0.51100000000E-03 0. -1.
         11   -1    0    0    0    0 -0.00000000000E+00 -0.00000000000E+00 -0.45593999997E+02  0.45594000000E+02  0.51100000000E-03 0.  1.
    9900012    2    1    2    0    0 -0.46966632384E+00  0.10574496600E+01 -0.23294802170E+00  0.90007724176E+02  0.89999985335E+02 0.  0.
        -12    1    1    2    0    0  0.46966632384E+00 -0.10574496600E+01  0.23294802170E+00  0.11802758237E+01  0.00000000000E+00 0.  1.
         11    1    3    3    0    0 -0.26995389880E+02 -0.15878998408E+02  0.69500525012E+01  0.32081098722E+02  0.51100000000E-03 0. -1.
        -11    1    3    3    0    0  0.82280069294E+01 -0.16548454881E+02 -0.70161495657E+01  0.19768100869E+02  0.51100000000E-03 0.  1.
        -12    1    3    3    0    0  0.18297716627E+02  0.33484902949E+02 -0.16685095713E+00  0.38158524585E+02  0.00000000000E+00 0.  1.
</event>
<event>
 7    1  0.2429906E-015  0.9000769E+02  0.7816164E-02  0.1186339E+00
        -11   -1    0    0    0    0  0.00000000000E+00  0.00000000000E+00  0.45593999997E+02  0.45594000000E+02  0.51100000000E-03 0.  1.
         11   -1    0    0    0    0 -0.00000000000E+00 -0.00000000000E+00 -0.45593999997E+02  0.45594000000E+02  0.51100000000E-03 0. -1.
    9900012    2    1    2    0    0 -0.55832246487E+00  0.10394064201E+01 -0.32393713494E-01  0.90007686892E+02  0.89999947559E+02 0.  0.
        -12    1    1    2    0    0  0.55832246487E+00 -0.10394064201E+01  0.32393713494E-01  0.11803131083E+01  0.00000000000E+00 0.  1.
         11    1    3    3    0    0 -0.16820941294E+01  0.84898486031E+01 -0.22369732825E+01  0.89392963757E+01  0.51100000000E-03 0. -1.
        -11    1    3    3    0    0 -0.34064701722E+01  0.75569015209E+01  0.39632547469E+02  0.40490117545E+02  0.51100000000E-03 0.  1.
         12    1    3    3    0    0  0.45302418367E+01 -0.15007343704E+02 -0.37427967900E+02  0.40578272971E+02  0.00000000000E+00 0. -1.
</event>
<event>
 7    1  0.2429906E-015  0.9000775E+02  0.7816164E-02  0.1186339E+00
        -11   -1    0    0    0    0  0.00000000000E+00  0.00000000000E+00  0.45593999997E+02  0.45594000000E+02  0.51100000000E-03 0. -1.
         11   -1    0    0    0    0 -0.00000000000E+00 -0.00000000000E+00 -0.45593999997E+02  0.45594000000E+02  0.51100000000E-03 0.  1.
    9900012    2    1    2    0    0  0.11800730891E+01 -0.20144900864E-01  0.37835460537E-02  0.90007748913E+02  0.90000010399E+02 0.  0.
        -12    1    1    2    0    0 -0.11800730891E+01  0.20144900864E-01 -0.37835460537E-02  0.11802510868E+01  0.00000000000E+00 0.  1.
         11    1    3    3    0    0  0.20019651352E+02  0.10043072439E+02  0.27952892906E+02  0.35819184334E+02  0.51100000000E-03 0. -1.
        -11    1    3    3    0    0  0.21588878176E+01  0.17500886724E+01  0.93668452718E+01  0.97704348714E+01  0.51100000000E-03 0.  1.
        -12    1    3    3    0    0 -0.20998466081E+02 -0.11813306012E+02 -0.37315954632E+02  0.44418129708E+02  0.00000000000E+00 0.  1.
</event>
<event>
 7    1  0.2429906E-015  0.9000775E+02  0.7816164E-02  0.1186339E+00
        -11   -1    0    0    0    0  0.00000000000E+00  0.00000000000E+00  0.45593999997E+02  0.45594000000E+02  0.51100000000E-03 0.  1.
         11   -1    0    0    0    0 -0.00000000000E+00 -0.00000000000E+00 -0.45593999997E+02  0.45594000000E+02  0.51100000000E-03 0. -1.
    9900012    2    1    2    0    0  0.15148424627E+00 -0.34946659870E+00 -0.11171036966E+01  0.90007747887E+02  0.90000009359E+02 0.  0.
        -12    1    1    2    0    0 -0.15148424627E+00  0.34946659870E+00  0.11171036966E+01  0.11802521127E+01  0.00000000000E+00 0.  1.
         11    1    3    3    0    0  0.10361174708E+02  0.33362158600E+02 -0.96953447504E+01  0.36254479418E+02  0.51100000000E-03 0. -1.
        -11    1    3    3    0    0  0.15840970360E+01  0.73644792967E+01  0.80352960010E+01  0.11014122789E+02  0.51100000000E-03 0.  1.
        -12    1    3    3    0    0 -0.11793787498E+02 -0.41076104496E+02  0.54294505280E+00  0.42739145680E+02  0.00000000000E+00 0.  1.
</event>
<event>
 7    1  0.2429906E-015  0.9000777E+02  0.7816164E-02  0.1186339E+00
        -11   -1    0    0    0    0  0.00000000000E+00  0.00000000000E+00  0.45593999997E+02  0.45594000000E+02  0.51100000000E-03 0. -1.
         11   -1    0    0    0    0 -0.00000000000E+00 -0.00000000000E+00 -0.45593999997E+02  0.45594000000E+02  0.51100000000E-03 0.  1.
    9900012    2    1    2    0    0  0.90857554437E+00  0.63232298896E+00  0.40939163368E+00  0.90007769772E+02  0.90000031533E+02 0.  0.
        -12    1    1    2    0    0 -0.90857554437E+00 -0.63232298896E+00 -0.40939163368E+00  0.11802302284E+01  0.00000000000E+00 0.  1.
         11    1    3    3    0    0  0.94747961049E+01 -0.42835239867E+01 -0.73360160143E+01  0.12725465422E+02  0.51100000000E-03 0. -1.
        -11    1    3    3    0    0  0.13699307781E+01  0.26447536263E+02 -0.25288736863E+02  0.36617879473E+02  0.51100000000E-03 0.  1.
         12    1    3    3    0    0 -0.99361513387E+01 -0.21531689287E+02  0.33034144511E+02  0.40664424877E+02  0.00000000000E+00 0. -1.
</event>
<event>
 7    1  0.2429906E-015  0.9000784E+02  0.7816164E-02  0.1186339E+00
        -11   -1    0    0    0    0  0.00000000000E+00  0.00000000000E+00  0.45593999997E+02  0.45594000000E+02  0.51100000000E-03 0.  1.
         11   -1    0    0    0    0 -0.00000000000E+00 -0.00000000000E+00 -0.45593999997E+02  0.45594000000E+02  0.51100000000E-03 0. -1.
    9900012    2    1    2    0    0  0.22922361788E+00  0.10004648072E+01 -0.58250077497E+00  0.90007838803E+02  0.90000101475E+02 0.  0.
        -12    1    1    2    0    0 -0.22922361788E+00 -0.10004648072E+01  0.58250077497E+00  0.11801611968E+01  0.00000000000E+00 0.  1.
         11    1    3    3    0    0 -0.30191517929E+01 -0.25356921648E+01 -0.36457278385E+02  0.36669853556E+02  0.51100000000E-03 0. -1.
        -11    1    3    3    0    0 -0.10926141517E+00 -0.73180527615E+00 -0.85502921850E+01  0.85822475919E+01  0.51100000000E-03 0.  1.
        -12    1    3    3    0    0  0.33576368259E+01  0.42679622482E+01  0.44425069795E+02  0.44755737656E+02  0.00000000000E+00 0.  1.
</event>
<event>
 7    1  0.2429906E-015  0.9000774E+02  0.7816164E-02  0.1186339E+00
        -11   -1    0    0    0    0  0.00000000000E+00  0.00000000000E+00  0.45593999997E+02  0.45594000000E+02  0.51100000000E-03 0.  1.
         11   -1    0    0    0    0 -0.00000000000E+00 -0.00000000000E+00 -0.45593999997E+02  0.45594000000E+02  0.51100000000E-03 0. -1.
    9900012    2    1    2    0    0  0.15735906241E-01 -0.81467738358E+00 -0.85385508508E+00  0.90007739281E+02  0.90000000640E+02 0.  0.
        -12    1    1    2    0    0 -0.15735906241E-01  0.81467738358E+00  0.85385508508E+00  0.11802607188E+01  0.00000000000E+00 0.  1.
         11    1    3    3    0    0 -0.58793969178E+01 -0.44218480689E+01  0.53881565629E+01  0.91187871928E+01  0.51100000000E-03 0. -1.
        -11    1    3    3    0    0  0.51666705270E+01 -0.38273611797E+02 -0.61585833472E+00  0.38625679620E+02  0.51100000000E-03 0.  1.
         12    1    3    3    0    0  0.72846229705E+00  0.41880782482E+02 -0.56261533133E+01  0.42263272469E+02  0.00000000000E+00 0. -1.
</event>
<event>
 7    1  0.2429906E-015  0.9000776E+02  0.7816164E-02  0.1186339E+00
        -11   -1    0    0    0    0  0.00000000000E+00  0.00000000000E+00  0.45593999997E+02  0.45594000000E+02  0.51100000000E-03 0.  1.
         11   -1    0    0    0    0 -0.00000000000E+00 -0.00000000000E+00 -0.45593999997E+02  0.45594000000E+02  0.51100000000E-03 0. -1.
    9900012    2    1    2    0    0  0.71431931908E+00  0.12479046349E+00 -0.93120229861E+00  0.90007761689E+02  0.90000023343E+02 0.  0.
        -12    1    1    2    0    0 -0.71431931908E+00 -0.12479046349E+00  0.93120229861E+00  0.11802383108E+01  0.00000000000E+00 0.  1.
         11    1    3    3    0    0 -0.12242155714E+02  0.31951491428E+02  0.16184717573E+02  0.37851198979E+02  0.51100000000E-03 0. -1.
        -11    1    3    3    0    0  0.39614531926E+01  0.11677810351E+01  0.84852339464E+01  0.94369496836E+01  0.51100000000E-03 0.  1.
        -12    1    3    3    0    0  0.89950218400E+01 -0.32994482000E+02 -0.25601153818E+02  0.42719613026E+02  0.00000000000E+00 0.  1.
</event>
<event>
 7    1  0.2429906E-015  0.9000784E+02  0.7816164E-02  0.1186339E+00
        -11   -1    0    0    0    0  0.00000000000E+00  0.00000000000E+00  0.45593999997E+02  0.45594000000E+02  0.51100000000E-03 0.  1.
         11   -1    0    0    0    0 -0.00000000000E+00 -0.00000000000E+00 -0.45593999997E+02  0.45594000000E+02  0.51100000000E-03 0. -1.
    9900012    2    1    2    0    0 -0.16385666719E+00  0.50928709421E+00 -0.10519248826E+01  0.90007843947E+02  0.90000106687E+02 0.  0.
        -12    1    1    2    0    0  0.16385666719E+00 -0.50928709421E+00  0.10519248826E+01  0.11801560534E+01  0.00000000000E+00 0.  1.
         11    1    3    3    0    0 -0.99312053436E+00 -0.12003143418E+02 -0.44020058982E+01  0.12823392550E+02  0.51100000000E-03 0. -1.
        -11    1    3    3    0    0  0.71715554176E+01 -0.30169427932E+02  0.11863873438E+02  0.33202064425E+02  0.51100000000E-03 0.  1.
         12    1    3    3    0    0 -0.63422915505E+01  0.42681858444E+02 -0.85137924228E+01  0.43982386972E+02  0.00000000000E+00 0. -1.
</event>
<event>
 7    1  0.2429906E-015  0.9000793E+02  0.7816164E-02  0.1186339E+00
        -11   -1    0    0    0    0  0.00000000000E+00  0.00000000000E+00  0.45593999997E+02  0.45594000000E+02  0.51100000000E-03 0. -1.
         11   -1    0    0    0    0 -0.00000000000E+00 -0.00000000000E+00 -0.45593999997E+02  0.45594000000E+02  0.51100000000E-03 0.  1.
    9900012    2    1    2    0    0 -0.31950606646E+00  0.11355047899E+01  0.33142804384E-01  0.90007934875E+02  0.90000198815E+02 0.  0.
        -12    1    1    2    0    0  0.31950606646E+00 -0.11355047899E+01 -0.33142804384E-01  0.11800651252E+01  0.00000000000E+00 0.  1.
         11    1    3    3    0    0  0.18666789901E+01  0.27498314680E+01  0.96422920754E+01  0.10199012711E+02  0.51100000000E-03 0. -1.
        -11    1    3    3    0    0 -0.97844029059E+01 -0.39431662581E+02 -0.38729737777E+01  0.40811646380E+02  0.51100000000E-03 0.  1.
         12    1    3    3    0    0  0.75982178493E+01  0.37817335903E+02 -0.57361754934E+01  0.38997275784E+02  0.00000000000E+00 0. -1.
</event>
<event>
 7    1  0.2429906E-015  0.9000792E+02  0.7816164E-02  0.1186339E+00
        -11   -1    0    0    0    0  0.00000000000E+00  0.00000000000E+00  0.45593999997E+02  0.45594000000E+02  0.51100000000E-03 0. -1.
         11   -1    0    0    0    0 -0.00000000000E+00 -0.00000000000E+00 -0.45593999997E+02  0.45594000000E+02  0.51100000000E-03 0.  1.
    9900012    2    1    2    0    0 -0.92556349234E+00 -0.15280634860E+00  0.71594867143E+00  0.90007915232E+02  0.90000178913E+02 0.  0.
        -12    1    1    2    0    0  0.92556349234E+00  0.15280634860E+00 -0.71594867143E+00  0.11800847676E+01  0.00000000000E+00 0.  1.
         11    1    3    3    0    0 -0.10870565094E+02 -0.11913517310E+02  0.33280092883E+02  0.36981964019E+02  0.51100000000E-03 0. -1.
        -11    1    3    3    0    0  0.61400011192E-01  0.43985524891E+01  0.88143666394E+01  0.98510960546E+01  0.51100000000E-03 0.  1.
        -12    1    3    3    0    0  0.98836015902E+01  0.73621584723E+01 -0.41378510851E+02  0.43174855159E+02  0.00000000000E+00 0.  1.
</event>
<event>
 7    1  0.2429906E-015  0.9000776E+02  0.7816164E-02  0.1186339E+00
        -11   -1    0    0    0    0  0.00000000000E+00  0.00000000000E+00  0.45593999997E+02  0.45594000000E+02  0.51100000000E-03 0.  1.
         11   -1    0    0    0    0 -0.00000000000E+00 -0.00000000000E+00 -0.45593999997E+02  0.45594000000E+02  0.51100000000E-03 0. -1.
    9900012    2    1    2    0    0  0.78648713543E+00  0.80528487091E+00 -0.35484691875E+00  0.90007761857E+02  0.90000023514E+02 0.  0.
        -12    1    1    2    0    0 -0.78648713543E+00 -0.80528487091E+00  0.35484691875E+00  0.11802381426E+01  0.00000000000E+00 0.  1.
         11    1    3    3    0    0 -0.68058982526E+01 -0.66795695814E+01  0.39739177227E+01  0.10330969129E+02  0.51100000000E-03 0. -1.
        -11    1    3    3    0    0  0.12533239830E+02  0.27866911021E+02  0.27799483837E+02  0.41309298376E+02  0.51100000000E-03 0.  1.
         12    1    3    3    0    0 -0.49408544420E+01 -0.20382056569E+02 -0.32128248478E+02  0.38367494352E+02  0.00000000000E+00 0. -1.
</event>
<event>
 7    1  0.2429906E-015  0.9000776E+02  0.7816164E-02  0.1186339E+00
        -11   -1    0    0    0    0  0.00000000000E+00  0.00000000000E+00  0.45593999997E+02  0.45594000000E+02  0.51100000000E-03 0. -1.
         11   -1    0    0    0    0 -0.00000000000E+00 -0.00000000000E+00 -0.45593999997E+02  0.45594000000E+02  0.51100000000E-03 0.  1.
    9900012    2    1    2    0    0  0.48862744686E+00  0.10417923067E+01  0.26244203145E+00  0.90007761121E+02  0.90000022768E+02 0.  0.
        -12    1    1    2    0    0 -0.48862744686E+00 -0.10417923067E+01 -0.26244203145E+00  0.11802388792E+01  0.00000000000E+00 0.  1.
         11    1    3    3    0    0 -0.33665949117E+01 -0.41541235377E+01  0.81013769077E+01  0.97068538532E+01  0.51100000000E-03 0. -1.
        -11    1    3    3    0    0 -0.25128154903E+02  0.30794680533E+02  0.37755243566E+01  0.39924818126E+02  0.51100000000E-03 0.  1.
         12    1    3    3    0    0  0.28983377261E+02 -0.25598764689E+02 -0.11614459233E+02  0.40376089141E+02  0.00000000000E+00 0. -1.
</event>
<event>
 7    1  0.2429906E-015  0.9000777E+02  0.7816164E-02  0.1186339E+00
        -11   -1    0    0    0    0  0.00000000000E+00  0.00000000000E+00  0.45593999997E+02  0.45594000000E+02  0.51100000000E-03 0.  1.
         11   -1    0    0    0    0 -0.00000000000E+00 -0.00000000000E+00 -0.45593999997E+02  0.45594000000E+02  0.51100000000E-03 0. -1.
    9900012    2    1    2    0    0 -0.46970521612E+00 -0.60639245767E+00 -0.89700448172E+00  0.90007766191E+02  0.90000027905E+02 0.  0.
        -12    1    1    2    0    0  0.46970521612E+00  0.60639245767E+00  0.89700448172E+00  0.11802338086E+01  0.00000000000E+00 0.  1.
         11    1    3    3    0    0 -0.29271634911E+02 -0.17671258557E+02  0.17535255050E+02  0.38426386238E+02  0.51100000000E-03 0. -1.
        -11    1    3    3    0    0 -0.70913576751E+01 -0.19094553116E+01 -0.47129714549E+01  0.87261373734E+01  0.51100000000E-03 0.  1.
        -12    1    3    3    0    0  0.35893287370E+02  0.18974321411E+02 -0.13719288076E+02  0.42855242580E+02  0.00000000000E+00 0.  1.
</event>
<event>
 7    1  0.2429906E-015  0.9000786E+02  0.7816164E-02  0.1186339E+00
        -11   -1    0    0    0    0  0.00000000000E+00  0.00000000000E+00  0.45593999997E+02  0.45594000000E+02  0.51100000000E-03 0.  1.
         11   -1    0    0    0    0 -0.00000000000E+00 -0.00000000000E+00 -0.45593999997E+02  0.45594000000E+02  0.51100000000E-03 0. -1.
    9900012    2    1    2    0    0  0.62028806901E+00 -0.43866870489E+00 -0.90307307700E+00  0.90007860812E+02  0.90000123774E+02 0.  0.
        -12    1    1    2    0    0 -0.62028806901E+00  0.43866870489E+00  0.90307307700E+00  0.11801391882E+01  0.00000000000E+00 0.  1.
         11    1    3    3    0    0  0.95806906976E+01  0.38980587664E+00  0.33712456158E+01  0.10163999219E+02  0.51100000000E-03 0. -1.
        -11    1    3    3    0    0  0.29955873211E+02  0.17976798036E+02  0.59256700097E+01  0.35434914601E+02  0.51100000000E-03 0.  1.
         12    1    3    3    0    0 -0.38916275839E+02 -0.18805272617E+02 -0.10199988702E+02  0.44408946992E+02  0.00000000000E+00 0. -1.
</event>
<event>
 7    1  0.2429906E-015  0.9000772E+02  0.7816164E-02  0.1186339E+00
        -11   -1    0    0    0    0  0.00000000000E+00  0.00000000000E+00  0.45593999997E+02  0.45594000000E+02  0.51100000000E-03 0.  1.
         11   -1    0    0    0    0 -0.00000000000E+00 -0.00000000000E+00 -0.45593999997E+02  0.45594000000E+02  0.51100000000E-03 0. -1.
    9900012    2    1    2    0    0 -0.88940944244E+00  0.45628445552E+00  0.62755167618E+00  0.90007717929E+02  0.89999979006E+02 0.  0.
        -12    1    1    2    0    0  0.88940944244E+00 -0.45628445552E+00 -0.62755167618E+00  0.11802820709E+01  0.00000000000E+00 0.  1.
         11    1    3    3    0    0 -0.98012083101E+00  0.36732191393E+02  0.12400327060E+02  0.38781214948E+02  0.51100000000E-03 0. -1.
        -11    1    3    3    0    0 -0.29514091955E+01 -0.45700696126E+00  0.91555210596E+01  0.96303290565E+01  0.51100000000E-03 0.  1.
        -12    1    3    3    0    0  0.30421205840E+01 -0.35818899976E+02 -0.20928296443E+02  0.41596173925E+02  0.00000000000E+00 0.  1.
</event>
<event>
 7    1  0.2429906E-015  0.9000794E+02  0.7816164E-02  0.1186339E+00
        -11   -1    0    0    0    0  0.00000000000E+00  0.00000000000E+00  0.45593999997E+02  0.45594000000E+02  0.51100000000E-03 0.  1.
         11   -1    0    0    0    0 -0.00000000000E+00 -0.00000000000E+00 -0.45593999997E+02  0.45594000000E+02  0.51100000000E-03 0. -1.
    9900012    2    1    2    0    0 -0.11498651993E+01 -0.19832185296E+00  0.17614620834E+00  0.90007936857E+02  0.90000200824E+02 0.  0.
        -12    1    1    2    0    0  0.11498651993E+01  0.19832185296E+00 -0.17614620834E+00  0.11800631426E+01  0.00000000000E+00 0.  1.
         11    1    3    3    0    0 -0.14336681146E+02  0.19339158541E+02  0.89047625828E+01  0.25667845181E+02  0.51100000000E-03 0. -1.
        -11    1    3    3    0    0 -0.10334470250E+02  0.16396554211E+02  0.34783269906E+01  0.19691293108E+02  0.51100000000E-03 0.  1.
         12    1    3    3    0    0  0.23521286197E+02 -0.35934034604E+02 -0.12206943365E+02  0.44648798568E+02  0.00000000000E+00 0. -1.
</event>
<event>
 7    1  0.2429906E-015  0.9000776E+02  0.7816164E-02  0.1186339E+00
        -11   -1    0    0    0    0  0.00000000000E+00  0.00000000000E+00  0.45593999997E+02  0.45594000000E+02  0.51100000000E-03 0. -1.
         11   -1    0    0    0    0 -0.00000000000E+00 -0.00000000000E+00 -0.45593999997E+02  0.45594000000E+02  0.51100000000E-03 0.  1.
    9900012    2    1    2    0    0 -0.31673723617E+00 -0.37491116676E+00  0.10733565598E+01  0.90007756312E+02  0.90000017895E+02 0.  0.
        -12    1    1    2    0    0  0.31673723617E+00  0.37491116676E+00 -0.10733565598E+01  0.11802436885E+01  0.00000000000E+00 0.  1.
         11    1    3    3    0    0 -0.30628070791E+02  0.59445724557E+01 -0.56198590153E+00  0.31204686995E+02  0.51100000000E-03 0. -1.
        -11    1    3    3    0    0  0.77609581182E+01 -0.12417224707E+02  0.22921296914E+02  0.27199371184E+02  0.51100000000E-03 0.  1.
        -12    1    3    3    0    0  0.22550375436E+02  0.60977410845E+01 -0.21285954453E+02  0.31603698132E+02  0.00000000000E+00 0.  1.
</event>
<event>
 7    1  0.2429906E-015  0.9000774E+02  0.7816164E-02  0.1186339E+00
        -11   -1    0    0    0    0  0.00000000000E+00  0.00000000000E+00  0.45593999997E+02  0.45594000000E+02  0.51100000000E-03 0.  1.
         11   -1    0    0    0    0 -0.00000000000E+00 -0.00000000000E+00 -0.45593999997E+02  0.45594000000E+02  0.51100000000E-03 0. -1.
    9900012    2    1    2    0    0  0.10271802388E+01 -0.22813336903E+00 -0.53466866230E+00  0.90007739581E+02  0.90000000944E+02 0.  0.
        -12    1    1    2    0    0 -0.10271802388E+01  0.22813336903E+00  0.53466866230E+00  0.11802604185E+01  0.00000000000E+00 0.  1.
         11    1    3    3    0    0  0.24318817454E+02 -0.32753930617E+02 -0.10594953050E+02  0.42148284468E+02  0.51100000000E-03 0. -1.
        -11    1    3    3    0    0 -0.49369029472E+00  0.17866896232E+00  0.82264852158E+01  0.82432221838E+01  0.51100000000E-03 0.  1.
        -12    1    3    3    0    0 -0.22797946921E+02  0.32347128285E+02  0.18337991721E+01  0.39616232929E+02  0.00000000000E+00 0.  1.
</event>
<event>
 7    1  0.2429906E-015  0.9000775E+02  0.7816164E-02  0.1186339E+00
        -11   -1    0    0    0    0  0.00000000000E+00  0.00000000000E+00  0.45593999997E+02  0.45594000000E+02  0.51100000000E-03 0.  1.
         11   -1    0    0    0    0 -0.00000000000E+00 -0.00000000000E+00 -0.45593999997E+02  0.45594000000E+02  0.51100000000E-03 0. -1.
    9900012    2    1    2    0    0  0.97968500094E+00  0.65364317914E+00 -0.77201268297E-01  0.90007749119E+02  0.90000010607E+02 0.  0.
        -12    1    1    2    0    0 -0.97968500094E+00 -0.65364317914E+00  0.77201268297E-01  0.11802508812E+01  0.00000000000E+00 0.  1.
         11    1    3    3    0    0 -0.12602970534E+02  0.16651540946E+01  0.16763523864E+01  0.12822548967E+02  0.51100000000E-03 0. -1.
        -11    1    3    3    0    0 -0.46641451811E+01  0.12923957124E+02  0.32878389731E+02  0.35633852297E+02  0.51100000000E-03 0.  1.
         12    1    3    3    0    0  0.18246800716E+02 -0.13935468039E+02 -0.34631943385E+02  0.41551347854E+02  0.00000000000E+00 0. -1.
</event>
<event>
 7    1  0.2429906E-015  0.9000765E+02  0.7816164E-02  0.1186339E+00
        -11   -1    0    0    0    0  0.00000000000E+00  0.00000000000E+00  0.45593999997E+02  0.45594000000E+02  0.51100000000E-03 0. -1.
         11   -1    0    0    0    0 -0.00000000000E+00 -0.00000000000E+00 -0.45593999997E+02  0.45594000000E+02  0.51100000000E-03 0.  1.
    9900012    2    1    2    0    0  0.67511280232E+00 -0.52162238465E-01  0.96681222114E+00  0.90007650871E+02  0.89999911063E+02 0.  0.
        -12    1    1    2    0    0 -0.67511280232E+00  0.52162238465E-01 -0.96681222114E+00  0.11803491288E+01  0.00000000000E+00 0.  1.
         11    1    3    3    0    0  0.83341866100E+01  0.88339759067E+01 -0.12605241145E+02  0.17503996725E+02  0.51100000000E-03 0. -1.
        -11    1    3    3    0    0  0.28914247753E+02  0.15882781401E+01 -0.62218306793E+01  0.29618702332E+02  0.51100000000E-03 0.  1.
        -12    1    3    3    0    0 -0.36573321561E+02 -0.10474416285E+02  0.19793884045E+02  0.42884951814E+02  0.00000000000E+00 0.  1.
</event>
<event>
 7    1  0.2429906E-015  0.9000783E+02  0.7816164E-02  0.1186339E+00
        -11   -1    0    0    0    0  0.00000000000E+00  0.00000000000E+00  0.45593999997E+02  0.45594000000E+02  0.51100000000E-03 0. -1.
         11   -1    0    0    0    0 -0.00000000000E+00 -0.00000000000E+00 -0.45593999997E+02  0.45594000000E+02  0.51100000000E-03 0.  1.
    9900012    2    1    2    0    0  0.93454253203E+00 -0.10961235967E+00  0.71232756678E+00  0.90007832564E+02  0.90000095154E+02 0.  0.
        -12    1    1    2    0    0 -0.93454253203E+00  0.10961235967E+00 -0.71232756678E+00  0.11801674356E+01  0.00000000000E+00 0.  1.
         11    1    3    3    0    0 -0.77057995983E+01 -0.10644634650E+02  0.34832045410E+00  0.13145680724E+02  0.51100000000E-03 0. -1.
        -11    1    3    3    0    0 -0.15955853951E+02 -0.21757804705E+01 -0.31056898981E+02  0.34983628607E+02  0.51100000000E-03 0.  1.
         12    1    3    3    0    0  0.24596196081E+02  0.12710802761E+02  0.31420906094E+02  0.41878523234E+02  0.00000000000E+00 0. -1.
</event>
<event>
 7    1  0.2429906E-015  0.9000863E+02  0.7816164E-02  0.1186337E+00
        -11   -1    0    0    0    0  0.00000000000E+00  0.00000000000E+00  0.45593999997E+02  0.45594000000E+02  0.51100000000E-03 0.  1.
         11   -1    0    0    0    0 -0.00000000000E+00 -0.00000000000E+00 -0.45593999997E+02  0.45594000000E+02  0.51100000000E-03 0. -1.
    9900012    2    1    2    0    0 -0.28458176811E+00 -0.11423572417E+01  0.70317596364E-01  0.90008630925E+02  0.90000904049E+02 0.  0.
        -12    1    1    2    0    0  0.28458176811E+00  0.11423572417E+01 -0.70317596364E-01  0.11793690749E+01  0.00000000000E+00 0.  1.
         11    1    3    3    0    0 -0.54103556555E+00 -0.39918724077E+02 -0.11514779357E+01  0.39938992891E+02  0.51100000000E-03 0. -1.
        -11    1    3    3    0    0  0.67633936529E+01 -0.30281291269E+00 -0.68581504827E+01  0.96368780042E+01  0.51100000000E-03 0.  1.
        -12    1    3    3    0    0 -0.65069398555E+01  0.39079179748E+02  0.80799460147E+01  0.40432760030E+02  0.00000000000E+00 0.  1.
</event>
<event>
 7    1  0.2429906E-015  0.9000764E+02  0.7816164E-02  0.1186339E+00
        -11   -1    0    0    0    0  0.00000000000E+00  0.00000000000E+00  0.45593999997E+02  0.45594000000E+02  0.51100000000E-03 0.  1.
         11   -1    0    0    0    0 -0.00000000000E+00 -0.00000000000E+00 -0.45593999997E+02  0.45594000000E+02  0.51100000000E-03 0. -1.
    9900012    2    1    2    0    0  0.24630442274E+00  0.11526783484E+01 -0.62610897581E-01  0.90007638459E+02  0.89999898486E+02 0.  0.
        -12    1    1    2    0    0 -0.24630442274E+00 -0.11526783484E+01  0.62610897581E-01  0.11803615412E+01  0.00000000000E+00 0.  1.
         11    1    3    3    0    0  0.90669042342E+01 -0.46662712658E+01  0.18447710689E+01  0.10362722638E+02  0.51100000000E-03 0. -1.
        -11    1    3    3    0    0  0.26472064170E+02 -0.21722656666E+02 -0.57088371134E+01  0.34716491982E+02  0.51100000000E-03 0.  1.
         12    1    3    3    0    0 -0.35292663982E+02  0.27541606280E+02  0.38014551469E+01  0.44928423839E+02  0.00000000000E+00 0. -1.
</event>
<event>
 7    1  0.2429906E-015  0.9000765E+02  0.7816164E-02  0.1186339E+00
        -11   -1    0    0    0    0  0.00000000000E+00  0.00000000000E+00  0.45593999997E+02  0.45594000000E+02  0.51100000000E-03 0.  1.
         11   -1    0    0    0    0 -0.00000000000E+00 -0.00000000000E+00 -0.45593999997E+02  0.45594000000E+02  0.51100000000E-03 0. -1.
    9900012    2    1    2    0    0 -0.46741248147E+00  0.19436951652E+00 -0.10662874564E+01  0.90007651375E+02  0.89999911573E+02 0.  0.
        -12    1    1    2    0    0  0.46741248147E+00 -0.19436951652E+00  0.10662874564E+01  0.11803486249E+01  0.00000000000E+00 0.  1.
         11    1    3    3    0    0 -0.26640723760E+02 -0.18868245001E+02 -0.21528638466E+02  0.39105256760E+02  0.51100000000E-03 0. -1.
        -11    1    3    3    0    0  0.11791498517E+01 -0.25470107885E+01 -0.72527366420E+01  0.77768790263E+01  0.51100000000E-03 0.  1.
        -12    1    3    3    0    0  0.24994161426E+02  0.21609625306E+02  0.27715087651E+02  0.43125515589E+02  0.00000000000E+00 0.  1.
</event>
<event>
 7    1  0.2429906E-015  0.9000802E+02  0.7816164E-02  0.1186338E+00
        -11   -1    0    0    0    0  0.00000000000E+00  0.00000000000E+00  0.45593999997E+02  0.45594000000E+02  0.51100000000E-03 0.  1.
         11   -1    0    0    0    0 -0.00000000000E+00 -0.00000000000E+00 -0.45593999997E+02  0.45594000000E+02  0.51100000000E-03 0. -1.
    9900012    2    1    2    0    0 -0.71381940751E+00  0.49889868460E+00 -0.79619128891E+00  0.90008017537E+02  0.90000282568E+02 0.  0.
        -12    1    1    2    0    0  0.71381940751E+00 -0.49889868460E+00  0.79619128891E+00  0.11799824628E+01  0.00000000000E+00 0.  1.
         11    1    3    3    0    0 -0.34868998574E+01  0.74572339508E+01 -0.84995412813E+01  0.11832624860E+02  0.51100000000E-03 0. -1.
        -11    1    3    3    0    0  0.29244424580E+01  0.39632631500E+01  0.41945333756E+02  0.42233527471E+02  0.51100000000E-03 0.  1.
         12    1    3    3    0    0 -0.15136200811E+00 -0.10921598416E+02 -0.34241983764E+02  0.35941865206E+02  0.00000000000E+00 0. -1.
</event>
<event>
 7    1  0.2429906E-015  0.9000774E+02  0.7816164E-02  0.1186339E+00
        -11   -1    0    0    0    0  0.00000000000E+00  0.00000000000E+00  0.45593999997E+02  0.45594000000E+02  0.51100000000E-03 0. -1.
         11   -1    0    0    0    0 -0.00000000000E+00 -0.00000000000E+00 -0.45593999997E+02  0.45594000000E+02  0.51100000000E-03 0.  1.
    9900012    2    1    2    0    0  0.82634281008E+00 -0.84269320177E+00  0.64376875705E-02  0.90007739132E+02  0.90000000489E+02 0.  0.
        -12    1    1    2    0    0 -0.82634281008E+00  0.84269320177E+00 -0.64376875705E-02  0.11802608677E+01  0.00000000000E+00 0.  1.
         11    1    3    3    0    0 -0.12674496016E+02  0.24524101324E+02 -0.22391485068E+02  0.35545084031E+02  0.51100000000E-03 0. -1.
        -11    1    3    3    0    0  0.15099250624E+00  0.10893167688E+02  0.64580957582E+01  0.12664552977E+02  0.51100000000E-03 0.  1.
        -12    1    3    3    0    0  0.13349846319E+02 -0.36259962214E+02  0.15939826997E+02  0.41798102124E+02  0.00000000000E+00 0.  1.
</event>
<event>
 7    1  0.2429906E-015  0.9000765E+02  0.7816164E-02  0.1186339E+00
        -11   -1    0    0    0    0  0.00000000000E+00  0.00000000000E+00  0.45593999997E+02  0.45594000000E+02  0.51100000000E-03 0.  1.
         11   -1    0    0    0    0 -0.00000000000E+00 -0.00000000000E+00 -0.45593999997E+02  0.45594000000E+02  0.51100000000E-03 0. -1.
    9900012    2    1    2    0    0 -0.91967580256E+00 -0.73203153727E+00 -0.10747583923E+00  0.90007650556E+02  0.89999910744E+02 0.  0.
        -12    1    1    2    0    0  0.91967580256E+00  0.73203153727E+00  0.10747583923E+00  0.11803494438E+01  0.00000000000E+00 0.  1.
         11    1    3    3    0    0  0.65249776285E+01 -0.36105494110E+02 -0.83242393026E+01  0.37622798915E+02  0.51100000000E-03 0. -1.
        -11    1    3    3    0    0 -0.12292892612E+02  0.91288468637E+01 -0.11544775789E+02  0.19176363110E+02  0.51100000000E-03 0.  1.
        -12    1    3    3    0    0  0.48482391810E+01  0.26244615709E+02  0.19761539253E+02  0.33208488531E+02  0.00000000000E+00 0.  1.
</event>
<event>
 7    1  0.2429906E-015  0.9000774E+02  0.7816164E-02  0.1186339E+00
        -11   -1    0    0    0    0  0.00000000000E+00  0.00000000000E+00  0.45593999997E+02  0.45594000000E+02  0.51100000000E-03 0. -1.
         11   -1    0    0    0    0 -0.00000000000E+00 -0.00000000000E+00 -0.45593999997E+02  0.45594000000E+02  0.51100000000E-03 0.  1.
    9900012    2    1    2    0    0 -0.27770804797E+00 -0.10231913339E+01  0.51862379207E+00  0.90007740324E+02  0.90000001696E+02 0.  0.
        -12    1    1    2    0    0  0.27770804797E+00  0.10231913339E+01 -0.51862379207E+00  0.11802596762E+01  0.00000000000E+00 0.  1.
         11    1    3    3    0    0 -0.34103063432E+01 -0.32356759649E+01  0.94385593421E+01  0.10544486285E+02  0.51100000000E-03 0. -1.
        -11    1    3    3    0    0 -0.26016310035E+02  0.25383068451E+02 -0.18823511643E+02  0.40932543809E+02  0.51100000000E-03 0.  1.
         12    1    3    3    0    0  0.29148908330E+02 -0.23170583820E+02  0.99035760933E+01  0.38530710230E+02  0.00000000000E+00 0. -1.
</event>
<event>
 7    1  0.2429906E-015  0.9000771E+02  0.7816164E-02  0.1186339E+00
        -11   -1    0    0    0    0  0.00000000000E+00  0.00000000000E+00  0.45593999997E+02  0.45594000000E+02  0.51100000000E-03 0.  1.
         11   -1    0    0    0    0 -0.00000000000E+00 -0.00000000000E+00 -0.45593999997E+02  0.45594000000E+02  0.51100000000E-03 0. -1.
    9900012    2    1    2    0    0 -0.99424087186E+00 -0.40247484080E+00  0.49251757456E+00  0.90007714242E+02  0.89999975270E+02 0.  0.
        -12    1    1    2    0    0  0.99424087186E+00  0.40247484080E+00 -0.49251757456E+00  0.11802857578E+01  0.00000000000E+00 0.  1.
         11    1    3    3    0    0  0.22186237020E+02  0.26273832235E+02 -0.16575759723E+02  0.38174588198E+02  0.51100000000E-03 0. -1.
        -11    1    3    3    0    0  0.72257017150E+01 -0.14440891235E+02  0.63132462213E+01  0.17338027081E+02  0.51100000000E-03 0.  1.
        -12    1    3    3    0    0 -0.30406179607E+02 -0.12235415840E+02  0.10755031076E+02  0.34495098964E+02  0.00000000000E+00 0.  1.
</event>
<event>
 7    1  0.2429906E-015  0.9000754E+02  0.7816164E-02  0.1186339E+00
        -11   -1    0    0    0    0  0.00000000000E+00  0.00000000000E+00  0.45593999997E+02  0.45594000000E+02  0.51100000000E-03 0. -1.
         11   -1    0    0    0    0 -0.00000000000E+00 -0.00000000000E+00 -0.45593999997E+02  0.45594000000E+02  0.51100000000E-03 0.  1.
    9900012    2    1    2    0    0 -0.33724904981E-01  0.36604442808E+00  0.11217675198E+01  0.90007538963E+02  0.89999797677E+02 0.  0.
        -12    1    1    2    0    0  0.33724904981E-01 -0.36604442808E+00 -0.11217675198E+01  0.11804610374E+01  0.00000000000E+00 0.  1.
         11    1    3    3    0    0 -0.25509762148E+01 -0.65809707391E+01  0.45548292466E+01  0.84001860244E+01  0.51100000000E-03 0. -1.
        -11    1    3    3    0    0  0.13545583068E+02 -0.35322452014E+02 -0.69202925285E+00  0.37836983781E+02  0.51100000000E-03 0.  1.
         12    1    3    3    0    0 -0.11028331758E+02  0.42269467181E+02 -0.27410324740E+01  0.43770369157E+02  0.00000000000E+00 0. -1.
</event>
<event>
 7    1  0.3344135E-015  0.9000746E+02  0.7816164E-02  0.1186340E+00
        -11   -1    0    0    0    0  0.00000000000E+00  0.00000000000E+00  0.45593999997E+02  0.45594000000E+02  0.51100000000E-03 0.  1.
         11   -1    0    0    0    0 -0.00000000000E+00 -0.00000000000E+00 -0.45593999997E+02  0.45594000000E+02  0.51100000000E-03 0. -1.
    9900012    2    1    2    0    0  0.55648957423E+00  0.10113065670E+01 -0.24747199639E+00  0.90007464525E+02  0.89999722256E+02 0.  0.
        -12    1    1    2    0    0 -0.55648957423E+00 -0.10113065670E+01  0.24747199639E+00  0.11805354750E+01  0.00000000000E+00 0.  1.
         11    1    3    3    0    0 -0.97046637000E+01 -0.37400255234E+02  0.52506460946E+01  0.38993959452E+02  0.51100000000E-03 0. -1.
        -11    1    3    3    0    0 -0.83669274439E+01  0.95104031065E+00 -0.35298046288E+01  0.91306885558E+01  0.51100000000E-03 0.  1.
        -12    1    3    3    0    0  0.18628080718E+02  0.37460521490E+02 -0.19683134622E+01  0.41882816517E+02  0.00000000000E+00 0.  1.
</event>
<event>
 7    1  0.2429906E-015  0.9000775E+02  0.7816164E-02  0.1186339E+00
        -11   -1    0    0    0    0  0.00000000000E+00  0.00000000000E+00  0.45593999997E+02  0.45594000000E+02  0.51100000000E-03 0.  1.
         11   -1    0    0    0    0 -0.00000000000E+00 -0.00000000000E+00 -0.45593999997E+02  0.45594000000E+02  0.51100000000E-03 0. -1.
    9900012    2    1    2    0    0 -0.92911797893E+00  0.19225552003E+00  0.70196800298E+00  0.90007753635E+02  0.90000015183E+02 0.  0.
        -12    1    1    2    0    0  0.92911797893E+00 -0.19225552003E+00 -0.70196800298E+00  0.11802463645E+01  0.00000000000E+00 0.  1.
         11    1    3    3    0    0 -0.13117649399E+02  0.15405016157E+02  0.57187530037E+01  0.21025969294E+02  0.51100000000E-03 0. -1.
        -11    1    3    3    0    0  0.19428651958E+02  0.19711095466E+02  0.11129768205E+02  0.29830714740E+02  0.51100000000E-03 0.  1.
         12    1    3    3    0    0 -0.72401205375E+01 -0.34923856103E+02 -0.16146553205E+02  0.39151069601E+02  0.00000000000E+00 0. -1.
</event>
<event>
 7    1  0.2429906E-015  0.9000770E+02  0.7816164E-02  0.1186339E+00
        -11   -1    0    0    0    0  0.00000000000E+00  0.00000000000E+00  0.45593999997E+02  0.45594000000E+02  0.51100000000E-03 0. -1.
         11   -1    0    0    0    0 -0.00000000000E+00 -0.00000000000E+00 -0.45593999997E+02  0.45594000000E+02  0.51100000000E-03 0.  1.
    9900012    2    1    2    0    0 -0.63879152046E+00  0.98849185264E+00  0.89132099139E-01  0.90007696954E+02  0.89999957754E+02 0.  0.
        -12    1    1    2    0    0  0.63879152046E+00 -0.98849185264E+00 -0.89132099139E-01  0.11803030460E+01  0.00000000000E+00 0.  1.
         11    1    3    3    0    0 -0.40378700236E+01 -0.68660254638E+01  0.65632858643E+01  0.10321018438E+02  0.51100000000E-03 0. -1.
        -11    1    3    3    0    0 -0.26112818352E+02 -0.20457798476E+02  0.11369751900E+02  0.35066680187E+02  0.51100000000E-03 0.  1.
         12    1    3    3    0    0  0.29511896855E+02  0.28312315792E+02 -0.17843905665E+02  0.44619998329E+02  0.00000000000E+00 0. -1.
</event>
<event>
 7    1  0.2429906E-015  0.9000758E+02  0.7816164E-02  0.1186339E+00
        -11   -1    0    0    0    0  0.00000000000E+00  0.00000000000E+00  0.45593999997E+02  0.45594000000E+02  0.51100000000E-03 0. -1.
         11   -1    0    0    0    0 -0.00000000000E+00 -0.00000000000E+00 -0.45593999997E+02  0.45594000000E+02  0.51100000000E-03 0.  1.
    9900012    2    1    2    0    0 -0.43254763796E+00  0.50717266358E+00  0.97420596058E+00  0.90007576846E+02  0.89999836060E+02 0.  0.
        -12    1    1    2    0    0  0.43254763796E+00 -0.50717266358E+00 -0.97420596058E+00  0.11804231544E+01  0.00000000000E+00 0.  1.
         11    1    3    3    0    0  0.43043885361E+01  0.32198736120E+01  0.79869424344E+01  0.96273878315E+01  0.51100000000E-03 0. -1.
        -11    1    3    3    0    0  0.13757331617E+01  0.37944277963E+02  0.29268279123E+01  0.38081848612E+02  0.51100000000E-03 0.  1.
         12    1    3    3    0    0 -0.61126693358E+01 -0.40656978911E+02 -0.99395643860E+01  0.42298340402E+02  0.00000000000E+00 0. -1.
</event>
<event>
 7    1  0.2429906E-015  0.9000756E+02  0.7816164E-02  0.1186339E+00
        -11   -1    0    0    0    0  0.00000000000E+00  0.00000000000E+00  0.45593999997E+02  0.45594000000E+02  0.51100000000E-03 0. -1.
         11   -1    0    0    0    0 -0.00000000000E+00 -0.00000000000E+00 -0.45593999997E+02  0.45594000000E+02  0.51100000000E-03 0.  1.
    9900012    2    1    2    0    0 -0.18817628530E+00  0.57619306438E+00  0.10129321922E+01  0.90007559240E+02  0.89999818222E+02 0.  0.
        -12    1    1    2    0    0  0.18817628530E+00 -0.57619306438E+00 -0.10129321922E+01  0.11804407599E+01  0.00000000000E+00 0.  1.
         11    1    3    3    0    0 -0.55294941096E+01 -0.52446972530E+01  0.17925868883E+00  0.76232728091E+01  0.51100000000E-03 0. -1.
        -11    1    3    3    0    0 -0.24151531743E+02  0.14595736794E+02 -0.28331904931E+02  0.39987858849E+02  0.51100000000E-03 0.  1.
         12    1    3    3    0    0  0.29492849567E+02 -0.87748464768E+01  0.29165578434E+02  0.42396427582E+02  0.00000000000E+00 0. -1.
</event>
<event>
 7    1  0.2429906E-015  0.9000766E+02  0.7816164E-02  0.1186339E+00
        -11   -1    0    0    0    0  0.00000000000E+00  0.00000000000E+00  0.45593999997E+02  0.45594000000E+02  0.51100000000E-03 0. -1.
         11   -1    0    0    0    0 -0.00000000000E+00 -0.00000000000E+00 -0.45593999997E+02  0.45594000000E+02  0.51100000000E-03 0.  1.
    9900012    2    1    2    0    0  0.71431738831E+00 -0.59619094216E+00  0.72629384565E+00  0.90007662878E+02  0.89999923228E+02 0.  0.
        -12    1    1    2    0    0 -0.71431738831E+00  0.59619094216E+00 -0.72629384565E+00  0.11803371218E+01  0.00000000000E+00 0.  1.
         11    1    3    3    0    0 -0.13428995033E+02 -0.19067332738E+02 -0.23706306081E+01  0.23441863729E+02  0.51100000000E-03 0. -1.
        -11    1    3    3    0    0 -0.63250376132E+01  0.27747489812E+02  0.22965516205E+02  0.36569717342E+02  0.51100000000E-03 0.  1.
         12    1    3    3    0    0  0.20468350034E+02 -0.92763480155E+01 -0.19868591751E+02  0.29996081807E+02  0.00000000000E+00 0. -1.
</event>
<event>
 7    1  0.2429906E-015  0.9000766E+02  0.7816164E-02  0.1186339E+00
        -11   -1    0    0    0    0  0.00000000000E+00  0.00000000000E+00  0.45593999997E+02  0.45594000000E+02  0.51100000000E-03 0.  1.
         11   -1    0    0    0    0 -0.00000000000E+00 -0.00000000000E+00 -0.45593999997E+02  0.45594000000E+02  0.51100000000E-03 0. -1.
    9900012    2    1    2    0    0 -0.11202236462E+01  0.30003041317E+00  0.21971173312E+00  0.90007664238E+02  0.89999924605E+02 0.  0.
        -12    1    1    2    0    0  0.11202236462E+01 -0.30003041317E+00 -0.21971173312E+00  0.11803357624E+01  0.00000000000E+00 0.  1.
         11    1    3    3    0    0  0.88728242993E+01 -0.31359067525E+00  0.16626509946E+01  0.90327049520E+01  0.51100000000E-03 0. -1.
        -11    1    3    3    0    0  0.56520764402E+01  0.38641228631E+02  0.49354000783E+01  0.39363037134E+02  0.51100000000E-03 0.  1.
         12    1    3    3    0    0 -0.15645124386E+02 -0.38027607542E+02 -0.63783393398E+01  0.41611922152E+02  0.00000000000E+00 0. -1.
</event>
<event>
 7    1  0.2429906E-015  0.9000777E+02  0.7816164E-02  0.1186339E+00
        -11   -1    0    0    0    0  0.00000000000E+00  0.00000000000E+00  0.45593999997E+02  0.45594000000E+02  0.51100000000E-03 0.  1.
         11   -1    0    0    0    0 -0.00000000000E+00 -0.00000000000E+00 -0.45593999997E+02  0.45594000000E+02  0.51100000000E-03 0. -1.
    9900012    2    1    2    0    0  0.38443231208E+00 -0.99043302292E+00  0.51400834163E+00  0.90007766824E+02  0.90000028546E+02 0.  0.
        -12    1    1    2    0    0 -0.38443231208E+00  0.99043302292E+00 -0.51400834163E+00  0.11802331764E+01  0.00000000000E+00 0.  1.
         11    1    3    3    0    0  0.20085639636E+01  0.47466729719E+01  0.12250909837E+02  0.13290975344E+02  0.51100000000E-03 0. -1.
        -11    1    3    3    0    0  0.32895841472E+02 -0.13668039782E+02  0.75106948889E+01  0.36405524795E+02  0.51100000000E-03 0.  1.
         12    1    3    3    0    0 -0.34519973123E+02  0.79309337870E+01 -0.19247596384E+02  0.40311266685E+02  0.00000000000E+00 0. -1.
</event>
<event>
 7    1  0.2429906E-015  0.9000774E+02  0.7816164E-02  0.1186339E+00
        -11   -1    0    0    0    0  0.00000000000E+00  0.00000000000E+00  0.45593999997E+02  0.45594000000E+02  0.51100000000E-03 0. -1.
         11   -1    0    0    0    0 -0.00000000000E+00 -0.00000000000E+00 -0.45593999997E+02  0.45594000000E+02  0.51100000000E-03 0.  1.
    9900012    2    1    2    0    0  0.86360427880E+00 -0.51381508547E+00  0.61902106746E+00  0.90007743513E+02  0.90000004928E+02 0.  0.
        -12    1    1    2    0    0 -0.86360427880E+00  0.51381508547E+00 -0.61902106746E+00  0.11802564867E+01  0.00000000000E+00 0.  1.
         11    1    3    3    0    0  0.21263413772E+02  0.23316722948E+02  0.30103926227E+02  0.43612483405E+02  0.51100000000E-03 0. -1.
        -11    1    3    3    0    0 -0.43339339252E+01 -0.10930752774E+02 -0.18165260876E+01  0.11898071556E+02  0.51100000000E-03 0.  1.
        -12    1    3    3    0    0 -0.16065875568E+02 -0.12899785259E+02 -0.27668379072E+02  0.34497188552E+02  0.00000000000E+00 0.  1.
</event>
<event>
 7    1  0.2429906E-015  0.9000763E+02  0.7816164E-02  0.1186339E+00
        -11   -1    0    0    0    0  0.00000000000E+00  0.00000000000E+00  0.45593999997E+02  0.45594000000E+02  0.51100000000E-03 0.  1.
         11   -1    0    0    0    0 -0.00000000000E+00 -0.00000000000E+00 -0.45593999997E+02  0.45594000000E+02  0.51100000000E-03 0. -1.
    9900012    2    1    2    0    0  0.97321930142E+00 -0.32008454563E+00 -0.58621888846E+00  0.90007634586E+02  0.89999894563E+02 0.  0.
        -12    1    1    2    0    0 -0.97321930142E+00  0.32008454563E+00  0.58621888846E+00  0.11803654138E+01  0.00000000000E+00 0.  1.
         11    1    3    3    0    0  0.19680792658E+02 -0.20048453714E+02 -0.84605831916E+01  0.29340340219E+02  0.51100000000E-03 0. -1.
        -11    1    3    3    0    0  0.15944057137E+02 -0.58348084731E+01  0.54119143869E+00  0.16986784167E+02  0.51100000000E-03 0.  1.
         12    1    3    3    0    0 -0.34651630494E+02  0.25563177642E+02  0.73331728645E+01  0.43680510200E+02  0.00000000000E+00 0. -1.
</event>
<event>
 7    1  0.2429906E-015  0.9000769E+02  0.7816164E-02  0.1186339E+00
        -11   -1    0    0    0    0  0.00000000000E+00  0.00000000000E+00  0.45593999997E+02  0.45594000000E+02  0.51100000000E-03 0. -1.
         11   -1    0    0    0    0 -0.00000000000E+00 -0.00000000000E+00 -0.45593999997E+02  0.45594000000E+02  0.51100000000E-03 0.  1.
    9900012    2    1    2    0    0 -0.63593132379E+00 -0.63496763783E+00  0.76521168196E+00  0.90007685861E+02  0.89999946514E+02 0.  0.
        -12    1    1    2    0    0  0.63593132379E+00  0.63496763783E+00 -0.76521168196E+00  0.11803141395E+01  0.00000000000E+00 0.  1.
         11    1    3    3    0    0 -0.37021401813E+01 -0.36173602710E+01  0.25303051137E+01  0.57613871144E+01  0.51100000000E-03 0. -1.
        -11    1    3    3    0    0 -0.36792172931E+02 -0.48611824969E+01  0.15355329309E+02  0.40163182427E+02  0.51100000000E-03 0.  1.
         12    1    3    3    0    0  0.39858381788E+02  0.78435751301E+01 -0.17120422740E+02  0.44083116319E+02  0.00000000000E+00 0. -1.
</event>
<event>
 7    1  0.2429906E-015  0.9000772E+02  0.7816164E-02  0.1186339E+00
        -11   -1    0    0    0    0  0.00000000000E+00  0.00000000000E+00  0.45593999997E+02  0.45594000000E+02  0.51100000000E-03 0.  1.
         11   -1    0    0    0    0 -0.00000000000E+00 -0.00000000000E+00 -0.45593999997E+02  0.45594000000E+02  0.51100000000E-03 0. -1.
    9900012    2    1    2    0    0  0.54150156892E+00  0.42094359824E+00 -0.96054935709E+00  0.90007715064E+02  0.89999976103E+02 0.  0.
        -12    1    1    2    0    0 -0.54150156892E+00 -0.42094359824E+00  0.96054935709E+00  0.11802849357E+01  0.00000000000E+00 0.  1.
         11    1    3    3    0    0  0.35015006391E+01 -0.58164941451E+01  0.13579703330E+01  0.69235969375E+01  0.51100000000E-03 0. -1.
        -11    1    3    3    0    0 -0.38711952939E+02  0.38484617863E+01  0.16910057235E+02  0.42419052258E+02  0.51100000000E-03 0.  1.
         12    1    3    3    0    0  0.35751953869E+02  0.23889759570E+01 -0.19228576925E+02  0.40665065869E+02  0.00000000000E+00 0. -1.
</event>
<event>
 7    1  0.2429906E-015  0.9000688E+02  0.7816164E-02  0.1186341E+00
        -11   -1    0    0    0    0  0.00000000000E+00  0.00000000000E+00  0.45593999997E+02  0.45594000000E+02  0.51100000000E-03 0. -1.
         11   -1    0    0    0    0 -0.00000000000E+00 -0.00000000000E+00 -0.45593999997E+02  0.45594000000E+02  0.51100000000E-03 0.  1.
    9900012    2    1    2    0    0  0.59836181213E-01  0.70579502243E+00  0.94515193580E+00  0.90006882240E+02  0.89999132281E+02 0.  0.
        -12    1    1    2    0    0 -0.59836181213E-01 -0.70579502243E+00 -0.94515193580E+00  0.11811177604E+01  0.00000000000E+00 0.  1.
         11    1    3    3    0    0 -0.35872309379E+01 -0.60994939515E+01 -0.69662044462E+01  0.99297561356E+01  0.51100000000E-03 0. -1.
        -11    1    3    3    0    0 -0.17936032340E+02 -0.21747193381E+02 -0.20104585493E+02  0.34624211676E+02  0.51100000000E-03 0.  1.
         12    1    3    3    0    0  0.21583099459E+02  0.28552482355E+02  0.28015941875E+02  0.45452914428E+02  0.00000000000E+00 0. -1.
</event>
<event>
 7    1  0.2429906E-015  0.9000776E+02  0.7816164E-02  0.1186339E+00
        -11   -1    0    0    0    0  0.00000000000E+00  0.00000000000E+00  0.45593999997E+02  0.45594000000E+02  0.51100000000E-03 0.  1.
         11   -1    0    0    0    0 -0.00000000000E+00 -0.00000000000E+00 -0.45593999997E+02  0.45594000000E+02  0.51100000000E-03 0. -1.
    9900012    2    1    2    0    0  0.37624717917E+00  0.71639143956E+00 -0.85918469484E+00  0.90007755545E+02  0.90000017118E+02 0.  0.
        -12    1    1    2    0    0 -0.37624717917E+00 -0.71639143956E+00  0.85918469484E+00  0.11802444553E+01  0.00000000000E+00 0.  1.
         11    1    3    3    0    0  0.61011075223E+01 -0.76065421232E+01 -0.60060079360E+01  0.11452297920E+02  0.51100000000E-03 0. -1.
        -11    1    3    3    0    0  0.73205617394E+01 -0.33263875089E+02  0.76147311965E+01  0.34900718353E+02  0.51100000000E-03 0.  1.
         12    1    3    3    0    0 -0.13045422082E+02  0.41586808652E+02 -0.24679079553E+01  0.43654739271E+02  0.00000000000E+00 0. -1.
</event>
<event>
 7    1  0.2429906E-015  0.9000686E+02  0.7816164E-02  0.1186341E+00
        -11   -1    0    0    0    0  0.00000000000E+00  0.00000000000E+00  0.45593999997E+02  0.45594000000E+02  0.51100000000E-03 0. -1.
         11   -1    0    0    0    0 -0.00000000000E+00 -0.00000000000E+00 -0.45593999997E+02  0.45594000000E+02  0.51100000000E-03 0.  1.
    9900012    2    1    2    0    0  0.62065406990E+00  0.10036191012E+01 -0.51371935909E-01  0.90006855703E+02  0.89999105394E+02 0.  0.
        -12    1    1    2    0    0 -0.62065406990E+00 -0.10036191012E+01  0.51371935909E-01  0.11811442971E+01  0.00000000000E+00 0.  1.
         11    1    3    3    0    0  0.58726630250E+01 -0.70968867188E+01 -0.36468384548E+01  0.99072399326E+01  0.51100000000E-03 0. -1.
        -11    1    3    3    0    0 -0.90862090485E+01 -0.33359242183E+02 -0.10513073669E+02  0.36137555979E+02  0.51100000000E-03 0.  1.
         12    1    3    3    0    0  0.38342000934E+01  0.41459748003E+02  0.14108540188E+02  0.43962059791E+02  0.00000000000E+00 0. -1.
</event>
<event>
 7    1  0.2429906E-015  0.9000764E+02  0.7816164E-02  0.1186339E+00
        -11   -1    0    0    0    0  0.00000000000E+00  0.00000000000E+00  0.45593999997E+02  0.45594000000E+02  0.51100000000E-03 0.  1.
         11   -1    0    0    0    0 -0.00000000000E+00 -0.00000000000E+00 -0.45593999997E+02  0.45594000000E+02  0.51100000000E-03 0. -1.
    9900012    2    1    2    0    0  0.81441859776E+00  0.61670488263E+00 -0.59131219432E+00  0.90007638752E+02  0.89999898783E+02 0.  0.
        -12    1    1    2    0    0 -0.81441859776E+00 -0.61670488263E+00  0.59131219432E+00  0.11803612480E+01  0.00000000000E+00 0.  1.
         11    1    3    3    0    0 -0.65766066026E+01 -0.44879317401E+01  0.33135523796E+01  0.86239732921E+01  0.51100000000E-03 0. -1.
        -11    1    3    3    0    0 -0.53150893593E+01  0.10338200645E+02  0.36710283386E+02  0.38506797764E+02  0.51100000000E-03 0.  1.
         12    1    3    3    0    0  0.12706114560E+02 -0.52335640225E+01 -0.40615147960E+02  0.42876867696E+02  0.00000000000E+00 0. -1.
</event>
<event>
 7    1  0.2429906E-015  0.9000774E+02  0.7816164E-02  0.1186339E+00
        -11   -1    0    0    0    0  0.00000000000E+00  0.00000000000E+00  0.45593999997E+02  0.45594000000E+02  0.51100000000E-03 0. -1.
         11   -1    0    0    0    0 -0.00000000000E+00 -0.00000000000E+00 -0.45593999997E+02  0.45594000000E+02  0.51100000000E-03 0.  1.
    9900012    2    1    2    0    0  0.38580592967E+00  0.10595635288E+01  0.34854312417E+00  0.90007744351E+02  0.90000005777E+02 0.  0.
        -12    1    1    2    0    0 -0.38580592967E+00 -0.10595635288E+01 -0.34854312417E+00  0.11802556487E+01  0.00000000000E+00 0.  1.
         11    1    3    3    0    0 -0.15522608046E+01  0.67547155651E+01  0.58379523245E+01  0.90618642439E+01  0.51100000000E-03 0. -1.
        -11    1    3    3    0    0  0.38649388346E+02  0.10783332708E+02  0.12521017235E+01  0.40145027622E+02  0.51100000000E-03 0.  1.
         12    1    3    3    0    0 -0.36711321612E+02 -0.16478484744E+02 -0.67415109239E+01  0.40800852485E+02  0.00000000000E+00 0. -1.
</event>
<event>
 7    1  0.2429906E-015  0.9000791E+02  0.7816164E-02  0.1186339E+00
        -11   -1    0    0    0    0  0.00000000000E+00  0.00000000000E+00  0.45593999997E+02  0.45594000000E+02  0.51100000000E-03 0.  1.
         11   -1    0    0    0    0 -0.00000000000E+00 -0.00000000000E+00 -0.45593999997E+02  0.45594000000E+02  0.51100000000E-03 0. -1.
    9900012    2    1    2    0    0  0.90226950756E+00  0.70271685581E+00 -0.29103224416E+00  0.90007914829E+02  0.90000178505E+02 0.  0.
        -12    1    1    2    0    0 -0.90226950756E+00 -0.70271685581E+00  0.29103224416E+00  0.11800851710E+01  0.00000000000E+00 0.  1.
         11    1    3    3    0    0  0.55080615416E+01 -0.74916644046E+01  0.46329919478E+01  0.10388859040E+02  0.51100000000E-03 0. -1.
        -11    1    3    3    0    0  0.15208706718E+02 -0.24296753795E+02 -0.23690567252E+02  0.37187094293E+02  0.51100000000E-03 0.  1.
         12    1    3    3    0    0 -0.19814498752E+02  0.32491135055E+02  0.18766543060E+02  0.42431961496E+02  0.00000000000E+00 0. -1.
</event>
<event>
 7    1  0.2429906E-015  0.9000771E+02  0.7816164E-02  0.1186339E+00
        -11   -1    0    0    0    0  0.00000000000E+00  0.00000000000E+00  0.45593999997E+02  0.45594000000E+02  0.51100000000E-03 0. -1.
         11   -1    0    0    0    0 -0.00000000000E+00 -0.00000000000E+00 -0.45593999997E+02  0.45594000000E+02  0.51100000000E-03 0.  1.
    9900012    2    1    2    0    0  0.25059683803E+00  0.72468626346E+00  0.89727764003E+00  0.90007713544E+02  0.89999974562E+02 0.  0.
        -12    1    1    2    0    0 -0.25059683803E+00 -0.72468626346E+00 -0.89727764003E+00  0.11802864563E+01  0.00000000000E+00 0.  1.
         11    1    3    3    0    0 -0.45499672155E+00  0.62837910696E+01  0.15028571207E+02  0.16295735793E+02  0.51100000000E-03 0. -1.
        -11    1    3    3    0    0 -0.33714035212E+02 -0.14594837613E+02 -0.80730620117E+01  0.37614090255E+02  0.51100000000E-03 0.  1.
         12    1    3    3    0    0  0.34419628771E+02  0.90357328064E+01 -0.60582315558E+01  0.36097887496E+02  0.00000000000E+00 0. -1.
</event>
<event>
 7    1  0.2429906E-015  0.9000771E+02  0.7816164E-02  0.1186339E+00
        -11   -1    0    0    0    0  0.00000000000E+00  0.00000000000E+00  0.45593999997E+02  0.45594000000E+02  0.51100000000E-03 0.  1.
         11   -1    0    0    0    0 -0.00000000000E+00 -0.00000000000E+00 -0.45593999997E+02  0.45594000000E+02  0.51100000000E-03 0. -1.
    9900012    2    1    2    0    0 -0.14802799416E+00 -0.11243606630E+01 -0.32708955320E+00  0.90007709034E+02  0.89999969994E+02 0.  0.
        -12    1    1    2    0    0  0.14802799416E+00  0.11243606630E+01  0.32708955320E+00  0.11802909655E+01  0.00000000000E+00 0.  1.
         11    1    3    3    0    0 -0.15092865783E+02 -0.89866322055E+01 -0.36929654971E+02  0.40894419821E+02  0.51100000000E-03 0. -1.
        -11    1    3    3    0    0 -0.52493585780E+01  0.94725968702E+01  0.59089969852E+01  0.12337021625E+02  0.51100000000E-03 0.  1.
        -12    1    3    3    0    0  0.20194196367E+02 -0.16103253277E+01  0.30693568433E+02  0.36776267588E+02  0.00000000000E+00 0.  1.
</event>
<event>
 7    1  0.2429906E-015  0.9000776E+02  0.7816164E-02  0.1186339E+00
        -11   -1    0    0    0    0  0.00000000000E+00  0.00000000000E+00  0.45593999997E+02  0.45594000000E+02  0.51100000000E-03 0.  1.
         11   -1    0    0    0    0 -0.00000000000E+00 -0.00000000000E+00 -0.45593999997E+02  0.45594000000E+02  0.51100000000E-03 0. -1.
    9900012    2    1    2    0    0 -0.30826768263E+00  0.53287239178E+00  0.10069645417E+01  0.90007762931E+02  0.90000024602E+02 0.  0.
        -12    1    1    2    0    0  0.30826768263E+00 -0.53287239178E+00 -0.10069645417E+01  0.11802370687E+01  0.00000000000E+00 0.  1.
         11    1    3    3    0    0 -0.22897163554E+02 -0.15419873356E+02 -0.25840201786E+02  0.37812281362E+02  0.51100000000E-03 0. -1.
        -11    1    3    3    0    0  0.82133809418E+01 -0.48077525770E+01 -0.56290959530E+01  0.11057162061E+02  0.51100000000E-03 0.  1.
        -12    1    3    3    0    0  0.14375514930E+02  0.20760498325E+02  0.32476262281E+02  0.41138319508E+02  0.00000000000E+00 0.  1.
</event>
<event>
 7    1  0.2429906E-015  0.9000772E+02  0.7816164E-02  0.1186339E+00
        -11   -1    0    0    0    0  0.00000000000E+00  0.00000000000E+00  0.45593999997E+02  0.45594000000E+02  0.51100000000E-03 0.  1.
         11   -1    0    0    0    0 -0.00000000000E+00 -0.00000000000E+00 -0.45593999997E+02  0.45594000000E+02  0.51100000000E-03 0. -1.
    9900012    2    1    2    0    0 -0.31150237682E+00 -0.37171621510E+00 -0.10760363436E+01  0.90007719996E+02  0.89999981100E+02 0.  0.
        -12    1    1    2    0    0  0.31150237682E+00  0.37171621510E+00  0.10760363436E+01  0.11802800041E+01  0.00000000000E+00 0.  1.
         11    1    3    3    0    0  0.30958040285E+02 -0.20305730933E+02  0.32409078850E+01  0.37164855054E+02  0.51100000000E-03 0. -1.
        -11    1    3    3    0    0  0.62523526704E+01  0.59089940054E+01 -0.90742182591E+01  0.12503981820E+02  0.51100000000E-03 0.  1.
        -12    1    3    3    0    0 -0.37521895333E+02  0.14025020712E+02  0.47572740306E+01  0.40338883122E+02  0.00000000000E+00 0.  1.
</event>
<event>
 7    1  0.2468717E-015  0.9000786E+02  0.7816164E-02  0.1186339E+00
        -11   -1    0    0    0    0  0.00000000000E+00  0.00000000000E+00  0.45593999997E+02  0.45594000000E+02  0.51100000000E-03 0. -1.
         11   -1    0    0    0    0 -0.00000000000E+00 -0.00000000000E+00 -0.45593999997E+02  0.45594000000E+02  0.51100000000E-03 0.  1.
    9900012    2    1    2    0    0  0.70551615401E-01 -0.10788224504E+01  0.47317379773E+00  0.90007860664E+02  0.90000123625E+02 0.  0.
        -12    1    1    2    0    0 -0.70551615401E-01  0.10788224504E+01 -0.47317379773E+00  0.11801393361E+01  0.00000000000E+00 0.  1.
         11    1    3    3    0    0  0.18952325129E+02 -0.19130465349E+02  0.28587953695E+02  0.39273864452E+02  0.51100000000E-03 0. -1.
        -11    1    3    3    0    0 -0.51767679190E+01  0.52964580546E+00  0.72683205539E+01  0.89391238218E+01  0.51100000000E-03 0.  1.
        -12    1    3    3    0    0 -0.13705005595E+02  0.17521997094E+02 -0.35383100452E+02  0.41794872390E+02  0.00000000000E+00 0.  1.
</event>
<event>
 7    1  0.2429906E-015  0.9000783E+02  0.7816164E-02  0.1186339E+00
        -11   -1    0    0    0    0  0.00000000000E+00  0.00000000000E+00  0.45593999997E+02  0.45594000000E+02  0.51100000000E-03 0. -1.
         11   -1    0    0    0    0 -0.00000000000E+00 -0.00000000000E+00 -0.45593999997E+02  0.45594000000E+02  0.51100000000E-03 0.  1.
    9900012    2    1    2    0    0  0.97025916767E-01  0.10052384974E+01  0.61063187584E+00  0.90007834862E+02  0.90000097482E+02 0.  0.
        -12    1    1    2    0    0 -0.97025916767E-01 -0.10052384974E+01 -0.61063187584E+00  0.11801651380E+01  0.00000000000E+00 0.  1.
         11    1    3    3    0    0  0.34743527762E+02 -0.55165641562E+00  0.23586831592E+02  0.41997091220E+02  0.51100000000E-03 0. -1.
        -11    1    3    3    0    0 -0.59987247098E+01  0.98176996763E+01 -0.23133828833E+01  0.11735572662E+02  0.51100000000E-03 0.  1.
        -12    1    3    3    0    0 -0.28647777136E+02 -0.82608047633E+01 -0.20662816833E+02  0.36275170980E+02  0.00000000000E+00 0.  1.
</event>
<event>
 7    1  0.2429906E-015  0.9000770E+02  0.7816164E-02  0.1186339E+00
        -11   -1    0    0    0    0  0.00000000000E+00  0.00000000000E+00  0.45593999997E+02  0.45594000000E+02  0.51100000000E-03 0.  1.
         11   -1    0    0    0    0 -0.00000000000E+00 -0.00000000000E+00 -0.45593999997E+02  0.45594000000E+02  0.51100000000E-03 0. -1.
    9900012    2    1    2    0    0 -0.29071344153E+00 -0.99354560831E+00 -0.56697578476E+00  0.90007699733E+02  0.89999960569E+02 0.  0.
        -12    1    1    2    0    0  0.29071344153E+00  0.99354560831E+00  0.56697578476E+00  0.11803002675E+01  0.00000000000E+00 0.  1.
         11    1    3    3    0    0 -0.90660182201E+01 -0.36396564382E+01  0.16569872087E+01  0.99088542338E+01  0.51100000000E-03 0. -1.
        -11    1    3    3    0    0  0.24769711703E+02 -0.26026110457E+02  0.19354870264E+02  0.40810636439E+02  0.51100000000E-03 0.  1.
         12    1    3    3    0    0 -0.15994406924E+02  0.28672221287E+02 -0.21578833257E+02  0.39288209060E+02  0.00000000000E+00 0. -1.
</event>
<event>
 7    1  0.2429906E-015  0.9000793E+02  0.7816164E-02  0.1186339E+00
        -11   -1    0    0    0    0  0.00000000000E+00  0.00000000000E+00  0.45593999997E+02  0.45594000000E+02  0.51100000000E-03 0.  1.
         11   -1    0    0    0    0 -0.00000000000E+00 -0.00000000000E+00 -0.45593999997E+02  0.45594000000E+02  0.51100000000E-03 0. -1.
    9900012    2    1    2    0    0 -0.41544596386E+00 -0.29733074829E+00 -0.10637474074E+01  0.90007932430E+02  0.90000196338E+02 0.  0.
        -12    1    1    2    0    0  0.41544596386E+00  0.29733074829E+00  0.10637474074E+01  0.11800675699E+01  0.00000000000E+00 0.  1.
         11    1    3    3    0    0 -0.21310640248E+02 -0.30891336052E+02  0.16674863594E+02  0.41066642266E+02  0.51100000000E-03 0. -1.
        -11    1    3    3    0    0 -0.11382687454E+01 -0.74383942076E+00 -0.97047355731E+01  0.97995329290E+01  0.51100000000E-03 0.  1.
        -12    1    3    3    0    0  0.22033463029E+02  0.31337844725E+02 -0.80338754286E+01  0.39141757235E+02  0.00000000000E+00 0.  1.
</event>
<event>
 7    1  0.2429906E-015  0.9000762E+02  0.7816164E-02  0.1186339E+00
        -11   -1    0    0    0    0  0.00000000000E+00  0.00000000000E+00  0.45593999997E+02  0.45594000000E+02  0.51100000000E-03 0. -1.
         11   -1    0    0    0    0 -0.00000000000E+00 -0.00000000000E+00 -0.45593999997E+02  0.45594000000E+02  0.51100000000E-03 0.  1.
    9900012    2    1    2    0    0  0.80362640828E+00 -0.80095179320E+00  0.32549925793E+00  0.90007623388E+02  0.89999883217E+02 0.  0.
        -12    1    1    2    0    0 -0.80362640828E+00  0.80095179320E+00 -0.32549925793E+00  0.11803766119E+01  0.00000000000E+00 0.  1.
         11    1    3    3    0    0 -0.13724257000E+02 -0.34800018581E+02  0.26970362423E+01  0.37505606624E+02  0.51100000000E-03 0. -1.
        -11    1    3    3    0    0  0.34587976985E+01 -0.68731982285E+01  0.54658625786E+01  0.94382090143E+01  0.51100000000E-03 0.  1.
        -12    1    3    3    0    0  0.11069085709E+02  0.40872265017E+02 -0.78373995630E+01  0.43063807750E+02  0.00000000000E+00 0.  1.
</event>
<event>
 7    1  0.2429906E-015  0.9000768E+02  0.7816164E-02  0.1186339E+00
        -11   -1    0    0    0    0  0.00000000000E+00  0.00000000000E+00  0.45593999997E+02  0.45594000000E+02  0.51100000000E-03 0.  1.
         11   -1    0    0    0    0 -0.00000000000E+00 -0.00000000000E+00 -0.45593999997E+02  0.45594000000E+02  0.51100000000E-03 0. -1.
    9900012    2    1    2    0    0 -0.19277151158E+00  0.88465205567E+00 -0.75722038967E+00  0.90007681046E+02  0.89999941636E+02 0.  0.
        -12    1    1    2    0    0  0.19277151158E+00 -0.88465205567E+00  0.75722038967E+00  0.11803189543E+01  0.00000000000E+00 0.  1.
         11    1    3    3    0    0  0.32336719327E+02 -0.70964998598E+01 -0.15080201137E+02  0.36379062573E+02  0.51100000000E-03 0. -1.
        -11    1    3    3    0    0  0.66503644013E+01 -0.41701977852E+01  0.95025507268E+01  0.12325435766E+02  0.51100000000E-03 0.  1.
        -12    1    3    3    0    0 -0.39179855240E+02  0.12151349701E+02  0.48204300211E+01  0.41303182707E+02  0.00000000000E+00 0.  1.
</event>
<event>
 7    1  0.2429906E-015  0.9000770E+02  0.7816164E-02  0.1186339E+00
        -11   -1    0    0    0    0  0.00000000000E+00  0.00000000000E+00  0.45593999997E+02  0.45594000000E+02  0.51100000000E-03 0. -1.
         11   -1    0    0    0    0 -0.00000000000E+00 -0.00000000000E+00 -0.45593999997E+02  0.45594000000E+02  0.51100000000E-03 0.  1.
    9900012    2    1    2    0    0 -0.10307533423E+01 -0.21391502579E+00  0.53375033929E+00  0.90007702785E+02  0.89999963662E+02 0.  0.
        -12    1    1    2    0    0  0.10307533423E+01  0.21391502579E+00 -0.53375033929E+00  0.11802972150E+01  0.00000000000E+00 0.  1.
         11    1    3    3    0    0  0.24753550572E+02 -0.18892962120E+02  0.19547684542E+02  0.36766754749E+02  0.51100000000E-03 0. -1.
        -11    1    3    3    0    0 -0.98115162975E+00  0.12605361830E+02  0.88595769992E+01  0.15438585112E+02  0.51100000000E-03 0.  1.
        -12    1    3    3    0    0 -0.24803152285E+02  0.60736852641E+01 -0.27873511202E+02  0.37802362924E+02  0.00000000000E+00 0.  1.
</event>
<event>
 7    1  0.2429906E-015  0.9000766E+02  0.7816164E-02  0.1186339E+00
        -11   -1    0    0    0    0  0.00000000000E+00  0.00000000000E+00  0.45593999997E+02  0.45594000000E+02  0.51100000000E-03 0.  1.
         11   -1    0    0    0    0 -0.00000000000E+00 -0.00000000000E+00 -0.45593999997E+02  0.45594000000E+02  0.51100000000E-03 0. -1.
    9900012    2    1    2    0    0  0.19486703953E-01 -0.10729166852E+01 -0.49160744710E+00  0.90007657750E+02  0.89999918032E+02 0.  0.
        -12    1    1    2    0    0 -0.19486703953E-01  0.10729166852E+01  0.49160744710E+00  0.11803422500E+01  0.00000000000E+00 0.  1.
         11    1    3    3    0    0  0.56362415392E+01  0.49863643157E+01 -0.64698714254E+01  0.99242271387E+01  0.51100000000E-03 0. -1.
        -11    1    3    3    0    0 -0.36863254278E+02  0.10674721770E+02  0.18352612425E+02  0.42540187869E+02  0.51100000000E-03 0.  1.
         12    1    3    3    0    0  0.31246499443E+02 -0.16734002771E+02 -0.12374348447E+02  0.37543242743E+02  0.00000000000E+00 0. -1.
</event>
<event>
 7    1  0.2429906E-015  0.9000778E+02  0.7816164E-02  0.1186339E+00
        -11   -1    0    0    0    0  0.00000000000E+00  0.00000000000E+00  0.45593999997E+02  0.45594000000E+02  0.51100000000E-03 0. -1.
         11   -1    0    0    0    0 -0.00000000000E+00 -0.00000000000E+00 -0.45593999997E+02  0.45594000000E+02  0.51100000000E-03 0.  1.
    9900012    2    1    2    0    0  0.12290602556E+00  0.11061667753E+01  0.39268930907E+00  0.90007781495E+02  0.90000043411E+02 0.  0.
        -12    1    1    2    0    0 -0.12290602556E+00 -0.11061667753E+01 -0.39268930907E+00  0.11802185049E+01  0.00000000000E+00 0.  1.
         11    1    3    3    0    0  0.22253425438E+01  0.91391052420E+01 -0.30210730265E+00  0.94109863003E+01  0.51100000000E-03 0. -1.
        -11    1    3    3    0    0  0.17288960857E+02  0.28143590810E+02  0.16113141032E+02  0.36750553539E+02  0.51100000000E-03 0.  1.
         12    1    3    3    0    0 -0.19391397376E+02 -0.36176529277E+02 -0.15418344420E+02  0.43846241656E+02  0.00000000000E+00 0. -1.
</event>
<event>
 7    1  0.2429906E-015  0.9000789E+02  0.7816164E-02  0.1186339E+00
        -11   -1    0    0    0    0  0.00000000000E+00  0.00000000000E+00  0.45593999997E+02  0.45594000000E+02  0.51100000000E-03 0.  1.
         11   -1    0    0    0    0 -0.00000000000E+00 -0.00000000000E+00 -0.45593999997E+02  0.45594000000E+02  0.51100000000E-03 0. -1.
    9900012    2    1    2    0    0 -0.73142165880E-02  0.92966738702E+00 -0.72685674584E+00  0.90007891667E+02  0.90000155037E+02 0.  0.
        -12    1    1    2    0    0  0.73142165880E-02 -0.92966738702E+00  0.72685674584E+00  0.11801083328E+01  0.00000000000E+00 0.  1.
         11    1    3    3    0    0  0.65415589816E+01 -0.12102267371E+02  0.26707332055E+01  0.14013910430E+02  0.51100000000E-03 0. -1.
        -11    1    3    3    0    0  0.28826721495E+02 -0.13016470937E+02  0.22098432933E+01  0.31706336834E+02  0.51100000000E-03 0.  1.
         12    1    3    3    0    0 -0.35375594693E+02  0.26048405695E+02 -0.56074332447E+01  0.44287644403E+02  0.00000000000E+00 0. -1.
</event>
<event>
 7    1  0.2429906E-015  0.9000802E+02  0.7816164E-02  0.1186338E+00
        -11   -1    0    0    0    0  0.00000000000E+00  0.00000000000E+00  0.45593999997E+02  0.45594000000E+02  0.51100000000E-03 0.  1.
         11   -1    0    0    0    0 -0.00000000000E+00 -0.00000000000E+00 -0.45593999997E+02  0.45594000000E+02  0.51100000000E-03 0. -1.
    9900012    2    1    2    0    0  0.37660273834E+00 -0.22941908003E+00 -0.10944766818E+01  0.90008024600E+02  0.90000289725E+02 0.  0.
        -12    1    1    2    0    0 -0.37660273834E+00  0.22941908003E+00  0.10944766818E+01  0.11799753997E+01  0.00000000000E+00 0.  1.
         11    1    3    3    0    0  0.23840892753E+02  0.32097937763E+02  0.15161680313E+02  0.42761458419E+02  0.51100000000E-03 0. -1.
        -11    1    3    3    0    0  0.10429000642E+01  0.19019413960E+01 -0.15000380745E+01  0.26372592031E+01  0.51100000000E-03 0.  1.
        -12    1    3    3    0    0 -0.24507190079E+02 -0.34229298239E+02 -0.14756118920E+02  0.44609306979E+02  0.00000000000E+00 0.  1.
</event>
<event>
 7    1  0.2429906E-015  0.9000775E+02  0.7816164E-02  0.1186339E+00
        -11   -1    0    0    0    0  0.00000000000E+00  0.00000000000E+00  0.45593999997E+02  0.45594000000E+02  0.51100000000E-03 0.  1.
         11   -1    0    0    0    0 -0.00000000000E+00 -0.00000000000E+00 -0.45593999997E+02  0.45594000000E+02  0.51100000000E-03 0. -1.
    9900012    2    1    2    0    0  0.68278553195E+00 -0.70618430898E+00 -0.65429720056E+00  0.90007746982E+02  0.90000008442E+02 0.  0.
        -12    1    1    2    0    0 -0.68278553195E+00  0.70618430898E+00  0.65429720056E+00  0.11802530184E+01  0.00000000000E+00 0.  1.
         11    1    3    3    0    0 -0.75008199228E+01 -0.37830858333E+01  0.81675963551E+01  0.11716811359E+02  0.51100000000E-03 0. -1.
        -11    1    3    3    0    0  0.51729678332E+01 -0.32419033008E+02  0.14313920760E+02  0.35813986447E+02  0.51100000000E-03 0.  1.
         12    1    3    3    0    0  0.30106376215E+01  0.35495934533E+02 -0.23135814316E+02  0.42476949176E+02  0.00000000000E+00 0. -1.
</event>
<event>
 7    1  0.2429906E-015  0.9000773E+02  0.7816164E-02  0.1186339E+00
        -11   -1    0    0    0    0  0.00000000000E+00  0.00000000000E+00  0.45593999997E+02  0.45594000000E+02  0.51100000000E-03 0.  1.
         11   -1    0    0    0    0 -0.00000000000E+00 -0.00000000000E+00 -0.45593999997E+02  0.45594000000E+02  0.51100000000E-03 0. -1.
    9900012    2    1    2    0    0  0.51280362217E+00 -0.23082203547E+00 -0.10376813264E+01  0.90007733546E+02  0.89999994829E+02 0.  0.
        -12    1    1    2    0    0 -0.51280362217E+00  0.23082203547E+00  0.10376813264E+01  0.11802664539E+01  0.00000000000E+00 0.  1.
         11    1    3    3    0    0  0.20447808589E+02 -0.21365922775E+01 -0.87652456336E+01  0.22349662949E+02  0.51100000000E-03 0. -1.
        -11    1    3    3    0    0  0.23407650522E+02 -0.16662083815E+01 -0.11413040425E+00  0.23467155331E+02  0.51100000000E-03 0.  1.
        -12    1    3    3    0    0 -0.43342655489E+02  0.35719786236E+01  0.78416947114E+01  0.44190915266E+02  0.00000000000E+00 0.  1.
</event>
<event>
 7    1  0.2429906E-015  0.9000790E+02  0.7816164E-02  0.1186339E+00
        -11   -1    0    0    0    0  0.00000000000E+00  0.00000000000E+00  0.45593999997E+02  0.45594000000E+02  0.51100000000E-03 0. -1.
         11   -1    0    0    0    0 -0.00000000000E+00 -0.00000000000E+00 -0.45593999997E+02  0.45594000000E+02  0.51100000000E-03 0.  1.
    9900012    2    1    2    0    0  0.21841282768E+00  0.62643349806E+00  0.97596900235E+00  0.90007898909E+02  0.90000162375E+02 0.  0.
        -12    1    1    2    0    0 -0.21841282768E+00 -0.62643349806E+00 -0.97596900235E+00  0.11801010907E+01  0.00000000000E+00 0.  1.
         11    1    3    3    0    0  0.34847801218E+01 -0.10082605945E+02 -0.31212211551E+01  0.11115064413E+02  0.51100000000E-03 0. -1.
        -11    1    3    3    0    0 -0.23299225567E+02 -0.16666382734E+02 -0.21978526840E+02  0.36106479582E+02  0.51100000000E-03 0.  1.
         12    1    3    3    0    0  0.20032858273E+02  0.27375422177E+02  0.26075716998E+02  0.42786354915E+02  0.00000000000E+00 0. -1.
</event>
<event>
 7    1  0.2429906E-015  0.9000781E+02  0.7816164E-02  0.1186339E+00
        -11   -1    0    0    0    0  0.00000000000E+00  0.00000000000E+00  0.45593999997E+02  0.45594000000E+02  0.51100000000E-03 0.  1.
         11   -1    0    0    0    0 -0.00000000000E+00 -0.00000000000E+00 -0.45593999997E+02  0.45594000000E+02  0.51100000000E-03 0. -1.
    9900012    2    1    2    0    0  0.11139300092E+01  0.63965552848E-01 -0.38460560165E+00  0.90007808013E+02  0.90000070279E+02 0.  0.
        -12    1    1    2    0    0 -0.11139300092E+01 -0.63965552848E-01  0.38460560165E+00  0.11801919870E+01  0.00000000000E+00 0.  1.
         11    1    3    3    0    0 -0.20075787912E+02  0.23006125932E+02 -0.25165435758E+02  0.39567894155E+02  0.51100000000E-03 0. -1.
        -11    1    3    3    0    0  0.46590246249E+01 -0.61927868170E+01 -0.73044965632E+01  0.10649544090E+02  0.51100000000E-03 0.  1.
        -12    1    3    3    0    0  0.16530693296E+02 -0.16749373562E+02  0.32085326720E+02  0.39790369768E+02  0.00000000000E+00 0.  1.
</event>
<event>
 7    1  0.2429906E-015  0.9000775E+02  0.7816164E-02  0.1186339E+00
        -11   -1    0    0    0    0  0.00000000000E+00  0.00000000000E+00  0.45593999997E+02  0.45594000000E+02  0.51100000000E-03 0. -1.
         11   -1    0    0    0    0 -0.00000000000E+00 -0.00000000000E+00 -0.45593999997E+02  0.45594000000E+02  0.51100000000E-03 0.  1.
    9900012    2    1    2    0    0  0.29843407636E+00  0.23394696668E+00  0.11176784641E+01  0.90007746116E+02  0.90000007565E+02 0.  0.
        -12    1    1    2    0    0 -0.29843407636E+00 -0.23394696668E+00 -0.11176784641E+01  0.11802538839E+01  0.00000000000E+00 0.  1.
         11    1    3    3    0    0 -0.55581527148E+01  0.24099922813E+02  0.27934343762E+02  0.37309876747E+02  0.51100000000E-03 0. -1.
        -11    1    3    3    0    0 -0.26035379576E+01  0.31384093893E+01  0.73064435716E+01  0.83673258164E+01  0.51100000000E-03 0.  1.
        -12    1    3    3    0    0  0.84601247488E+01 -0.27004385236E+02 -0.34123108870E+02  0.44330543553E+02  0.00000000000E+00 0.  1.
</event>
<event>
 7    1  0.2429906E-015  0.9000769E+02  0.7816164E-02  0.1186339E+00
        -11   -1    0    0    0    0  0.00000000000E+00  0.00000000000E+00  0.45593999997E+02  0.45594000000E+02  0.51100000000E-03 0. -1.
         11   -1    0    0    0    0 -0.00000000000E+00 -0.00000000000E+00 -0.45593999997E+02  0.45594000000E+02  0.51100000000E-03 0.  1.
    9900012    2    1    2    0    0 -0.75079668462E+00  0.59381060021E+00  0.69051693032E+00  0.90007694818E+02  0.89999955590E+02 0.  0.
        -12    1    1    2    0    0  0.75079668462E+00 -0.59381060021E+00 -0.69051693032E+00  0.11803051816E+01  0.00000000000E+00 0.  1.
         11    1    3    3    0    0 -0.33418762196E+02 -0.24752361454E+01  0.15504978493E+02  0.36923499550E+02  0.51100000000E-03 0. -1.
        -11    1    3    3    0    0 -0.51482246778E+01  0.77993447620E+01  0.44843984144E+01  0.10365511345E+02  0.51100000000E-03 0.  1.
        -12    1    3    3    0    0  0.37816190189E+02 -0.47302980164E+01 -0.19298859977E+02  0.42718683923E+02  0.00000000000E+00 0.  1.
</event>
<event>
 7    1  0.2429906E-015  0.9000772E+02  0.7816164E-02  0.1186339E+00
        -11   -1    0    0    0    0  0.00000000000E+00  0.00000000000E+00  0.45593999997E+02  0.45594000000E+02  0.51100000000E-03 0. -1.
         11   -1    0    0    0    0 -0.00000000000E+00 -0.00000000000E+00 -0.45593999997E+02  0.45594000000E+02  0.51100000000E-03 0.  1.
    9900012    2    1    2    0    0  0.92097494331E+00 -0.42113066876E+00 -0.60623560907E+00  0.90007717195E+02  0.89999978262E+02 0.  0.
        -12    1    1    2    0    0 -0.92097494331E+00  0.42113066876E+00  0.60623560907E+00  0.11802828051E+01  0.00000000000E+00 0.  1.
         11    1    3    3    0    0 -0.31769149459E+01  0.90669498070E+01 -0.11525141778E+01  0.96762935346E+01  0.51100000000E-03 0. -1.
        -11    1    3    3    0    0  0.19856117883E+02  0.22730581274E+02 -0.22547134835E+02  0.37673837500E+02  0.51100000000E-03 0.  1.
         12    1    3    3    0    0 -0.15758227994E+02 -0.32218661749E+02  0.23093413404E+02  0.42657586161E+02  0.00000000000E+00 0. -1.
</event>
<event>
 7    1  0.2888858E-015  0.9000768E+02  0.7816164E-02  0.1186339E+00
        -11   -1    0    0    0    0  0.00000000000E+00  0.00000000000E+00  0.45593999997E+02  0.45594000000E+02  0.51100000000E-03 0.  1.
         11   -1    0    0    0    0 -0.00000000000E+00 -0.00000000000E+00 -0.45593999997E+02  0.45594000000E+02  0.51100000000E-03 0. -1.
    9900012    2    1    2    0    0  0.83119643327E+00  0.80255772403E+00 -0.24118717775E+00  0.90007678999E+02  0.89999939562E+02 0.  0.
        -12    1    1    2    0    0 -0.83119643327E+00 -0.80255772403E+00  0.24118717775E+00  0.11803210012E+01  0.00000000000E+00 0.  1.
         11    1    3    3    0    0 -0.17470731700E+02  0.31271274953E+02 -0.11769225279E+02  0.37704558972E+02  0.51100000000E-03 0. -1.
        -11    1    3    3    0    0  0.49039935207E-01  0.79292693303E+01  0.47706188226E+01  0.92538922211E+01  0.51100000000E-03 0.  1.
        -12    1    3    3    0    0  0.18252888199E+02 -0.38397986559E+02  0.67574192784E+01  0.43049227806E+02  0.00000000000E+00 0.  1.
</event>
<event>
 7    1  0.2429906E-015  0.9000806E+02  0.7816164E-02  0.1186338E+00
        -11   -1    0    0    0    0  0.00000000000E+00  0.00000000000E+00  0.45593999997E+02  0.45594000000E+02  0.51100000000E-03 0.  1.
         11   -1    0    0    0    0 -0.00000000000E+00 -0.00000000000E+00 -0.45593999997E+02  0.45594000000E+02  0.51100000000E-03 0. -1.
    9900012    2    1    2    0    0 -0.87678093781E+00  0.63760921601E+00  0.46580618097E+00  0.90008056898E+02  0.90000322449E+02 0.  0.
        -12    1    1    2    0    0  0.87678093781E+00 -0.63760921601E+00 -0.46580618097E+00  0.11799431018E+01  0.00000000000E+00 0.  1.
         11    1    3    3    0    0 -0.16707647558E+01  0.93249215782E+01 -0.49102975673E+01  0.10670362682E+02  0.51100000000E-03 0. -1.
        -11    1    3    3    0    0 -0.18309997992E+02 -0.39127129199E+02  0.37738837623E+01  0.43363930458E+02  0.51100000000E-03 0.  1.
         12    1    3    3    0    0  0.19103981810E+02  0.30439816837E+02  0.16022199859E+01  0.35973763758E+02  0.00000000000E+00 0. -1.
</event>
<event>
 7    1  0.2429906E-015  0.9000764E+02  0.7816164E-02  0.1186339E+00
        -11   -1    0    0    0    0  0.00000000000E+00  0.00000000000E+00  0.45593999997E+02  0.45594000000E+02  0.51100000000E-03 0.  1.
         11   -1    0    0    0    0 -0.00000000000E+00 -0.00000000000E+00 -0.45593999997E+02  0.45594000000E+02  0.51100000000E-03 0. -1.
    9900012    2    1    2    0    0  0.14138959880E+00 -0.82672717951E+00 -0.83053305372E+00  0.90007638191E+02  0.89999898215E+02 0.  0.
        -12    1    1    2    0    0 -0.14138959880E+00  0.82672717951E+00  0.83053305372E+00  0.11803618095E+01  0.00000000000E+00 0.  1.
         11    1    3    3    0    0 -0.12897833853E+01  0.83411945102E+01 -0.46598760627E+00  0.84531776124E+01  0.51100000000E-03 0. -1.
        -11    1    3    3    0    0  0.29492621633E+02  0.11717510831E+02  0.23257443179E+02  0.39344929208E+02  0.51100000000E-03 0.  1.
         12    1    3    3    0    0 -0.28061448649E+02 -0.20885432521E+02 -0.23621988626E+02  0.42209531371E+02  0.00000000000E+00 0. -1.
</event>
<event>
 7    1  0.2429906E-015  0.9000772E+02  0.7816164E-02  0.1186339E+00
        -11   -1    0    0    0    0  0.00000000000E+00  0.00000000000E+00  0.45593999997E+02  0.45594000000E+02  0.51100000000E-03 0. -1.
         11   -1    0    0    0    0 -0.00000000000E+00 -0.00000000000E+00 -0.45593999997E+02  0.45594000000E+02  0.51100000000E-03 0.  1.
    9900012    2    1    2    0    0 -0.24439997769E+00  0.11380640895E+00  0.11490812188E+01  0.90007715757E+02  0.89999976805E+02 0.  0.
        -12    1    1    2    0    0  0.24439997769E+00 -0.11380640895E+00 -0.11490812188E+01  0.11802842434E+01  0.00000000000E+00 0.  1.
         11    1    3    3    0    0 -0.36188569995E+01 -0.86158277261E+01  0.37544361006E+01  0.10070968379E+02  0.51100000000E-03 0. -1.
        -11    1    3    3    0    0  0.25838155082E+02  0.33638060966E+02 -0.13754589422E+02  0.44590561041E+02  0.51100000000E-03 0.  1.
         12    1    3    3    0    0 -0.22463698060E+02 -0.24908426831E+02  0.11149234540E+02  0.35346186337E+02  0.00000000000E+00 0. -1.
</event>
<event>
 7    1  0.2429906E-015  0.9000766E+02  0.7816164E-02  0.1186339E+00
        -11   -1    0    0    0    0  0.00000000000E+00  0.00000000000E+00  0.45593999997E+02  0.45594000000E+02  0.51100000000E-03 0.  1.
         11   -1    0    0    0    0 -0.00000000000E+00 -0.00000000000E+00 -0.45593999997E+02  0.45594000000E+02  0.51100000000E-03 0. -1.
    9900012    2    1    2    0    0 -0.46334789297E+00  0.56794709015E+00  0.92517496992E+00  0.90007659417E+02  0.89999919721E+02 0.  0.
        -12    1    1    2    0    0  0.46334789297E+00 -0.56794709015E+00 -0.92517496992E+00  0.11803405831E+01  0.00000000000E+00 0.  1.
         11    1    3    3    0    0 -0.91268027200E+01  0.18492140305E+02 -0.32564979805E+02  0.38545242131E+02  0.51100000000E-03 0. -1.
        -11    1    3    3    0    0 -0.51369679900E+01 -0.56537785575E+01 -0.47510583973E+01  0.89958995250E+01  0.51100000000E-03 0.  1.
        -12    1    3    3    0    0  0.13800422817E+02 -0.12270414658E+02  0.38241213173E+02  0.42466517761E+02  0.00000000000E+00 0.  1.
</event>
<event>
 7    1  0.2429906E-015  0.9000771E+02  0.7816164E-02  0.1186339E+00
        -11   -1    0    0    0    0  0.00000000000E+00  0.00000000000E+00  0.45593999997E+02  0.45594000000E+02  0.51100000000E-03 0.  1.
         11   -1    0    0    0    0 -0.00000000000E+00 -0.00000000000E+00 -0.45593999997E+02  0.45594000000E+02  0.51100000000E-03 0. -1.
    9900012    2    1    2    0    0 -0.13476669881E+00  0.31914876340E+00 -0.11283028672E+01  0.90007709630E+02  0.89999970598E+02 0.  0.
        -12    1    1    2    0    0  0.13476669881E+00 -0.31914876340E+00  0.11283028672E+01  0.11802903695E+01  0.00000000000E+00 0.  1.
         11    1    3    3    0    0  0.34841627868E+01 -0.12358032324E+02 -0.61517865025E+01  0.14237444668E+02  0.51100000000E-03 0. -1.
        -11    1    3    3    0    0 -0.37459955913E+02  0.12931181973E+02  0.11606921254E+02  0.41293878305E+02  0.51100000000E-03 0.  1.
         12    1    3    3    0    0  0.33841026427E+02 -0.25400088582E+00 -0.65834376187E+01  0.34476386658E+02  0.00000000000E+00 0. -1.
</event>
<event>
 7    1  0.2429906E-015  0.9000766E+02  0.7816164E-02  0.1186339E+00
        -11   -1    0    0    0    0  0.00000000000E+00  0.00000000000E+00  0.45593999997E+02  0.45594000000E+02  0.51100000000E-03 0. -1.
         11   -1    0    0    0    0 -0.00000000000E+00 -0.00000000000E+00 -0.45593999997E+02  0.45594000000E+02  0.51100000000E-03 0.  1.
    9900012    2    1    2    0    0  0.88528822539E+00 -0.76218640235E+00  0.16892026249E+00  0.90007662163E+02  0.89999922504E+02 0.  0.
        -12    1    1    2    0    0 -0.88528822539E+00  0.76218640235E+00 -0.16892026249E+00  0.11803378368E+01  0.00000000000E+00 0.  1.
         11    1    3    3    0    0 -0.11291907070E+02 -0.15621024719E+02  0.86680772565E+01  0.21134311963E+02  0.51100000000E-03 0. -1.
        -11    1    3    3    0    0 -0.25621726353E+02  0.16372836365E+02 -0.18350103200E+01  0.30461613468E+02  0.51100000000E-03 0.  1.
         12    1    3    3    0    0  0.37798921649E+02 -0.15139980482E+01 -0.66641466739E+01  0.38411736732E+02  0.00000000000E+00 0. -1.
</event>
<event>
 7    1  0.2429906E-015  0.9000782E+02  0.7816164E-02  0.1186339E+00
        -11   -1    0    0    0    0  0.00000000000E+00  0.00000000000E+00  0.45593999997E+02  0.45594000000E+02  0.51100000000E-03 0. -1.
         11   -1    0    0    0    0 -0.00000000000E+00 -0.00000000000E+00 -0.45593999997E+02  0.45594000000E+02  0.51100000000E-03 0.  1.
    9900012    2    1    2    0    0 -0.44767994656E+00 -0.84773410726E+00  0.68829503075E+00  0.90007821835E+02  0.90000084283E+02 0.  0.
        -12    1    1    2    0    0  0.44767994656E+00  0.84773410726E+00 -0.68829503075E+00  0.11801781647E+01  0.00000000000E+00 0.  1.
         11    1    3    3    0    0  0.26905280148E+01 -0.76917985283E+01 -0.87401744185E+01  0.11949617346E+02  0.51100000000E-03 0. -1.
        -11    1    3    3    0    0  0.17625295160E+02 -0.29820593785E+02  0.95130865678E+01  0.35922383822E+02  0.51100000000E-03 0.  1.
         12    1    3    3    0    0 -0.20763503121E+02  0.36664658206E+02 -0.84617118603E-01  0.42135820667E+02  0.00000000000E+00 0. -1.
</event>
<event>
 7    1  0.2429906E-015  0.9000769E+02  0.7816164E-02  0.1186339E+00
        -11   -1    0    0    0    0  0.00000000000E+00  0.00000000000E+00  0.45593999997E+02  0.45594000000E+02  0.51100000000E-03 0.  1.
         11   -1    0    0    0    0 -0.00000000000E+00 -0.00000000000E+00 -0.45593999997E+02  0.45594000000E+02  0.51100000000E-03 0. -1.
    9900012    2    1    2    0    0 -0.48611883498E+00  0.10749124826E+01 -0.37348560529E-01  0.90007685092E+02  0.89999945735E+02 0.  0.
        -12    1    1    2    0    0  0.48611883498E+00 -0.10749124826E+01  0.37348560529E-01  0.11803149079E+01  0.00000000000E+00 0.  1.
         11    1    3    3    0    0  0.38276813006E+02 -0.52490338284E+01  0.46773901179E+01  0.38917152370E+02  0.51100000000E-03 0. -1.
        -11    1    3    3    0    0  0.30039524604E+01  0.60972376549E+01 -0.63351421391E+01  0.92916125397E+01  0.51100000000E-03 0.  1.
        -12    1    3    3    0    0 -0.41766884301E+02  0.22670865605E+00  0.16204034606E+01  0.41798920182E+02  0.00000000000E+00 0.  1.
</event>
<event>
 7    1  0.2429906E-015  0.9000777E+02  0.7816164E-02  0.1186339E+00
        -11   -1    0    0    0    0  0.00000000000E+00  0.00000000000E+00  0.45593999997E+02  0.45594000000E+02  0.51100000000E-03 0. -1.
         11   -1    0    0    0    0 -0.00000000000E+00 -0.00000000000E+00 -0.45593999997E+02  0.45594000000E+02  0.51100000000E-03 0.  1.
    9900012    2    1    2    0    0 -0.14238573619E+00 -0.56189118176E+00  0.10280764944E+01  0.90007772617E+02  0.90000034415E+02 0.  0.
        -12    1    1    2    0    0  0.14238573619E+00  0.56189118176E+00 -0.10280764944E+01  0.11802273833E+01  0.00000000000E+00 0.  1.
         11    1    3    3    0    0 -0.65902238564E+01 -0.33535540877E+01 -0.57410195503E+01  0.93614465354E+01  0.51100000000E-03 0. -1.
        -11    1    3    3    0    0 -0.77002948659E+01 -0.34290059684E+02  0.17880570905E+02  0.39431174853E+02  0.51100000000E-03 0.  1.
         12    1    3    3    0    0  0.14148132986E+02  0.37081722590E+02 -0.11111474860E+02  0.41215151228E+02  0.00000000000E+00 0. -1.
</event>
<event>
 7    1  0.2429906E-015  0.9000772E+02  0.7816164E-02  0.1186339E+00
        -11   -1    0    0    0    0  0.00000000000E+00  0.00000000000E+00  0.45593999997E+02  0.45594000000E+02  0.51100000000E-03 0.  1.
         11   -1    0    0    0    0 -0.00000000000E+00 -0.00000000000E+00 -0.45593999997E+02  0.45594000000E+02  0.51100000000E-03 0. -1.
    9900012    2    1    2    0    0 -0.74850060057E+00  0.30716049154E+00 -0.85933219977E+00  0.90007723530E+02  0.89999984680E+02 0.  0.
        -12    1    1    2    0    0  0.74850060057E+00 -0.30716049154E+00  0.85933219977E+00  0.11802764702E+01  0.00000000000E+00 0.  1.
         11    1    3    3    0    0 -0.12517405052E+02  0.27864378451E+02 -0.32442211785E+02  0.44560140501E+02  0.51100000000E-03 0. -1.
        -11    1    3    3    0    0  0.48754711838E+01 -0.70193294984E+00  0.41018241391E+01  0.64099836708E+01  0.51100000000E-03 0.  1.
        -12    1    3    3    0    0  0.68934332680E+01 -0.26855285010E+02  0.27481055446E+02  0.39037599358E+02  0.00000000000E+00 0.  1.
</event>
<event>
 7    1  0.2429906E-015  0.9000781E+02  0.7816164E-02  0.1186339E+00
        -11   -1    0    0    0    0  0.00000000000E+00  0.00000000000E+00  0.45593999997E+02  0.45594000000E+02  0.51100000000E-03 0.  1.
         11   -1    0    0    0    0 -0.00000000000E+00 -0.00000000000E+00 -0.45593999997E+02  0.45594000000E+02  0.51100000000E-03 0. -1.
    9900012    2    1    2    0    0  0.88083695957E+00 -0.71330426001E-01 -0.78223809863E+00  0.90007805854E+02  0.90000068091E+02 0.  0.
        -12    1    1    2    0    0 -0.88083695957E+00  0.71330426001E-01  0.78223809863E+00  0.11801941459E+01  0.00000000000E+00 0.  1.
         11    1    3    3    0    0 -0.13063772270E+02  0.26688105676E+02 -0.12146465872E+02  0.32100681674E+02  0.51100000000E-03 0. -1.
        -11    1    3    3    0    0 -0.58853847280E+01  0.10716316917E+02 -0.39174956658E+01  0.12838378956E+02  0.51100000000E-03 0.  1.
        -12    1    3    3    0    0  0.19829993957E+02 -0.37475753020E+02  0.15281723440E+02  0.45068745224E+02  0.00000000000E+00 0.  1.
</event>
<event>
 7    1  0.2429906E-015  0.9000775E+02  0.7816164E-02  0.1186339E+00
        -11   -1    0    0    0    0  0.00000000000E+00  0.00000000000E+00  0.45593999997E+02  0.45594000000E+02  0.51100000000E-03 0. -1.
         11   -1    0    0    0    0 -0.00000000000E+00 -0.00000000000E+00 -0.45593999997E+02  0.45594000000E+02  0.51100000000E-03 0.  1.
    9900012    2    1    2    0    0 -0.96233943865E+00  0.58163116329E+00 -0.35859950711E+00  0.90007751885E+02  0.90000013410E+02 0.  0.
        -12    1    1    2    0    0  0.96233943865E+00 -0.58163116329E+00  0.35859950711E+00  0.11802481145E+01  0.00000000000E+00 0.  1.
         11    1    3    3    0    0 -0.33672214477E+02  0.15557370461E+02  0.19921603498E+02  0.42103682613E+02  0.51100000000E-03 0. -1.
        -11    1    3    3    0    0  0.43691596223E+01  0.63490436068E+01 -0.55592870356E+01  0.95029249777E+01  0.51100000000E-03 0.  1.
        -12    1    3    3    0    0  0.28340715416E+02 -0.21324782904E+02 -0.14720915969E+02  0.38401144295E+02  0.00000000000E+00 0.  1.
</event>
<event>
 7    1  0.2429906E-015  0.9000774E+02  0.7816164E-02  0.1186339E+00
        -11   -1    0    0    0    0  0.00000000000E+00  0.00000000000E+00  0.45593999997E+02  0.45594000000E+02  0.51100000000E-03 0. -1.
         11   -1    0    0    0    0 -0.00000000000E+00 -0.00000000000E+00 -0.45593999997E+02  0.45594000000E+02  0.51100000000E-03 0.  1.
    9900012    2    1    2    0    0  0.54339562021E+00 -0.10379741934E+01  0.14263130605E+00  0.90007740319E+02  0.90000001691E+02 0.  0.
        -12    1    1    2    0    0 -0.54339562021E+00  0.10379741934E+01 -0.14263130605E+00  0.11802596815E+01  0.00000000000E+00 0.  1.
         11    1    3    3    0    0 -0.12935932260E+02 -0.25618528709E+02  0.24710765687E+02  0.37871748015E+02  0.51100000000E-03 0. -1.
        -11    1    3    3    0    0  0.37135903271E+01 -0.13955189298E+01  0.82519018264E+01  0.91559876701E+01  0.51100000000E-03 0.  1.
        -12    1    3    3    0    0  0.97657375530E+01  0.25976073446E+02 -0.32820036207E+02  0.42980004633E+02  0.00000000000E+00 0.  1.
</event>
<event>
 7    1  0.2429906E-015  0.9000780E+02  0.7816164E-02  0.1186339E+00
        -11   -1    0    0    0    0  0.00000000000E+00  0.00000000000E+00  0.45593999997E+02  0.45594000000E+02  0.51100000000E-03 0.  1.
         11   -1    0    0    0    0 -0.00000000000E+00 -0.00000000000E+00 -0.45593999997E+02  0.45594000000E+02  0.51100000000E-03 0. -1.
    9900012    2    1    2    0    0  0.67198951345E+00  0.59521613984E+00 -0.76617935873E+00  0.90007795370E+02  0.90000057469E+02 0.  0.
        -12    1    1    2    0    0 -0.67198951345E+00 -0.59521613984E+00  0.76617935873E+00  0.11802046302E+01  0.00000000000E+00 0.  1.
         11    1    3    3    0    0 -0.88683727778E+01  0.87454152798E+01  0.17832792189E+01  0.12582146445E+02  0.51100000000E-03 0. -1.
        -11    1    3    3    0    0 -0.17105810170E+02 -0.17683021340E+02  0.26987874166E+02  0.36519081828E+02  0.51100000000E-03 0.  1.
         12    1    3    3    0    0  0.26646172462E+02  0.95328222005E+01 -0.29537332744E+02  0.40906567096E+02  0.00000000000E+00 0. -1.
</event>
<event>
 7    1  0.2468598E-015  0.9000786E+02  0.7816164E-02  0.1186339E+00
        -11   -1    0    0    0    0  0.00000000000E+00  0.00000000000E+00  0.45593999997E+02  0.45594000000E+02  0.51100000000E-03 0.  1.
         11   -1    0    0    0    0 -0.00000000000E+00 -0.00000000000E+00 -0.45593999997E+02  0.45594000000E+02  0.51100000000E-03 0. -1.
    9900012    2    1    2    0    0  0.92061160007E+00  0.48333112550E+00 -0.55820871831E+00  0.90007859471E+02  0.90000122416E+02 0.  0.
        -12    1    1    2    0    0 -0.92061160007E+00 -0.48333112550E+00  0.55820871831E+00  0.11801405290E+01  0.00000000000E+00 0.  1.
         11    1    3    3    0    0  0.36502181673E+02  0.19611502932E+02 -0.88502222436E+01  0.42371532285E+02  0.51100000000E-03 0. -1.
        -11    1    3    3    0    0  0.27874808653E+00 -0.95917173708E+01 -0.83556103078E-01  0.95961307047E+01  0.51100000000E-03 0.  1.
        -12    1    3    3    0    0 -0.35860318160E+02 -0.95364544356E+01  0.83755696284E+01  0.38040196481E+02  0.00000000000E+00 0.  1.
</event>
<event>
 7    1  0.2429906E-015  0.9000773E+02  0.7816164E-02  0.1186339E+00
        -11   -1    0    0    0    0  0.00000000000E+00  0.00000000000E+00  0.45593999997E+02  0.45594000000E+02  0.51100000000E-03 0.  1.
         11   -1    0    0    0    0 -0.00000000000E+00 -0.00000000000E+00 -0.45593999997E+02  0.45594000000E+02  0.51100000000E-03 0. -1.
    9900012    2    1    2    0    0 -0.49677319921E-01 -0.11400127897E+01 -0.30156466716E+00  0.90007729588E+02  0.89999990819E+02 0.  0.
        -12    1    1    2    0    0  0.49677319921E-01  0.11400127897E+01  0.30156466716E+00  0.11802704119E+01  0.00000000000E+00 0.  1.
         11    1    3    3    0    0  0.24544774533E+01  0.62616158717E+01 -0.74535143941E+01  0.10039281348E+02  0.51100000000E-03 0. -1.
        -11    1    3    3    0    0  0.73023584033E+01  0.31188575450E+02 -0.13912734791E+02  0.34922999105E+02  0.51100000000E-03 0.  1.
         12    1    3    3    0    0 -0.98065131766E+01 -0.38590204111E+02  0.21064684518E+02  0.45045449136E+02  0.00000000000E+00 0. -1.
</event>
<event>
 7    1  0.2429906E-015  0.9000789E+02  0.7816164E-02  0.1186339E+00
        -11   -1    0    0    0    0  0.00000000000E+00  0.00000000000E+00  0.45593999997E+02  0.45594000000E+02  0.51100000000E-03 0. -1.
         11   -1    0    0    0    0 -0.00000000000E+00 -0.00000000000E+00 -0.45593999997E+02  0.45594000000E+02  0.51100000000E-03 0.  1.
    9900012    2    1    2    0    0 -0.95370660372E+00 -0.41379777452E+00  0.55846753069E+00  0.90007885231E+02  0.90000148516E+02 0.  0.
        -12    1    1    2    0    0  0.95370660372E+00  0.41379777452E+00 -0.55846753069E+00  0.11801147686E+01  0.00000000000E+00 0.  1.
         11    1    3    3    0    0  0.22860198625E+01 -0.14641025043E+01  0.10073005013E+02  0.10432397290E+02  0.51100000000E-03 0. -1.
        -11    1    3    3    0    0 -0.29064674655E+02  0.28513382031E+02 -0.97908389457E+01  0.41876351264E+02  0.51100000000E-03 0.  1.
         12    1    3    3    0    0  0.25824948189E+02 -0.27463077301E+02  0.27630146339E+00  0.37699136678E+02  0.00000000000E+00 0. -1.
</event>
<event>
 7    1  0.2429906E-015  0.9000782E+02  0.7816164E-02  0.1186339E+00
        -11   -1    0    0    0    0  0.00000000000E+00  0.00000000000E+00  0.45593999997E+02  0.45594000000E+02  0.51100000000E-03 0.  1.
         11   -1    0    0    0    0 -0.00000000000E+00 -0.00000000000E+00 -0.45593999997E+02  0.45594000000E+02  0.51100000000E-03 0. -1.
    9900012    2    1    2    0    0  0.95758349425E+00 -0.72290111745E-01 -0.68602236508E+00  0.90007822601E+02  0.90000085059E+02 0.  0.
        -12    1    1    2    0    0 -0.95758349425E+00  0.72290111745E-01  0.68602236508E+00  0.11801773994E+01  0.00000000000E+00 0.  1.
         11    1    3    3    0    0 -0.28368765021E+01  0.41029229207E+02  0.77373055693E+00  0.41134464587E+02  0.51100000000E-03 0. -1.
        -11    1    3    3    0    0  0.43578974117E+01 -0.31043810363E+01  0.80818106873E+01  0.96924772744E+01  0.51100000000E-03 0.  1.
        -12    1    3    3    0    0 -0.56343741535E+00 -0.37997138283E+02 -0.95415636093E+01  0.39180880739E+02  0.00000000000E+00 0.  1.
</event>
<event>
 7    1  0.2429906E-015  0.9000754E+02  0.7816164E-02  0.1186339E+00
        -11   -1    0    0    0    0  0.00000000000E+00  0.00000000000E+00  0.45593999997E+02  0.45594000000E+02  0.51100000000E-03 0.  1.
         11   -1    0    0    0    0 -0.00000000000E+00 -0.00000000000E+00 -0.45593999997E+02  0.45594000000E+02  0.51100000000E-03 0. -1.
    9900012    2    1    2    0    0 -0.11546256786E+01  0.24560014525E+00 -0.37097759181E-03  0.90007542450E+02  0.89999801210E+02 0.  0.
        -12    1    1    2    0    0  0.11546256786E+01 -0.24560014525E+00  0.37097759181E-03  0.11804575497E+01  0.00000000000E+00 0.  1.
         11    1    3    3    0    0 -0.71173103138E+01 -0.38612680562E+02 -0.97896923401E+01  0.40465210770E+02  0.51100000000E-03 0. -1.
        -11    1    3    3    0    0  0.46317984529E+01  0.50078636835E+01  0.13834757937E+02  0.15425069952E+02  0.51100000000E-03 0.  1.
        -12    1    3    3    0    0  0.13308861823E+01  0.33850417024E+02 -0.40454365748E+01  0.34117261728E+02  0.00000000000E+00 0.  1.
</event>
<event>
 7    1  0.2429906E-015  0.9000766E+02  0.7816164E-02  0.1186339E+00
        -11   -1    0    0    0    0  0.00000000000E+00  0.00000000000E+00  0.45593999997E+02  0.45594000000E+02  0.51100000000E-03 0.  1.
         11   -1    0    0    0    0 -0.00000000000E+00 -0.00000000000E+00 -0.45593999997E+02  0.45594000000E+02  0.51100000000E-03 0. -1.
    9900012    2    1    2    0    0  0.80878316866E+00 -0.57109209009E+00  0.64258966151E+00  0.90007661971E+02  0.89999922309E+02 0.  0.
        -12    1    1    2    0    0 -0.80878316866E+00  0.57109209009E+00 -0.64258966151E+00  0.11803380289E+01  0.00000000000E+00 0.  1.
         11    1    3    3    0    0 -0.61472732920E+01 -0.55584345050E+01  0.94852638182E+01  0.12595848246E+02  0.51100000000E-03 0. -1.
        -11    1    3    3    0    0  0.34306904273E+02 -0.62553165825E+01 -0.25749140255E+02  0.43348712673E+02  0.51100000000E-03 0.  1.
         12    1    3    3    0    0 -0.27350847812E+02  0.11242658997E+02  0.16906466098E+02  0.34063101052E+02  0.00000000000E+00 0. -1.
</event>
<event>
 7    1  0.2429906E-015  0.9000770E+02  0.7816164E-02  0.1186339E+00
        -11   -1    0    0    0    0  0.00000000000E+00  0.00000000000E+00  0.45593999997E+02  0.45594000000E+02  0.51100000000E-03 0. -1.
         11   -1    0    0    0    0 -0.00000000000E+00 -0.00000000000E+00 -0.45593999997E+02  0.45594000000E+02  0.51100000000E-03 0.  1.
    9900012    2    1    2    0    0  0.59938934794E+00  0.58738387469E+00  0.82995894034E+00  0.90007695273E+02  0.89999956050E+02 0.  0.
        -12    1    1    2    0    0 -0.59938934794E+00 -0.58738387469E+00 -0.82995894034E+00  0.11803047273E+01  0.00000000000E+00 0.  1.
         11    1    3    3    0    0  0.11900005738E+01 -0.21045246157E+01 -0.82177601124E+01  0.85660204733E+01  0.51100000000E-03 0. -1.
        -11    1    3    3    0    0  0.89809658456E+01 -0.37859552108E+02  0.82130750754E+01  0.39767550035E+02  0.51100000000E-03 0.  1.
         12    1    3    3    0    0 -0.95715770715E+01  0.40551460598E+02  0.83464397729E+00  0.41674124764E+02  0.00000000000E+00 0. -1.
</event>
<event>
 7    1  0.2429906E-015  0.9000785E+02  0.7816164E-02  0.1186339E+00
        -11   -1    0    0    0    0  0.00000000000E+00  0.00000000000E+00  0.45593999997E+02  0.45594000000E+02  0.51100000000E-03 0.  1.
         11   -1    0    0    0    0 -0.00000000000E+00 -0.00000000000E+00 -0.45593999997E+02  0.45594000000E+02  0.51100000000E-03 0. -1.
    9900012    2    1    2    0    0 -0.63361641765E+00 -0.81755038696E+00 -0.56823637624E+00  0.90007851289E+02  0.90000114126E+02 0.  0.
        -12    1    1    2    0    0  0.63361641765E+00  0.81755038696E+00  0.56823637624E+00  0.11801487106E+01  0.00000000000E+00 0.  1.
         11    1    3    3    0    0  0.16133604037E+01  0.85924899265E+01  0.37210939314E+01  0.95015975098E+01  0.51100000000E-03 0. -1.
        -11    1    3    3    0    0  0.29879470128E+02 -0.20119237845E+02  0.17693383799E+02  0.40132559065E+02  0.51100000000E-03 0.  1.
         12    1    3    3    0    0 -0.32126446950E+02  0.10709197532E+02 -0.21982714107E+02  0.40373694714E+02  0.00000000000E+00 0. -1.
</event>
<event>
 7    1  0.2429906E-015  0.9000785E+02  0.7816164E-02  0.1186339E+00
        -11   -1    0    0    0    0  0.00000000000E+00  0.00000000000E+00  0.45593999997E+02  0.45594000000E+02  0.51100000000E-03 0. -1.
         11   -1    0    0    0    0 -0.00000000000E+00 -0.00000000000E+00 -0.45593999997E+02  0.45594000000E+02  0.51100000000E-03 0.  1.
    9900012    2    1    2    0    0 -0.27980894398E+00  0.69603369899E-02  0.11464789265E+01  0.90007849408E+02  0.90000112220E+02 0.  0.
        -12    1    1    2    0    0  0.27980894398E+00 -0.69603369899E-02 -0.11464789265E+01  0.11801505922E+01  0.00000000000E+00 0.  1.
         11    1    3    3    0    0 -0.13661797442E+02  0.34285485395E+02 -0.73014324470E+01  0.37622468475E+02  0.51100000000E-03 0. -1.
        -11    1    3    3    0    0  0.22600277249E+01  0.57576487697E+01  0.88908026807E+01  0.10830725610E+02  0.51100000000E-03 0.  1.
        -12    1    3    3    0    0  0.11121960773E+02 -0.40036173828E+02 -0.44289130725E+00  0.41554655322E+02  0.00000000000E+00 0.  1.
</event>
<event>
 7    1  0.2429906E-015  0.9000905E+02  0.7816164E-02  0.1186336E+00
        -11   -1    0    0    0    0  0.00000000000E+00  0.00000000000E+00  0.45593999997E+02  0.45594000000E+02  0.51100000000E-03 0. -1.
         11   -1    0    0    0    0 -0.00000000000E+00 -0.00000000000E+00 -0.45593999997E+02  0.45594000000E+02  0.51100000000E-03 0.  1.
    9900012    2    1    2    0    0  0.15561235720E+00 -0.20013517648E+00  0.11513730376E+01  0.90009047428E+02  0.90001326045E+02 0.  0.
        -12    1    1    2    0    0 -0.15561235720E+00  0.20013517648E+00 -0.11513730376E+01  0.11789525717E+01  0.00000000000E+00 0.  1.
         11    1    3    3    0    0  0.24204956469E+01  0.37121100887E+01 -0.85589766646E+01  0.96381866704E+01  0.51100000000E-03 0. -1.
        -11    1    3    3    0    0  0.36938475726E+02  0.54060365904E+01 -0.45898327720E+01  0.37613066689E+02  0.51100000000E-03 0.  1.
         12    1    3    3    0    0 -0.39203359016E+02 -0.93182818556E+01  0.14300182474E+02  0.42757794069E+02  0.00000000000E+00 0. -1.
</event>
<event>
 7    1  0.2429906E-015  0.9000781E+02  0.7816164E-02  0.1186339E+00
        -11   -1    0    0    0    0  0.00000000000E+00  0.00000000000E+00  0.45593999997E+02  0.45594000000E+02  0.51100000000E-03 0. -1.
         11   -1    0    0    0    0 -0.00000000000E+00 -0.00000000000E+00 -0.45593999997E+02  0.45594000000E+02  0.51100000000E-03 0.  1.
    9900012    2    1    2    0    0 -0.42040802232E+00 -0.11025013601E+01 -0.24550276443E-01  0.90007807274E+02  0.90000069530E+02 0.  0.
        -12    1    1    2    0    0  0.42040802232E+00  0.11025013601E+01  0.24550276443E-01  0.11801927260E+01  0.00000000000E+00 0.  1.
         11    1    3    3    0    0 -0.59760517991E+01  0.11402001847E+01 -0.34001364393E+01  0.69695178911E+01  0.51100000000E-03 0. -1.
        -11    1    3    3    0    0  0.18869648658E+01 -0.10118759297E+02 -0.38715161739E+02  0.40060125746E+02  0.51100000000E-03 0.  1.
         12    1    3    3    0    0  0.36686789109E+01  0.78760577517E+01  0.42090747902E+02  0.42978163637E+02  0.00000000000E+00 0. -1.
</event>
<event>
 7    1  0.2429906E-015  0.9000747E+02  0.7816164E-02  0.1186340E+00
        -11   -1    0    0    0    0  0.00000000000E+00  0.00000000000E+00  0.45593999997E+02  0.45594000000E+02  0.51100000000E-03 0.  1.
         11   -1    0    0    0    0 -0.00000000000E+00 -0.00000000000E+00 -0.45593999997E+02  0.45594000000E+02  0.51100000000E-03 0. -1.
    9900012    2    1    2    0    0  0.48121830560E+00  0.96560706835E+00  0.47925274286E+00  0.90007469924E+02  0.89999727727E+02 0.  0.
        -12    1    1    2    0    0 -0.48121830560E+00 -0.96560706835E+00 -0.47925274286E+00  0.11805300757E+01  0.00000000000E+00 0.  1.
         11    1    3    3    0    0  0.56250858041E+01  0.10964416081E+02 -0.77128070186E+01  0.14537792221E+02  0.51100000000E-03 0. -1.
        -11    1    3    3    0    0  0.25937624941E+02  0.19197459128E+02  0.55614456441E+01  0.32744961482E+02  0.51100000000E-03 0.  1.
         12    1    3    3    0    0 -0.31081492439E+02 -0.29196268140E+02  0.26306141174E+01  0.42724716221E+02  0.00000000000E+00 0. -1.
</event>
<event>
 7    1  0.2429906E-015  0.9000780E+02  0.7816164E-02  0.1186339E+00
        -11   -1    0    0    0    0  0.00000000000E+00  0.00000000000E+00  0.45593999997E+02  0.45594000000E+02  0.51100000000E-03 0.  1.
         11   -1    0    0    0    0 -0.00000000000E+00 -0.00000000000E+00 -0.45593999997E+02  0.45594000000E+02  0.51100000000E-03 0. -1.
    9900012    2    1    2    0    0  0.23584440842E+00  0.94573914688E+00 -0.66545616438E+00  0.90007797888E+02  0.90000060020E+02 0.  0.
        -12    1    1    2    0    0 -0.23584440842E+00 -0.94573914688E+00  0.66545616438E+00  0.11802021122E+01  0.00000000000E+00 0.  1.
         11    1    3    3    0    0  0.89503196287E+01 -0.30735850519E+00  0.30073344241E+01  0.94470498732E+01  0.51100000000E-03 0. -1.
        -11    1    3    3    0    0  0.54135888915E+01 -0.38191918396E+02 -0.13364392341E+01  0.38596834657E+02  0.51100000000E-03 0.  1.
         12    1    3    3    0    0 -0.14128064112E+02  0.39445016048E+02 -0.23363513544E+01  0.41963913357E+02  0.00000000000E+00 0. -1.
</event>
<event>
 7    1  0.2429906E-015  0.9000754E+02  0.7816164E-02  0.1186339E+00
        -11   -1    0    0    0    0  0.00000000000E+00  0.00000000000E+00  0.45593999997E+02  0.45594000000E+02  0.51100000000E-03 0.  1.
         11   -1    0    0    0    0 -0.00000000000E+00 -0.00000000000E+00 -0.45593999997E+02  0.45594000000E+02  0.51100000000E-03 0. -1.
    9900012    2    1    2    0    0  0.28562906269E+00 -0.98717038633E-01 -0.11411157168E+01  0.90007544963E+02  0.89999803756E+02 0.  0.
        -12    1    1    2    0    0 -0.28562906269E+00  0.98717038633E-01  0.11411157168E+01  0.11804550369E+01  0.00000000000E+00 0.  1.
         11    1    3    3    0    0 -0.12355634833E+02 -0.72161171109E+01 -0.12008167289E+02  0.18679671844E+02  0.51100000000E-03 0. -1.
        -11    1    3    3    0    0 -0.16370778711E+02 -0.23284667115E+02  0.49141473808E+01  0.28884718503E+02  0.51100000000E-03 0.  1.
         12    1    3    3    0    0  0.29012042607E+02  0.30402067187E+02  0.59529041914E+01  0.42443154616E+02  0.00000000000E+00 0. -1.
</event>
<event>
 7    1  0.2429906E-015  0.9000776E+02  0.7816164E-02  0.1186339E+00
        -11   -1    0    0    0    0  0.00000000000E+00  0.00000000000E+00  0.45593999997E+02  0.45594000000E+02  0.51100000000E-03 0. -1.
         11   -1    0    0    0    0 -0.00000000000E+00 -0.00000000000E+00 -0.45593999997E+02  0.45594000000E+02  0.51100000000E-03 0.  1.
    9900012    2    1    2    0    0  0.21597131801E+00 -0.21548582915E+00  0.11401271987E+01  0.90007759439E+02  0.90000021064E+02 0.  0.
        -12    1    1    2    0    0 -0.21597131801E+00  0.21548582915E+00 -0.11401271987E+01  0.11802405611E+01  0.00000000000E+00 0.  1.
         11    1    3    3    0    0 -0.57123148403E+01  0.16918155203E+01 -0.66485601631E+01  0.89272690725E+01  0.51100000000E-03 0. -1.
        -11    1    3    3    0    0  0.38556217761E+00  0.26171768890E+01 -0.36309445319E+02  0.36405687642E+02  0.51100000000E-03 0.  1.
         12    1    3    3    0    0  0.55427239807E+01 -0.45244782384E+01  0.44098132681E+02  0.44674802724E+02  0.00000000000E+00 0. -1.
</event>
<event>
 7    1  0.2429906E-015  0.9000803E+02  0.7816164E-02  0.1186338E+00
        -11   -1    0    0    0    0  0.00000000000E+00  0.00000000000E+00  0.45593999997E+02  0.45594000000E+02  0.51100000000E-03 0. -1.
         11   -1    0    0    0    0 -0.00000000000E+00 -0.00000000000E+00 -0.45593999997E+02  0.45594000000E+02  0.51100000000E-03 0.  1.
    9900012    2    1    2    0    0 -0.10211807980E+01 -0.43379087315E+00 -0.40167351035E+00  0.90008031207E+02  0.90000296418E+02 0.  0.
        -12    1    1    2    0    0  0.10211807980E+01  0.43379087315E+00  0.40167351035E+00  0.11799687931E+01  0.00000000000E+00 0.  1.
         11    1    3    3    0    0  0.49305235859E+01 -0.53347016259E+01 -0.90462832128E+01  0.11601911243E+02  0.51100000000E-03 0. -1.
        -11    1    3    3    0    0  0.32225001734E+02  0.77386848240E+01  0.19706974370E+02  0.38557785448E+02  0.51100000000E-03 0.  1.
         12    1    3    3    0    0 -0.38176706118E+02 -0.28377740713E+01 -0.11062364667E+02  0.39848334516E+02  0.00000000000E+00 0. -1.
</event>
<event>
 7    1  0.2429906E-015  0.9000777E+02  0.7816164E-02  0.1186339E+00
        -11   -1    0    0    0    0  0.00000000000E+00  0.00000000000E+00  0.45593999997E+02  0.45594000000E+02  0.51100000000E-03 0. -1.
         11   -1    0    0    0    0 -0.00000000000E+00 -0.00000000000E+00 -0.45593999997E+02  0.45594000000E+02  0.51100000000E-03 0.  1.
    9900012    2    1    2    0    0  0.76571640956E+00  0.74281327686E+00  0.50483186561E+00  0.90007767651E+02  0.90000029384E+02 0.  0.
        -12    1    1    2    0    0 -0.76571640956E+00 -0.74281327686E+00 -0.50483186561E+00  0.11802323486E+01  0.00000000000E+00 0.  1.
         11    1    3    3    0    0 -0.94026468451E+01  0.26899629290E+01  0.10421890866E+01  0.98352339376E+01  0.51100000000E-03 0. -1.
        -11    1    3    3    0    0 -0.16656731100E+02 -0.22943381131E+02 -0.25347081610E+02  0.38030513737E+02  0.51100000000E-03 0.  1.
         12    1    3    3    0    0  0.26825094355E+02  0.20996231479E+02  0.24809724389E+02  0.42142019977E+02  0.00000000000E+00 0. -1.
</event>
<event>
 7    1  0.2429906E-015  0.9000774E+02  0.7816164E-02  0.1186339E+00
        -11   -1    0    0    0    0  0.00000000000E+00  0.00000000000E+00  0.45593999997E+02  0.45594000000E+02  0.51100000000E-03 0.  1.
         11   -1    0    0    0    0 -0.00000000000E+00 -0.00000000000E+00 -0.45593999997E+02  0.45594000000E+02  0.51100000000E-03 0. -1.
    9900012    2    1    2    0    0 -0.11725789503E-01 -0.93754807123E+00 -0.71684689883E+00  0.90007744368E+02  0.90000005794E+02 0.  0.
        -12    1    1    2    0    0  0.11725789503E-01  0.93754807123E+00  0.71684689883E+00  0.11802556318E+01  0.00000000000E+00 0.  1.
         11    1    3    3    0    0  0.14127480229E+01 -0.24537330203E+02 -0.30128339048E+02  0.38881785511E+02  0.51100000000E-03 0. -1.
        -11    1    3    3    0    0 -0.53833652213E+01 -0.77300014210E+01  0.27936357979E+01  0.98253724768E+01  0.51100000000E-03 0.  1.
        -12    1    3    3    0    0  0.39588914089E+01  0.31329783553E+02  0.26617856351E+02  0.41300586381E+02  0.00000000000E+00 0.  1.
</event>
<event>
 7    1  0.2429906E-015  0.9000772E+02  0.7816164E-02  0.1186339E+00
        -11   -1    0    0    0    0  0.00000000000E+00  0.00000000000E+00  0.45593999997E+02  0.45594000000E+02  0.51100000000E-03 0. -1.
         11   -1    0    0    0    0 -0.00000000000E+00 -0.00000000000E+00 -0.45593999997E+02  0.45594000000E+02  0.51100000000E-03 0.  1.
    9900012    2    1    2    0    0  0.78504836237E-01  0.59507643218E-03  0.11776663169E+01  0.90007719814E+02  0.89999980916E+02 0.  0.
        -12    1    1    2    0    0 -0.78504836237E-01 -0.59507643218E-03 -0.11776663169E+01  0.11802801860E+01  0.00000000000E+00 0.  1.
         11    1    3    3    0    0 -0.31541603001E+01  0.27735059109E+00 -0.92382972007E+01  0.97658479396E+01  0.51100000000E-03 0. -1.
        -11    1    3    3    0    0 -0.32929646991E+02  0.34738446464E+01 -0.14519741609E+02  0.36155942032E+02  0.51100000000E-03 0.  1.
         12    1    3    3    0    0  0.36162312127E+02 -0.37506001610E+01  0.24935705127E+02  0.44085929843E+02  0.00000000000E+00 0. -1.
</event>
<event>
 7    1  0.2429906E-015  0.9000780E+02  0.7816164E-02  0.1186339E+00
        -11   -1    0    0    0    0  0.00000000000E+00  0.00000000000E+00  0.45593999997E+02  0.45594000000E+02  0.51100000000E-03 0.  1.
         11   -1    0    0    0    0 -0.00000000000E+00 -0.00000000000E+00 -0.45593999997E+02  0.45594000000E+02  0.51100000000E-03 0. -1.
    9900012    2    1    2    0    0 -0.39441999709E+00 -0.73133254654E+00 -0.83812746934E+00  0.90007799982E+02  0.90000062142E+02 0.  0.
        -12    1    1    2    0    0  0.39441999709E+00  0.73133254654E+00  0.83812746934E+00  0.11802000180E+01  0.00000000000E+00 0.  1.
         11    1    3    3    0    0 -0.37330026397E+02  0.44384721265E+01 -0.21981552812E+02  0.43547899719E+02  0.51100000000E-03 0. -1.
        -11    1    3    3    0    0  0.13531609154E+01 -0.39055202113E+01 -0.13462631699E+01  0.43470170655E+01  0.51100000000E-03 0.  1.
        -12    1    3    3    0    0  0.35582445485E+02 -0.12642844617E+01  0.22489688512E+02  0.42112883198E+02  0.00000000000E+00 0.  1.
</event>
<event>
 7    1  0.2995080E-015  0.9000777E+02  0.7816164E-02  0.1186339E+00
        -11   -1    0    0    0    0  0.00000000000E+00  0.00000000000E+00  0.45593999997E+02  0.45594000000E+02  0.51100000000E-03 0.  1.
         11   -1    0    0    0    0 -0.00000000000E+00 -0.00000000000E+00 -0.45593999997E+02  0.45594000000E+02  0.51100000000E-03 0. -1.
    9900012    2    1    2    0    0 -0.10256635008E+01 -0.31830745656E-01 -0.58304267664E+00  0.90007772235E+02  0.90000034029E+02 0.  0.
        -12    1    1    2    0    0  0.10256635008E+01  0.31830745656E-01  0.58304267664E+00  0.11802277645E+01  0.00000000000E+00 0.  1.
         11    1    3    3    0    0 -0.11154209003E+02  0.33187012281E+02 -0.23714917086E+02  0.42287012844E+02  0.51100000000E-03 0. -1.
        -11    1    3    3    0    0 -0.54691066333E+00  0.88771824480E+00  0.93645681652E+01  0.94224355736E+01  0.51100000000E-03 0.  1.
        -12    1    3    3    0    0  0.10675456166E+02 -0.34106561271E+02  0.13767306244E+02  0.38298323818E+02  0.00000000000E+00 0.  1.
</event>
<event>
 7    1  0.2429906E-015  0.9000764E+02  0.7816164E-02  0.1186339E+00
        -11   -1    0    0    0    0  0.00000000000E+00  0.00000000000E+00  0.45593999997E+02  0.45594000000E+02  0.51100000000E-03 0. -1.
         11   -1    0    0    0    0 -0.00000000000E+00 -0.00000000000E+00 -0.45593999997E+02  0.45594000000E+02  0.51100000000E-03 0.  1.
    9900012    2    1    2    0    0 -0.82074685341E+00 -0.84513089018E+00  0.73361278458E-01  0.90007638405E+02  0.89999898431E+02 0.  0.
        -12    1    1    2    0    0  0.82074685341E+00  0.84513089018E+00 -0.73361278458E-01  0.11803615955E+01  0.00000000000E+00 0.  1.
         11    1    3    3    0    0  0.76820388398E+00 -0.98711189533E+01 -0.17352859743E+01  0.10051882623E+02  0.51100000000E-03 0. -1.
        -11    1    3    3    0    0 -0.14661101282E+01  0.25243318644E+02 -0.32988673844E+02  0.41564735262E+02  0.51100000000E-03 0.  1.
         12    1    3    3    0    0 -0.12284060916E+00 -0.16217330581E+02  0.34797321097E+02  0.38391020520E+02  0.00000000000E+00 0. -1.
</event>
<event>
 7    1  0.2429906E-015  0.9000753E+02  0.7816164E-02  0.1186339E+00
        -11   -1    0    0    0    0  0.00000000000E+00  0.00000000000E+00  0.45593999997E+02  0.45594000000E+02  0.51100000000E-03 0. -1.
         11   -1    0    0    0    0 -0.00000000000E+00 -0.00000000000E+00 -0.45593999997E+02  0.45594000000E+02  0.51100000000E-03 0.  1.
    9900012    2    1    2    0    0 -0.15439863702E+00  0.10761771048E+01 -0.45990715837E+00  0.90007529461E+02  0.89999788049E+02 0.  0.
        -12    1    1    2    0    0  0.15439863702E+00 -0.10761771048E+01  0.45990715837E+00  0.11804705394E+01  0.00000000000E+00 0.  1.
         11    1    3    3    0    0  0.15430940668E+01 -0.17665235228E+01  0.10982419704E+01  0.25899575947E+01  0.51100000000E-03 0. -1.
        -11    1    3    3    0    0  0.30898715570E+02 -0.23121962102E+02 -0.18043490007E+02  0.42601916473E+02  0.51100000000E-03 0.  1.
         12    1    3    3    0    0 -0.32596208273E+02  0.25964662729E+02  0.16485340878E+02  0.44815655393E+02  0.00000000000E+00 0. -1.
</event>
<event>
 7    1  0.2429906E-015  0.9000776E+02  0.7816164E-02  0.1186339E+00
        -11   -1    0    0    0    0  0.00000000000E+00  0.00000000000E+00  0.45593999997E+02  0.45594000000E+02  0.51100000000E-03 0.  1.
         11   -1    0    0    0    0 -0.00000000000E+00 -0.00000000000E+00 -0.45593999997E+02  0.45594000000E+02  0.51100000000E-03 0. -1.
    9900012    2    1    2    0    0  0.85389658723E-01  0.14990075857E+00 -0.11675658457E+01  0.90007757806E+02  0.90000019410E+02 0.  0.
        -12    1    1    2    0    0 -0.85389658723E-01 -0.14990075857E+00  0.11675658457E+01  0.11802421935E+01  0.00000000000E+00 0.  1.
         11    1    3    3    0    0  0.66252145303E+00  0.17299151032E+01  0.91504728462E+01  0.93360963208E+01  0.51100000000E-03 0. -1.
        -11    1    3    3    0    0 -0.36614773664E+01  0.16896173533E+02  0.30893973925E+02  0.35402326501E+02  0.51100000000E-03 0.  1.
         12    1    3    3    0    0  0.30843455721E+01 -0.18476187877E+02 -0.41212012617E+02  0.45269334985E+02  0.00000000000E+00 0. -1.
</event>
<event>
 7    1  0.2429906E-015  0.9000776E+02  0.7816164E-02  0.1186339E+00
        -11   -1    0    0    0    0  0.00000000000E+00  0.00000000000E+00  0.45593999997E+02  0.45594000000E+02  0.51100000000E-03 0. -1.
         11   -1    0    0    0    0 -0.00000000000E+00 -0.00000000000E+00 -0.45593999997E+02  0.45594000000E+02  0.51100000000E-03 0.  1.
    9900012    2    1    2    0    0 -0.56573098572E+00  0.92452889891E+00  0.46708740898E+00  0.90007756008E+02  0.90000017587E+02 0.  0.
        -12    1    1    2    0    0  0.56573098572E+00 -0.92452889891E+00 -0.46708740898E+00  0.11802439920E+01  0.00000000000E+00 0.  1.
         11    1    3    3    0    0  0.32656922905E+01  0.67319179781E+01  0.83884413094E+01  0.11240525506E+02  0.51100000000E-03 0. -1.
        -11    1    3    3    0    0  0.13891528396E+02  0.16787182627E+02  0.26260980798E+02  0.34123645386E+02  0.51100000000E-03 0.  1.
         12    1    3    3    0    0 -0.17722951672E+02 -0.22594571706E+02 -0.34182334698E+02  0.44643585115E+02  0.00000000000E+00 0. -1.
</event>
<event>
 7    1  0.2429906E-015  0.9000723E+02  0.7816164E-02  0.1186340E+00
        -11   -1    0    0    0    0  0.00000000000E+00  0.00000000000E+00  0.45593999997E+02  0.45594000000E+02  0.51100000000E-03 0. -1.
         11   -1    0    0    0    0 -0.00000000000E+00 -0.00000000000E+00 -0.45593999997E+02  0.45594000000E+02  0.51100000000E-03 0.  1.
    9900012    2    1    2    0    0  0.64021477402E+00 -0.58167730486E-01  0.99042803339E+00  0.90007234938E+02  0.89999489638E+02 0.  0.
        -12    1    1    2    0    0 -0.64021477402E+00  0.58167730486E-01 -0.99042803339E+00  0.11807650618E+01  0.00000000000E+00 0.  1.
         11    1    3    3    0    0  0.18018160211E+01 -0.39500778620E+02 -0.14776181251E+02  0.42212481391E+02  0.51100000000E-03 0. -1.
        -11    1    3    3    0    0 -0.52861025462E+01  0.52048023505E+00  0.47704136294E+01  0.71393715593E+01  0.51100000000E-03 0.  1.
        -12    1    3    3    0    0  0.41245012991E+01  0.38922130655E+02  0.10996195655E+02  0.40655381988E+02  0.00000000000E+00 0.  1.
</event>
<event>
 7    1  0.2429906E-015  0.9000774E+02  0.7816164E-02  0.1186339E+00
        -11   -1    0    0    0    0  0.00000000000E+00  0.00000000000E+00  0.45593999997E+02  0.45594000000E+02  0.51100000000E-03 0. -1.
         11   -1    0    0    0    0 -0.00000000000E+00 -0.00000000000E+00 -0.45593999997E+02  0.45594000000E+02  0.51100000000E-03 0.  1.
    9900012    2    1    2    0    0 -0.10226024090E+01 -0.19701909289E+00  0.55541277279E+00  0.90007739199E+02  0.90000000557E+02 0.  0.
        -12    1    1    2    0    0  0.10226024090E+01  0.19701909289E+00 -0.55541277279E+00  0.11802608008E+01  0.00000000000E+00 0.  1.
         11    1    3    3    0    0  0.39819531958E+02  0.12802433586E+01  0.17734511182E+01  0.39879559645E+02  0.51100000000E-03 0. -1.
        -11    1    3    3    0    0 -0.65144028615E+00  0.80906373345E+01 -0.32996878266E+01  0.87618906030E+01  0.51100000000E-03 0.  1.
        -12    1    3    3    0    0 -0.40190694081E+02 -0.95678997860E+01  0.20816494813E+01  0.41366288951E+02  0.00000000000E+00 0.  1.
</event>
<event>
 7    1  0.2429906E-015  0.9000867E+02  0.7816164E-02  0.1186337E+00
        -11   -1    0    0    0    0  0.00000000000E+00  0.00000000000E+00  0.45593999997E+02  0.45594000000E+02  0.51100000000E-03 0.  1.
         11   -1    0    0    0    0 -0.00000000000E+00 -0.00000000000E+00 -0.45593999997E+02  0.45594000000E+02  0.51100000000E-03 0. -1.
    9900012    2    1    2    0    0  0.60360101771E-01  0.10237518876E+01 -0.58233696023E+00  0.90008666457E+02  0.90000940050E+02 0.  0.
        -12    1    1    2    0    0 -0.60360101771E-01 -0.10237518876E+01  0.58233696023E+00  0.11793335425E+01  0.00000000000E+00 0.  1.
         11    1    3    3    0    0 -0.28091634122E+02  0.11246925430E+01 -0.12455616506E+02  0.30749751605E+02  0.51100000000E-03 0. -1.
        -11    1    3    3    0    0 -0.20481597955E+01 -0.20292400881E+02 -0.17265615469E+01  0.20468451507E+02  0.51100000000E-03 0.  1.
        -12    1    3    3    0    0  0.30200154019E+02  0.20191460226E+02  0.13599841093E+02  0.38790463346E+02  0.00000000000E+00 0.  1.
</event>
<event>
 7    1  0.2429906E-015  0.9000778E+02  0.7816164E-02  0.1186339E+00
        -11   -1    0    0    0    0  0.00000000000E+00  0.00000000000E+00  0.45593999997E+02  0.45594000000E+02  0.51100000000E-03 0.  1.
         11   -1    0    0    0    0 -0.00000000000E+00 -0.00000000000E+00 -0.45593999997E+02  0.45594000000E+02  0.51100000000E-03 0. -1.
    9900012    2    1    2    0    0 -0.10944452819E-02 -0.58148981550E+00 -0.10270265292E+01  0.90007781760E+02  0.90000043679E+02 0.  0.
        -12    1    1    2    0    0  0.10944452819E-02  0.58148981550E+00  0.10270265292E+01  0.11802182404E+01  0.00000000000E+00 0.  1.
         11    1    3    3    0    0  0.87286122375E+01  0.44108266721E+01  0.72591959399E+01  0.12179490526E+02  0.51100000000E-03 0. -1.
        -11    1    3    3    0    0 -0.64219029248E+01 -0.14568175312E+02  0.32328525110E+02  0.36036177727E+02  0.51100000000E-03 0.  1.
         12    1    3    3    0    0 -0.23078037579E+01  0.95758588246E+01 -0.40614747579E+02  0.41792113507E+02  0.00000000000E+00 0. -1.
</event>
<event>
 7    1  0.2429906E-015  0.9000776E+02  0.7816164E-02  0.1186339E+00
        -11   -1    0    0    0    0  0.00000000000E+00  0.00000000000E+00  0.45593999997E+02  0.45594000000E+02  0.51100000000E-03 0.  1.
         11   -1    0    0    0    0 -0.00000000000E+00 -0.00000000000E+00 -0.45593999997E+02  0.45594000000E+02  0.51100000000E-03 0. -1.
    9900012    2    1    2    0    0 -0.73329581414E+00 -0.25079572865E+00 -0.89014046235E+00  0.90007757952E+02  0.90000019557E+02 0.  0.
        -12    1    1    2    0    0  0.73329581414E+00  0.25079572865E+00  0.89014046235E+00  0.11802420477E+01  0.00000000000E+00 0.  1.
         11    1    3    3    0    0  0.18241530509E+02  0.11573054250E+01 -0.35931351228E+02  0.40313208661E+02  0.51100000000E-03 0. -1.
        -11    1    3    3    0    0  0.79783287258E+01 -0.73278119438E+00  0.56109412764E+01  0.97812759804E+01  0.51100000000E-03 0.  1.
        -12    1    3    3    0    0 -0.26953155049E+02 -0.67531995923E+00  0.29430269490E+02  0.39913273311E+02  0.00000000000E+00 0.  1.
</event>
<event>
 7    1  0.2429906E-015  0.9000773E+02  0.7816164E-02  0.1186339E+00
        -11   -1    0    0    0    0  0.00000000000E+00  0.00000000000E+00  0.45593999997E+02  0.45594000000E+02  0.51100000000E-03 0. -1.
         11   -1    0    0    0    0 -0.00000000000E+00 -0.00000000000E+00 -0.45593999997E+02  0.45594000000E+02  0.51100000000E-03 0.  1.
    9900012    2    1    2    0    0  0.10007046422E+01  0.61509736420E+00  0.11522116128E+00  0.90007732884E+02  0.89999994158E+02 0.  0.
        -12    1    1    2    0    0 -0.10007046422E+01 -0.61509736420E+00 -0.11522116128E+00  0.11802671157E+01  0.00000000000E+00 0.  1.
         11    1    3    3    0    0  0.91722306733E+00  0.36545472624E+02  0.41984724734E+01  0.36797283036E+02  0.51100000000E-03 0. -1.
        -11    1    3    3    0    0  0.43506398524E+01  0.78804990033E+01  0.17008402559E-01  0.90017010178E+01  0.51100000000E-03 0.  1.
        -12    1    3    3    0    0 -0.42671582775E+01 -0.43810874263E+02 -0.41002597146E+01  0.44208748831E+02  0.00000000000E+00 0.  1.
</event>
<event>
 7    1  0.2429906E-015  0.9000780E+02  0.7816164E-02  0.1186339E+00
        -11   -1    0    0    0    0  0.00000000000E+00  0.00000000000E+00  0.45593999997E+02  0.45594000000E+02  0.51100000000E-03 0.  1.
         11   -1    0    0    0    0 -0.00000000000E+00 -0.00000000000E+00 -0.45593999997E+02  0.45594000000E+02  0.51100000000E-03 0. -1.
    9900012    2    1    2    0    0 -0.26213029450E+00  0.75053747108E+00 -0.87226715502E+00  0.90007801383E+02  0.90000063561E+02 0.  0.
        -12    1    1    2    0    0  0.26213029450E+00 -0.75053747108E+00  0.87226715502E+00  0.11801986174E+01  0.00000000000E+00 0.  1.
         11    1    3    3    0    0  0.19821224234E+01  0.38190152528E+02  0.12801830244E+02  0.40327452402E+02  0.51100000000E-03 0. -1.
        -11    1    3    3    0    0 -0.83558253713E+01 -0.17950638065E+01  0.39903723355E+01  0.94321335520E+01  0.51100000000E-03 0.  1.
        -12    1    3    3    0    0  0.61115726534E+01 -0.35644551250E+02 -0.17664469735E+02  0.40248215428E+02  0.00000000000E+00 0.  1.
</event>
<event>
 7    1  0.2429906E-015  0.9000839E+02  0.7816164E-02  0.1186338E+00
        -11   -1    0    0    0    0  0.00000000000E+00  0.00000000000E+00  0.45593999997E+02  0.45594000000E+02  0.51100000000E-03 0.  1.
         11   -1    0    0    0    0 -0.00000000000E+00 -0.00000000000E+00 -0.45593999997E+02  0.45594000000E+02  0.51100000000E-03 0. -1.
    9900012    2    1    2    0    0 -0.48830786152E+00 -0.10658747216E+01  0.13015437455E+00  0.90008392586E+02  0.90000662566E+02 0.  0.
        -12    1    1    2    0    0  0.48830786152E+00  0.10658747216E+01 -0.13015437455E+00  0.11796074139E+01  0.00000000000E+00 0.  1.
         11    1    3    3    0    0  0.56500398946E+00 -0.18805587011E+01  0.34143929770E+01  0.39387574435E+01  0.51100000000E-03 0. -1.
        -11    1    3    3    0    0 -0.31893693988E+02 -0.24888092045E+02  0.13367512791E+02  0.42606516407E+02  0.51100000000E-03 0.  1.
         12    1    3    3    0    0  0.30840382137E+02  0.25702776025E+02 -0.16651751393E+02  0.43463118736E+02  0.00000000000E+00 0. -1.
</event>
<event>
 7    1  0.2429906E-015  0.9000783E+02  0.7816164E-02  0.1186339E+00
        -11   -1    0    0    0    0  0.00000000000E+00  0.00000000000E+00  0.45593999997E+02  0.45594000000E+02  0.51100000000E-03 0. -1.
         11   -1    0    0    0    0 -0.00000000000E+00 -0.00000000000E+00 -0.45593999997E+02  0.45594000000E+02  0.51100000000E-03 0.  1.
    9900012    2    1    2    0    0 -0.66199504683E+00 -0.86680230592E+00  0.45079268710E+00  0.90007831484E+02  0.90000094059E+02 0.  0.
        -12    1    1    2    0    0  0.66199504683E+00  0.86680230592E+00 -0.45079268710E+00  0.11801685161E+01  0.00000000000E+00 0.  1.
         11    1    3    3    0    0  0.28497547745E+01 -0.72075717849E+01  0.38607747255E+01  0.86588552969E+01  0.51100000000E-03 0. -1.
        -11    1    3    3    0    0 -0.34658901944E+02  0.17860131708E+02  0.16819984167E+02  0.42463344854E+02  0.51100000000E-03 0.  1.
         12    1    3    3    0    0  0.31147152122E+02 -0.11519362229E+02 -0.20229966205E+02  0.38885631333E+02  0.00000000000E+00 0. -1.
</event>
<event>
 7    1  0.2429906E-015  0.9000769E+02  0.7816164E-02  0.1186339E+00
        -11   -1    0    0    0    0  0.00000000000E+00  0.00000000000E+00  0.45593999997E+02  0.45594000000E+02  0.51100000000E-03 0. -1.
         11   -1    0    0    0    0 -0.00000000000E+00 -0.00000000000E+00 -0.45593999997E+02  0.45594000000E+02  0.51100000000E-03 0.  1.
    9900012    2    1    2    0    0 -0.43145951315E+00 -0.15589780606E+00  0.10875066293E+01  0.90007689826E+02  0.89999950532E+02 0.  0.
        -12    1    1    2    0    0  0.43145951315E+00  0.15589780606E+00 -0.10875066293E+01  0.11803101738E+01  0.00000000000E+00 0.  1.
         11    1    3    3    0    0 -0.54400626864E+01  0.48722967740E+01  0.62324847668E+01  0.96009074839E+01  0.51100000000E-03 0. -1.
        -11    1    3    3    0    0  0.83251855873E+01 -0.16335408530E+01 -0.42202390961E+02  0.43046706887E+02  0.51100000000E-03 0.  1.
         12    1    3    3    0    0 -0.33165824141E+01 -0.33946537271E+01  0.37057412823E+02  0.37360075455E+02  0.00000000000E+00 0. -1.
</event>
<event>
 7    1  0.2429906E-015  0.9000773E+02  0.7816164E-02  0.1186339E+00
        -11   -1    0    0    0    0  0.00000000000E+00  0.00000000000E+00  0.45593999997E+02  0.45594000000E+02  0.51100000000E-03 0.  1.
         11   -1    0    0    0    0 -0.00000000000E+00 -0.00000000000E+00 -0.45593999997E+02  0.45594000000E+02  0.51100000000E-03 0. -1.
    9900012    2    1    2    0    0  0.61540591709E-01 -0.48830795818E+00 -0.10727544548E+01  0.90007731375E+02  0.89999992629E+02 0.  0.
        -12    1    1    2    0    0 -0.61540591709E-01  0.48830795818E+00  0.10727544548E+01  0.11802686248E+01  0.00000000000E+00 0.  1.
         11    1    3    3    0    0 -0.20433439708E+02 -0.12461514220E+02 -0.30681337384E+02  0.38912199358E+02  0.51100000000E-03 0. -1.
        -11    1    3    3    0    0 -0.87335659586E+01 -0.10334817954E+01  0.24472770022E+01  0.91286594833E+01  0.51100000000E-03 0.  1.
        -12    1    3    3    0    0  0.29228546259E+02  0.13006688057E+02  0.27161305927E+02  0.41966872534E+02  0.00000000000E+00 0.  1.
</event>
<event>
 7    1  0.2429906E-015  0.9000779E+02  0.7816164E-02  0.1186339E+00
        -11   -1    0    0    0    0  0.00000000000E+00  0.00000000000E+00  0.45593999997E+02  0.45594000000E+02  0.51100000000E-03 0.  1.
         11   -1    0    0    0    0 -0.00000000000E+00 -0.00000000000E+00 -0.45593999997E+02  0.45594000000E+02  0.51100000000E-03 0. -1.
    9900012    2    1    2    0    0  0.11135117382E+01 -0.25147265462E+00 -0.29959194751E+00  0.90007787213E+02  0.90000049204E+02 0.  0.
        -12    1    1    2    0    0 -0.11135117382E+01  0.25147265462E+00  0.29959194751E+00  0.11802127868E+01  0.00000000000E+00 0.  1.
         11    1    3    3    0    0 -0.65416490938E+01  0.95843831127E+01  0.73435586736E+00  0.11627246076E+02  0.51100000000E-03 0. -1.
        -11    1    3    3    0    0  0.22175864731E+02  0.15200786819E+02  0.26988507981E+02  0.38094782579E+02  0.51100000000E-03 0.  1.
         12    1    3    3    0    0 -0.14520703899E+02 -0.25036642587E+02 -0.28022455796E+02  0.40285758557E+02  0.00000000000E+00 0. -1.
</event>
<event>
 7    1  0.2429906E-015  0.9000775E+02  0.7816164E-02  0.1186339E+00
        -11   -1    0    0    0    0  0.00000000000E+00  0.00000000000E+00  0.45593999997E+02  0.45594000000E+02  0.51100000000E-03 0. -1.
         11   -1    0    0    0    0 -0.00000000000E+00 -0.00000000000E+00 -0.45593999997E+02  0.45594000000E+02  0.51100000000E-03 0.  1.
    9900012    2    1    2    0    0 -0.31778754061E+00  0.72565421381E+00  0.87488034991E+00  0.90007754862E+02  0.90000016426E+02 0.  0.
        -12    1    1    2    0    0  0.31778754061E+00 -0.72565421381E+00 -0.87488034991E+00  0.11802451379E+01  0.00000000000E+00 0.  1.
         11    1    3    3    0    0 -0.12281687236E+01  0.12913296658E+01  0.86793643214E+01  0.88604343011E+01  0.51100000000E-03 0. -1.
        -11    1    3    3    0    0  0.31455089512E+01  0.39815214825E+02 -0.78560667966E+01  0.40704586276E+02  0.51100000000E-03 0.  1.
         12    1    3    3    0    0 -0.22351277682E+01 -0.40380890277E+02  0.51582825156E-01  0.40442734285E+02  0.00000000000E+00 0. -1.
</event>
<event>
 7    1  0.2429906E-015  0.9000773E+02  0.7816164E-02  0.1186339E+00
        -11   -1    0    0    0    0  0.00000000000E+00  0.00000000000E+00  0.45593999997E+02  0.45594000000E+02  0.51100000000E-03 0.  1.
         11   -1    0    0    0    0 -0.00000000000E+00 -0.00000000000E+00 -0.45593999997E+02  0.45594000000E+02  0.51100000000E-03 0. -1.
    9900012    2    1    2    0    0 -0.75618711902E+00 -0.90275710223E+00  0.78991135421E-01  0.90007733528E+02  0.89999994811E+02 0.  0.
        -12    1    1    2    0    0  0.75618711902E+00  0.90275710223E+00 -0.78991135421E-01  0.11802664716E+01  0.00000000000E+00 0.  1.
         11    1    3    3    0    0  0.87340390982E+01 -0.25842231624E+01 -0.46987331837E+01  0.10248889799E+02  0.51100000000E-03 0. -1.
        -11    1    3    3    0    0  0.16522088704E+02  0.34183698556E+02  0.14151526795E+01  0.37993516808E+02  0.51100000000E-03 0.  1.
         12    1    3    3    0    0 -0.26012314922E+02 -0.32502232496E+02  0.33625716397E+01  0.41765326921E+02  0.00000000000E+00 0. -1.
</event>
<event>
 7    1  0.2429906E-015  0.9000773E+02  0.7816164E-02  0.1186339E+00
        -11   -1    0    0    0    0  0.00000000000E+00  0.00000000000E+00  0.45593999997E+02  0.45594000000E+02  0.51100000000E-03 0.  1.
         11   -1    0    0    0    0 -0.00000000000E+00 -0.00000000000E+00 -0.45593999997E+02  0.45594000000E+02  0.51100000000E-03 0. -1.
    9900012    2    1    2    0    0  0.69317470507E-01  0.11758469248E+01 -0.74923322984E-01  0.90007731214E+02  0.89999992466E+02 0.  0.
        -12    1    1    2    0    0 -0.69317470507E-01 -0.11758469248E+01  0.74923322984E-01  0.11802687857E+01  0.00000000000E+00 0.  1.
         11    1    3    3    0    0  0.45184886879E+01 -0.32391450048E+00  0.73672761177E+00  0.45896000328E+01  0.51100000000E-03 0. -1.
        -11    1    3    3    0    0  0.32911317559E+02  0.21298777377E+01  0.23803623671E+02  0.40673132443E+02  0.51100000000E-03 0.  1.
         12    1    3    3    0    0 -0.37360488776E+02 -0.63011631245E+00 -0.24615274605E+02  0.44744998738E+02  0.00000000000E+00 0. -1.
</event>
<event>
 7    1  0.2429906E-015  0.9000773E+02  0.7816164E-02  0.1186339E+00
        -11   -1    0    0    0    0  0.00000000000E+00  0.00000000000E+00  0.45593999997E+02  0.45594000000E+02  0.51100000000E-03 0. -1.
         11   -1    0    0    0    0 -0.00000000000E+00 -0.00000000000E+00 -0.45593999997E+02  0.45594000000E+02  0.51100000000E-03 0.  1.
    9900012    2    1    2    0    0 -0.48555432027E+00  0.31918821866E+00  0.10273190344E+01  0.90007733710E+02  0.89999994995E+02 0.  0.
        -12    1    1    2    0    0  0.48555432027E+00 -0.31918821866E+00 -0.10273190344E+01  0.11802662900E+01  0.00000000000E+00 0.  1.
         11    1    3    3    0    0  0.91832448252E+01  0.35472982104E+02  0.23734541312E+02  0.43657678551E+02  0.51100000000E-03 0. -1.
        -11    1    3    3    0    0 -0.89392477455E+01 -0.76648960131E+01 -0.20399750753E+01  0.11950827575E+02  0.51100000000E-03 0.  1.
        -12    1    3    3    0    0 -0.72955139995E+00 -0.27488897872E+02 -0.20667247203E+02  0.34399227585E+02  0.00000000000E+00 0.  1.
</event>
<event>
 7    1  0.2429906E-015  0.9000783E+02  0.7816164E-02  0.1186339E+00
        -11   -1    0    0    0    0  0.00000000000E+00  0.00000000000E+00  0.45593999997E+02  0.45594000000E+02  0.51100000000E-03 0.  1.
         11   -1    0    0    0    0 -0.00000000000E+00 -0.00000000000E+00 -0.45593999997E+02  0.45594000000E+02  0.51100000000E-03 0. -1.
    9900012    2    1    2    0    0 -0.10545574116E+01 -0.23203169702E+00 -0.47631482187E+00  0.90007828041E+02  0.90000090571E+02 0.  0.
        -12    1    1    2    0    0  0.10545574116E+01  0.23203169702E+00  0.47631482187E+00  0.11801719588E+01  0.00000000000E+00 0.  1.
         11    1    3    3    0    0  0.79122139921E+01 -0.78808939224E+01  0.28518305552E+01  0.11525821318E+02  0.51100000000E-03 0. -1.
        -11    1    3    3    0    0  0.22186256722E+02 -0.14961756290E+02  0.20056860293E+02  0.33441916567E+02  0.51100000000E-03 0.  1.
         12    1    3    3    0    0 -0.31153028126E+02  0.22610618516E+02 -0.23385005670E+02  0.45040090156E+02  0.00000000000E+00 0. -1.
</event>
<event>
 7    1  0.2429906E-015  0.9000747E+02  0.7816164E-02  0.1186340E+00
        -11   -1    0    0    0    0  0.00000000000E+00  0.00000000000E+00  0.45593999997E+02  0.45594000000E+02  0.51100000000E-03 0.  1.
         11   -1    0    0    0    0 -0.00000000000E+00 -0.00000000000E+00 -0.45593999997E+02  0.45594000000E+02  0.51100000000E-03 0. -1.
    9900012    2    1    2    0    0 -0.48381863086E+00 -0.74807881377E-01 -0.10742331028E+01  0.90007468998E+02  0.89999726789E+02 0.  0.
        -12    1    1    2    0    0  0.48381863086E+00  0.74807881377E-01  0.10742331028E+01  0.11805310016E+01  0.00000000000E+00 0.  1.
         11    1    3    3    0    0  0.20242671547E+01 -0.10370127236E+02 -0.15521812318E+01  0.10679253871E+02  0.51100000000E-03 0. -1.
        -11    1    3    3    0    0  0.29632146280E+02 -0.26557646595E+01  0.23340617598E+02  0.37814039842E+02  0.51100000000E-03 0.  1.
         12    1    3    3    0    0 -0.32140232065E+02  0.12951084014E+02 -0.22862669469E+02  0.41514175285E+02  0.00000000000E+00 0. -1.
</event>
<event>
 7    1  0.2429906E-015  0.9000776E+02  0.7816164E-02  0.1186339E+00
        -11   -1    0    0    0    0  0.00000000000E+00  0.00000000000E+00  0.45593999997E+02  0.45594000000E+02  0.51100000000E-03 0.  1.
         11   -1    0    0    0    0 -0.00000000000E+00 -0.00000000000E+00 -0.45593999997E+02  0.45594000000E+02  0.51100000000E-03 0. -1.
    9900012    2    1    2    0    0  0.10624152474E+01 -0.46243028178E+00  0.22451629511E+00  0.90007756173E+02  0.90000017755E+02 0.  0.
        -12    1    1    2    0    0 -0.10624152474E+01  0.46243028178E+00 -0.22451629511E+00  0.11802438266E+01  0.00000000000E+00 0.  1.
         11    1    3    3    0    0  0.64619081254E+01 -0.59387365164E+01 -0.31280381520E+01  0.93171600273E+01  0.51100000000E-03 0. -1.
        -11    1    3    3    0    0  0.20040861726E+01 -0.33789031214E+02  0.17748172439E+02  0.38219270230E+02  0.51100000000E-03 0.  1.
         12    1    3    3    0    0 -0.74035790506E+01  0.39265337448E+02 -0.14395617992E+02  0.42471325916E+02  0.00000000000E+00 0. -1.
</event>
<event>
 7    1  0.2429906E-015  0.9000771E+02  0.7816164E-02  0.1186339E+00
        -11   -1    0    0    0    0  0.00000000000E+00  0.00000000000E+00  0.45593999997E+02  0.45594000000E+02  0.51100000000E-03 0. -1.
         11   -1    0    0    0    0 -0.00000000000E+00 -0.00000000000E+00 -0.45593999997E+02  0.45594000000E+02  0.51100000000E-03 0.  1.
    9900012    2    1    2    0    0 -0.11572452990E-01 -0.11766437307E+01 -0.91963939562E-01  0.90007711155E+02  0.89999972143E+02 0.  0.
        -12    1    1    2    0    0  0.11572452990E-01  0.11766437307E+01  0.91963939562E-01  0.11802888447E+01  0.00000000000E+00 0.  1.
         11    1    3    3    0    0  0.88643417446E+01 -0.66214139152E+01 -0.39403354615E+00  0.11071356714E+02  0.51100000000E-03 0. -1.
        -11    1    3    3    0    0  0.27292615754E+02 -0.14710638013E+02 -0.15443749345E+02  0.34638116859E+02  0.51100000000E-03 0.  1.
         12    1    3    3    0    0 -0.36168529951E+02  0.20155408198E+02  0.15745818951E+02  0.44298237582E+02  0.00000000000E+00 0. -1.
</event>
<event>
 7    1  0.2429906E-015  0.9000777E+02  0.7816164E-02  0.1186339E+00
        -11   -1    0    0    0    0  0.00000000000E+00  0.00000000000E+00  0.45593999997E+02  0.45594000000E+02  0.51100000000E-03 0.  1.
         11   -1    0    0    0    0 -0.00000000000E+00 -0.00000000000E+00 -0.45593999997E+02  0.45594000000E+02  0.51100000000E-03 0. -1.
    9900012    2    1    2    0    0 -0.19092282487E+00  0.86939804586E+00 -0.77500589147E+00  0.90007771794E+02  0.90000033581E+02 0.  0.
        -12    1    1    2    0    0  0.19092282487E+00 -0.86939804586E+00  0.77500589147E+00  0.11802282063E+01  0.00000000000E+00 0.  1.
         11    1    3    3    0    0 -0.15606523510E+01 -0.87052822397E+00 -0.33341081417E+02  0.33388937771E+02  0.51100000000E-03 0. -1.
        -11    1    3    3    0    0  0.93359261459E-01 -0.50743805376E+01 -0.11205687850E+02  0.12301442771E+02  0.51100000000E-03 0.  1.
        -12    1    3    3    0    0  0.12763702647E+01  0.68143068074E+01  0.43771763376E+02  0.44317391252E+02  0.00000000000E+00 0.  1.
</event>
<event>
 7    1  0.2429906E-015  0.9000774E+02  0.7816164E-02  0.1186339E+00
        -11   -1    0    0    0    0  0.00000000000E+00  0.00000000000E+00  0.45593999997E+02  0.45594000000E+02  0.51100000000E-03 0. -1.
         11   -1    0    0    0    0 -0.00000000000E+00 -0.00000000000E+00 -0.45593999997E+02  0.45594000000E+02  0.51100000000E-03 0.  1.
    9900012    2    1    2    0    0 -0.11360827544E+01 -0.30517856539E+00 -0.95879678852E-01  0.90007741175E+02  0.90000002558E+02 0.  0.
        -12    1    1    2    0    0  0.11360827544E+01  0.30517856539E+00  0.95879678852E-01  0.11802588252E+01  0.00000000000E+00 0.  1.
         11    1    3    3    0    0 -0.23604159907E+02  0.27713951758E+02  0.51631575211E+01  0.36767889290E+02  0.51100000000E-03 0. -1.
        -11    1    3    3    0    0  0.80042692852E+01  0.92268068285E+01 -0.52215642260E+01  0.13284089140E+02  0.51100000000E-03 0.  1.
        -12    1    3    3    0    0  0.14463807867E+02 -0.37245937152E+02 -0.37472973985E-01  0.39955762746E+02  0.00000000000E+00 0.  1.
</event>
<event>
 7    1  0.2429906E-015  0.9000781E+02  0.7816164E-02  0.1186339E+00
        -11   -1    0    0    0    0  0.00000000000E+00  0.00000000000E+00  0.45593999997E+02  0.45594000000E+02  0.51100000000E-03 0.  1.
         11   -1    0    0    0    0 -0.00000000000E+00 -0.00000000000E+00 -0.45593999997E+02  0.45594000000E+02  0.51100000000E-03 0. -1.
    9900012    2    1    2    0    0  0.84037591108E+00  0.78899195123E+00 -0.25321551928E+00  0.90007805918E+02  0.90000068156E+02 0.  0.
        -12    1    1    2    0    0 -0.84037591108E+00 -0.78899195123E+00  0.25321551928E+00  0.11801940816E+01  0.00000000000E+00 0.  1.
         11    1    3    3    0    0  0.83765068701E+00 -0.10728541898E+02  0.13846873946E+01  0.10849913796E+02  0.51100000000E-03 0. -1.
        -11    1    3    3    0    0 -0.23460176304E+02  0.33427966671E+02  0.14360047900E+02  0.43289950381E+02  0.51100000000E-03 0.  1.
         12    1    3    3    0    0  0.23462901528E+02 -0.21910432822E+02 -0.15997950814E+02  0.35867941742E+02  0.00000000000E+00 0. -1.
</event>
<event>
 7    1  0.2429906E-015  0.9000776E+02  0.7816164E-02  0.1186339E+00
        -11   -1    0    0    0    0  0.00000000000E+00  0.00000000000E+00  0.45593999997E+02  0.45594000000E+02  0.51100000000E-03 0.  1.
         11   -1    0    0    0    0 -0.00000000000E+00 -0.00000000000E+00 -0.45593999997E+02  0.45594000000E+02  0.51100000000E-03 0. -1.
    9900012    2    1    2    0    0 -0.81941947474E+00 -0.56530328295E+00  0.63399699320E+00  0.90007759234E+02  0.90000020856E+02 0.  0.
        -12    1    1    2    0    0  0.81941947474E+00  0.56530328295E+00 -0.63399699320E+00  0.11802407656E+01  0.00000000000E+00 0.  1.
         11    1    3    3    0    0 -0.47556227228E+01  0.33479211940E+02 -0.29662649784E+01  0.33945136732E+02  0.51100000000E-03 0. -1.
        -11    1    3    3    0    0 -0.80356586837E+01  0.84538765941E+01  0.23170305753E+01  0.11891529376E+02  0.51100000000E-03 0.  1.
        -12    1    3    3    0    0  0.11971861932E+02 -0.42498391817E+02  0.12832313963E+01  0.44171093126E+02  0.00000000000E+00 0.  1.
</event>
<event>
 7    1  0.2429906E-015  0.9000783E+02  0.7816164E-02  0.1186339E+00
        -11   -1    0    0    0    0  0.00000000000E+00  0.00000000000E+00  0.45593999997E+02  0.45594000000E+02  0.51100000000E-03 0. -1.
         11   -1    0    0    0    0 -0.00000000000E+00 -0.00000000000E+00 -0.45593999997E+02  0.45594000000E+02  0.51100000000E-03 0.  1.
    9900012    2    1    2    0    0 -0.39498490873E+00  0.10745080835E+01 -0.28674194427E+00  0.90007829825E+02  0.90000092379E+02 0.  0.
        -12    1    1    2    0    0  0.39498490873E+00 -0.10745080835E+01  0.28674194427E+00  0.11801701751E+01  0.00000000000E+00 0.  1.
         11    1    3    3    0    0  0.52131686501E+01 -0.37568561201E+02  0.39257956316E+01  0.38131165596E+02  0.51100000000E-03 0. -1.
        -11    1    3    3    0    0  0.90112687212E+01 -0.10635875386E+01 -0.29644042026E+01  0.95457778601E+01  0.51100000000E-03 0.  1.
        -12    1    3    3    0    0 -0.14619422280E+02  0.39706656823E+02 -0.12481333733E+01  0.42330886369E+02  0.00000000000E+00 0.  1.
</event>
<event>
 8    1  0.2429906E-015  0.9000774E+02  0.7816164E-02  0.1186339E+00
        -11   -1    0    0    0    0  0.00000000000E+00  0.00000000000E+00  0.45593999997E+02  0.45594000000E+02  0.51100000000E-03 0.  1.
         11   -1    0    0    0    0 -0.00000000000E+00 -0.00000000000E+00 -0.45593999997E+02  0.45594000000E+02  0.51100000000E-03 0. -1.
    9900012    2    1    2    0    0 -0.32056562095E+00  0.11078588933E+01  0.25082084544E+00  0.90007735309E+02  0.89999996615E+02 0.  0.
         23    2    3    3    0    0 -0.15728547566E+02 -0.12619348251E+02 -0.18782296317E+02  0.61934586706E+02  0.55466054634E+02 0.  0.
        -12    1    1    2    0    0  0.32056562095E+00 -0.11078588933E+01 -0.25082084544E+00  0.11802646912E+01  0.00000000000E+00 0.  1.
         11    1    4    4    0    0  0.27732078349E+01  0.18515931896E+02 -0.17602289714E+02  0.25697685092E+02  0.51100000000E-03 0. -1.
        -11    1    4    4    0    0 -0.18501755401E+02 -0.31135280146E+02 -0.11800066023E+01  0.36236901613E+02  0.51100000000E-03 0.  1.
         12    1    3    3    0    0  0.15407981945E+02  0.13727207144E+02  0.19033117162E+02  0.28073148603E+02  0.00000000000E+00 0. -1.
</event>
<event>
 7    1  0.2429906E-015  0.9000765E+02  0.7816164E-02  0.1186339E+00
        -11   -1    0    0    0    0  0.00000000000E+00  0.00000000000E+00  0.45593999997E+02  0.45594000000E+02  0.51100000000E-03 0. -1.
         11   -1    0    0    0    0 -0.00000000000E+00 -0.00000000000E+00 -0.45593999997E+02  0.45594000000E+02  0.51100000000E-03 0.  1.
    9900012    2    1    2    0    0  0.68383397674E+00 -0.72475035285E+00 -0.63272447381E+00  0.90007647408E+02  0.89999907554E+02 0.  0.
        -12    1    1    2    0    0 -0.68383397674E+00  0.72475035285E+00  0.63272447381E+00  0.11803525920E+01  0.00000000000E+00 0.  1.
         11    1    3    3    0    0  0.90552281110E+01 -0.76402623016E+00 -0.44862284415E+01  0.10134453025E+02  0.51100000000E-03 0. -1.
        -11    1    3    3    0    0  0.23132684696E+02 -0.11118012240E+01 -0.27130440365E+02  0.35670968558E+02  0.51100000000E-03 0.  1.
         12    1    3    3    0    0 -0.31504078831E+02  0.11510771013E+01  0.30983944333E+02  0.44202225825E+02  0.00000000000E+00 0. -1.
</event>
<event>
 7    1  0.2429906E-015  0.9000774E+02  0.7816164E-02  0.1186339E+00
        -11   -1    0    0    0    0  0.00000000000E+00  0.00000000000E+00  0.45593999997E+02  0.45594000000E+02  0.51100000000E-03 0.  1.
         11   -1    0    0    0    0 -0.00000000000E+00 -0.00000000000E+00 -0.45593999997E+02  0.45594000000E+02  0.51100000000E-03 0. -1.
    9900012    2    1    2    0    0  0.33069291638E+00 -0.89970706218E+00 -0.68861551949E+00  0.90007736497E+02  0.89999997819E+02 0.  0.
        -12    1    1    2    0    0 -0.33069291638E+00  0.89970706218E+00  0.68861551949E+00  0.11802635029E+01  0.00000000000E+00 0.  1.
         11    1    3    3    0    0  0.21172371270E+02 -0.43349146163E+01 -0.35817394938E+02  0.41832362715E+02  0.51100000000E-03 0. -1.
        -11    1    3    3    0    0  0.74962876216E+00 -0.80440401819E+01  0.55700872269E+01  0.98129708909E+01  0.51100000000E-03 0.  1.
        -12    1    3    3    0    0 -0.21591307115E+02  0.11479247736E+02  0.29558692191E+02  0.38362402891E+02  0.00000000000E+00 0.  1.
</event>
<event>
 7    1  0.2429906E-015  0.9000771E+02  0.7816164E-02  0.1186339E+00
        -11   -1    0    0    0    0  0.00000000000E+00  0.00000000000E+00  0.45593999997E+02  0.45594000000E+02  0.51100000000E-03 0. -1.
         11   -1    0    0    0    0 -0.00000000000E+00 -0.00000000000E+00 -0.45593999997E+02  0.45594000000E+02  0.51100000000E-03 0.  1.
    9900012    2    1    2    0    0 -0.46183738176E+00 -0.10719187591E+01 -0.17544051382E+00  0.90007710643E+02  0.89999971623E+02 0.  0.
        -12    1    1    2    0    0  0.46183738176E+00  0.10719187591E+01  0.17544051382E+00  0.11802893574E+01  0.00000000000E+00 0.  1.
         11    1    3    3    0    0 -0.27455209805E+02  0.14867875612E+02  0.25302297126E+02  0.40187666152E+02  0.51100000000E-03 0. -1.
        -11    1    3    3    0    0 -0.32454191661E+01 -0.76239184746E+01  0.15373705127E+01  0.84273594219E+01  0.51100000000E-03 0.  1.
        -12    1    3    3    0    0  0.30238791589E+02 -0.83158758961E+01 -0.27015108153E+02  0.41392685069E+02  0.00000000000E+00 0.  1.
</event>
<event>
 7    1  0.2429906E-015  0.9000775E+02  0.7816164E-02  0.1186339E+00
        -11   -1    0    0    0    0  0.00000000000E+00  0.00000000000E+00  0.45593999997E+02  0.45594000000E+02  0.51100000000E-03 0. -1.
         11   -1    0    0    0    0 -0.00000000000E+00 -0.00000000000E+00 -0.45593999997E+02  0.45594000000E+02  0.51100000000E-03 0.  1.
    9900012    2    1    2    0    0 -0.10182369285E+01 -0.51869164750E+00 -0.29521834204E+00  0.90007745224E+02  0.90000006661E+02 0.  0.
        -12    1    1    2    0    0  0.10182369285E+01  0.51869164750E+00  0.29521834204E+00  0.11802547764E+01  0.00000000000E+00 0.  1.
         11    1    3    3    0    0 -0.36232571482E+02  0.21889996075E+01  0.27906330998E+01  0.36405749393E+02  0.51100000000E-03 0. -1.
        -11    1    3    3    0    0  0.16321778326E+01  0.10393331442E+02  0.10702604963E+02  0.15007701229E+02  0.51100000000E-03 0.  1.
        -12    1    3    3    0    0  0.33582156721E+02 -0.13101022697E+02 -0.13788456405E+02  0.38594294601E+02  0.00000000000E+00 0.  1.
</event>
<event>
 7    1  0.2429906E-015  0.9000775E+02  0.7816164E-02  0.1186339E+00
        -11   -1    0    0    0    0  0.00000000000E+00  0.00000000000E+00  0.45593999997E+02  0.45594000000E+02  0.51100000000E-03 0. -1.
         11   -1    0    0    0    0 -0.00000000000E+00 -0.00000000000E+00 -0.45593999997E+02  0.45594000000E+02  0.51100000000E-03 0.  1.
    9900012    2    1    2    0    0  0.96701103388E+00 -0.48736577762E+00 -0.46942479264E+00  0.90007747749E+02  0.90000009219E+02 0.  0.
        -12    1    1    2    0    0 -0.96701103388E+00  0.48736577762E+00  0.46942479264E+00  0.11802522513E+01  0.00000000000E+00 0.  1.
         11    1    3    3    0    0 -0.15039714647E+01 -0.52677138924E+01  0.72079609532E+01  0.90534767456E+01  0.51100000000E-03 0. -1.
        -11    1    3    3    0    0 -0.26486074831E+02  0.63515935347E+01 -0.32765966658E+02  0.42608255910E+02  0.51100000000E-03 0.  1.
         12    1    3    3    0    0  0.28957057330E+02 -0.15712454199E+01  0.25088580912E+02  0.38346015093E+02  0.00000000000E+00 0. -1.
</event>
<event>
 7    1  0.2429906E-015  0.9000774E+02  0.7816164E-02  0.1186339E+00
        -11   -1    0    0    0    0  0.00000000000E+00  0.00000000000E+00  0.45593999997E+02  0.45594000000E+02  0.51100000000E-03 0.  1.
         11   -1    0    0    0    0 -0.00000000000E+00 -0.00000000000E+00 -0.45593999997E+02  0.45594000000E+02  0.51100000000E-03 0. -1.
    9900012    2    1    2    0    0 -0.76303996059E+00 -0.60734121981E+00 -0.66476226047E+00  0.90007744857E+02  0.90000006289E+02 0.  0.
        -12    1    1    2    0    0  0.76303996059E+00  0.60734121981E+00  0.66476226047E+00  0.11802551426E+01  0.00000000000E+00 0.  1.
         11    1    3    3    0    0 -0.31940000320E+00  0.99371873507E+01  0.14215091255E+01  0.10043425574E+02  0.51100000000E-03 0. -1.
        -11    1    3    3    0    0  0.39314248083E+01  0.11297445476E+02  0.34841687928E+02  0.36837909729E+02  0.51100000000E-03 0.  1.
         12    1    3    3    0    0 -0.43750647657E+01 -0.21841974047E+02 -0.36927959314E+02  0.43126409554E+02  0.00000000000E+00 0. -1.
</event>
<event>
 7    1  0.2429906E-015  0.9000774E+02  0.7816164E-02  0.1186339E+00
        -11   -1    0    0    0    0  0.00000000000E+00  0.00000000000E+00  0.45593999997E+02  0.45594000000E+02  0.51100000000E-03 0. -1.
         11   -1    0    0    0    0 -0.00000000000E+00 -0.00000000000E+00 -0.45593999997E+02  0.45594000000E+02  0.51100000000E-03 0.  1.
    9900012    2    1    2    0    0 -0.90323965378E+00 -0.75944023023E+00  0.20349139858E-01  0.90007743493E+02  0.90000004907E+02 0.  0.
        -12    1    1    2    0    0  0.90323965378E+00  0.75944023023E+00 -0.20349139858E-01  0.11802565073E+01  0.00000000000E+00 0.  1.
         11    1    3    3    0    0  0.53629603656E+01  0.17522682845E+01  0.41748436949E+02  0.42127945310E+02  0.51100000000E-03 0. -1.
        -11    1    3    3    0    0  0.73033129351E+01  0.10260937219E+00 -0.56146329055E+01  0.92126549613E+01  0.51100000000E-03 0.  1.
        -12    1    3    3    0    0 -0.13569512954E+02 -0.26143178869E+01 -0.36113454904E+02  0.38667143222E+02  0.00000000000E+00 0.  1.
</event>
<event>
 7    1  0.2429906E-015  0.9000774E+02  0.7816164E-02  0.1186339E+00
        -11   -1    0    0    0    0  0.00000000000E+00  0.00000000000E+00  0.45593999997E+02  0.45594000000E+02  0.51100000000E-03 0.  1.
         11   -1    0    0    0    0 -0.00000000000E+00 -0.00000000000E+00 -0.45593999997E+02  0.45594000000E+02  0.51100000000E-03 0. -1.
    9900012    2    1    2    0    0  0.22861450352E+00  0.66672936552E+00 -0.94668531085E+00  0.90007743369E+02  0.90000004781E+02 0.  0.
        -12    1    1    2    0    0 -0.22861450352E+00 -0.66672936552E+00  0.94668531085E+00  0.11802566314E+01  0.00000000000E+00 0.  1.
         11    1    3    3    0    0 -0.19784278783E+02  0.12996570234E+02  0.63946606433E+01  0.24519792206E+02  0.51100000000E-03 0. -1.
        -11    1    3    3    0    0 -0.16766529824E+02  0.74504624996E+01 -0.14157130449E+02  0.23174344794E+02  0.51100000000E-03 0.  1.
        -12    1    3    3    0    0  0.36779423111E+02 -0.19780303368E+02  0.68157844952E+01  0.42313606369E+02  0.00000000000E+00 0.  1.
</event>
<event>
 7    1  0.2429906E-015  0.9000792E+02  0.7816164E-02  0.1186339E+00
        -11   -1    0    0    0    0  0.00000000000E+00  0.00000000000E+00  0.45593999997E+02  0.45594000000E+02  0.51100000000E-03 0.  1.
         11   -1    0    0    0    0 -0.00000000000E+00 -0.00000000000E+00 -0.45593999997E+02  0.45594000000E+02  0.51100000000E-03 0. -1.
    9900012    2    1    2    0    0 -0.57266730056E+00 -0.94222062372E+00 -0.42055439240E+00  0.90007917995E+02  0.90000181713E+02 0.  0.
        -12    1    1    2    0    0  0.57266730056E+00  0.94222062372E+00  0.42055439240E+00  0.11800820047E+01  0.00000000000E+00 0.  1.
         11    1    3    3    0    0 -0.37223640690E+02 -0.10006791376E+02  0.35437403409E+00  0.38546866034E+02  0.51100000000E-03 0. -1.
        -11    1    3    3    0    0  0.26706635182E+00 -0.32559035927E+01  0.10846884098E+02  0.11328156405E+02  0.51100000000E-03 0.  1.
        -12    1    3    3    0    0  0.36383907037E+02  0.12320474345E+02 -0.11621812524E+02  0.40132895556E+02  0.00000000000E+00 0.  1.
</event>
<event>
 7    1  0.2429906E-015  0.9000778E+02  0.7816164E-02  0.1186339E+00
        -11   -1    0    0    0    0  0.00000000000E+00  0.00000000000E+00  0.45593999997E+02  0.45594000000E+02  0.51100000000E-03 0. -1.
         11   -1    0    0    0    0 -0.00000000000E+00 -0.00000000000E+00 -0.45593999997E+02  0.45594000000E+02  0.51100000000E-03 0.  1.
    9900012    2    1    2    0    0 -0.36224015932E+00  0.84106533553E+00  0.74452800737E+00  0.90007775112E+02  0.90000036944E+02 0.  0.
        -12    1    1    2    0    0  0.36224015932E+00 -0.84106533553E+00 -0.74452800737E+00  0.11802248876E+01  0.00000000000E+00 0.  1.
         11    1    3    3    0    0  0.11884306462E+02 -0.15447436864E+02 -0.56636299174E+00  0.19498225895E+02  0.51100000000E-03 0. -1.
        -11    1    3    3    0    0 -0.16749008339E+02 -0.24261611746E+02 -0.21752037228E+01  0.29561572968E+02  0.51100000000E-03 0.  1.
        -12    1    3    3    0    0  0.45024617176E+01  0.40550113945E+02  0.34860947219E+01  0.40947976249E+02  0.00000000000E+00 0.  1.
</event>
<event>
 7    1  0.2460721E-015  0.9000754E+02  0.7816164E-02  0.1186339E+00
        -11   -1    0    0    0    0  0.00000000000E+00  0.00000000000E+00  0.45593999997E+02  0.45594000000E+02  0.51100000000E-03 0.  1.
         11   -1    0    0    0    0 -0.00000000000E+00 -0.00000000000E+00 -0.45593999997E+02  0.45594000000E+02  0.51100000000E-03 0. -1.
    9900012    2    1    2    0    0  0.62451312446E+00  0.11545511390E+00 -0.99505673636E+00  0.90007540583E+02  0.89999799319E+02 0.  0.
        -12    1    1    2    0    0 -0.62451312446E+00 -0.11545511390E+00  0.99505673636E+00  0.11804594167E+01  0.00000000000E+00 0.  1.
         11    1    3    3    0    0  0.21936125674E+02 -0.50148565639E+01 -0.28257585392E+02  0.36122479544E+02  0.51100000000E-03 0. -1.
        -11    1    3    3    0    0  0.20898963844E+01 -0.35153339484E+01 -0.89908479179E+01  0.98772762546E+01  0.51100000000E-03 0.  1.
        -12    1    3    3    0    0 -0.23401508934E+02  0.86456456262E+01  0.36253376574E+02  0.44007784785E+02  0.00000000000E+00 0.  1.
</event>
<event>
 7    1  0.2429906E-015  0.9000769E+02  0.7816164E-02  0.1186339E+00
        -11   -1    0    0    0    0  0.00000000000E+00  0.00000000000E+00  0.45593999997E+02  0.45594000000E+02  0.51100000000E-03 0.  1.
         11   -1    0    0    0    0 -0.00000000000E+00 -0.00000000000E+00 -0.45593999997E+02  0.45594000000E+02  0.51100000000E-03 0. -1.
    9900012    2    1    2    0    0  0.33745918355E+00  0.62661942691E+00 -0.94159983679E+00  0.90007686118E+02  0.89999946775E+02 0.  0.
        -12    1    1    2    0    0 -0.33745918355E+00 -0.62661942691E+00  0.94159983679E+00  0.11803138817E+01  0.00000000000E+00 0.  1.
         11    1    3    3    0    0 -0.17826828489E+02  0.80053614179E-01  0.45695022149E+01  0.18403330495E+02  0.51100000000E-03 0. -1.
        -11    1    3    3    0    0 -0.10707375026E+02  0.24492942548E+02  0.13057624938E+02  0.29749851830E+02  0.51100000000E-03 0.  1.
         12    1    3    3    0    0  0.28871662699E+02 -0.23946376735E+02 -0.18568726990E+02  0.41854503793E+02  0.00000000000E+00 0. -1.
</event>
<event>
 7    1  0.2429906E-015  0.9000762E+02  0.7816164E-02  0.1186339E+00
        -11   -1    0    0    0    0  0.00000000000E+00  0.00000000000E+00  0.45593999997E+02  0.45594000000E+02  0.51100000000E-03 0.  1.
         11   -1    0    0    0    0 -0.00000000000E+00 -0.00000000000E+00 -0.45593999997E+02  0.45594000000E+02  0.51100000000E-03 0. -1.
    9900012    2    1    2    0    0 -0.88629854643E+00 -0.33136597016E+00 -0.70566556454E+00  0.90007621921E+02  0.89999881731E+02 0.  0.
        -12    1    1    2    0    0  0.88629854643E+00  0.33136597016E+00  0.70566556454E+00  0.11803780787E+01  0.00000000000E+00 0.  1.
         11    1    3    3    0    0 -0.83358943978E+01 -0.34669527023E+02 -0.24467962140E+01  0.35741433259E+02  0.51100000000E-03 0. -1.
        -11    1    3    3    0    0 -0.41649516668E+01 -0.51053179128E+01 -0.95718760221E+01  0.11620322897E+02  0.51100000000E-03 0.  1.
        -12    1    3    3    0    0  0.11614547518E+02  0.39443478966E+02  0.11313006672E+02  0.42645865766E+02  0.00000000000E+00 0.  1.
</event>
<event>
 7    1  0.3337044E-015  0.9000770E+02  0.7816164E-02  0.1186339E+00
        -11   -1    0    0    0    0  0.00000000000E+00  0.00000000000E+00  0.45593999997E+02  0.45594000000E+02  0.51100000000E-03 0.  1.
         11   -1    0    0    0    0 -0.00000000000E+00 -0.00000000000E+00 -0.45593999997E+02  0.45594000000E+02  0.51100000000E-03 0. -1.
    9900012    2    1    2    0    0  0.44380386710E+00 -0.77085296644E+00 -0.77583613726E+00  0.90007704325E+02  0.89999965222E+02 0.  0.
        -12    1    1    2    0    0 -0.44380386710E+00  0.77085296644E+00  0.77583613726E+00  0.11802956749E+01  0.00000000000E+00 0.  1.
         11    1    3    3    0    0 -0.12761510443E+02 -0.13801932481E+02 -0.31265980690E+02  0.36481653441E+02  0.51100000000E-03 0. -1.
        -11    1    3    3    0    0 -0.52511160558E+01  0.14015694837E+01 -0.77709387764E+01  0.94829376554E+01  0.51100000000E-03 0.  1.
        -12    1    3    3    0    0  0.18456430366E+02  0.11629510030E+02  0.38261083329E+02  0.44043113229E+02  0.00000000000E+00 0.  1.
</event>
<event>
 7    1  0.2429906E-015  0.9000780E+02  0.7816164E-02  0.1186339E+00
        -11   -1    0    0    0    0  0.00000000000E+00  0.00000000000E+00  0.45593999997E+02  0.45594000000E+02  0.51100000000E-03 0. -1.
         11   -1    0    0    0    0 -0.00000000000E+00 -0.00000000000E+00 -0.45593999997E+02  0.45594000000E+02  0.51100000000E-03 0.  1.
    9900012    2    1    2    0    0 -0.39058396798E-01 -0.30928112451E+00  0.11382815242E+01  0.90007802897E+02  0.90000065096E+02 0.  0.
        -12    1    1    2    0    0  0.39058396798E-01  0.30928112451E+00 -0.11382815242E+01  0.11801971025E+01  0.00000000000E+00 0.  1.
         11    1    3    3    0    0 -0.86638447094E+01 -0.10952621059E+01  0.15588879641E+00  0.87341917661E+01  0.51100000000E-03 0. -1.
        -11    1    3    3    0    0  0.30692500723E+02  0.20348469884E+02 -0.22866265661E+02  0.43346925298E+02  0.51100000000E-03 0.  1.
         12    1    3    3    0    0 -0.22067714411E+02 -0.19562488903E+02  0.23848658388E+02  0.37926685833E+02  0.00000000000E+00 0. -1.
</event>
<event>
 7    1  0.2429906E-015  0.9000776E+02  0.7816164E-02  0.1186339E+00
        -11   -1    0    0    0    0  0.00000000000E+00  0.00000000000E+00  0.45593999997E+02  0.45594000000E+02  0.51100000000E-03 0.  1.
         11   -1    0    0    0    0 -0.00000000000E+00 -0.00000000000E+00 -0.45593999997E+02  0.45594000000E+02  0.51100000000E-03 0. -1.
    9900012    2    1    2    0    0  0.27727176164E+00  0.11204089422E+01  0.24653726484E+00  0.90007755767E+02  0.90000017343E+02 0.  0.
        -12    1    1    2    0    0 -0.27727176164E+00 -0.11204089422E+01 -0.24653726484E+00  0.11802442334E+01  0.00000000000E+00 0.  1.
         11    1    3    3    0    0  0.52015459203E+01  0.87984673480E+01  0.13443170182E+01  0.10309039535E+02  0.51100000000E-03 0. -1.
        -11    1    3    3    0    0  0.22906732563E+02  0.15642886485E+02  0.23072193316E+02  0.36079695106E+02  0.51100000000E-03 0.  1.
         12    1    3    3    0    0 -0.27831006721E+02 -0.23320944891E+02 -0.24169973070E+02  0.43619021125E+02  0.00000000000E+00 0. -1.
</event>
<event>
 7    1  0.2429906E-015  0.9000770E+02  0.7816164E-02  0.1186339E+00
        -11   -1    0    0    0    0  0.00000000000E+00  0.00000000000E+00  0.45593999997E+02  0.45594000000E+02  0.51100000000E-03 0.  1.
         11   -1    0    0    0    0 -0.00000000000E+00 -0.00000000000E+00 -0.45593999997E+02  0.45594000000E+02  0.51100000000E-03 0. -1.
    9900012    2    1    2    0    0 -0.57043553583E+00  0.10332744456E+01  0.74640831517E-02  0.90007699829E+02  0.89999960667E+02 0.  0.
        -12    1    1    2    0    0  0.57043553583E+00 -0.10332744456E+01 -0.74640831517E-02  0.11803001708E+01  0.00000000000E+00 0.  1.
         11    1    3    3    0    0 -0.54002784399E+01 -0.31413795195E+01  0.64309447371E+01  0.89659535459E+01  0.51100000000E-03 0. -1.
        -11    1    3    3    0    0 -0.14641692153E+02 -0.71798693703E+01  0.32329963041E+02  0.36209890690E+02  0.51100000000E-03 0.  1.
         12    1    3    3    0    0  0.19471535057E+02  0.11354523335E+02 -0.38753443695E+02  0.44831855593E+02  0.00000000000E+00 0. -1.
</event>
<event>
 7    1  0.2429906E-015  0.9000775E+02  0.7816164E-02  0.1186339E+00
        -11   -1    0    0    0    0  0.00000000000E+00  0.00000000000E+00  0.45593999997E+02  0.45594000000E+02  0.51100000000E-03 0.  1.
         11   -1    0    0    0    0 -0.00000000000E+00 -0.00000000000E+00 -0.45593999997E+02  0.45594000000E+02  0.51100000000E-03 0. -1.
    9900012    2    1    2    0    0 -0.93218137196E+00 -0.59372025444E-01 -0.72146556009E+00  0.90007745916E+02  0.90000007362E+02 0.  0.
        -12    1    1    2    0    0  0.93218137196E+00  0.59372025444E-01  0.72146556009E+00  0.11802540837E+01  0.00000000000E+00 0.  1.
         11    1    3    3    0    0 -0.21017364244E+02  0.37645560885E+02 -0.48410890737E+00  0.43117887423E+02  0.51100000000E-03 0. -1.
        -11    1    3    3    0    0 -0.19325780074E+01 -0.63158067038E+01 -0.49584175943E+01  0.82589452943E+01  0.51100000000E-03 0.  1.
        -12    1    3    3    0    0  0.22017760880E+02 -0.31389126207E+02  0.47210609416E+01  0.38630913199E+02  0.00000000000E+00 0.  1.
</event>
<event>
 7    1  0.2429906E-015  0.9000770E+02  0.7816164E-02  0.1186339E+00
        -11   -1    0    0    0    0  0.00000000000E+00  0.00000000000E+00  0.45593999997E+02  0.45594000000E+02  0.51100000000E-03 0. -1.
         11   -1    0    0    0    0 -0.00000000000E+00 -0.00000000000E+00 -0.45593999997E+02  0.45594000000E+02  0.51100000000E-03 0.  1.
    9900012    2    1    2    0    0  0.93018806394E-01 -0.10198834557E+01 -0.58677430328E+00  0.90007695444E+02  0.89999956224E+02 0.  0.
        -12    1    1    2    0    0 -0.93018806394E-01  0.10198834557E+01  0.58677430328E+00  0.11803045558E+01  0.00000000000E+00 0.  1.
         11    1    3    3    0    0 -0.17615079171E+02 -0.51207645147E+00  0.19500282185E+01  0.17730083103E+02  0.51100000000E-03 0. -1.
        -11    1    3    3    0    0  0.13597268954E+02  0.25644823696E+02 -0.24418287022E+02  0.37931457219E+02  0.51100000000E-03 0.  1.
         12    1    3    3    0    0  0.41108290236E+01 -0.26152630700E+02  0.21881484500E+02  0.34346155123E+02  0.00000000000E+00 0. -1.
</event>
<event>
 7    1  0.2429906E-015  0.9000773E+02  0.7816164E-02  0.1186339E+00
        -11   -1    0    0    0    0  0.00000000000E+00  0.00000000000E+00  0.45593999997E+02  0.45594000000E+02  0.51100000000E-03 0.  1.
         11   -1    0    0    0    0 -0.00000000000E+00 -0.00000000000E+00 -0.45593999997E+02  0.45594000000E+02  0.51100000000E-03 0. -1.
    9900012    2    1    2    0    0 -0.10072559749E+01  0.40832844502E+00 -0.46014881651E+00  0.90007731534E+02  0.89999992790E+02 0.  0.
        -12    1    1    2    0    0  0.10072559749E+01 -0.40832844502E+00  0.46014881651E+00  0.11802684658E+01  0.00000000000E+00 0.  1.
         11    1    3    3    0    0  0.27744925423E+02 -0.19089760553E+02 -0.15354691897E+02  0.37013057266E+02  0.51100000000E-03 0. -1.
        -11    1    3    3    0    0  0.36830208660E+01  0.12386722829E+02 -0.54799467329E+01  0.14036572289E+02  0.51100000000E-03 0.  1.
        -12    1    3    3    0    0 -0.32435202264E+02  0.71113661685E+01  0.20374489813E+02  0.38958101979E+02  0.00000000000E+00 0.  1.
</event>
<event>
 7    1  0.2429906E-015  0.9000777E+02  0.7816164E-02  0.1186339E+00
        -11   -1    0    0    0    0  0.00000000000E+00  0.00000000000E+00  0.45593999997E+02  0.45594000000E+02  0.51100000000E-03 0. -1.
         11   -1    0    0    0    0 -0.00000000000E+00 -0.00000000000E+00 -0.45593999997E+02  0.45594000000E+02  0.51100000000E-03 0.  1.
    9900012    2    1    2    0    0  0.72183520602E+00  0.92523587894E+00 -0.12587864446E+00  0.90007765731E+02  0.90000027439E+02 0.  0.
        -12    1    1    2    0    0 -0.72183520602E+00 -0.92523587894E+00  0.12587864446E+00  0.11802342689E+01  0.00000000000E+00 0.  1.
         11    1    3    3    0    0 -0.33032709614E+01  0.18885641177E+01  0.34479859620E+02  0.34689176887E+02  0.51100000000E-03 0. -1.
        -11    1    3    3    0    0  0.12103454763E+01 -0.76832295346E+00  0.10262285437E+02  0.10361937994E+02  0.51100000000E-03 0.  1.
        -12    1    3    3    0    0  0.28147606911E+01 -0.19500528533E+00 -0.44868023701E+02  0.44956650850E+02  0.00000000000E+00 0.  1.
</event>
<event>
 7    1  0.2429906E-015  0.9000808E+02  0.7816164E-02  0.1186338E+00
        -11   -1    0    0    0    0  0.00000000000E+00  0.00000000000E+00  0.45593999997E+02  0.45594000000E+02  0.51100000000E-03 0. -1.
         11   -1    0    0    0    0 -0.00000000000E+00 -0.00000000000E+00 -0.45593999997E+02  0.45594000000E+02  0.51100000000E-03 0.  1.
    9900012    2    1    2    0    0 -0.29902063398E+00 -0.10097492432E+01  0.53216762126E+00  0.90008080829E+02  0.90000346695E+02 0.  0.
        -12    1    1    2    0    0  0.29902063398E+00  0.10097492432E+01 -0.53216762126E+00  0.11799191713E+01  0.00000000000E+00 0.  1.
         11    1    3    3    0    0  0.19002083356E+02 -0.71454433351E+00  0.31007882386E+02  0.36374146256E+02  0.51100000000E-03 0. -1.
        -11    1    3    3    0    0  0.36302329126E+01  0.60277688770E+00  0.80159661628E+01  0.88202973170E+01  0.51100000000E-03 0.  1.
        -12    1    3    3    0    0 -0.22931336903E+02 -0.89798179743E+00 -0.38491680928E+02  0.44813637256E+02  0.00000000000E+00 0.  1.
</event>
<event>
 7    1  0.2429906E-015  0.9000772E+02  0.7816164E-02  0.1186339E+00
        -11   -1    0    0    0    0  0.00000000000E+00  0.00000000000E+00  0.45593999997E+02  0.45594000000E+02  0.51100000000E-03 0. -1.
         11   -1    0    0    0    0 -0.00000000000E+00 -0.00000000000E+00 -0.45593999997E+02  0.45594000000E+02  0.51100000000E-03 0.  1.
    9900012    2    1    2    0    0 -0.17424443065E+00  0.11141021364E+01  0.34852356133E+00  0.90007723183E+02  0.89999984329E+02 0.  0.
        -12    1    1    2    0    0  0.17424443065E+00 -0.11141021364E+01 -0.34852356133E+00  0.11802768170E+01  0.00000000000E+00 0.  1.
         11    1    3    3    0    0 -0.76956653169E+00 -0.35057460180E+01  0.67842485521E+01  0.76751883669E+01  0.51100000000E-03 0. -1.
        -11    1    3    3    0    0  0.34580660085E+02 -0.19568394393E+02 -0.82420373364E+01  0.40579247045E+02  0.51100000000E-03 0.  1.
         12    1    3    3    0    0 -0.33985337984E+02  0.24188242548E+02  0.18063123457E+01  0.41753287771E+02  0.00000000000E+00 0. -1.
</event>
<event>
 7    1  0.2429906E-015  0.9000740E+02  0.7816164E-02  0.1186340E+00
        -11   -1    0    0    0    0  0.00000000000E+00  0.00000000000E+00  0.45593999997E+02  0.45594000000E+02  0.51100000000E-03 0.  1.
         11   -1    0    0    0    0 -0.00000000000E+00 -0.00000000000E+00 -0.45593999997E+02  0.45594000000E+02  0.51100000000E-03 0. -1.
    9900012    2    1    2    0    0 -0.43133002623E-01 -0.99862698840E+00 -0.62824765611E+00  0.90007402086E+02  0.89999658993E+02 0.  0.
        -12    1    1    2    0    0  0.43133002623E-01  0.99862698840E+00  0.62824765611E+00  0.11805979143E+01  0.00000000000E+00 0.  1.
         11    1    3    3    0    0  0.58839303499E+01 -0.35723590511E+01  0.58229904718E+01  0.90160747473E+01  0.51100000000E-03 0. -1.
        -11    1    3    3    0    0  0.27274238687E+02 -0.21765244700E+02  0.10546599759E+02  0.36453267886E+02  0.51100000000E-03 0.  1.
         12    1    3    3    0    0 -0.33201302040E+02  0.24338976763E+02 -0.16997837887E+02  0.44538059453E+02  0.00000000000E+00 0. -1.
</event>
<event>
 7    1  0.2429906E-015  0.9000772E+02  0.7816164E-02  0.1186339E+00
        -11   -1    0    0    0    0  0.00000000000E+00  0.00000000000E+00  0.45593999997E+02  0.45594000000E+02  0.51100000000E-03 0. -1.
         11   -1    0    0    0    0 -0.00000000000E+00 -0.00000000000E+00 -0.45593999997E+02  0.45594000000E+02  0.51100000000E-03 0.  1.
    9900012    2    1    2    0    0  0.97037453782E+00 -0.64899938425E+00 -0.17390386118E+00  0.90007716349E+02  0.89999977405E+02 0.  0.
        -12    1    1    2    0    0 -0.97037453782E+00  0.64899938425E+00  0.17390386118E+00  0.11802836512E+01  0.00000000000E+00 0.  1.
         11    1    3    3    0    0  0.70291084712E+01 -0.32989061998E+01  0.36917611501E+02  0.37725338795E+02  0.51100000000E-03 0. -1.
        -11    1    3    3    0    0  0.66646621610E+01 -0.79092000086E+01  0.13551133665E+01  0.10431179176E+02  0.51100000000E-03 0.  1.
        -12    1    3    3    0    0 -0.12723396094E+02  0.10559106824E+02 -0.38446628728E+02  0.41851198378E+02  0.00000000000E+00 0.  1.
</event>
<event>
 7    1  0.2429906E-015  0.9000777E+02  0.7816164E-02  0.1186339E+00
        -11   -1    0    0    0    0  0.00000000000E+00  0.00000000000E+00  0.45593999997E+02  0.45594000000E+02  0.51100000000E-03 0. -1.
         11   -1    0    0    0    0 -0.00000000000E+00 -0.00000000000E+00 -0.45593999997E+02  0.45594000000E+02  0.51100000000E-03 0.  1.
    9900012    2    1    2    0    0  0.10679555503E+01  0.19954038516E+00 -0.46108081873E+00  0.90007770809E+02  0.90000032583E+02 0.  0.
        -12    1    1    2    0    0 -0.10679555503E+01 -0.19954038516E+00  0.46108081873E+00  0.11802291914E+01  0.00000000000E+00 0.  1.
         11    1    3    3    0    0 -0.20169040021E+02 -0.16636135266E+02  0.28386136820E+02  0.38591759947E+02  0.51100000000E-03 0. -1.
        -11    1    3    3    0    0 -0.79795167550E+01 -0.61516430715E+00 -0.25225924505E+01  0.83913400420E+01  0.51100000000E-03 0.  1.
        -12    1    3    3    0    0  0.29216512326E+02  0.17450839959E+02 -0.26324625189E+02  0.43024670819E+02  0.00000000000E+00 0.  1.
</event>
<event>
 7    1  0.2429906E-015  0.9000784E+02  0.7816164E-02  0.1186339E+00
        -11   -1    0    0    0    0  0.00000000000E+00  0.00000000000E+00  0.45593999997E+02  0.45594000000E+02  0.51100000000E-03 0.  1.
         11   -1    0    0    0    0 -0.00000000000E+00 -0.00000000000E+00 -0.45593999997E+02  0.45594000000E+02  0.51100000000E-03 0. -1.
    9900012    2    1    2    0    0 -0.51243117135E+00 -0.84878381625E+00 -0.64012633622E+00  0.90007838402E+02  0.90000101068E+02 0.  0.
        -12    1    1    2    0    0  0.51243117135E+00  0.84878381625E+00  0.64012633622E+00  0.11801615984E+01  0.00000000000E+00 0.  1.
         11    1    3    3    0    0 -0.18845544905E+02  0.15133678343E+02 -0.26816127650E+02  0.36101073188E+02  0.51100000000E-03 0. -1.
        -11    1    3    3    0    0 -0.24063613609E+01  0.71871896651E+01 -0.56177664788E+01  0.94342763768E+01  0.51100000000E-03 0.  1.
        -12    1    3    3    0    0  0.20739475095E+02 -0.23169651824E+02  0.31793767792E+02  0.44472488836E+02  0.00000000000E+00 0.  1.
</event>
<event>
 7    1  0.2429906E-015  0.9000779E+02  0.7816164E-02  0.1186339E+00
        -11   -1    0    0    0    0  0.00000000000E+00  0.00000000000E+00  0.45593999997E+02  0.45594000000E+02  0.51100000000E-03 0.  1.
         11   -1    0    0    0    0 -0.00000000000E+00 -0.00000000000E+00 -0.45593999997E+02  0.45594000000E+02  0.51100000000E-03 0. -1.
    9900012    2    1    2    0    0 -0.39734285484E+00  0.33167134603E+00 -0.10606687364E+01  0.90007785869E+02  0.90000047843E+02 0.  0.
        -12    1    1    2    0    0  0.39734285484E+00 -0.33167134603E+00  0.10606687364E+01  0.11802141308E+01  0.00000000000E+00 0.  1.
         11    1    3    3    0    0 -0.78706727515E+00 -0.10047159063E+02  0.57762254028E+01  0.11615922706E+02  0.51100000000E-03 0. -1.
        -11    1    3    3    0    0  0.30727430881E+01 -0.19084839935E+02  0.27151998257E+02  0.33330224648E+02  0.51100000000E-03 0.  1.
         12    1    3    3    0    0 -0.26830186678E+01  0.29463670345E+02 -0.33988892397E+02  0.45061638516E+02  0.00000000000E+00 0. -1.
</event>
<event>
 7    1  0.2429906E-015  0.9000775E+02  0.7816164E-02  0.1186339E+00
        -11   -1    0    0    0    0  0.00000000000E+00  0.00000000000E+00  0.45593999997E+02  0.45594000000E+02  0.51100000000E-03 0. -1.
         11   -1    0    0    0    0 -0.00000000000E+00 -0.00000000000E+00 -0.45593999997E+02  0.45594000000E+02  0.51100000000E-03 0.  1.
    9900012    2    1    2    0    0 -0.10410859471E+01 -0.51205978051E+00 -0.21659857569E+00  0.90007754216E+02  0.90000015771E+02 0.  0.
        -12    1    1    2    0    0  0.10410859471E+01  0.51205978051E+00  0.21659857569E+00  0.11802457842E+01  0.00000000000E+00 0.  1.
         11    1    3    3    0    0 -0.13535628206E+01  0.11764922267E+02 -0.34342472575E+01  0.12330433194E+02  0.51100000000E-03 0. -1.
        -11    1    3    3    0    0 -0.22280292334E+01 -0.23892076873E+02 -0.32291193953E+02  0.40230792420E+02  0.51100000000E-03 0.  1.
         12    1    3    3    0    0  0.25405061069E+01  0.11615094826E+02  0.35508842635E+02  0.37446528602E+02  0.00000000000E+00 0. -1.
</event>
<event>
 7    1  0.2429906E-015  0.9000779E+02  0.7816164E-02  0.1186339E+00
        -11   -1    0    0    0    0  0.00000000000E+00  0.00000000000E+00  0.45593999997E+02  0.45594000000E+02  0.51100000000E-03 0. -1.
         11   -1    0    0    0    0 -0.00000000000E+00 -0.00000000000E+00 -0.45593999997E+02  0.45594000000E+02  0.51100000000E-03 0.  1.
    9900012    2    1    2    0    0 -0.51171124914E+00 -0.99100097739E+00  0.38594777942E+00  0.90007793650E+02  0.90000055726E+02 0.  0.
        -12    1    1    2    0    0  0.51171124914E+00  0.99100097739E+00 -0.38594777942E+00  0.11802063498E+01  0.00000000000E+00 0.  1.
         11    1    3    3    0    0 -0.79624988779E+01  0.61377283452E+00  0.30649651064E+01  0.85540701913E+01  0.51100000000E-03 0. -1.
        -11    1    3    3    0    0  0.24068116824E+01  0.15326806622E+02 -0.38502468236E+02  0.41510767329E+02  0.51100000000E-03 0.  1.
         12    1    3    3    0    0  0.50439759463E+01 -0.16931580434E+02  0.35823450909E+02  0.39942956130E+02  0.00000000000E+00 0. -1.
</event>
<event>
 7    1  0.2429906E-015  0.9000777E+02  0.7816164E-02  0.1186339E+00
        -11   -1    0    0    0    0  0.00000000000E+00  0.00000000000E+00  0.45593999997E+02  0.45594000000E+02  0.51100000000E-03 0.  1.
         11   -1    0    0    0    0 -0.00000000000E+00 -0.00000000000E+00 -0.45593999997E+02  0.45594000000E+02  0.51100000000E-03 0. -1.
    9900012    2    1    2    0    0 -0.97033061395E+00 -0.23234547863E+00 -0.63041262440E+00  0.90007768667E+02  0.90000030414E+02 0.  0.
        -12    1    1    2    0    0  0.97033061395E+00  0.23234547863E+00  0.63041262440E+00  0.11802313328E+01  0.00000000000E+00 0.  1.
         11    1    3    3    0    0  0.91986588905E+01 -0.21238858298E+01 -0.19984978076E+01  0.96498813542E+01  0.51100000000E-03 0. -1.
        -11    1    3    3    0    0  0.19065489694E+02 -0.22875798023E+02  0.21827630029E+02  0.36922086417E+02  0.51100000000E-03 0.  1.
         12    1    3    3    0    0 -0.29234479198E+02  0.24767338374E+02 -0.20459544846E+02  0.43435800896E+02  0.00000000000E+00 0. -1.
</event>
<event>
 7    1  0.2429906E-015  0.9000771E+02  0.7816164E-02  0.1186339E+00
        -11   -1    0    0    0    0  0.00000000000E+00  0.00000000000E+00  0.45593999997E+02  0.45594000000E+02  0.51100000000E-03 0.  1.
         11   -1    0    0    0    0 -0.00000000000E+00 -0.00000000000E+00 -0.45593999997E+02  0.45594000000E+02  0.51100000000E-03 0. -1.
    9900012    2    1    2    0    0  0.11932663162E+00 -0.50454135914E+00  0.10603192502E+01  0.90007712857E+02  0.89999973867E+02 0.  0.
        -12    1    1    2    0    0 -0.11932663162E+00  0.50454135914E+00 -0.10603192502E+01  0.11802871432E+01  0.00000000000E+00 0.  1.
         11    1    3    3    0    0  0.10052981710E+02 -0.31004308493E+01  0.69006535539E+01  0.12581499611E+02  0.51100000000E-03 0. -1.
        -11    1    3    3    0    0  0.28557517624E+02  0.15770658198E+02 -0.14711944195E+02  0.35786684327E+02  0.51100000000E-03 0.  1.
         12    1    3    3    0    0 -0.38491172703E+02 -0.13174768708E+02  0.88716098910E+01  0.41639528919E+02  0.00000000000E+00 0. -1.
</event>
<event>
 7    1  0.2429906E-015  0.9000767E+02  0.7816164E-02  0.1186339E+00
        -11   -1    0    0    0    0  0.00000000000E+00  0.00000000000E+00  0.45593999997E+02  0.45594000000E+02  0.51100000000E-03 0.  1.
         11   -1    0    0    0    0 -0.00000000000E+00 -0.00000000000E+00 -0.45593999997E+02  0.45594000000E+02  0.51100000000E-03 0. -1.
    9900012    2    1    2    0    0 -0.43108460841E+00  0.97000456611E+00 -0.51617181521E+00  0.90007671173E+02  0.89999931632E+02 0.  0.
        -12    1    1    2    0    0  0.43108460841E+00 -0.97000456611E+00  0.51617181521E+00  0.11803288274E+01  0.00000000000E+00 0.  1.
         11    1    3    3    0    0 -0.45058894257E+01 -0.16708280688E+02 -0.71146905311E+00  0.17319811533E+02  0.51100000000E-03 0. -1.
        -11    1    3    3    0    0 -0.31014675546E+02  0.18771174246E+01 -0.10412174862E+02  0.32769605653E+02  0.51100000000E-03 0.  1.
         12    1    3    3    0    0  0.35089480363E+02  0.15801167830E+02  0.10607472100E+02  0.39918253986E+02  0.00000000000E+00 0. -1.
</event>
<event>
 7    1  0.3298847E-015  0.9000765E+02  0.7816164E-02  0.1186339E+00
        -11   -1    0    0    0    0  0.00000000000E+00  0.00000000000E+00  0.45593999997E+02  0.45594000000E+02  0.51100000000E-03 0.  1.
         11   -1    0    0    0    0 -0.00000000000E+00 -0.00000000000E+00 -0.45593999997E+02  0.45594000000E+02  0.51100000000E-03 0. -1.
    9900012    2    1    2    0    0 -0.56733708425E+00 -0.63066639342E+00 -0.82073475249E+00  0.90007653864E+02  0.89999914095E+02 0.  0.
        -12    1    1    2    0    0  0.56733708425E+00  0.63066639342E+00  0.82073475249E+00  0.11803461361E+01  0.00000000000E+00 0.  1.
         11    1    3    3    0    0 -0.22837160366E+01  0.30233798503E+02 -0.19246928613E+02  0.35912980831E+02  0.51100000000E-03 0. -1.
        -11    1    3    3    0    0 -0.50697807994E+01  0.60146640336E+01 -0.55135028842E+01  0.96061217516E+01  0.51100000000E-03 0.  1.
        -12    1    3    3    0    0  0.67861597517E+01 -0.36879128930E+02  0.23939696745E+02  0.44488551281E+02  0.00000000000E+00 0.  1.
</event>
<event>
 7    1  0.2429906E-015  0.9000779E+02  0.7816164E-02  0.1186339E+00
        -11   -1    0    0    0    0  0.00000000000E+00  0.00000000000E+00  0.45593999997E+02  0.45594000000E+02  0.51100000000E-03 0.  1.
         11   -1    0    0    0    0 -0.00000000000E+00 -0.00000000000E+00 -0.45593999997E+02  0.45594000000E+02  0.51100000000E-03 0. -1.
    9900012    2    1    2    0    0 -0.29168392761E+00  0.10883806233E+01 -0.35107719417E+00  0.90007785150E+02  0.90000047114E+02 0.  0.
        -12    1    1    2    0    0  0.29168392761E+00 -0.10883806233E+01  0.35107719417E+00  0.11802148495E+01  0.00000000000E+00 0.  1.
         11    1    3    3    0    0 -0.33566141206E+01  0.78397259343E+01 -0.39193575955E+01  0.93856020213E+01  0.51100000000E-03 0. -1.
        -11    1    3    3    0    0 -0.17658923932E+02 -0.12314079291E+01  0.36934789429E+02  0.40957693177E+02  0.51100000000E-03 0.  1.
         12    1    3    3    0    0  0.20723854125E+02 -0.55199373819E+01 -0.33366509028E+02  0.39664489953E+02  0.00000000000E+00 0. -1.
</event>
<event>
 7    1  0.2429906E-015  0.9000759E+02  0.7816164E-02  0.1186339E+00
        -11   -1    0    0    0    0  0.00000000000E+00  0.00000000000E+00  0.45593999997E+02  0.45594000000E+02  0.51100000000E-03 0. -1.
         11   -1    0    0    0    0 -0.00000000000E+00 -0.00000000000E+00 -0.45593999997E+02  0.45594000000E+02  0.51100000000E-03 0.  1.
    9900012    2    1    2    0    0  0.10717945738E+01  0.47593542228E+00  0.13456206291E+00  0.90007591137E+02  0.89999850540E+02 0.  0.
        -12    1    1    2    0    0 -0.10717945738E+01 -0.47593542228E+00 -0.13456206291E+00  0.11804088628E+01  0.00000000000E+00 0.  1.
         11    1    3    3    0    0 -0.38382931793E+01  0.48010159502E+00 -0.71101927961E+01  0.80943087371E+01  0.51100000000E-03 0. -1.
        -11    1    3    3    0    0 -0.11090909386E+02 -0.16274975485E+02 -0.31381373781E+02  0.37049611587E+02  0.51100000000E-03 0.  1.
         12    1    3    3    0    0  0.16000997139E+02  0.16270809312E+02  0.38626128640E+02  0.44863670814E+02  0.00000000000E+00 0. -1.
</event>
<event>
 7    1  0.2429906E-015  0.9000765E+02  0.7816164E-02  0.1186339E+00
        -11   -1    0    0    0    0  0.00000000000E+00  0.00000000000E+00  0.45593999997E+02  0.45594000000E+02  0.51100000000E-03 0. -1.
         11   -1    0    0    0    0 -0.00000000000E+00 -0.00000000000E+00 -0.45593999997E+02  0.45594000000E+02  0.51100000000E-03 0.  1.
    9900012    2    1    2    0    0 -0.10198971314E+01 -0.52139048695E+00  0.28493413462E+00  0.90007650196E+02  0.89999910379E+02 0.  0.
        -12    1    1    2    0    0  0.10198971314E+01  0.52139048695E+00 -0.28493413462E+00  0.11803498039E+01  0.00000000000E+00 0.  1.
         11    1    3    3    0    0  0.29572899635E+02  0.34292018881E+01 -0.26633075952E+02  0.39945419679E+02  0.51100000000E-03 0. -1.
        -11    1    3    3    0    0 -0.51099883478E+01  0.35819374813E+01 -0.53789977502E+01  0.82386815749E+01  0.51100000000E-03 0.  1.
        -12    1    3    3    0    0 -0.25482808419E+02 -0.75325298564E+01  0.32297007836E+02  0.41823548942E+02  0.00000000000E+00 0.  1.
</event>
<event>
 7    1  0.2429906E-015  0.9000781E+02  0.7816164E-02  0.1186339E+00
        -11   -1    0    0    0    0  0.00000000000E+00  0.00000000000E+00  0.45593999997E+02  0.45594000000E+02  0.51100000000E-03 0.  1.
         11   -1    0    0    0    0 -0.00000000000E+00 -0.00000000000E+00 -0.45593999997E+02  0.45594000000E+02  0.51100000000E-03 0. -1.
    9900012    2    1    2    0    0  0.80850674936E+00 -0.75215292512E+00 -0.41644748383E+00  0.90007811162E+02  0.90000073469E+02 0.  0.
        -12    1    1    2    0    0 -0.80850674936E+00  0.75215292512E+00  0.41644748383E+00  0.11801888380E+01  0.00000000000E+00 0.  1.
         11    1    3    3    0    0  0.78134749940E+01 -0.46392751732E+01  0.21851057379E+01  0.93460126772E+01  0.51100000000E-03 0. -1.
        -11    1    3    3    0    0 -0.22797574605E+02 -0.14133440484E+02  0.29973585219E+02  0.40223119707E+02  0.51100000000E-03 0.  1.
         12    1    3    3    0    0  0.15792606361E+02  0.18020562732E+02 -0.32575138441E+02  0.40438678778E+02  0.00000000000E+00 0. -1.
</event>
<event>
 7    1  0.2429906E-015  0.9000773E+02  0.7816164E-02  0.1186339E+00
        -11   -1    0    0    0    0  0.00000000000E+00  0.00000000000E+00  0.45593999997E+02  0.45594000000E+02  0.51100000000E-03 0.  1.
         11   -1    0    0    0    0 -0.00000000000E+00 -0.00000000000E+00 -0.45593999997E+02  0.45594000000E+02  0.51100000000E-03 0. -1.
    9900012    2    1    2    0    0  0.11171459951E+01  0.34478847038E+00  0.16169848164E+00  0.90007728564E+02  0.89999989781E+02 0.  0.
        -12    1    1    2    0    0 -0.11171459951E+01 -0.34478847038E+00 -0.16169848164E+00  0.11802714360E+01  0.00000000000E+00 0.  1.
         11    1    3    3    0    0  0.55587396509E+01  0.15382634069E+01  0.29652822291E+01  0.64852709870E+01  0.51100000000E-03 0. -1.
        -11    1    3    3    0    0 -0.33631634141E+02 -0.17099656960E+02  0.20487301520E+02  0.42932675283E+02  0.51100000000E-03 0.  1.
         12    1    3    3    0    0  0.29190040486E+02  0.15906182023E+02 -0.23290885267E+02  0.40589782294E+02  0.00000000000E+00 0. -1.
</event>
<event>
 7    1  0.2429906E-015  0.9000772E+02  0.7816164E-02  0.1186339E+00
        -11   -1    0    0    0    0  0.00000000000E+00  0.00000000000E+00  0.45593999997E+02  0.45594000000E+02  0.51100000000E-03 0.  1.
         11   -1    0    0    0    0 -0.00000000000E+00 -0.00000000000E+00 -0.45593999997E+02  0.45594000000E+02  0.51100000000E-03 0. -1.
    9900012    2    1    2    0    0 -0.11460564339E+01  0.14834084563E+00  0.24003029383E+00  0.90007718297E+02  0.89999979379E+02 0.  0.
        -12    1    1    2    0    0  0.11460564339E+01 -0.14834084563E+00 -0.24003029383E+00  0.11802817028E+01  0.00000000000E+00 0.  1.
         11    1    3    3    0    0 -0.74523078389E+01  0.46392734312E+01 -0.54343430725E+01  0.10324332181E+02  0.51100000000E-03 0. -1.
        -11    1    3    3    0    0  0.32101548951E+01  0.37368599068E+02  0.24797994399E+01  0.37588119085E+02  0.51100000000E-03 0.  1.
         12    1    3    3    0    0  0.30960965099E+01 -0.41859531654E+02  0.31945739264E+01  0.42095267032E+02  0.00000000000E+00 0. -1.
</event>
<event>
 7    1  0.2429906E-015  0.9000773E+02  0.7816164E-02  0.1186339E+00
        -11   -1    0    0    0    0  0.00000000000E+00  0.00000000000E+00  0.45593999997E+02  0.45594000000E+02  0.51100000000E-03 0.  1.
         11   -1    0    0    0    0 -0.00000000000E+00 -0.00000000000E+00 -0.45593999997E+02  0.45594000000E+02  0.51100000000E-03 0. -1.
    9900012    2    1    2    0    0  0.66783666368E+00  0.87880716105E+00 -0.41801768252E+00  0.90007726041E+02  0.89999987225E+02 0.  0.
        -12    1    1    2    0    0 -0.66783666368E+00 -0.87880716105E+00  0.41801768252E+00  0.11802739591E+01  0.00000000000E+00 0.  1.
         11    1    3    3    0    0 -0.11520789491E+01 -0.84261686457E+01  0.72192092123E-01  0.85048701289E+01  0.51100000000E-03 0. -1.
        -11    1    3    3    0    0 -0.20258586834E+02  0.72357256671E+01  0.34157114724E+02  0.40366750587E+02  0.51100000000E-03 0.  1.
         12    1    3    3    0    0  0.22078502447E+02  0.20692501397E+01 -0.34647324498E+02  0.41136105325E+02  0.00000000000E+00 0. -1.
</event>
<event>
 7    1  0.2525280E-015  0.9000740E+02  0.7816164E-02  0.1186340E+00
        -11   -1    0    0    0    0  0.00000000000E+00  0.00000000000E+00  0.45593999997E+02  0.45594000000E+02  0.51100000000E-03 0. -1.
         11   -1    0    0    0    0 -0.00000000000E+00 -0.00000000000E+00 -0.45593999997E+02  0.45594000000E+02  0.51100000000E-03 0.  1.
    9900012    2    1    2    0    0 -0.83626828774E+00  0.18742028556E+00  0.81200084863E+00  0.90007399987E+02  0.89999656866E+02 0.  0.
        -12    1    1    2    0    0  0.83626828774E+00 -0.18742028556E+00 -0.81200084863E+00  0.11806000130E+01  0.00000000000E+00 0.  1.
         11    1    3    3    0    0 -0.31552917356E+02 -0.11314146097E+02  0.11749552893E+02  0.35519691567E+02  0.51100000000E-03 0. -1.
        -11    1    3    3    0    0 -0.82366655554E+01 -0.56448699007E+01  0.16149992748E+01  0.10115109420E+02  0.51100000000E-03 0.  1.
        -12    1    3    3    0    0  0.38953314623E+02  0.17146436283E+02 -0.12552551319E+02  0.44372599000E+02  0.00000000000E+00 0.  1.
</event>
<event>
 7    1  0.2429906E-015  0.9000770E+02  0.7816164E-02  0.1186339E+00
        -11   -1    0    0    0    0  0.00000000000E+00  0.00000000000E+00  0.45593999997E+02  0.45594000000E+02  0.51100000000E-03 0.  1.
         11   -1    0    0    0    0 -0.00000000000E+00 -0.00000000000E+00 -0.45593999997E+02  0.45594000000E+02  0.51100000000E-03 0. -1.
    9900012    2    1    2    0    0 -0.11361413679E+00  0.74546710956E+00 -0.90800693108E+00  0.90007700898E+02  0.89999961750E+02 0.  0.
        -12    1    1    2    0    0  0.11361413679E+00 -0.74546710956E+00  0.90800693108E+00  0.11802991021E+01  0.00000000000E+00 0.  1.
         11    1    3    3    0    0 -0.93208583729E+01  0.30548552856E+01 -0.34991560137E+01  0.10414155496E+02  0.51100000000E-03 0. -1.
        -11    1    3    3    0    0  0.10264415984E+02 -0.37789858780E+01  0.40342405356E+02  0.41798907162E+02  0.51100000000E-03 0.  1.
         12    1    3    3    0    0 -0.10571717475E+01  0.14695977020E+01 -0.37751256273E+02  0.37794638240E+02  0.00000000000E+00 0. -1.
</event>
<event>
 7    1  0.2429906E-015  0.9000817E+02  0.7816164E-02  0.1186338E+00
        -11   -1    0    0    0    0  0.00000000000E+00  0.00000000000E+00  0.45593999997E+02  0.45594000000E+02  0.51100000000E-03 0.  1.
         11   -1    0    0    0    0 -0.00000000000E+00 -0.00000000000E+00 -0.45593999997E+02  0.45594000000E+02  0.51100000000E-03 0. -1.
    9900012    2    1    2    0    0  0.61711674058E+00  0.50606206224E+00 -0.86895219823E+00  0.90008165348E+02  0.90000432330E+02 0.  0.
        -12    1    1    2    0    0 -0.61711674058E+00 -0.50606206224E+00  0.86895219823E+00  0.11798346516E+01  0.00000000000E+00 0.  1.
         11    1    3    3    0    0 -0.24364237404E+02 -0.14988265470E+02 -0.20368593063E+02  0.35116146567E+02  0.51100000000E-03 0. -1.
        -11    1    3    3    0    0  0.65871932541E+01 -0.81239599108E+01 -0.88212731747E+01  0.13682276868E+02  0.51100000000E-03 0.  1.
        -12    1    3    3    0    0  0.18394160890E+02  0.23618287443E+02  0.28320914040E+02  0.41209741914E+02  0.00000000000E+00 0.  1.
</event>
<event>
 7    1  0.2429906E-015  0.9000773E+02  0.7816164E-02  0.1186339E+00
        -11   -1    0    0    0    0  0.00000000000E+00  0.00000000000E+00  0.45593999997E+02  0.45594000000E+02  0.51100000000E-03 0. -1.
         11   -1    0    0    0    0 -0.00000000000E+00 -0.00000000000E+00 -0.45593999997E+02  0.45594000000E+02  0.51100000000E-03 0.  1.
    9900012    2    1    2    0    0  0.78434057398E+00 -0.39633142394E+00 -0.78788914812E+00  0.90007729674E+02  0.89999990905E+02 0.  0.
        -12    1    1    2    0    0 -0.78434057398E+00  0.39633142394E+00  0.78788914812E+00  0.11802703264E+01  0.00000000000E+00 0.  1.
         11    1    3    3    0    0 -0.61749524765E+01 -0.13289750185E+01  0.77395634744E+01  0.99898476326E+01  0.51100000000E-03 0. -1.
        -11    1    3    3    0    0 -0.59561940594E+00  0.37823523588E+02 -0.16916209162E+02  0.41438289441E+02  0.51100000000E-03 0.  1.
         12    1    3    3    0    0  0.75549124565E+01 -0.36890879994E+02  0.83887565394E+01  0.38579592600E+02  0.00000000000E+00 0. -1.
</event>
<event>
 7    1  0.2429906E-015  0.9000778E+02  0.7816164E-02  0.1186339E+00
        -11   -1    0    0    0    0  0.00000000000E+00  0.00000000000E+00  0.45593999997E+02  0.45594000000E+02  0.51100000000E-03 0.  1.
         11   -1    0    0    0    0 -0.00000000000E+00 -0.00000000000E+00 -0.45593999997E+02  0.45594000000E+02  0.51100000000E-03 0. -1.
    9900012    2    1    2    0    0  0.55480423184E+00 -0.10008508914E+01 -0.28882515763E+00  0.90007775354E+02  0.90000037189E+02 0.  0.
        -12    1    1    2    0    0 -0.55480423184E+00  0.10008508914E+01  0.28882515763E+00  0.11802246457E+01  0.00000000000E+00 0.  1.
         11    1    3    3    0    0 -0.10940475644E+01 -0.84557917323E+01 -0.45547589528E+01  0.96666014334E+01  0.51100000000E-03 0. -1.
        -11    1    3    3    0    0 -0.18549637583E+02 -0.28341486881E+02  0.16192853465E+02  0.37543806903E+02  0.51100000000E-03 0.  1.
         12    1    3    3    0    0  0.20198489380E+02  0.35796427722E+02 -0.11926919670E+02  0.42797367018E+02  0.00000000000E+00 0. -1.
</event>
<event>
 7    1  0.2429906E-015  0.9000773E+02  0.7816164E-02  0.1186339E+00
        -11   -1    0    0    0    0  0.00000000000E+00  0.00000000000E+00  0.45593999997E+02  0.45594000000E+02  0.51100000000E-03 0. -1.
         11   -1    0    0    0    0 -0.00000000000E+00 -0.00000000000E+00 -0.45593999997E+02  0.45594000000E+02  0.51100000000E-03 0.  1.
    9900012    2    1    2    0    0  0.15941991962E+00  0.88293431703E+00  0.76685124479E+00  0.90007725222E+02  0.89999986395E+02 0.  0.
        -12    1    1    2    0    0 -0.15941991962E+00 -0.88293431703E+00 -0.76685124479E+00  0.11802747776E+01  0.00000000000E+00 0.  1.
         11    1    3    3    0    0  0.88869710432E+01  0.36906580501E+00  0.36214459169E+01  0.96036105023E+01  0.51100000000E-03 0. -1.
        -11    1    3    3    0    0  0.19500755602E+00 -0.38758076667E+02  0.58604981880E+01  0.39199132314E+02  0.51100000000E-03 0.  1.
         12    1    3    3    0    0 -0.89225586796E+01  0.39271945179E+02 -0.87150928602E+01  0.41204982406E+02  0.00000000000E+00 0. -1.
</event>
<event>
 7    1  0.2429906E-015  0.9000769E+02  0.7816164E-02  0.1186339E+00
        -11   -1    0    0    0    0  0.00000000000E+00  0.00000000000E+00  0.45593999997E+02  0.45594000000E+02  0.51100000000E-03 0.  1.
         11   -1    0    0    0    0 -0.00000000000E+00 -0.00000000000E+00 -0.45593999997E+02  0.45594000000E+02  0.51100000000E-03 0. -1.
    9900012    2    1    2    0    0  0.38885754886E+00 -0.83264374180E-01 -0.11112993726E+01  0.90007690954E+02  0.89999951674E+02 0.  0.
        -12    1    1    2    0    0 -0.38885754886E+00  0.83264374180E-01  0.11112993726E+01  0.11803090463E+01  0.00000000000E+00 0.  1.
         11    1    3    3    0    0 -0.52244583483E+01 -0.14554936185E+01  0.69328297147E+01  0.88021335380E+01  0.51100000000E-03 0. -1.
        -11    1    3    3    0    0 -0.70436577153E+01  0.14437062731E+02  0.32784299581E+02  0.36508248295E+02  0.51100000000E-03 0.  1.
         12    1    3    3    0    0  0.12656973613E+02 -0.13064833487E+02 -0.40828428668E+02  0.44697309120E+02  0.00000000000E+00 0. -1.
</event>
<event>
 7    1  0.2429906E-015  0.9000768E+02  0.7816164E-02  0.1186339E+00
        -11   -1    0    0    0    0  0.00000000000E+00  0.00000000000E+00  0.45593999997E+02  0.45594000000E+02  0.51100000000E-03 0.  1.
         11   -1    0    0    0    0 -0.00000000000E+00 -0.00000000000E+00 -0.45593999997E+02  0.45594000000E+02  0.51100000000E-03 0. -1.
    9900012    2    1    2    0    0 -0.12745745289E+00 -0.37636028492E+00 -0.11114281897E+01  0.90007675855E+02  0.89999936376E+02 0.  0.
        -12    1    1    2    0    0  0.12745745289E+00  0.37636028492E+00  0.11114281897E+01  0.11803241449E+01  0.00000000000E+00 0.  1.
         11    1    3    3    0    0 -0.11047636716E+02 -0.36131205279E+02 -0.66233676019E+01  0.38358614033E+02  0.51100000000E-03 0. -1.
        -11    1    3    3    0    0  0.77369817809E+01 -0.50794352409E+01 -0.31656264815E+01  0.97817555033E+01  0.51100000000E-03 0.  1.
        -12    1    3    3    0    0  0.31831974817E+01  0.40834280235E+02  0.86775658938E+01  0.41867306318E+02  0.00000000000E+00 0.  1.
</event>
<event>
 7    1  0.2429906E-015  0.9000770E+02  0.7816164E-02  0.1186339E+00
        -11   -1    0    0    0    0  0.00000000000E+00  0.00000000000E+00  0.45593999997E+02  0.45594000000E+02  0.51100000000E-03 0. -1.
         11   -1    0    0    0    0 -0.00000000000E+00 -0.00000000000E+00 -0.45593999997E+02  0.45594000000E+02  0.51100000000E-03 0.  1.
    9900012    2    1    2    0    0  0.70238663023E+00  0.72295593599E+00  0.61407300318E+00  0.90007704310E+02  0.89999965206E+02 0.  0.
        -12    1    1    2    0    0 -0.70238663023E+00 -0.72295593599E+00 -0.61407300318E+00  0.11802956905E+01  0.00000000000E+00 0.  1.
         11    1    3    3    0    0  0.92129968574E+01 -0.46603066478E+01 -0.11471171900E+01  0.10388149366E+02  0.51100000000E-03 0. -1.
        -11    1    3    3    0    0 -0.20416767708E+00 -0.31951602408E+02 -0.17889182403E+02  0.36619249421E+02  0.51100000000E-03 0.  1.
         12    1    3    3    0    0 -0.83064425501E+01  0.37334864992E+02  0.19650372596E+02  0.43000305522E+02  0.00000000000E+00 0. -1.
</event>
<event>
 7    1  0.2429906E-015  0.9000769E+02  0.7816164E-02  0.1186339E+00
        -11   -1    0    0    0    0  0.00000000000E+00  0.00000000000E+00  0.45593999997E+02  0.45594000000E+02  0.51100000000E-03 0.  1.
         11   -1    0    0    0    0 -0.00000000000E+00 -0.00000000000E+00 -0.45593999997E+02  0.45594000000E+02  0.51100000000E-03 0. -1.
    9900012    2    1    2    0    0 -0.31346976392E+00  0.94978102215E+00 -0.62672585699E+00  0.90007689624E+02  0.89999950327E+02 0.  0.
        -12    1    1    2    0    0  0.31346976392E+00 -0.94978102215E+00  0.62672585699E+00  0.11803103756E+01  0.00000000000E+00 0.  1.
         11    1    3    3    0    0 -0.50065425064E+01  0.16942831787E+02  0.40823230344E+01  0.18132577822E+02  0.51100000000E-03 0. -1.
        -11    1    3    3    0    0  0.86602468312E+01  0.13047254727E+02 -0.29557463483E+02  0.33449579652E+02  0.51100000000E-03 0.  1.
         12    1    3    3    0    0 -0.39671740887E+01 -0.29040305492E+02  0.24848414592E+02  0.38425532151E+02  0.00000000000E+00 0. -1.
</event>
<event>
 7    1  0.2429906E-015  0.9000776E+02  0.7816164E-02  0.1186339E+00
        -11   -1    0    0    0    0  0.00000000000E+00  0.00000000000E+00  0.45593999997E+02  0.45594000000E+02  0.51100000000E-03 0.  1.
         11   -1    0    0    0    0 -0.00000000000E+00 -0.00000000000E+00 -0.45593999997E+02  0.45594000000E+02  0.51100000000E-03 0. -1.
    9900012    2    1    2    0    0 -0.12545809596E+00 -0.78965551790E+00 -0.86814359405E+00  0.90007758978E+02  0.90000020596E+02 0.  0.
        -12    1    1    2    0    0  0.12545809596E+00  0.78965551790E+00  0.86814359405E+00  0.11802410223E+01  0.00000000000E+00 0.  1.
         11    1    3    3    0    0 -0.73401886580E+01  0.30856825605E+01  0.13335571760E+01  0.80733005271E+01  0.51100000000E-03 0. -1.
        -11    1    3    3    0    0 -0.23904442087E+02  0.28216233061E+02 -0.39985583871E+01  0.37196325478E+02  0.51100000000E-03 0.  1.
         12    1    3    3    0    0  0.31119172649E+02 -0.32091571140E+02  0.17968576170E+01  0.44738132972E+02  0.00000000000E+00 0. -1.
</event>
<event>
 7    1  0.2429906E-015  0.9000772E+02  0.7816164E-02  0.1186339E+00
        -11   -1    0    0    0    0  0.00000000000E+00  0.00000000000E+00  0.45593999997E+02  0.45594000000E+02  0.51100000000E-03 0.  1.
         11   -1    0    0    0    0 -0.00000000000E+00 -0.00000000000E+00 -0.45593999997E+02  0.45594000000E+02  0.51100000000E-03 0. -1.
    9900012    2    1    2    0    0  0.72205117307E+00  0.87083626061E+00  0.33665993426E+00  0.90007723083E+02  0.89999984228E+02 0.  0.
        -12    1    1    2    0    0 -0.72205117307E+00 -0.87083626061E+00 -0.33665993426E+00  0.11802769169E+01  0.00000000000E+00 0.  1.
         11    1    3    3    0    0  0.35956198054E+01 -0.76722087615E+01 -0.38075705155E+02  0.39007058238E+02  0.51100000000E-03 0. -1.
        -11    1    3    3    0    0  0.39781532259E+01  0.90790784495E+01 -0.19117619397E+01  0.10095058324E+02  0.51100000000E-03 0.  1.
        -12    1    3    3    0    0 -0.68517218583E+01 -0.53603342738E+00  0.40324127029E+02  0.40905606522E+02  0.00000000000E+00 0.  1.
</event>
<event>
 7    1  0.2429906E-015  0.9000784E+02  0.7816164E-02  0.1186339E+00
        -11   -1    0    0    0    0  0.00000000000E+00  0.00000000000E+00  0.45593999997E+02  0.45594000000E+02  0.51100000000E-03 0.  1.
         11   -1    0    0    0    0 -0.00000000000E+00 -0.00000000000E+00 -0.45593999997E+02  0.45594000000E+02  0.51100000000E-03 0. -1.
    9900012    2    1    2    0    0  0.31952835841E+00 -0.50278538790E+00 -0.10187698828E+01  0.90007837472E+02  0.90000100127E+02 0.  0.
        -12    1    1    2    0    0 -0.31952835841E+00  0.50278538790E+00  0.10187698828E+01  0.11801625279E+01  0.00000000000E+00 0.  1.
         11    1    3    3    0    0 -0.29432943063E+01 -0.38719297784E+01  0.78511641613E+01  0.92355617334E+01  0.51100000000E-03 0. -1.
        -11    1    3    3    0    0 -0.12681916725E+02 -0.24917231949E+02  0.22299322385E+02  0.35762539604E+02  0.51100000000E-03 0.  1.
         12    1    3    3    0    0  0.15944739390E+02  0.28286376339E+02 -0.31169256429E+02  0.45009736135E+02  0.00000000000E+00 0. -1.
</event>
<event>
 7    1  0.2429906E-015  0.9000777E+02  0.7816164E-02  0.1186339E+00
        -11   -1    0    0    0    0  0.00000000000E+00  0.00000000000E+00  0.45593999997E+02  0.45594000000E+02  0.51100000000E-03 0.  1.
         11   -1    0    0    0    0 -0.00000000000E+00 -0.00000000000E+00 -0.45593999997E+02  0.45594000000E+02  0.51100000000E-03 0. -1.
    9900012    2    1    2    0    0 -0.77065298815E+00 -0.71555715343E+00 -0.53572939477E+00  0.90007773728E+02  0.90000035542E+02 0.  0.
        -12    1    1    2    0    0  0.77065298815E+00  0.71555715343E+00  0.53572939477E+00  0.11802262717E+01  0.00000000000E+00 0.  1.
         11    1    3    3    0    0  0.10151757597E+02 -0.46495709224E+00  0.42910628523E+00  0.10171455151E+02  0.51100000000E-03 0. -1.
        -11    1    3    3    0    0  0.26555999108E+02 -0.22080068298E+02 -0.90833123586E+01  0.35710741638E+02  0.51100000000E-03 0.  1.
         12    1    3    3    0    0 -0.37478409694E+02  0.21829468236E+02  0.81184766786E+01  0.44125576940E+02  0.00000000000E+00 0. -1.
</event>
<event>
 7    1  0.2429906E-015  0.9000781E+02  0.7816164E-02  0.1186339E+00
        -11   -1    0    0    0    0  0.00000000000E+00  0.00000000000E+00  0.45593999997E+02  0.45594000000E+02  0.51100000000E-03 0. -1.
         11   -1    0    0    0    0 -0.00000000000E+00 -0.00000000000E+00 -0.45593999997E+02  0.45594000000E+02  0.51100000000E-03 0.  1.
    9900012    2    1    2    0    0 -0.56396943667E+00 -0.57206463487E+00  0.86459126770E+00  0.90007814620E+02  0.90000076973E+02 0.  0.
        -12    1    1    2    0    0  0.56396943667E+00  0.57206463487E+00 -0.86459126770E+00  0.11801853804E+01  0.00000000000E+00 0.  1.
         11    1    3    3    0    0  0.19874499899E+02 -0.30174713336E+01  0.33644980093E+01  0.20381872500E+02  0.51100000000E-03 0. -1.
        -11    1    3    3    0    0 -0.27867522207E+01  0.17195087107E+02 -0.29436201431E+02  0.34204195115E+02  0.51100000000E-03 0.  1.
         12    1    3    3    0    0 -0.17651717115E+02 -0.14749680408E+02  0.26936294689E+02  0.35421747004E+02  0.00000000000E+00 0. -1.
</event>
<event>
 7    1  0.2429906E-015  0.9000713E+02  0.7816164E-02  0.1186340E+00
        -11   -1    0    0    0    0  0.00000000000E+00  0.00000000000E+00  0.45593999997E+02  0.45594000000E+02  0.51100000000E-03 0. -1.
         11   -1    0    0    0    0 -0.00000000000E+00 -0.00000000000E+00 -0.45593999997E+02  0.45594000000E+02  0.51100000000E-03 0.  1.
    9900012    2    1    2    0    0  0.93213015894E-01  0.68615464991E-01  0.11751790512E+01  0.90007134830E+02  0.89999388207E+02 0.  0.
        -12    1    1    2    0    0 -0.93213015894E-01 -0.68615464991E-01 -0.11751790512E+01  0.11808651705E+01  0.00000000000E+00 0.  1.
         11    1    3    3    0    0 -0.10186853081E+02  0.75605101028E+01  0.82127535248E+01  0.15112333024E+02  0.51100000000E-03 0. -1.
        -11    1    3    3    0    0  0.18228746102E+02  0.21873737344E+02 -0.26403435269E+02  0.38831545992E+02  0.51100000000E-03 0.  1.
         12    1    3    3    0    0 -0.79486800053E+01 -0.29365631982E+02  0.19365860795E+02  0.36063255813E+02  0.00000000000E+00 0. -1.
</event>
<event>
 7    1  0.2429906E-015  0.9000779E+02  0.7816164E-02  0.1186339E+00
        -11   -1    0    0    0    0  0.00000000000E+00  0.00000000000E+00  0.45593999997E+02  0.45594000000E+02  0.51100000000E-03 0. -1.
         11   -1    0    0    0    0 -0.00000000000E+00 -0.00000000000E+00 -0.45593999997E+02  0.45594000000E+02  0.51100000000E-03 0.  1.
    9900012    2    1    2    0    0 -0.73430312270E+00 -0.67487453547E+00 -0.63106854925E+00  0.90007786363E+02  0.90000048343E+02 0.  0.
        -12    1    1    2    0    0  0.73430312270E+00  0.67487453547E+00  0.63106854925E+00  0.11802136368E+01  0.00000000000E+00 0.  1.
         11    1    3    3    0    0 -0.21598351916E+02 -0.24845748605E+02  0.16676677918E+02  0.36904086710E+02  0.51100000000E-03 0. -1.
        -11    1    3    3    0    0 -0.23442279286E+01 -0.84219111705E+01  0.15376850069E+01  0.88762868242E+01  0.51100000000E-03 0.  1.
        -12    1    3    3    0    0  0.23208276722E+02  0.32592785240E+02 -0.18845431474E+02  0.44227412829E+02  0.00000000000E+00 0.  1.
</event>
<event>
 7    1  0.2429906E-015  0.9000778E+02  0.7816164E-02  0.1186339E+00
        -11   -1    0    0    0    0  0.00000000000E+00  0.00000000000E+00  0.45593999997E+02  0.45594000000E+02  0.51100000000E-03 0.  1.
         11   -1    0    0    0    0 -0.00000000000E+00 -0.00000000000E+00 -0.45593999997E+02  0.45594000000E+02  0.51100000000E-03 0. -1.
    9900012    2    1    2    0    0 -0.41537030955E-01  0.28563586366E+00 -0.11443852561E+01  0.90007775112E+02  0.90000036944E+02 0.  0.
        -12    1    1    2    0    0  0.41537030955E-01 -0.28563586366E+00  0.11443852561E+01  0.11802248879E+01  0.00000000000E+00 0.  1.
         11    1    3    3    0    0 -0.21185905281E+02  0.25614887552E+02 -0.27414020834E+02  0.43087046609E+02  0.51100000000E-03 0. -1.
        -11    1    3    3    0    0  0.13083865290E+01 -0.10993080251E+02  0.73888215449E-01  0.11070914526E+02  0.51100000000E-03 0.  1.
        -12    1    3    3    0    0  0.19835981721E+02 -0.14336171437E+02  0.26195747362E+02  0.35849813977E+02  0.00000000000E+00 0.  1.
</event>
<event>
 7    1  0.2429906E-015  0.9000777E+02  0.7816164E-02  0.1186339E+00
        -11   -1    0    0    0    0  0.00000000000E+00  0.00000000000E+00  0.45593999997E+02  0.45594000000E+02  0.51100000000E-03 0. -1.
         11   -1    0    0    0    0 -0.00000000000E+00 -0.00000000000E+00 -0.45593999997E+02  0.45594000000E+02  0.51100000000E-03 0.  1.
    9900012    2    1    2    0    0  0.17322729573E+00 -0.69022176288E+00  0.94155370293E+00  0.90007772415E+02  0.90000034210E+02 0.  0.
        -12    1    1    2    0    0 -0.17322729573E+00  0.69022176288E+00 -0.94155370293E+00  0.11802275854E+01  0.00000000000E+00 0.  1.
         11    1    3    3    0    0  0.33356298238E+02 -0.15847104864E+02  0.34235573015E+01  0.37087654409E+02  0.51100000000E-03 0. -1.
        -11    1    3    3    0    0  0.69450485124E+01 -0.43821247321E+01  0.10904362547E+00  0.82127100753E+01  0.51100000000E-03 0.  1.
        -12    1    3    3    0    0 -0.40128119455E+02  0.19539007833E+02 -0.25910472241E+01  0.44707407930E+02  0.00000000000E+00 0.  1.
</event>
<event>
 7    1  0.2429906E-015  0.9000777E+02  0.7816164E-02  0.1186339E+00
        -11   -1    0    0    0    0  0.00000000000E+00  0.00000000000E+00  0.45593999997E+02  0.45594000000E+02  0.51100000000E-03 0. -1.
         11   -1    0    0    0    0 -0.00000000000E+00 -0.00000000000E+00 -0.45593999997E+02  0.45594000000E+02  0.51100000000E-03 0.  1.
    9900012    2    1    2    0    0  0.81746349430E-02  0.11801922593E+01 -0.35737046971E-02  0.90007774020E+02  0.90000035837E+02 0.  0.
        -12    1    1    2    0    0 -0.81746349430E-02 -0.11801922593E+01  0.35737046971E-02  0.11802259804E+01  0.00000000000E+00 0.  1.
         11    1    3    3    0    0  0.22662170605E+02  0.31075872323E+02  0.11220661082E+02  0.40064785693E+02  0.51100000000E-03 0. -1.
        -11    1    3    3    0    0 -0.64400387871E+01  0.62113719289E+01 -0.63153261263E+00  0.89696195304E+01  0.51100000000E-03 0.  1.
        -12    1    3    3    0    0 -0.16213957183E+02 -0.36107051993E+02 -0.10592702174E+02  0.40973368797E+02  0.00000000000E+00 0.  1.
</event>
<event>
 7    1  0.2429906E-015  0.9000769E+02  0.7816164E-02  0.1186339E+00
        -11   -1    0    0    0    0  0.00000000000E+00  0.00000000000E+00  0.45593999997E+02  0.45594000000E+02  0.51100000000E-03 0.  1.
         11   -1    0    0    0    0 -0.00000000000E+00 -0.00000000000E+00 -0.45593999997E+02  0.45594000000E+02  0.51100000000E-03 0. -1.
    9900012    2    1    2    0    0  0.61303771766E+00 -0.20588448825E+00 -0.98738138314E+00  0.90007692556E+02  0.89999953298E+02 0.  0.
        -12    1    1    2    0    0 -0.61303771766E+00  0.20588448825E+00  0.98738138314E+00  0.11803074437E+01  0.00000000000E+00 0.  1.
         11    1    3    3    0    0 -0.20034972731E+02 -0.10644564072E+02 -0.28233761360E+02  0.36219499685E+02  0.51100000000E-03 0. -1.
        -11    1    3    3    0    0 -0.47438114032E+01 -0.20323274034E+01 -0.74236844009E+01  0.90413047537E+01  0.51100000000E-03 0.  1.
        -12    1    3    3    0    0  0.25391821852E+02  0.12471006987E+02  0.34670064378E+02  0.44746888118E+02  0.00000000000E+00 0.  1.
</event>
<event>
 7    1  0.2429906E-015  0.9000764E+02  0.7816164E-02  0.1186339E+00
        -11   -1    0    0    0    0  0.00000000000E+00  0.00000000000E+00  0.45593999997E+02  0.45594000000E+02  0.51100000000E-03 0. -1.
         11   -1    0    0    0    0 -0.00000000000E+00 -0.00000000000E+00 -0.45593999997E+02  0.45594000000E+02  0.51100000000E-03 0.  1.
    9900012    2    1    2    0    0 -0.11027263084E+01  0.35246242244E+00 -0.23023056636E+00  0.90007643620E+02  0.89999903716E+02 0.  0.
        -12    1    1    2    0    0  0.11027263084E+01 -0.35246242244E+00  0.23023056636E+00  0.11803563801E+01  0.00000000000E+00 0.  1.
         11    1    3    3    0    0 -0.34549513718E+02  0.19603238409E+02  0.79084414981E+01  0.40503077679E+02  0.51100000000E-03 0. -1.
        -11    1    3    3    0    0  0.81975851388E+01  0.69904801025E+01 -0.74200790483E+01  0.13081467330E+02  0.51100000000E-03 0.  1.
        -12    1    3    3    0    0  0.25249202271E+02 -0.26241256089E+02 -0.71859301609E+00  0.36423098610E+02  0.00000000000E+00 0.  1.
</event>
<event>
 7    1  0.2429906E-015  0.9000792E+02  0.7816164E-02  0.1186339E+00
        -11   -1    0    0    0    0  0.00000000000E+00  0.00000000000E+00  0.45593999997E+02  0.45594000000E+02  0.51100000000E-03 0.  1.
         11   -1    0    0    0    0 -0.00000000000E+00 -0.00000000000E+00 -0.45593999997E+02  0.45594000000E+02  0.51100000000E-03 0. -1.
    9900012    2    1    2    0    0 -0.39375685553E+00 -0.90741679142E+00 -0.64354301434E+00  0.90007916399E+02  0.90000180095E+02 0.  0.
        -12    1    1    2    0    0  0.39375685553E+00  0.90741679142E+00  0.64354301434E+00  0.11800836012E+01  0.00000000000E+00 0.  1.
         11    1    3    3    0    0 -0.46296401460E+01  0.84360824382E+01 -0.50310384795E+01  0.10858747774E+02  0.51100000000E-03 0. -1.
        -11    1    3    3    0    0  0.31667448720E+02  0.20261546362E+02  0.86120024293E+01  0.38568434704E+02  0.51100000000E-03 0.  1.
         12    1    3    3    0    0 -0.27431565430E+02 -0.29605045592E+02 -0.42245069641E+01  0.40580733920E+02  0.00000000000E+00 0. -1.
</event>
<event>
 7    1  0.2429906E-015  0.9000774E+02  0.7816164E-02  0.1186339E+00
        -11   -1    0    0    0    0  0.00000000000E+00  0.00000000000E+00  0.45593999997E+02  0.45594000000E+02  0.51100000000E-03 0. -1.
         11   -1    0    0    0    0 -0.00000000000E+00 -0.00000000000E+00 -0.45593999997E+02  0.45594000000E+02  0.51100000000E-03 0.  1.
    9900012    2    1    2    0    0  0.13273467469E+00  0.11594869276E+01 -0.17604892753E+00  0.90007736617E+02  0.89999997940E+02 0.  0.
        -12    1    1    2    0    0 -0.13273467469E+00 -0.11594869276E+01  0.17604892753E+00  0.11802633833E+01  0.00000000000E+00 0.  1.
         11    1    3    3    0    0  0.63218088014E+01 -0.21046679029E+01 -0.66525948482E+01  0.94155144298E+01  0.51100000000E-03 0. -1.
        -11    1    3    3    0    0  0.22157938626E+02 -0.18465438597E+02 -0.20875181006E+02  0.35605053701E+02  0.51100000000E-03 0.  1.
         12    1    3    3    0    0 -0.28347012753E+02  0.21729593428E+02  0.27351726927E+02  0.44987168486E+02  0.00000000000E+00 0. -1.
</event>
<event>
 7    1  0.2429906E-015  0.9000773E+02  0.7816164E-02  0.1186339E+00
        -11   -1    0    0    0    0  0.00000000000E+00  0.00000000000E+00  0.45593999997E+02  0.45594000000E+02  0.51100000000E-03 0. -1.
         11   -1    0    0    0    0 -0.00000000000E+00 -0.00000000000E+00 -0.45593999997E+02  0.45594000000E+02  0.51100000000E-03 0.  1.
    9900012    2    1    2    0    0 -0.39666936600E+00 -0.18252285068E+00  0.10965282060E+01  0.90007730843E+02  0.89999992090E+02 0.  0.
        -12    1    1    2    0    0  0.39666936600E+00  0.18252285068E+00 -0.10965282060E+01  0.11802691572E+01  0.00000000000E+00 0.  1.
         11    1    3    3    0    0 -0.21677478108E+02 -0.31427833489E+02  0.10371734570E+02  0.39562541035E+02  0.51100000000E-03 0. -1.
        -11    1    3    3    0    0 -0.66445503752E+01  0.74959045856E+01  0.48876411833E+01  0.11145746805E+02  0.51100000000E-03 0.  1.
        -12    1    3    3    0    0  0.27925359117E+02  0.23749406052E+02 -0.14162847548E+02  0.39299443003E+02  0.00000000000E+00 0.  1.
</event>
<event>
 7    1  0.2429906E-015  0.9000702E+02  0.7816164E-02  0.1186340E+00
        -11   -1    0    0    0    0  0.00000000000E+00  0.00000000000E+00  0.45593999997E+02  0.45594000000E+02  0.51100000000E-03 0. -1.
         11   -1    0    0    0    0 -0.00000000000E+00 -0.00000000000E+00 -0.45593999997E+02  0.45594000000E+02  0.51100000000E-03 0.  1.
    9900012    2    1    2    0    0  0.38418000485E+00 -0.92153163654E+00  0.63078520029E+00  0.90007023793E+02  0.89999275704E+02 0.  0.
        -12    1    1    2    0    0 -0.38418000485E+00  0.92153163654E+00 -0.63078520029E+00  0.11809762073E+01  0.00000000000E+00 0.  1.
         11    1    3    3    0    0 -0.33894869262E+02 -0.85779152564E+01  0.20491080695E+02  0.40525636093E+02  0.51100000000E-03 0. -1.
        -11    1    3    3    0    0 -0.12008988714E+01 -0.68730282323E+01 -0.28220072119E+01  0.75262474147E+01  0.51100000000E-03 0.  1.
        -12    1    3    3    0    0  0.35479948139E+02  0.14529411852E+02 -0.17038288283E+02  0.41955140285E+02  0.00000000000E+00 0.  1.
</event>
<event>
 7    1  0.2429906E-015  0.9000767E+02  0.7816164E-02  0.1186339E+00
        -11   -1    0    0    0    0  0.00000000000E+00  0.00000000000E+00  0.45593999997E+02  0.45594000000E+02  0.51100000000E-03 0.  1.
         11   -1    0    0    0    0 -0.00000000000E+00 -0.00000000000E+00 -0.45593999997E+02  0.45594000000E+02  0.51100000000E-03 0. -1.
    9900012    2    1    2    0    0 -0.10373484837E+01  0.23987409836E+00  0.50946817923E+00  0.90007665604E+02  0.89999925990E+02 0.  0.
        -12    1    1    2    0    0  0.10373484837E+01 -0.23987409836E+00 -0.50946817923E+00  0.11803343956E+01  0.00000000000E+00 0.  1.
         11    1    3    3    0    0 -0.96848100880E+01 -0.11650829182E+01 -0.84714368424E+01  0.12919682933E+02  0.51100000000E-03 0. -1.
        -11    1    3    3    0    0  0.38975111199E+02  0.77270468750E+00 -0.11313183013E+02  0.40591187167E+02  0.51100000000E-03 0.  1.
         12    1    3    3    0    0 -0.30327649595E+02  0.63225232910E+00  0.20294088035E+02  0.36496795504E+02  0.00000000000E+00 0. -1.
</event>
<event>
 7    1  0.2429906E-015  0.9000776E+02  0.7816164E-02  0.1186339E+00
        -11   -1    0    0    0    0  0.00000000000E+00  0.00000000000E+00  0.45593999997E+02  0.45594000000E+02  0.51100000000E-03 0. -1.
         11   -1    0    0    0    0 -0.00000000000E+00 -0.00000000000E+00 -0.45593999997E+02  0.45594000000E+02  0.51100000000E-03 0.  1.
    9900012    2    1    2    0    0 -0.77909157083E+00  0.22762615746E-02  0.88655512531E+00  0.90007758988E+02  0.90000020606E+02 0.  0.
        -12    1    1    2    0    0  0.77909157083E+00 -0.22762615746E-02 -0.88655512531E+00  0.11802410124E+01  0.00000000000E+00 0.  1.
         11    1    3    3    0    0 -0.31635492166E+02  0.23944082014E+02  0.29566337134E+01  0.39785237353E+02  0.51100000000E-03 0. -1.
        -11    1    3    3    0    0  0.14253179039E+01  0.19947596039E+01 -0.99179580960E+01  0.10216481295E+02  0.51100000000E-03 0.  1.
        -12    1    3    3    0    0  0.29431082691E+02 -0.25936565356E+02  0.78478795079E+01  0.40006040339E+02  0.00000000000E+00 0.  1.
</event>
<event>
 7    1  0.2429906E-015  0.9000776E+02  0.7816164E-02  0.1186339E+00
        -11   -1    0    0    0    0  0.00000000000E+00  0.00000000000E+00  0.45593999997E+02  0.45594000000E+02  0.51100000000E-03 0.  1.
         11   -1    0    0    0    0 -0.00000000000E+00 -0.00000000000E+00 -0.45593999997E+02  0.45594000000E+02  0.51100000000E-03 0. -1.
    9900012    2    1    2    0    0 -0.61017493488E-01 -0.95073958471E+00 -0.69666926320E+00  0.90007755553E+02  0.90000017126E+02 0.  0.
        -12    1    1    2    0    0  0.61017493488E-01  0.95073958471E+00  0.69666926320E+00  0.11802444470E+01  0.00000000000E+00 0.  1.
         11    1    3    3    0    0  0.17926634888E+01 -0.94384736342E+01 -0.26232714248E+01  0.99589146074E+01  0.51100000000E-03 0. -1.
        -11    1    3    3    0    0 -0.18272384499E+02  0.34953264747E+02 -0.17705296161E+02  0.43232953451E+02  0.51100000000E-03 0.  1.
         12    1    3    3    0    0  0.16418703517E+02 -0.26465530697E+02  0.19631898322E+02  0.36815887494E+02  0.00000000000E+00 0. -1.
</event>
<event>
 7    1  0.2429906E-015  0.9000762E+02  0.7816164E-02  0.1186339E+00
        -11   -1    0    0    0    0  0.00000000000E+00  0.00000000000E+00  0.45593999997E+02  0.45594000000E+02  0.51100000000E-03 0.  1.
         11   -1    0    0    0    0 -0.00000000000E+00 -0.00000000000E+00 -0.45593999997E+02  0.45594000000E+02  0.51100000000E-03 0. -1.
    9900012    2    1    2    0    0  0.34804906863E+00  0.10133162684E+01  0.49533583745E+00  0.90007616331E+02  0.89999876067E+02 0.  0.
        -12    1    1    2    0    0 -0.34804906863E+00 -0.10133162684E+01 -0.49533583745E+00  0.11803836689E+01  0.00000000000E+00 0.  1.
         11    1    3    3    0    0  0.58404188608E+01  0.10247036118E+02 -0.21852593987E+02  0.24832400324E+02  0.51100000000E-03 0. -1.
        -11    1    3    3    0    0  0.17099408869E+02 -0.20554421181E+02 -0.57891390038E+01  0.27356683725E+02  0.51100000000E-03 0.  1.
        -12    1    3    3    0    0 -0.22591778662E+02  0.11320701331E+02  0.28137068828E+02  0.37818532282E+02  0.00000000000E+00 0.  1.
</event>
<event>
 7    1  0.2429906E-015  0.9000776E+02  0.7816164E-02  0.1186339E+00
        -11   -1    0    0    0    0  0.00000000000E+00  0.00000000000E+00  0.45593999997E+02  0.45594000000E+02  0.51100000000E-03 0. -1.
         11   -1    0    0    0    0 -0.00000000000E+00 -0.00000000000E+00 -0.45593999997E+02  0.45594000000E+02  0.51100000000E-03 0.  1.
    9900012    2    1    2    0    0  0.57560895887E+00 -0.65814067174E+00  0.79277568352E+00  0.90007759303E+02  0.90000020926E+02 0.  0.
        -12    1    1    2    0    0 -0.57560895887E+00  0.65814067174E+00 -0.79277568352E+00  0.11802406965E+01  0.00000000000E+00 0.  1.
         11    1    3    3    0    0 -0.17463404186E+02  0.16374251202E+02  0.27957432877E+02  0.36806312523E+02  0.51100000000E-03 0. -1.
        -11    1    3    3    0    0  0.14032610661E+01  0.69449886034E+01  0.58133296507E+01  0.91649773709E+01  0.51100000000E-03 0.  1.
        -12    1    3    3    0    0  0.16635752079E+02 -0.23977380477E+02 -0.32977986845E+02  0.44036469410E+02  0.00000000000E+00 0.  1.
</event>
<event>
 7    1  0.2429906E-015  0.9000776E+02  0.7816164E-02  0.1186339E+00
        -11   -1    0    0    0    0  0.00000000000E+00  0.00000000000E+00  0.45593999997E+02  0.45594000000E+02  0.51100000000E-03 0. -1.
         11   -1    0    0    0    0 -0.00000000000E+00 -0.00000000000E+00 -0.45593999997E+02  0.45594000000E+02  0.51100000000E-03 0.  1.
    9900012    2    1    2    0    0  0.98432135593E+00 -0.18140058371E+00  0.62543918602E+00  0.90007758974E+02  0.90000020593E+02 0.  0.
        -12    1    1    2    0    0 -0.98432135593E+00  0.18140058371E+00 -0.62543918602E+00  0.11802410258E+01  0.00000000000E+00 0.  1.
         11    1    3    3    0    0  0.68193768967E+01  0.15567876074E+01  0.59083181435E+01  0.91561843832E+01  0.51100000000E-03 0. -1.
        -11    1    3    3    0    0  0.26946308263E+02 -0.13355163641E+02  0.21488311980E+02  0.36962298046E+02  0.51100000000E-03 0.  1.
         12    1    3    3    0    0 -0.32781363804E+02  0.11616975450E+02 -0.26771190937E+02  0.43889276545E+02  0.00000000000E+00 0. -1.
</event>
<event>
 7    1  0.2429906E-015  0.9000769E+02  0.7816164E-02  0.1186339E+00
        -11   -1    0    0    0    0  0.00000000000E+00  0.00000000000E+00  0.45593999997E+02  0.45594000000E+02  0.51100000000E-03 0.  1.
         11   -1    0    0    0    0 -0.00000000000E+00 -0.00000000000E+00 -0.45593999997E+02  0.45594000000E+02  0.51100000000E-03 0. -1.
    9900012    2    1    2    0    0 -0.11265845711E+00  0.10979746029E+01  0.41819240192E+00  0.90007692819E+02  0.89999953564E+02 0.  0.
        -12    1    1    2    0    0  0.11265845711E+00 -0.10979746029E+01 -0.41819240192E+00  0.11803071810E+01  0.00000000000E+00 0.  1.
         11    1    3    3    0    0 -0.20105562346E+02 -0.40215950715E+01  0.30252379856E+02  0.36546044265E+02  0.51100000000E-03 0. -1.
        -11    1    3    3    0    0 -0.65889377186E+01 -0.70438582997E+00  0.56750194442E+01  0.87244544592E+01  0.51100000000E-03 0.  1.
        -12    1    3    3    0    0  0.26581841607E+02  0.58239555044E+01 -0.35509206898E+02  0.44737194095E+02  0.00000000000E+00 0.  1.
</event>
<event>
 7    1  0.2429906E-015  0.9000757E+02  0.7816164E-02  0.1186339E+00
        -11   -1    0    0    0    0  0.00000000000E+00  0.00000000000E+00  0.45593999997E+02  0.45594000000E+02  0.51100000000E-03 0.  1.
         11   -1    0    0    0    0 -0.00000000000E+00 -0.00000000000E+00 -0.45593999997E+02  0.45594000000E+02  0.51100000000E-03 0. -1.
    9900012    2    1    2    0    0 -0.10488945754E+00 -0.11665234974E+01 -0.14705301851E+00  0.90007574882E+02  0.89999834071E+02 0.  0.
        -12    1    1    2    0    0  0.10488945754E+00  0.11665234974E+01  0.14705301851E+00  0.11804251178E+01  0.00000000000E+00 0.  1.
         11    1    3    3    0    0 -0.90140198173E+01  0.45942595277E+01 -0.41042727034E+01  0.10918096380E+02  0.51100000000E-03 0. -1.
        -11    1    3    3    0    0 -0.10565476559E+02 -0.64903857543E+01  0.37940188325E+02  0.39915063479E+02  0.51100000000E-03 0.  1.
         12    1    3    3    0    0  0.19474606918E+02  0.72960272920E+00 -0.33982968640E+02  0.39174415023E+02  0.00000000000E+00 0. -1.
</event>
<event>
 7    1  0.2429906E-015  0.9000774E+02  0.7816164E-02  0.1186339E+00
        -11   -1    0    0    0    0  0.00000000000E+00  0.00000000000E+00  0.45593999997E+02  0.45594000000E+02  0.51100000000E-03 0.  1.
         11   -1    0    0    0    0 -0.00000000000E+00 -0.00000000000E+00 -0.45593999997E+02  0.45594000000E+02  0.51100000000E-03 0. -1.
    9900012    2    1    2    0    0  0.18902820745E+00  0.39487601939E+00 -0.10960658859E+01  0.90007737673E+02  0.89999999010E+02 0.  0.
        -12    1    1    2    0    0 -0.18902820745E+00 -0.39487601939E+00  0.10960658859E+01  0.11802623269E+01  0.00000000000E+00 0.  1.
         11    1    3    3    0    0 -0.19166837600E+02  0.13725820008E+02 -0.31308054251E+02  0.39191326332E+02  0.51100000000E-03 0. -1.
        -11    1    3    3    0    0  0.70198103506E+01  0.27130226785E+01 -0.58038590815E+01  0.95038418501E+01  0.51100000000E-03 0.  1.
        -12    1    3    3    0    0  0.12336055457E+02 -0.16043966667E+02  0.36015847446E+02  0.41312569491E+02  0.00000000000E+00 0.  1.
</event>
<event>
 7    1  0.2429906E-015  0.9000772E+02  0.7816164E-02  0.1186339E+00
        -11   -1    0    0    0    0  0.00000000000E+00  0.00000000000E+00  0.45593999997E+02  0.45594000000E+02  0.51100000000E-03 0.  1.
         11   -1    0    0    0    0 -0.00000000000E+00 -0.00000000000E+00 -0.45593999997E+02  0.45594000000E+02  0.51100000000E-03 0. -1.
    9900012    2    1    2    0    0  0.78686314774E+00  0.23647876423E+00 -0.84733923485E+00  0.90007720542E+02  0.89999981654E+02 0.  0.
        -12    1    1    2    0    0 -0.78686314774E+00 -0.23647876423E+00  0.84733923485E+00  0.11802794576E+01  0.00000000000E+00 0.  1.
         11    1    3    3    0    0  0.35853443459E+02 -0.25202625438E+01  0.39917590543E+01  0.36162899106E+02  0.51100000000E-03 0. -1.
        -11    1    3    3    0    0  0.76545529399E+01 -0.37621360466E+01  0.44825035857E+01  0.96352834416E+01  0.51100000000E-03 0.  1.
        -12    1    3    3    0    0 -0.42721133251E+02  0.65188773546E+01 -0.93216018749E+01  0.44209537995E+02  0.00000000000E+00 0.  1.
</event>
<event>
 7    1  0.2429906E-015  0.9000762E+02  0.7816164E-02  0.1186339E+00
        -11   -1    0    0    0    0  0.00000000000E+00  0.00000000000E+00  0.45593999997E+02  0.45594000000E+02  0.51100000000E-03 0.  1.
         11   -1    0    0    0    0 -0.00000000000E+00 -0.00000000000E+00 -0.45593999997E+02  0.45594000000E+02  0.51100000000E-03 0. -1.
    9900012    2    1    2    0    0 -0.99059436876E+00  0.19590376188E+00  0.61126362606E+00  0.90007619253E+02  0.89999879027E+02 0.  0.
        -12    1    1    2    0    0  0.99059436876E+00 -0.19590376188E+00 -0.61126362606E+00  0.11803807470E+01  0.00000000000E+00 0.  1.
         11    1    3    3    0    0  0.62812680381E+01 -0.14792941488E+01 -0.75042872460E+01  0.98973211869E+01  0.51100000000E-03 0. -1.
        -11    1    3    3    0    0  0.15150390622E+02 -0.33236429366E+02 -0.43538339040E+01  0.36785193257E+02  0.51100000000E-03 0.  1.
         12    1    3    3    0    0 -0.22422253029E+02  0.34911627277E+02  0.12469384776E+02  0.43325104809E+02  0.00000000000E+00 0. -1.
</event>
<event>
 7    1  0.2429906E-015  0.9000777E+02  0.7816164E-02  0.1186339E+00
        -11   -1    0    0    0    0  0.00000000000E+00  0.00000000000E+00  0.45593999997E+02  0.45594000000E+02  0.51100000000E-03 0. -1.
         11   -1    0    0    0    0 -0.00000000000E+00 -0.00000000000E+00 -0.45593999997E+02  0.45594000000E+02  0.51100000000E-03 0.  1.
    9900012    2    1    2    0    0 -0.11463385991E+01 -0.27653521207E+00 -0.48799635296E-01  0.90007768958E+02  0.90000030709E+02 0.  0.
        -12    1    1    2    0    0  0.11463385991E+01  0.27653521207E+00  0.48799635296E-01  0.11802310417E+01  0.00000000000E+00 0.  1.
         11    1    3    3    0    0  0.34539402193E+02 -0.21321402309E+02  0.28588072975E+01  0.40690850073E+02  0.51100000000E-03 0. -1.
        -11    1    3    3    0    0 -0.55139768152E+01 -0.63908273489E+01 -0.12771210834E+00  0.84417370941E+01  0.51100000000E-03 0.  1.
        -12    1    3    3    0    0 -0.30171763977E+02  0.27435694446E+02 -0.27798948244E+01  0.40875181791E+02  0.00000000000E+00 0.  1.
</event>
<event>
 7    1  0.2429906E-015  0.9000781E+02  0.7816164E-02  0.1186339E+00
        -11   -1    0    0    0    0  0.00000000000E+00  0.00000000000E+00  0.45593999997E+02  0.45594000000E+02  0.51100000000E-03 0.  1.
         11   -1    0    0    0    0 -0.00000000000E+00 -0.00000000000E+00 -0.45593999997E+02  0.45594000000E+02  0.51100000000E-03 0. -1.
    9900012    2    1    2    0    0  0.64412156190E+00  0.73718423887E+00 -0.65917760088E+00  0.90007810058E+02  0.90000072351E+02 0.  0.
        -12    1    1    2    0    0 -0.64412156190E+00 -0.73718423887E+00  0.65917760088E+00  0.11801899415E+01  0.00000000000E+00 0.  1.
         11    1    3    3    0    0 -0.65388543169E+01  0.99574362202E+01  0.39633663647E+02  0.41385195979E+02  0.51100000000E-03 0. -1.
        -11    1    3    3    0    0  0.18398736174E+01 -0.77777008004E+01 -0.41388924400E-01  0.79924638237E+01  0.51100000000E-03 0.  1.
        -12    1    3    3    0    0  0.53431022614E+01 -0.14425511809E+01 -0.40251452323E+02  0.40630150256E+02  0.00000000000E+00 0.  1.
</event>
<event>
 7    1  0.2429906E-015  0.9000755E+02  0.7816164E-02  0.1186339E+00
        -11   -1    0    0    0    0  0.00000000000E+00  0.00000000000E+00  0.45593999997E+02  0.45594000000E+02  0.51100000000E-03 0. -1.
         11   -1    0    0    0    0 -0.00000000000E+00 -0.00000000000E+00 -0.45593999997E+02  0.45594000000E+02  0.51100000000E-03 0.  1.
    9900012    2    1    2    0    0  0.22011242375E-01  0.11801838343E+01 -0.11580846495E-01  0.90007554112E+02  0.89999813026E+02 0.  0.
        -12    1    1    2    0    0 -0.22011242375E-01 -0.11801838343E+01  0.11580846495E-01  0.11804458876E+01  0.00000000000E+00 0.  1.
         11    1    3    3    0    0 -0.22906201499E+02  0.27703530254E+02  0.14422594596E+02  0.38732297774E+02  0.51100000000E-03 0. -1.
        -11    1    3    3    0    0 -0.91757829313E+01 -0.59041934825E+01 -0.48141172315E+01  0.11926031111E+02  0.51100000000E-03 0.  1.
        -12    1    3    3    0    0  0.32103995673E+02 -0.20619152938E+02 -0.96200582111E+01  0.39349225228E+02  0.00000000000E+00 0.  1.
</event>
<event>
 7    1  0.2429906E-015  0.9000787E+02  0.7816164E-02  0.1186339E+00
        -11   -1    0    0    0    0  0.00000000000E+00  0.00000000000E+00  0.45593999997E+02  0.45594000000E+02  0.51100000000E-03 0.  1.
         11   -1    0    0    0    0 -0.00000000000E+00 -0.00000000000E+00 -0.45593999997E+02  0.45594000000E+02  0.51100000000E-03 0. -1.
    9900012    2    1    2    0    0 -0.10110737290E+00 -0.11756011286E+01  0.21216984750E-01  0.90007868281E+02  0.90000131342E+02 0.  0.
        -12    1    1    2    0    0  0.10110737290E+00  0.11756011286E+01 -0.21216984750E-01  0.11801317193E+01  0.00000000000E+00 0.  1.
         11    1    3    3    0    0  0.12662928774E+01  0.78948657938E+01  0.79348857201E+01  0.11264759882E+02  0.51100000000E-03 0. -1.
        -11    1    3    3    0    0 -0.37719502769E+02 -0.11762849589E+02 -0.13733375243E+02  0.41829787418E+02  0.51100000000E-03 0.  1.
         12    1    3    3    0    0  0.36352102519E+02  0.26923826665E+01  0.58197065077E+01  0.36913320980E+02  0.00000000000E+00 0. -1.
</event>
<event>
 7    1  0.2429906E-015  0.9000763E+02  0.7816164E-02  0.1186339E+00
        -11   -1    0    0    0    0  0.00000000000E+00  0.00000000000E+00  0.45593999997E+02  0.45594000000E+02  0.51100000000E-03 0.  1.
         11   -1    0    0    0    0 -0.00000000000E+00 -0.00000000000E+00 -0.45593999997E+02  0.45594000000E+02  0.51100000000E-03 0. -1.
    9900012    2    1    2    0    0  0.98222557342E+00 -0.19866556111E+00 -0.62373123685E+00  0.90007628983E+02  0.89999888885E+02 0.  0.
        -12    1    1    2    0    0 -0.98222557342E+00  0.19866556111E+00  0.62373123685E+00  0.11803710171E+01  0.00000000000E+00 0.  1.
         11    1    3    3    0    0  0.41180366918E+01 -0.18061326170E+02 -0.33734802217E+02  0.38486447097E+02  0.51100000000E-03 0. -1.
        -11    1    3    3    0    0  0.80520435454E+00 -0.40039309077E+01 -0.55735694571E+01  0.69097390342E+01  0.51100000000E-03 0.  1.
        -12    1    3    3    0    0 -0.39410154729E+01  0.21866591517E+02  0.38684640438E+02  0.44611442852E+02  0.00000000000E+00 0.  1.
</event>
<event>
 7    1  0.2429906E-015  0.9000772E+02  0.7816164E-02  0.1186339E+00
        -11   -1    0    0    0    0  0.00000000000E+00  0.00000000000E+00  0.45593999997E+02  0.45594000000E+02  0.51100000000E-03 0. -1.
         11   -1    0    0    0    0 -0.00000000000E+00 -0.00000000000E+00 -0.45593999997E+02  0.45594000000E+02  0.51100000000E-03 0.  1.
    9900012    2    1    2    0    0 -0.14846766751E+00  0.11093243302E+01  0.37471661337E+00  0.90007722211E+02  0.89999983345E+02 0.  0.
        -12    1    1    2    0    0  0.14846766751E+00 -0.11093243302E+01 -0.37471661337E+00  0.11802777886E+01  0.00000000000E+00 0.  1.
         11    1    3    3    0    0 -0.60474074498E+01  0.53162205291E+00 -0.96333722924E+01  0.11386642212E+02  0.51100000000E-03 0. -1.
        -11    1    3    3    0    0  0.25697053341E+02  0.11609748264E+02 -0.24487275941E+02  0.37346371824E+02  0.51100000000E-03 0.  1.
         12    1    3    3    0    0 -0.19798113558E+02 -0.11032045987E+02  0.34495364846E+02  0.41274708176E+02  0.00000000000E+00 0. -1.
</event>
<event>
 7    1  0.2429906E-015  0.9000776E+02  0.7816164E-02  0.1186339E+00
        -11   -1    0    0    0    0  0.00000000000E+00  0.00000000000E+00  0.45593999997E+02  0.45594000000E+02  0.51100000000E-03 0.  1.
         11   -1    0    0    0    0 -0.00000000000E+00 -0.00000000000E+00 -0.45593999997E+02  0.45594000000E+02  0.51100000000E-03 0. -1.
    9900012    2    1    2    0    0  0.40736061707E+00  0.39723098622E-01 -0.11069979787E+01  0.90007760566E+02  0.90000022205E+02 0.  0.
        -12    1    1    2    0    0 -0.40736061707E+00 -0.39723098622E-01  0.11069979787E+01  0.11802394341E+01  0.00000000000E+00 0.  1.
         11    1    3    3    0    0  0.34457166991E+01  0.11239078768E+02 -0.38599994631E+02  0.40350333838E+02  0.51100000000E-03 0. -1.
        -11    1    3    3    0    0  0.48640910877E+01  0.28696388601E+01 -0.27634173092E+01  0.62873432213E+01  0.51100000000E-03 0.  1.
        -12    1    3    3    0    0 -0.79024471697E+01 -0.14068994529E+02  0.40256413961E+02  0.43370083506E+02  0.00000000000E+00 0.  1.
</event>
<event>
 7    1  0.2429906E-015  0.9000772E+02  0.7816164E-02  0.1186339E+00
        -11   -1    0    0    0    0  0.00000000000E+00  0.00000000000E+00  0.45593999997E+02  0.45594000000E+02  0.51100000000E-03 0.  1.
         11   -1    0    0    0    0 -0.00000000000E+00 -0.00000000000E+00 -0.45593999997E+02  0.45594000000E+02  0.51100000000E-03 0. -1.
    9900012    2    1    2    0    0 -0.10141732100E+01  0.33564422426E+00 -0.50185277435E+00  0.90007720138E+02  0.89999981244E+02 0.  0.
        -12    1    1    2    0    0  0.10141732100E+01 -0.33564422426E+00  0.50185277435E+00  0.11802798619E+01  0.00000000000E+00 0.  1.
         11    1    3    3    0    0 -0.33908209621E+02  0.17062431380E+02 -0.17528970831E+02  0.41810980172E+02  0.51100000000E-03 0. -1.
        -11    1    3    3    0    0  0.44890192448E+00  0.33015385104E+01  0.84946168357E+01  0.91247019085E+01  0.51100000000E-03 0.  1.
        -12    1    3    3    0    0  0.32445134487E+02 -0.20028325666E+02  0.85325012208E+01  0.39072038057E+02  0.00000000000E+00 0.  1.
</event>
<event>
 7    1  0.2429906E-015  0.9000776E+02  0.7816164E-02  0.1186339E+00
        -11   -1    0    0    0    0  0.00000000000E+00  0.00000000000E+00  0.45593999997E+02  0.45594000000E+02  0.51100000000E-03 0.  1.
         11   -1    0    0    0    0 -0.00000000000E+00 -0.00000000000E+00 -0.45593999997E+02  0.45594000000E+02  0.51100000000E-03 0. -1.
    9900012    2    1    2    0    0  0.25815545560E+00 -0.97111616760E+00 -0.61907792619E+00  0.90007759207E+02  0.90000020829E+02 0.  0.
        -12    1    1    2    0    0 -0.25815545560E+00  0.97111616760E+00  0.61907792619E+00  0.11802407928E+01  0.00000000000E+00 0.  1.
         11    1    3    3    0    0  0.78957667350E+01 -0.66440151250E+01  0.24201222527E+01  0.10599200974E+02  0.51100000000E-03 0. -1.
        -11    1    3    3    0    0  0.18127333189E+02  0.12592192611E+02  0.29809486771E+02  0.37091360518E+02  0.51100000000E-03 0.  1.
         12    1    3    3    0    0 -0.25764944468E+02 -0.69192936535E+01 -0.32848686950E+02  0.42317197715E+02  0.00000000000E+00 0. -1.
</event>
<event>
 7    1  0.2429906E-015  0.9000774E+02  0.7816164E-02  0.1186339E+00
        -11   -1    0    0    0    0  0.00000000000E+00  0.00000000000E+00  0.45593999997E+02  0.45594000000E+02  0.51100000000E-03 0. -1.
         11   -1    0    0    0    0 -0.00000000000E+00 -0.00000000000E+00 -0.45593999997E+02  0.45594000000E+02  0.51100000000E-03 0.  1.
    9900012    2    1    2    0    0 -0.12538558741E+00  0.48955482143E+00  0.10665966119E+01  0.90007739943E+02  0.90000001311E+02 0.  0.
        -12    1    1    2    0    0  0.12538558741E+00 -0.48955482143E+00 -0.10665966119E+01  0.11802600566E+01  0.00000000000E+00 0.  1.
         11    1    3    3    0    0 -0.72477810128E+01 -0.28298198572E+02  0.22617646617E+02  0.36944232443E+02  0.51100000000E-03 0. -1.
        -11    1    3    3    0    0 -0.90814906986E+01  0.52420703942E+01  0.70445306662E+01  0.12632426049E+02  0.51100000000E-03 0.  1.
        -12    1    3    3    0    0  0.16203886124E+02  0.23545682999E+02 -0.28595580671E+02  0.40431081451E+02  0.00000000000E+00 0.  1.
</event>
<event>
 7    1  0.3826384E-015  0.9000778E+02  0.7816164E-02  0.1186339E+00
        -11   -1    0    0    0    0  0.00000000000E+00  0.00000000000E+00  0.45593999997E+02  0.45594000000E+02  0.51100000000E-03 0.  1.
         11   -1    0    0    0    0 -0.00000000000E+00 -0.00000000000E+00 -0.45593999997E+02  0.45594000000E+02  0.51100000000E-03 0. -1.
    9900012    2    1    2    0    0  0.57429927182E+00 -0.99330622206E+00  0.27650260873E+00  0.90007775192E+02  0.90000037025E+02 0.  0.
        -12    1    1    2    0    0 -0.57429927182E+00  0.99330622206E+00 -0.27650260873E+00  0.11802248078E+01  0.00000000000E+00 0.  1.
         11    1    3    3    0    0  0.22098420200E+02 -0.27312853072E+02  0.19721202859E+02  0.40289675610E+02  0.51100000000E-03 0. -1.
        -11    1    3    3    0    0  0.66009280491E+01  0.92002681057E+00 -0.73876778285E+01  0.99496977040E+01  0.51100000000E-03 0.  1.
        -12    1    3    3    0    0 -0.28125048978E+02  0.25399520040E+02 -0.12057022422E+02  0.39768401878E+02  0.00000000000E+00 0.  1.
</event>
<event>
 7    1  0.2429906E-015  0.9000771E+02  0.7816164E-02  0.1186339E+00
        -11   -1    0    0    0    0  0.00000000000E+00  0.00000000000E+00  0.45593999997E+02  0.45594000000E+02  0.51100000000E-03 0. -1.
         11   -1    0    0    0    0 -0.00000000000E+00 -0.00000000000E+00 -0.45593999997E+02  0.45594000000E+02  0.51100000000E-03 0.  1.
    9900012    2    1    2    0    0  0.11570999156E+01  0.23049519119E+00  0.32879115885E-01  0.90007707967E+02  0.89999968912E+02 0.  0.
        -12    1    1    2    0    0 -0.11570999156E+01 -0.23049519119E+00 -0.32879115885E-01  0.11802920334E+01  0.00000000000E+00 0.  1.
         11    1    3    3    0    0  0.15152910035E+02 -0.84019529197E+00  0.41947854423E+02  0.44608733468E+02  0.51100000000E-03 0. -1.
        -11    1    3    3    0    0  0.94614897389E+00  0.19099410352E+01 -0.88802876684E+01  0.91325014084E+01  0.51100000000E-03 0.  1.
        -12    1    3    3    0    0 -0.14941959094E+02 -0.83925055206E+00 -0.33034687638E+02  0.36266473090E+02  0.00000000000E+00 0.  1.
</event>
<event>
 7    1  0.3082468E-015  0.9000775E+02  0.7816164E-02  0.1186339E+00
        -11   -1    0    0    0    0  0.00000000000E+00  0.00000000000E+00  0.45593999997E+02  0.45594000000E+02  0.51100000000E-03 0. -1.
         11   -1    0    0    0    0 -0.00000000000E+00 -0.00000000000E+00 -0.45593999997E+02  0.45594000000E+02  0.51100000000E-03 0.  1.
    9900012    2    1    2    0    0  0.89847512511E+00  0.55501819415E-01  0.76331808016E+00  0.90007748970E+02  0.90000010456E+02 0.  0.
        -12    1    1    2    0    0 -0.89847512511E+00 -0.55501819415E-01 -0.76331808016E+00  0.11802510300E+01  0.00000000000E+00 0.  1.
         11    1    3    3    0    0  0.88347977081E+01  0.32918136367E+02  0.17911873877E+02  0.38503150241E+02  0.51100000000E-03 0. -1.
        -11    1    3    3    0    0 -0.83563821113E+01  0.54737875050E+01 -0.15277378419E+01  0.10105713969E+02  0.51100000000E-03 0.  1.
        -12    1    3    3    0    0  0.42005952841E+00 -0.38336422053E+02 -0.15620817955E+02  0.41398884760E+02  0.00000000000E+00 0.  1.
</event>
<event>
 7    1  0.2429906E-015  0.9000775E+02  0.7816164E-02  0.1186339E+00
        -11   -1    0    0    0    0  0.00000000000E+00  0.00000000000E+00  0.45593999997E+02  0.45594000000E+02  0.51100000000E-03 0. -1.
         11   -1    0    0    0    0 -0.00000000000E+00 -0.00000000000E+00 -0.45593999997E+02  0.45594000000E+02  0.51100000000E-03 0.  1.
    9900012    2    1    2    0    0  0.66798507121E+00  0.50573646749E+00  0.83127028882E+00  0.90007752686E+02  0.90000014221E+02 0.  0.
        -12    1    1    2    0    0 -0.66798507121E+00 -0.50573646749E+00 -0.83127028882E+00  0.11802473143E+01  0.00000000000E+00 0.  1.
         11    1    3    3    0    0 -0.28405745874E+01 -0.38396302635E+01  0.85780394314E+01  0.98180642336E+01  0.51100000000E-03 0. -1.
        -11    1    3    3    0    0  0.63778458888E+00 -0.15867495608E+02 -0.39424747366E+02  0.42502880975E+02  0.51100000000E-03 0.  1.
         12    1    3    3    0    0  0.28707750698E+01  0.20212862339E+02  0.31677978224E+02  0.37686807477E+02  0.00000000000E+00 0. -1.
</event>
<event>
 7    1  0.2429906E-015  0.9000776E+02  0.7816164E-02  0.1186339E+00
        -11   -1    0    0    0    0  0.00000000000E+00  0.00000000000E+00  0.45593999997E+02  0.45594000000E+02  0.51100000000E-03 0. -1.
         11   -1    0    0    0    0 -0.00000000000E+00 -0.00000000000E+00 -0.45593999997E+02  0.45594000000E+02  0.51100000000E-03 0.  1.
    9900012    2    1    2    0    0  0.77269429548E+00 -0.88947119744E+00  0.68985468839E-01  0.90007756601E+02  0.90000018188E+02 0.  0.
        -12    1    1    2    0    0 -0.77269429548E+00  0.88947119744E+00 -0.68985468839E-01  0.11802433987E+01  0.00000000000E+00 0.  1.
         11    1    3    3    0    0 -0.19008811542E+02  0.26717842690E+02 -0.41905592747E+01  0.33056600272E+02  0.51100000000E-03 0. -1.
        -11    1    3    3    0    0  0.19007061711E+01  0.87347777845E+01 -0.10548111320E+02  0.13826484715E+02  0.51100000000E-03 0.  1.
        -12    1    3    3    0    0  0.17880799667E+02 -0.36342091672E+02  0.14807656063E+02  0.43124671615E+02  0.00000000000E+00 0.  1.
</event>
<event>
 7    1  0.2429906E-015  0.9000787E+02  0.7816164E-02  0.1186339E+00
        -11   -1    0    0    0    0  0.00000000000E+00  0.00000000000E+00  0.45593999997E+02  0.45594000000E+02  0.51100000000E-03 0. -1.
         11   -1    0    0    0    0 -0.00000000000E+00 -0.00000000000E+00 -0.45593999997E+02  0.45594000000E+02  0.51100000000E-03 0.  1.
    9900012    2    1    2    0    0 -0.58963722981E-01  0.38037732354E+00  0.11155864713E+01  0.90007874242E+02  0.90000137382E+02 0.  0.
        -12    1    1    2    0    0  0.58963722981E-01 -0.38037732354E+00 -0.11155864713E+01  0.11801257576E+01  0.00000000000E+00 0.  1.
         11    1    3    3    0    0  0.11421338204E+02 -0.33844943905E+01  0.54289454217E+01  0.13091035761E+02  0.51100000000E-03 0. -1.
        -11    1    3    3    0    0  0.27180045696E+02  0.11366150042E+02  0.14974995798E+02  0.33048369857E+02  0.51100000000E-03 0.  1.
         12    1    3    3    0    0 -0.38660347623E+02 -0.76012783277E+01 -0.19288354748E+02  0.43868468624E+02  0.00000000000E+00 0. -1.
</event>
<event>
 7    1  0.2652637E-015  0.9000777E+02  0.7816164E-02  0.1186339E+00
        -11   -1    0    0    0    0  0.00000000000E+00  0.00000000000E+00  0.45593999997E+02  0.45594000000E+02  0.51100000000E-03 0. -1.
         11   -1    0    0    0    0 -0.00000000000E+00 -0.00000000000E+00 -0.45593999997E+02  0.45594000000E+02  0.51100000000E-03 0.  1.
    9900012    2    1    2    0    0  0.62620513893E+00  0.92274044105E+00  0.38648006265E+00  0.90007767126E+02  0.90000028852E+02 0.  0.
        -12    1    1    2    0    0 -0.62620513893E+00 -0.92274044105E+00 -0.38648006265E+00  0.11802328738E+01  0.00000000000E+00 0.  1.
         11    1    3    3    0    0 -0.31550000907E+02 -0.54231622616E+01  0.21316021815E+02  0.38460187628E+02  0.51100000000E-03 0. -1.
        -11    1    3    3    0    0  0.29005139685E+01 -0.80012281257E+01  0.50181277209E+01  0.98799918464E+01  0.51100000000E-03 0.  1.
        -12    1    3    3    0    0  0.29275692077E+02  0.14347130828E+02 -0.25947669473E+02  0.41667587651E+02  0.00000000000E+00 0.  1.
</event>
<event>
 7    1  0.2429906E-015  0.9000773E+02  0.7816164E-02  0.1186339E+00
        -11   -1    0    0    0    0  0.00000000000E+00  0.00000000000E+00  0.45593999997E+02  0.45594000000E+02  0.51100000000E-03 0.  1.
         11   -1    0    0    0    0 -0.00000000000E+00 -0.00000000000E+00 -0.45593999997E+02  0.45594000000E+02  0.51100000000E-03 0. -1.
    9900012    2    1    2    0    0 -0.66900564287E+00  0.95049344572E+00  0.20501779139E+00  0.90007729423E+02  0.89999990651E+02 0.  0.
        -12    1    1    2    0    0  0.66900564287E+00 -0.95049344572E+00 -0.20501779139E+00  0.11802705772E+01  0.00000000000E+00 0.  1.
         11    1    3    3    0    0 -0.76896727022E+01 -0.25452162807E+02 -0.29439844454E+02  0.39669233665E+02  0.51100000000E-03 0. -1.
        -11    1    3    3    0    0 -0.81742473661E+01 -0.20121325388E+01  0.70948090047E+01  0.11009237595E+02  0.51100000000E-03 0.  1.
        -12    1    3    3    0    0  0.15194914425E+02  0.28414788792E+02  0.22550053240E+02  0.39329258163E+02  0.00000000000E+00 0.  1.
</event>
<event>
 7    1  0.2429906E-015  0.9000775E+02  0.7816164E-02  0.1186339E+00
        -11   -1    0    0    0    0  0.00000000000E+00  0.00000000000E+00  0.45593999997E+02  0.45594000000E+02  0.51100000000E-03 0.  1.
         11   -1    0    0    0    0 -0.00000000000E+00 -0.00000000000E+00 -0.45593999997E+02  0.45594000000E+02  0.51100000000E-03 0. -1.
    9900012    2    1    2    0    0 -0.89622620105E+00  0.28051225059E-02 -0.76795450937E+00  0.90007752822E+02  0.90000014359E+02 0.  0.
        -12    1    1    2    0    0  0.89622620105E+00 -0.28051225059E-02  0.76795450937E+00  0.11802471778E+01  0.00000000000E+00 0.  1.
         11    1    3    3    0    0  0.61136684470E+01  0.34366401714E+01  0.67644382576E+01  0.97439757158E+01  0.51100000000E-03 0. -1.
        -11    1    3    3    0    0 -0.37053538535E+02  0.20375608016E+01  0.17261910442E+02  0.40927862446E+02  0.51100000000E-03 0.  1.
         12    1    3    3    0    0  0.30043643887E+02 -0.54713958504E+01 -0.24794303209E+02  0.39335914661E+02  0.00000000000E+00 0. -1.
</event>
<event>
 7    1  0.2429906E-015  0.9000771E+02  0.7816164E-02  0.1186339E+00
        -11   -1    0    0    0    0  0.00000000000E+00  0.00000000000E+00  0.45593999997E+02  0.45594000000E+02  0.51100000000E-03 0.  1.
         11   -1    0    0    0    0 -0.00000000000E+00 -0.00000000000E+00 -0.45593999997E+02  0.45594000000E+02  0.51100000000E-03 0. -1.
    9900012    2    1    2    0    0  0.69990026488E+00  0.67272729555E+00 -0.67131938337E+00  0.90007706770E+02  0.89999967699E+02 0.  0.
        -12    1    1    2    0    0 -0.69990026488E+00 -0.67272729555E+00  0.67131938337E+00  0.11802932303E+01  0.00000000000E+00 0.  1.
         11    1    3    3    0    0  0.35084247892E+02  0.27685112524E+02  0.30315394336E+01  0.44794644069E+02  0.51100000000E-03 0. -1.
        -11    1    3    3    0    0 -0.82514478137E+01 -0.40882319443E+01  0.32433585040E+01  0.97631657826E+01  0.51100000000E-03 0.  1.
        -12    1    3    3    0    0 -0.26132899814E+02 -0.22924153284E+02 -0.69462173210E+01  0.35449896919E+02  0.00000000000E+00 0.  1.
</event>
<event>
 7    1  0.2429906E-015  0.9000770E+02  0.7816164E-02  0.1186339E+00
        -11   -1    0    0    0    0  0.00000000000E+00  0.00000000000E+00  0.45593999997E+02  0.45594000000E+02  0.51100000000E-03 0. -1.
         11   -1    0    0    0    0 -0.00000000000E+00 -0.00000000000E+00 -0.45593999997E+02  0.45594000000E+02  0.51100000000E-03 0.  1.
    9900012    2    1    2    0    0  0.69471646598E+00 -0.95151199912E+00 -0.71449255173E-01  0.90007698747E+02  0.89999959570E+02 0.  0.
        -12    1    1    2    0    0 -0.69471646598E+00  0.95151199912E+00  0.71449255173E-01  0.11803012533E+01  0.00000000000E+00 0.  1.
         11    1    3    3    0    0 -0.26925025180E+02 -0.12490534692E+01  0.31541905246E+02  0.41489865056E+02  0.51100000000E-03 0. -1.
        -11    1    3    3    0    0 -0.42318830143E+01 -0.23518295588E+01 -0.40134133385E+01  0.62886741852E+01  0.51100000000E-03 0.  1.
        -12    1    3    3    0    0  0.31851624660E+02  0.26493710289E+01 -0.27599941163E+02  0.42229159506E+02  0.00000000000E+00 0.  1.
</event>
<event>
 7    1  0.2429906E-015  0.9000775E+02  0.7816164E-02  0.1186339E+00
        -11   -1    0    0    0    0  0.00000000000E+00  0.00000000000E+00  0.45593999997E+02  0.45594000000E+02  0.51100000000E-03 0.  1.
         11   -1    0    0    0    0 -0.00000000000E+00 -0.00000000000E+00 -0.45593999997E+02  0.45594000000E+02  0.51100000000E-03 0. -1.
    9900012    2    1    2    0    0  0.96947063001E+00 -0.52946554567E-01  0.67104614968E+00  0.90007754443E+02  0.90000016002E+02 0.  0.
        -12    1    1    2    0    0 -0.96947063001E+00  0.52946554567E-01 -0.67104614968E+00  0.11802455571E+01  0.00000000000E+00 0.  1.
         11    1    3    3    0    0 -0.20696545558E+02  0.35315956243E+02  0.12804122461E+01  0.40953671620E+02  0.51100000000E-03 0. -1.
        -11    1    3    3    0    0  0.81994675186E+01  0.49652022631E+00  0.60071857166E+01  0.10176643868E+02  0.51100000000E-03 0.  1.
        -12    1    3    3    0    0  0.13466548670E+02 -0.35865423024E+02 -0.66165518130E+01  0.38877438954E+02  0.00000000000E+00 0.  1.
</event>
<event>
 7    1  0.2429906E-015  0.9000777E+02  0.7816164E-02  0.1186339E+00
        -11   -1    0    0    0    0  0.00000000000E+00  0.00000000000E+00  0.45593999997E+02  0.45594000000E+02  0.51100000000E-03 0.  1.
         11   -1    0    0    0    0 -0.00000000000E+00 -0.00000000000E+00 -0.45593999997E+02  0.45594000000E+02  0.51100000000E-03 0. -1.
    9900012    2    1    2    0    0  0.27888349149E+00  0.68467747105E+00 -0.91998552440E+00  0.90007774341E+02  0.90000036162E+02 0.  0.
        -12    1    1    2    0    0 -0.27888349149E+00 -0.68467747105E+00  0.91998552440E+00  0.11802256591E+01  0.00000000000E+00 0.  1.
         11    1    3    3    0    0  0.16159450404E+02 -0.31205509210E+02 -0.10955998753E+02  0.36809585047E+02  0.51100000000E-03 0. -1.
        -11    1    3    3    0    0 -0.18596384444E+02 -0.88456973922E+00  0.79537552405E+01  0.20245251312E+02  0.51100000000E-03 0.  1.
        -12    1    3    3    0    0  0.27158175316E+01  0.32774756420E+02  0.20822579883E+01  0.32952937981E+02  0.00000000000E+00 0.  1.
</event>
<event>
 7    1  0.2429906E-015  0.9000772E+02  0.7816164E-02  0.1186339E+00
        -11   -1    0    0    0    0  0.00000000000E+00  0.00000000000E+00  0.45593999997E+02  0.45594000000E+02  0.51100000000E-03 0.  1.
         11   -1    0    0    0    0 -0.00000000000E+00 -0.00000000000E+00 -0.45593999997E+02  0.45594000000E+02  0.51100000000E-03 0. -1.
    9900012    2    1    2    0    0  0.55019260983E+00 -0.10107373121E+01  0.26219820397E+00  0.90007724727E+02  0.89999985893E+02 0.  0.
        -12    1    1    2    0    0 -0.55019260983E+00  0.10107373121E+01 -0.26219820397E+00  0.11802752731E+01  0.00000000000E+00 0.  1.
         11    1    3    3    0    0  0.43977388391E+01 -0.81828873022E+01  0.38293727061E+01  0.10048076785E+02  0.51100000000E-03 0. -1.
        -11    1    3    3    0    0 -0.25530993627E+02 -0.27957781697E+02 -0.71171640292E+01  0.38524319814E+02  0.51100000000E-03 0.  1.
         12    1    3    3    0    0  0.21683447398E+02  0.35129931688E+02  0.35499895271E+01  0.41435328128E+02  0.00000000000E+00 0. -1.
</event>
<event>
 7    1  0.2429906E-015  0.9000779E+02  0.7816164E-02  0.1186339E+00
        -11   -1    0    0    0    0  0.00000000000E+00  0.00000000000E+00  0.45593999997E+02  0.45594000000E+02  0.51100000000E-03 0. -1.
         11   -1    0    0    0    0 -0.00000000000E+00 -0.00000000000E+00 -0.45593999997E+02  0.45594000000E+02  0.51100000000E-03 0.  1.
    9900012    2    1    2    0    0 -0.24552512783E+00  0.11437667843E+01 -0.15626579901E+00  0.90007786441E+02  0.90000048422E+02 0.  0.
        -12    1    1    2    0    0  0.24552512783E+00 -0.11437667843E+01  0.15626579901E+00  0.11802135591E+01  0.00000000000E+00 0.  1.
         11    1    3    3    0    0 -0.89834246675E+01 -0.10098205802E+02  0.31244353795E+02  0.34042404784E+02  0.51100000000E-03 0. -1.
        -11    1    3    3    0    0  0.53321089961E+01  0.24021544712E+01  0.11033019097E+02  0.12487163133E+02  0.51100000000E-03 0.  1.
        -12    1    3    3    0    0  0.34057905436E+01  0.88398181152E+01 -0.42433638690E+02  0.43478218524E+02  0.00000000000E+00 0.  1.
</event>
<event>
 7    1  0.2429906E-015  0.9000776E+02  0.7816164E-02  0.1186339E+00
        -11   -1    0    0    0    0  0.00000000000E+00  0.00000000000E+00  0.45593999997E+02  0.45594000000E+02  0.51100000000E-03 0.  1.
         11   -1    0    0    0    0 -0.00000000000E+00 -0.00000000000E+00 -0.45593999997E+02  0.45594000000E+02  0.51100000000E-03 0. -1.
    9900012    2    1    2    0    0  0.27771310927E-01  0.97438402163E+00 -0.66541911678E+00  0.90007755081E+02  0.90000016648E+02 0.  0.
        -12    1    1    2    0    0 -0.27771310927E-01 -0.97438402163E+00  0.66541911678E+00  0.11802449188E+01  0.00000000000E+00 0.  1.
         11    1    3    3    0    0  0.88582101886E+01 -0.24724323896E+01 -0.24661114396E+01  0.95216865922E+01  0.51100000000E-03 0. -1.
        -11    1    3    3    0    0 -0.65766909126E+01  0.41556271455E+02  0.38899130880E+01  0.42252905044E+02  0.51100000000E-03 0.  1.
         12    1    3    3    0    0 -0.22537479651E+01 -0.38109455043E+02 -0.20892207652E+01  0.38233163445E+02  0.00000000000E+00 0. -1.
</event>
<event>
 7    1  0.2429906E-015  0.9000779E+02  0.7816164E-02  0.1186339E+00
        -11   -1    0    0    0    0  0.00000000000E+00  0.00000000000E+00  0.45593999997E+02  0.45594000000E+02  0.51100000000E-03 0.  1.
         11   -1    0    0    0    0 -0.00000000000E+00 -0.00000000000E+00 -0.45593999997E+02  0.45594000000E+02  0.51100000000E-03 0. -1.
    9900012    2    1    2    0    0  0.84913986846E-01 -0.49823629152E+00 -0.10665148156E+01  0.90007786613E+02  0.90000048596E+02 0.  0.
        -12    1    1    2    0    0 -0.84913986846E-01  0.49823629152E+00  0.10665148156E+01  0.11802133871E+01  0.00000000000E+00 0.  1.
         11    1    3    3    0    0 -0.12711668666E+02  0.12545398751E+02  0.13722465560E+02  0.22522868632E+02  0.51100000000E-03 0. -1.
        -11    1    3    3    0    0  0.12218767770E+02 -0.16318257751E+01  0.24036343144E+02  0.27013088183E+02  0.51100000000E-03 0.  1.
         12    1    3    3    0    0  0.57781488302E+00 -0.11411809267E+02 -0.38825323520E+02  0.40471829798E+02  0.00000000000E+00 0. -1.
</event>
<event>
 7    1  0.2429906E-015  0.9000801E+02  0.7816164E-02  0.1186339E+00
        -11   -1    0    0    0    0  0.00000000000E+00  0.00000000000E+00  0.45593999997E+02  0.45594000000E+02  0.51100000000E-03 0.  1.
         11   -1    0    0    0    0 -0.00000000000E+00 -0.00000000000E+00 -0.45593999997E+02  0.45594000000E+02  0.51100000000E-03 0. -1.
    9900012    2    1    2    0    0 -0.24888880819E-01 -0.10663880650E+01 -0.50456436628E+00  0.90008005016E+02  0.90000269882E+02 0.  0.
        -12    1    1    2    0    0  0.24888880819E-01  0.10663880650E+01  0.50456436628E+00  0.11799949836E+01  0.00000000000E+00 0.  1.
         11    1    3    3    0    0  0.42323145658E+01  0.37864574014E+02 -0.14157178829E+02  0.40645592191E+02  0.51100000000E-03 0. -1.
        -11    1    3    3    0    0  0.45000259229E+01 -0.65792037313E+01 -0.64729102434E+01  0.10268141133E+02  0.51100000000E-03 0.  1.
        -12    1    3    3    0    0 -0.87572293696E+01 -0.32351758348E+02  0.20125524707E+02  0.39094271692E+02  0.00000000000E+00 0.  1.
</event>
<event>
 7    1  0.2429906E-015  0.9000775E+02  0.7816164E-02  0.1186339E+00
        -11   -1    0    0    0    0  0.00000000000E+00  0.00000000000E+00  0.45593999997E+02  0.45594000000E+02  0.51100000000E-03 0. -1.
         11   -1    0    0    0    0 -0.00000000000E+00 -0.00000000000E+00 -0.45593999997E+02  0.45594000000E+02  0.51100000000E-03 0.  1.
    9900012    2    1    2    0    0  0.89738144590E+00  0.22822386353E+00 -0.73185909836E+00  0.90007746921E+02  0.90000008380E+02 0.  0.
        -12    1    1    2    0    0 -0.89738144590E+00 -0.22822386353E+00  0.73185909836E+00  0.11802530793E+01  0.00000000000E+00 0.  1.
         11    1    3    3    0    0  0.22822264762E+02  0.12679481149E+02  0.24414661776E+02  0.35744939795E+02  0.51100000000E-03 0. -1.
        -11    1    3    3    0    0  0.11958396316E+01  0.82627409764E+01  0.60056235575E+01  0.10284475458E+02  0.51100000000E-03 0.  1.
        -12    1    3    3    0    0 -0.23120722948E+02 -0.20713998262E+02 -0.31152144432E+02  0.43978331668E+02  0.00000000000E+00 0.  1.
</event>
<event>
 7    1  0.2429906E-015  0.9000782E+02  0.7816164E-02  0.1186339E+00
        -11   -1    0    0    0    0  0.00000000000E+00  0.00000000000E+00  0.45593999997E+02  0.45594000000E+02  0.51100000000E-03 0.  1.
         11   -1    0    0    0    0 -0.00000000000E+00 -0.00000000000E+00 -0.45593999997E+02  0.45594000000E+02  0.51100000000E-03 0. -1.
    9900012    2    1    2    0    0 -0.10303295938E+01 -0.33833593586E+00 -0.46558227893E+00  0.90007823261E+02  0.90000085728E+02 0.  0.
        -12    1    1    2    0    0  0.10303295938E+01  0.33833593586E+00  0.46558227893E+00  0.11801767392E+01  0.00000000000E+00 0.  1.
         11    1    3    3    0    0 -0.18121131459E+02 -0.36037340281E+02 -0.21654481502E+01  0.40394980701E+02  0.51100000000E-03 0. -1.
        -11    1    3    3    0    0 -0.39095509096E+01 -0.16180040630E+01  0.51366415119E+01  0.66548938193E+01  0.51100000000E-03 0.  1.
        -12    1    3    3    0    0  0.21000352775E+02  0.37317008408E+02 -0.34367756406E+01  0.42957948741E+02  0.00000000000E+00 0.  1.
</event>
<event>
 7    1  0.2429906E-015  0.9000774E+02  0.7816164E-02  0.1186339E+00
        -11   -1    0    0    0    0  0.00000000000E+00  0.00000000000E+00  0.45593999997E+02  0.45594000000E+02  0.51100000000E-03 0. -1.
         11   -1    0    0    0    0 -0.00000000000E+00 -0.00000000000E+00 -0.45593999997E+02  0.45594000000E+02  0.51100000000E-03 0.  1.
    9900012    2    1    2    0    0 -0.94086735307E+00  0.41472026818E+00  0.57948145791E+00  0.90007736031E+02  0.89999997346E+02 0.  0.
        -12    1    1    2    0    0  0.94086735307E+00 -0.41472026818E+00 -0.57948145791E+00  0.11802639692E+01  0.00000000000E+00 0.  1.
         11    1    3    3    0    0 -0.11914394821E+02  0.39473681307E+02 -0.67088288941E+01  0.41774785520E+02  0.51100000000E-03 0. -1.
        -11    1    3    3    0    0  0.88131895019E+01 -0.64783411194E+00  0.37467796452E+01  0.95984559281E+01  0.51100000000E-03 0.  1.
        -12    1    3    3    0    0  0.21603379656E+01 -0.38411126927E+02  0.35415307069E+01  0.38634494583E+02  0.00000000000E+00 0.  1.
</event>
<event>
 7    1  0.2429906E-015  0.9000777E+02  0.7816164E-02  0.1186339E+00
        -11   -1    0    0    0    0  0.00000000000E+00  0.00000000000E+00  0.45593999997E+02  0.45594000000E+02  0.51100000000E-03 0. -1.
         11   -1    0    0    0    0 -0.00000000000E+00 -0.00000000000E+00 -0.45593999997E+02  0.45594000000E+02  0.51100000000E-03 0.  1.
    9900012    2    1    2    0    0 -0.54796513817E+00 -0.85882473112E+00  0.59590822171E+00  0.90007765989E+02  0.90000027700E+02 0.  0.
        -12    1    1    2    0    0  0.54796513817E+00  0.85882473112E+00 -0.59590822171E+00  0.11802340108E+01  0.00000000000E+00 0.  1.
         11    1    3    3    0    0 -0.30721477012E+02  0.12589384792E+02  0.15798501011E+02  0.36768116537E+02  0.51100000000E-03 0. -1.
        -11    1    3    3    0    0 -0.81465712286E+01 -0.11203842465E+01  0.33955548952E+01  0.88967228208E+01  0.51100000000E-03 0.  1.
        -12    1    3    3    0    0  0.38320083102E+02 -0.12327825277E+02 -0.18598147684E+02  0.44342926632E+02  0.00000000000E+00 0.  1.
</event>
<event>
 7    1  0.2429906E-015  0.9000771E+02  0.7816164E-02  0.1186339E+00
        -11   -1    0    0    0    0  0.00000000000E+00  0.00000000000E+00  0.45593999997E+02  0.45594000000E+02  0.51100000000E-03 0. -1.
         11   -1    0    0    0    0 -0.00000000000E+00 -0.00000000000E+00 -0.45593999997E+02  0.45594000000E+02  0.51100000000E-03 0.  1.
    9900012    2    1    2    0    0 -0.35325206783E+00 -0.11184632893E+01 -0.13170797494E+00  0.90007705908E+02  0.89999966826E+02 0.  0.
        -12    1    1    2    0    0  0.35325206783E+00  0.11184632893E+01  0.13170797494E+00  0.11802940920E+01  0.00000000000E+00 0.  1.
         11    1    3    3    0    0  0.38359843770E+01  0.34195936256E+02  0.20101274828E+02  0.39851450193E+02  0.51100000000E-03 0. -1.
        -11    1    3    3    0    0 -0.10631685610E+02 -0.36073779272E+01  0.12834595534E+01  0.11300140845E+02  0.51100000000E-03 0.  1.
        -12    1    3    3    0    0  0.64424491656E+01 -0.31707021618E+02 -0.21516442356E+02  0.38856114870E+02  0.00000000000E+00 0.  1.
</event>
<event>
 7    1  0.2429906E-015  0.9000778E+02  0.7816164E-02  0.1186339E+00
        -11   -1    0    0    0    0  0.00000000000E+00  0.00000000000E+00  0.45593999997E+02  0.45594000000E+02  0.51100000000E-03 0. -1.
         11   -1    0    0    0    0 -0.00000000000E+00 -0.00000000000E+00 -0.45593999997E+02  0.45594000000E+02  0.51100000000E-03 0.  1.
    9900012    2    1    2    0    0 -0.26204503783E+00 -0.77500770666E+00  0.85065916901E+00  0.90007777322E+02  0.90000039183E+02 0.  0.
        -12    1    1    2    0    0  0.26204503783E+00  0.77500770666E+00 -0.85065916901E+00  0.11802226777E+01  0.00000000000E+00 0.  1.
         11    1    3    3    0    0 -0.66447267871E+01 -0.14100206426E+02 -0.29853048454E+02  0.33677480868E+02  0.51100000000E-03 0. -1.
        -11    1    3    3    0    0 -0.18625670999E+01 -0.11323352854E+02 -0.47081746462E+01  0.12403805255E+02  0.51100000000E-03 0.  1.
         12    1    3    3    0    0  0.82452488492E+01  0.24648551573E+02  0.35411882269E+02  0.43926491199E+02  0.00000000000E+00 0. -1.
</event>
<event>
 7    1  0.2429906E-015  0.9000775E+02  0.7816164E-02  0.1186339E+00
        -11   -1    0    0    0    0  0.00000000000E+00  0.00000000000E+00  0.45593999997E+02  0.45594000000E+02  0.51100000000E-03 0.  1.
         11   -1    0    0    0    0 -0.00000000000E+00 -0.00000000000E+00 -0.45593999997E+02  0.45594000000E+02  0.51100000000E-03 0. -1.
    9900012    2    1    2    0    0  0.59108700474E+00  0.80513759856E+00  0.62878355272E+00  0.90007746148E+02  0.90000007597E+02 0.  0.
        -12    1    1    2    0    0 -0.59108700474E+00 -0.80513759856E+00 -0.62878355272E+00  0.11802538523E+01  0.00000000000E+00 0.  1.
         11    1    3    3    0    0  0.62803916328E+01  0.12302724607E+02  0.55037914088E+00  0.13824010608E+02  0.51100000000E-03 0. -1.
        -11    1    3    3    0    0  0.25087834877E+02 -0.19775127254E+02  0.20845187765E+02  0.38144160365E+02  0.51100000000E-03 0.  1.
         12    1    3    3    0    0 -0.30777139505E+02  0.82775402452E+01 -0.20766783353E+02  0.38039575175E+02  0.00000000000E+00 0. -1.
</event>
<event>
 7    1  0.2429906E-015  0.9000771E+02  0.7816164E-02  0.1186339E+00
        -11   -1    0    0    0    0  0.00000000000E+00  0.00000000000E+00  0.45593999997E+02  0.45594000000E+02  0.51100000000E-03 0. -1.
         11   -1    0    0    0    0 -0.00000000000E+00 -0.00000000000E+00 -0.45593999997E+02  0.45594000000E+02  0.51100000000E-03 0.  1.
    9900012    2    1    2    0    0  0.30372461506E+00  0.10800966599E+01 -0.36636749016E+00  0.90007710809E+02  0.89999971792E+02 0.  0.
        -12    1    1    2    0    0 -0.30372461506E+00 -0.10800966599E+01  0.36636749016E+00  0.11802891910E+01  0.00000000000E+00 0.  1.
         11    1    3    3    0    0 -0.74306532997E+00  0.23265726244E+01  0.71744984096E+01  0.75788200897E+01  0.51100000000E-03 0. -1.
        -11    1    3    3    0    0  0.35504486471E+02 -0.20111322634E+02  0.51903874363E+01  0.41133611313E+02  0.51100000000E-03 0.  1.
         12    1    3    3    0    0 -0.34457696526E+02  0.18864846669E+02 -0.12731253336E+02  0.41295279406E+02  0.00000000000E+00 0. -1.
</event>
<event>
 7    1  0.2429906E-015  0.9000783E+02  0.7816164E-02  0.1186339E+00
        -11   -1    0    0    0    0  0.00000000000E+00  0.00000000000E+00  0.45593999997E+02  0.45594000000E+02  0.51100000000E-03 0.  1.
         11   -1    0    0    0    0 -0.00000000000E+00 -0.00000000000E+00 -0.45593999997E+02  0.45594000000E+02  0.51100000000E-03 0. -1.
    9900012    2    1    2    0    0 -0.78722278349E+00  0.10573318309E+00 -0.87287391872E+00  0.90007827091E+02  0.90000089609E+02 0.  0.
        -12    1    1    2    0    0  0.78722278349E+00 -0.10573318309E+00  0.87287391872E+00  0.11801729089E+01  0.00000000000E+00 0.  1.
         11    1    3    3    0    0  0.72600443082E+01 -0.44270208574E+01 -0.23418637204E+01  0.88199253384E+01  0.51100000000E-03 0. -1.
        -11    1    3    3    0    0  0.21966688925E+01 -0.16444732948E+02  0.35923343710E+02  0.39569448057E+02  0.51100000000E-03 0.  1.
         12    1    3    3    0    0 -0.10243935984E+02  0.20977486988E+02 -0.34454353908E+02  0.41618453696E+02  0.00000000000E+00 0. -1.
</event>
<event>
 7    1  0.2429906E-015  0.9000770E+02  0.7816164E-02  0.1186339E+00
        -11   -1    0    0    0    0  0.00000000000E+00  0.00000000000E+00  0.45593999997E+02  0.45594000000E+02  0.51100000000E-03 0.  1.
         11   -1    0    0    0    0 -0.00000000000E+00 -0.00000000000E+00 -0.45593999997E+02  0.45594000000E+02  0.51100000000E-03 0. -1.
    9900012    2    1    2    0    0  0.59929414595E+00  0.62035268176E+00 -0.80568169178E+00  0.90007697534E+02  0.89999958341E+02 0.  0.
        -12    1    1    2    0    0 -0.59929414595E+00 -0.62035268176E+00  0.80568169178E+00  0.11803024662E+01  0.00000000000E+00 0.  1.
         11    1    3    3    0    0 -0.20298766562E+02  0.32024619821E+02  0.16075055993E+01  0.37949970660E+02  0.51100000000E-03 0. -1.
        -11    1    3    3    0    0  0.36126666382E+01  0.76991223631E+01  0.28773799973E+01  0.89781491027E+01  0.51100000000E-03 0.  1.
        -12    1    3    3    0    0  0.17285394070E+02 -0.39103389502E+02 -0.52905672883E+01  0.43079577771E+02  0.00000000000E+00 0.  1.
</event>
<event>
 7    1  0.2429906E-015  0.9000778E+02  0.7816164E-02  0.1186339E+00
        -11   -1    0    0    0    0  0.00000000000E+00  0.00000000000E+00  0.45593999997E+02  0.45594000000E+02  0.51100000000E-03 0.  1.
         11   -1    0    0    0    0 -0.00000000000E+00 -0.00000000000E+00 -0.45593999997E+02  0.45594000000E+02  0.51100000000E-03 0. -1.
    9900012    2    1    2    0    0  0.25737651353E+00 -0.11168584596E+01 -0.28161563728E+00  0.90007778472E+02  0.90000040348E+02 0.  0.
        -12    1    1    2    0    0 -0.25737651353E+00  0.11168584596E+01  0.28161563728E+00  0.11802215282E+01  0.00000000000E+00 0.  1.
         11    1    3    3    0    0 -0.47834598673E+01 -0.10255180990E+02 -0.30904018445E+01  0.11730337133E+02  0.51100000000E-03 0. -1.
        -11    1    3    3    0    0 -0.32974652751E+02 -0.66099191787E+01 -0.10163363696E+02  0.35132786930E+02  0.51100000000E-03 0.  1.
         12    1    3    3    0    0  0.38015489132E+02  0.15748241709E+02  0.12972149904E+02  0.43144654408E+02  0.00000000000E+00 0. -1.
</event>
<event>
 7    1  0.2429906E-015  0.9000775E+02  0.7816164E-02  0.1186339E+00
        -11   -1    0    0    0    0  0.00000000000E+00  0.00000000000E+00  0.45593999997E+02  0.45594000000E+02  0.51100000000E-03 0. -1.
         11   -1    0    0    0    0 -0.00000000000E+00 -0.00000000000E+00 -0.45593999997E+02  0.45594000000E+02  0.51100000000E-03 0.  1.
    9900012    2    1    2    0    0  0.99451654232E+00  0.52796348123E+00  0.35379364324E+00  0.90007754885E+02  0.90000016449E+02 0.  0.
        -12    1    1    2    0    0 -0.99451654232E+00 -0.52796348123E+00 -0.35379364324E+00  0.11802451154E+01  0.00000000000E+00 0.  1.
         11    1    3    3    0    0  0.15613886136E+01  0.80493245099E+00 -0.94853190511E+01  0.96466122766E+01  0.51100000000E-03 0. -1.
        -11    1    3    3    0    0  0.31828681183E+02 -0.22912290356E+02  0.11302640739E+02  0.40814062321E+02  0.51100000000E-03 0.  1.
         12    1    3    3    0    0 -0.32395553254E+02  0.22635321386E+02 -0.14635280447E+01  0.39547080287E+02  0.00000000000E+00 0. -1.
</event>
<event>
 7    1  0.2429906E-015  0.9000776E+02  0.7816164E-02  0.1186339E+00
        -11   -1    0    0    0    0  0.00000000000E+00  0.00000000000E+00  0.45593999997E+02  0.45594000000E+02  0.51100000000E-03 0.  1.
         11   -1    0    0    0    0 -0.00000000000E+00 -0.00000000000E+00 -0.45593999997E+02  0.45594000000E+02  0.51100000000E-03 0. -1.
    9900012    2    1    2    0    0 -0.19133037665E+00  0.96568992399E+00  0.65099736026E+00  0.90007761929E+02  0.90000023586E+02 0.  0.
        -12    1    1    2    0    0  0.19133037665E+00 -0.96568992399E+00 -0.65099736026E+00  0.11802380715E+01  0.00000000000E+00 0.  1.
         11    1    3    3    0    0  0.52791696046E+01 -0.12944907387E+02 -0.37794407656E+00  0.13985102823E+02  0.51100000000E-03 0. -1.
        -11    1    3    3    0    0 -0.18257886621E+02 -0.27184668469E+02  0.33727675795E+01  0.32920087865E+02  0.51100000000E-03 0.  1.
         12    1    3    3    0    0  0.12787386639E+02  0.41095265780E+02 -0.23438261427E+01  0.43102571241E+02  0.00000000000E+00 0. -1.
</event>
<event>
 7    1  0.2429906E-015  0.9000772E+02  0.7816164E-02  0.1186339E+00
        -11   -1    0    0    0    0  0.00000000000E+00  0.00000000000E+00  0.45593999997E+02  0.45594000000E+02  0.51100000000E-03 0.  1.
         11   -1    0    0    0    0 -0.00000000000E+00 -0.00000000000E+00 -0.45593999997E+02  0.45594000000E+02  0.51100000000E-03 0. -1.
    9900012    2    1    2    0    0 -0.98104533116E+00  0.65553381517E+00  0.29838475878E-01  0.90007718314E+02  0.89999979395E+02 0.  0.
        -12    1    1    2    0    0  0.98104533116E+00 -0.65553381517E+00 -0.29838475878E-01  0.11802816864E+01  0.00000000000E+00 0.  1.
         11    1    3    3    0    0 -0.26921149586E+02 -0.20838604762E+01 -0.15893690014E+00  0.27002148631E+02  0.51100000000E-03 0. -1.
        -11    1    3    3    0    0 -0.88811094179E+01  0.21525684334E+02  0.21952473147E+01  0.23389063718E+02  0.51100000000E-03 0.  1.
         12    1    3    3    0    0  0.34821213673E+02 -0.18786290043E+02 -0.20064719387E+01  0.39616505965E+02  0.00000000000E+00 0. -1.
</event>
<event>
 7    1  0.2429906E-015  0.9000776E+02  0.7816164E-02  0.1186339E+00
        -11   -1    0    0    0    0  0.00000000000E+00  0.00000000000E+00  0.45593999997E+02  0.45594000000E+02  0.51100000000E-03 0. -1.
         11   -1    0    0    0    0 -0.00000000000E+00 -0.00000000000E+00 -0.45593999997E+02  0.45594000000E+02  0.51100000000E-03 0.  1.
    9900012    2    1    2    0    0  0.70004059271E+00 -0.36545029410E+00  0.87712908616E+00  0.90007760116E+02  0.90000021750E+02 0.  0.
        -12    1    1    2    0    0 -0.70004059271E+00  0.36545029410E+00 -0.87712908616E+00  0.11802398835E+01  0.00000000000E+00 0.  1.
         11    1    3    3    0    0 -0.31934590003E+02 -0.25432381885E+02 -0.85907354216E+01  0.41718399087E+02  0.51100000000E-03 0. -1.
        -11    1    3    3    0    0  0.10318329250E+02 -0.35922688790E+01  0.85544913766E+00  0.10959201964E+02  0.51100000000E-03 0.  1.
        -12    1    3    3    0    0  0.22316301346E+02  0.28659200470E+02  0.86124153701E+01  0.37330159066E+02  0.00000000000E+00 0.  1.
</event>
<event>
 7    1  0.2429906E-015  0.9000775E+02  0.7816164E-02  0.1186339E+00
        -11   -1    0    0    0    0  0.00000000000E+00  0.00000000000E+00  0.45593999997E+02  0.45594000000E+02  0.51100000000E-03 0.  1.
         11   -1    0    0    0    0 -0.00000000000E+00 -0.00000000000E+00 -0.45593999997E+02  0.45594000000E+02  0.51100000000E-03 0. -1.
    9900012    2    1    2    0    0  0.80876498359E+00  0.79007920562E+00  0.33862672787E+00  0.90007748327E+02  0.90000009805E+02 0.  0.
        -12    1    1    2    0    0 -0.80876498359E+00 -0.79007920562E+00 -0.33862672787E+00  0.11802516726E+01  0.00000000000E+00 0.  1.
         11    1    3    3    0    0  0.13500332660E+01 -0.10573314868E+02  0.85743229484E+01  0.13679787696E+02  0.51100000000E-03 0. -1.
        -11    1    3    3    0    0  0.27947889036E+02 -0.14346866816E+02  0.11148777586E+02  0.33334851596E+02  0.51100000000E-03 0.  1.
         12    1    3    3    0    0 -0.28489157319E+02  0.25710260890E+02 -0.19384473806E+02  0.42993109035E+02  0.00000000000E+00 0. -1.
</event>
<event>
 7    1  0.2429906E-015  0.9000770E+02  0.7816164E-02  0.1186339E+00
        -11   -1    0    0    0    0  0.00000000000E+00  0.00000000000E+00  0.45593999997E+02  0.45594000000E+02  0.51100000000E-03 0.  1.
         11   -1    0    0    0    0 -0.00000000000E+00 -0.00000000000E+00 -0.45593999997E+02  0.45594000000E+02  0.51100000000E-03 0. -1.
    9900012    2    1    2    0    0  0.72535255337E+00  0.17576161706E+00 -0.91437264279E+00  0.90007700969E+02  0.89999961822E+02 0.  0.
        -12    1    1    2    0    0 -0.72535255337E+00 -0.17576161706E+00  0.91437264279E+00  0.11802990310E+01  0.00000000000E+00 0.  1.
         11    1    3    3    0    0  0.45534810684E+01 -0.98940798668E+01 -0.35044172433E+02  0.36697697857E+02  0.51100000000E-03 0. -1.
        -11    1    3    3    0    0  0.79411252362E+01  0.48338789684E+00 -0.62848262238E+01  0.10138746214E+02  0.51100000000E-03 0.  1.
        -12    1    3    3    0    0 -0.11769253751E+02  0.95864535870E+01  0.40414626014E+02  0.43171256897E+02  0.00000000000E+00 0.  1.
</event>
<event>
 7    1  0.2429906E-015  0.9000778E+02  0.7816164E-02  0.1186339E+00
        -11   -1    0    0    0    0  0.00000000000E+00  0.00000000000E+00  0.45593999997E+02  0.45594000000E+02  0.51100000000E-03 0.  1.
         11   -1    0    0    0    0 -0.00000000000E+00 -0.00000000000E+00 -0.45593999997E+02  0.45594000000E+02  0.51100000000E-03 0. -1.
    9900012    2    1    2    0    0 -0.64704680549E+00 -0.98151394468E+00  0.10431850307E+00  0.90007779028E+02  0.90000040911E+02 0.  0.
        -12    1    1    2    0    0  0.64704680549E+00  0.98151394468E+00 -0.10431850307E+00  0.11802209718E+01  0.00000000000E+00 0.  1.
         11    1    3    3    0    0 -0.27167943868E+01 -0.59434584485E+01 -0.81836985587E+01  0.10472754768E+02  0.51100000000E-03 0. -1.
        -11    1    3    3    0    0  0.23054334121E+02  0.14818857236E+02  0.34812802599E+02  0.44306117824E+02  0.51100000000E-03 0.  1.
         12    1    3    3    0    0 -0.20984586540E+02 -0.98569127325E+01 -0.26524785537E+02  0.35228906436E+02  0.00000000000E+00 0. -1.
</event>
<event>
 7    1  0.2429906E-015  0.9000783E+02  0.7816164E-02  0.1186339E+00
        -11   -1    0    0    0    0  0.00000000000E+00  0.00000000000E+00  0.45593999997E+02  0.45594000000E+02  0.51100000000E-03 0.  1.
         11   -1    0    0    0    0 -0.00000000000E+00 -0.00000000000E+00 -0.45593999997E+02  0.45594000000E+02  0.51100000000E-03 0. -1.
    9900012    2    1    2    0    0  0.60669636694E+00  0.29925468455E+00 -0.96703967241E+00  0.90007830700E+02  0.90000093266E+02 0.  0.
        -12    1    1    2    0    0 -0.60669636694E+00 -0.29925468455E+00  0.96703967241E+00  0.11801692997E+01  0.00000000000E+00 0.  1.
         11    1    3    3    0    0  0.24634721177E+02 -0.11905635130E+02 -0.28044206152E+02  0.39180239079E+02  0.51100000000E-03 0. -1.
        -11    1    3    3    0    0 -0.65377048211E+01 -0.13349854449E+01 -0.73375200654E+01  0.99178108188E+01  0.51100000000E-03 0.  1.
        -12    1    3    3    0    0 -0.17490319988E+02  0.13539875260E+02  0.34414686545E+02  0.40909780803E+02  0.00000000000E+00 0.  1.
</event>
<event>
 7    1  0.2429906E-015  0.9000774E+02  0.7816164E-02  0.1186339E+00
        -11   -1    0    0    0    0  0.00000000000E+00  0.00000000000E+00  0.45593999997E+02  0.45594000000E+02  0.51100000000E-03 0.  1.
         11   -1    0    0    0    0 -0.00000000000E+00 -0.00000000000E+00 -0.45593999997E+02  0.45594000000E+02  0.51100000000E-03 0. -1.
    9900012    2    1    2    0    0  0.73810484515E+00  0.38017160321E+00 -0.83885371980E+00  0.90007743768E+02  0.90000005186E+02 0.  0.
        -12    1    1    2    0    0 -0.73810484515E+00 -0.38017160321E+00  0.83885371980E+00  0.11802562322E+01  0.00000000000E+00 0.  1.
         11    1    3    3    0    0 -0.75899972987E+01 -0.36045208426E+01  0.50069173071E+01  0.97810965990E+01  0.51100000000E-03 0. -1.
        -11    1    3    3    0    0  0.13339820142E+02 -0.33824092634E+02 -0.17492373903E+02  0.40348521522E+02  0.51100000000E-03 0.  1.
         12    1    3    3    0    0 -0.50117179986E+01  0.37808785080E+02  0.11646602877E+02  0.39878125647E+02  0.00000000000E+00 0. -1.
</event>
<event>
 7    1  0.2429906E-015  0.9000771E+02  0.7816164E-02  0.1186339E+00
        -11   -1    0    0    0    0  0.00000000000E+00  0.00000000000E+00  0.45593999997E+02  0.45594000000E+02  0.51100000000E-03 0.  1.
         11   -1    0    0    0    0 -0.00000000000E+00 -0.00000000000E+00 -0.45593999997E+02  0.45594000000E+02  0.51100000000E-03 0. -1.
    9900012    2    1    2    0    0 -0.11262093314E+00  0.55555149365E+00 -0.10352560035E+01  0.90007713624E+02  0.89999974644E+02 0.  0.
        -12    1    1    2    0    0  0.11262093314E+00 -0.55555149365E+00  0.10352560035E+01  0.11802863760E+01  0.00000000000E+00 0.  1.
         11    1    3    3    0    0 -0.93220686826E+01 -0.48741872613E+01  0.40137013935E+01  0.11259150284E+02  0.51100000000E-03 0. -1.
        -11    1    3    3    0    0 -0.10926830116E+02 -0.76890424460E+01  0.31949018407E+02  0.34630286854E+02  0.51100000000E-03 0.  1.
         12    1    3    3    0    0  0.20136277866E+02  0.13118781201E+02 -0.36997975804E+02  0.44118276486E+02  0.00000000000E+00 0. -1.
</event>
<event>
 7    1  0.2429906E-015  0.9000768E+02  0.7816164E-02  0.1186339E+00
        -11   -1    0    0    0    0  0.00000000000E+00  0.00000000000E+00  0.45593999997E+02  0.45594000000E+02  0.51100000000E-03 0.  1.
         11   -1    0    0    0    0 -0.00000000000E+00 -0.00000000000E+00 -0.45593999997E+02  0.45594000000E+02  0.51100000000E-03 0. -1.
    9900012    2    1    2    0    0 -0.53743299531E-01 -0.10934634976E+01 -0.44112927587E+00  0.90007684025E+02  0.89999944654E+02 0.  0.
        -12    1    1    2    0    0  0.53743299531E-01  0.10934634976E+01  0.44112927587E+00  0.11803159750E+01  0.00000000000E+00 0.  1.
         11    1    3    3    0    0 -0.36588127175E-01 -0.33295614476E+01 -0.90701025258E+01  0.96619914207E+01  0.51100000000E-03 0. -1.
        -11    1    3    3    0    0 -0.28340272452E+02  0.28255141482E+02  0.11888504501E+02  0.41747581994E+02  0.51100000000E-03 0.  1.
         12    1    3    3    0    0  0.28323117279E+02 -0.26019043532E+02 -0.32595312509E+01  0.38598110611E+02  0.00000000000E+00 0. -1.
</event>
<event>
 7    1  0.2429906E-015  0.9000771E+02  0.7816164E-02  0.1186339E+00
        -11   -1    0    0    0    0  0.00000000000E+00  0.00000000000E+00  0.45593999997E+02  0.45594000000E+02  0.51100000000E-03 0.  1.
         11   -1    0    0    0    0 -0.00000000000E+00 -0.00000000000E+00 -0.45593999997E+02  0.45594000000E+02  0.51100000000E-03 0. -1.
    9900012    2    1    2    0    0 -0.91760211035E+00  0.23253981128E+00  0.70499379816E+00  0.90007709929E+02  0.89999970900E+02 0.  0.
        -12    1    1    2    0    0  0.91760211035E+00 -0.23253981128E+00 -0.70499379816E+00  0.11802900712E+01  0.00000000000E+00 0.  1.
         11    1    3    3    0    0  0.54811352721E+01  0.10875724988E+02 -0.47616818743E+01  0.13076614715E+02  0.51100000000E-03 0. -1.
        -11    1    3    3    0    0 -0.58065034709E+01 -0.30093017192E+02  0.31815299192E+02  0.44175993812E+02  0.51100000000E-03 0.  1.
         12    1    3    3    0    0 -0.59223391162E+00  0.19449832016E+02 -0.26348623520E+02  0.32755101402E+02  0.00000000000E+00 0. -1.
</event>
<event>
 7    1  0.2429906E-015  0.9000773E+02  0.7816164E-02  0.1186339E+00
        -11   -1    0    0    0    0  0.00000000000E+00  0.00000000000E+00  0.45593999997E+02  0.45594000000E+02  0.51100000000E-03 0. -1.
         11   -1    0    0    0    0 -0.00000000000E+00 -0.00000000000E+00 -0.45593999997E+02  0.45594000000E+02  0.51100000000E-03 0.  1.
    9900012    2    1    2    0    0 -0.78201024386E+00  0.17551215542E+00  0.86643080954E+00  0.90007725928E+02  0.89999987110E+02 0.  0.
        -12    1    1    2    0    0  0.78201024386E+00 -0.17551215542E+00 -0.86643080954E+00  0.11802740724E+01  0.00000000000E+00 0.  1.
         11    1    3    3    0    0  0.27162922656E+02  0.28856808211E+02 -0.92018827007E+01  0.40684326132E+02  0.51100000000E-03 0. -1.
        -11    1    3    3    0    0  0.26259912847E+01 -0.35034245705E+01 -0.52709778370E+01  0.68522274895E+01  0.51100000000E-03 0.  1.
        -12    1    3    3    0    0 -0.30570924185E+02 -0.25177871485E+02  0.15339291347E+02  0.42471172306E+02  0.00000000000E+00 0.  1.
</event>
<event>
 7    1  0.2429906E-015  0.9000789E+02  0.7816164E-02  0.1186339E+00
        -11   -1    0    0    0    0  0.00000000000E+00  0.00000000000E+00  0.45593999997E+02  0.45594000000E+02  0.51100000000E-03 0.  1.
         11   -1    0    0    0    0 -0.00000000000E+00 -0.00000000000E+00 -0.45593999997E+02  0.45594000000E+02  0.51100000000E-03 0. -1.
    9900012    2    1    2    0    0  0.10417395656E+01  0.43678307662E+00  0.34155599816E+00  0.90007889294E+02  0.90000152633E+02 0.  0.
        -12    1    1    2    0    0 -0.10417395656E+01 -0.43678307662E+00 -0.34155599816E+00  0.11801107060E+01  0.00000000000E+00 0.  1.
         11    1    3    3    0    0  0.49282905889E+00  0.84025998550E+01 -0.58666936883E+01  0.10259856719E+02  0.51100000000E-03 0. -1.
        -11    1    3    3    0    0 -0.23441262351E+02  0.27840825465E+02  0.21964921228E+01  0.36461334604E+02  0.51100000000E-03 0.  1.
         12    1    3    3    0    0  0.23990172857E+02 -0.35806642244E+02  0.40117575636E+01  0.43286697971E+02  0.00000000000E+00 0. -1.
</event>
<event>
 7    1  0.2429906E-015  0.9000771E+02  0.7816164E-02  0.1186339E+00
        -11   -1    0    0    0    0  0.00000000000E+00  0.00000000000E+00  0.45593999997E+02  0.45594000000E+02  0.51100000000E-03 0.  1.
         11   -1    0    0    0    0 -0.00000000000E+00 -0.00000000000E+00 -0.45593999997E+02  0.45594000000E+02  0.51100000000E-03 0. -1.
    9900012    2    1    2    0    0 -0.33998145389E+00 -0.43226582736E+00 -0.10443400324E+01  0.90007708834E+02  0.89999969790E+02 0.  0.
        -12    1    1    2    0    0  0.33998145389E+00  0.43226582736E+00  0.10443400324E+01  0.11802911665E+01  0.00000000000E+00 0.  1.
         11    1    3    3    0    0  0.23822575178E+01 -0.34135735564E+02 -0.26406519404E+02  0.43223001523E+02  0.51100000000E-03 0. -1.
        -11    1    3    3    0    0  0.36378196241E+01  0.67608746174E+01 -0.19236738474E+01  0.79147759628E+01  0.51100000000E-03 0.  1.
        -12    1    3    3    0    0 -0.63600585958E+01  0.26942595119E+02  0.27285853219E+02  0.38869931348E+02  0.00000000000E+00 0.  1.
</event>
<event>
 7    1  0.2429906E-015  0.9000775E+02  0.7816164E-02  0.1186339E+00
        -11   -1    0    0    0    0  0.00000000000E+00  0.00000000000E+00  0.45593999997E+02  0.45594000000E+02  0.51100000000E-03 0.  1.
         11   -1    0    0    0    0 -0.00000000000E+00 -0.00000000000E+00 -0.45593999997E+02  0.45594000000E+02  0.51100000000E-03 0. -1.
    9900012    2    1    2    0    0  0.89946723806E-01 -0.10776842297E+01 -0.47276309808E+00  0.90007746358E+02  0.90000007810E+02 0.  0.
        -12    1    1    2    0    0 -0.89946723806E-01  0.10776842297E+01  0.47276309808E+00  0.11802536418E+01  0.00000000000E+00 0.  1.
         11    1    3    3    0    0  0.27109349787E+01  0.52623796237E+00  0.78662749659E+01  0.83369285083E+01  0.51100000000E-03 0. -1.
        -11    1    3    3    0    0 -0.77640156815E+01 -0.63988415122E+01  0.35691454331E+02  0.37082408561E+02  0.51100000000E-03 0.  1.
         12    1    3    3    0    0  0.51430274266E+01  0.47949193202E+01 -0.44030492395E+02  0.44588409289E+02  0.00000000000E+00 0. -1.
</event>
<event>
 7    1  0.2429906E-015  0.9000804E+02  0.7816164E-02  0.1186338E+00
        -11   -1    0    0    0    0  0.00000000000E+00  0.00000000000E+00  0.45593999997E+02  0.45594000000E+02  0.51100000000E-03 0.  1.
         11   -1    0    0    0    0 -0.00000000000E+00 -0.00000000000E+00 -0.45593999997E+02  0.45594000000E+02  0.51100000000E-03 0. -1.
    9900012    2    1    2    0    0 -0.73866790124E+00  0.27200935932E-01 -0.91974475356E+00  0.90008042132E+02  0.90000307487E+02 0.  0.
        -12    1    1    2    0    0  0.73866790124E+00 -0.27200935932E-01  0.91974475356E+00  0.11799578683E+01  0.00000000000E+00 0.  1.
         11    1    3    3    0    0  0.28344093445E+00 -0.39472662098E+01  0.68540614788E+01  0.79145061950E+01  0.51100000000E-03 0. -1.
        -11    1    3    3    0    0  0.10060632052E+01 -0.31558080916E+02  0.19626981662E+02  0.37177184451E+02  0.51100000000E-03 0.  1.
         12    1    3    3    0    0 -0.20281720409E+01  0.35532548061E+02 -0.27400787895E+02  0.44916351486E+02  0.00000000000E+00 0. -1.
</event>
<event>
 7    1  0.2429906E-015  0.9000799E+02  0.7816164E-02  0.1186339E+00
        -11   -1    0    0    0    0  0.00000000000E+00  0.00000000000E+00  0.45593999997E+02  0.45594000000E+02  0.51100000000E-03 0. -1.
         11   -1    0    0    0    0 -0.00000000000E+00 -0.00000000000E+00 -0.45593999997E+02  0.45594000000E+02  0.51100000000E-03 0.  1.
    9900012    2    1    2    0    0 -0.60455405540E+00  0.10077295058E+01 -0.10682449110E+00  0.90007993290E+02  0.90000258001E+02 0.  0.
        -12    1    1    2    0    0  0.60455405540E+00 -0.10077295058E+01  0.10682449110E+00  0.11800067096E+01  0.00000000000E+00 0.  1.
         11    1    3    3    0    0  0.32133205012E+02  0.15426199990E+02  0.11534926231E+02  0.37464183348E+02  0.51100000000E-03 0. -1.
        -11    1    3    3    0    0 -0.70470905349E+00  0.94158834325E+01  0.31662674783E+01  0.99589520367E+01  0.51100000000E-03 0.  1.
        -12    1    3    3    0    0 -0.32033050014E+02 -0.23834353917E+02 -0.14808018201E+02  0.42584857906E+02  0.00000000000E+00 0.  1.
</event>
<event>
 7    1  0.2429906E-015  0.9000769E+02  0.7816164E-02  0.1186339E+00
        -11   -1    0    0    0    0  0.00000000000E+00  0.00000000000E+00  0.45593999997E+02  0.45594000000E+02  0.51100000000E-03 0.  1.
         11   -1    0    0    0    0 -0.00000000000E+00 -0.00000000000E+00 -0.45593999997E+02  0.45594000000E+02  0.51100000000E-03 0. -1.
    9900012    2    1    2    0    0  0.11203549811E+01 -0.29438201569E+00 -0.22646510791E+00  0.90007685423E+02  0.89999946071E+02 0.  0.
        -12    1    1    2    0    0 -0.11203549811E+01  0.29438201569E+00  0.22646510791E+00  0.11803145766E+01  0.00000000000E+00 0.  1.
         11    1    3    3    0    0  0.38729686012E+01 -0.44029103812E+01 -0.11751749081E+02  0.13133511044E+02  0.51100000000E-03 0. -1.
        -11    1    3    3    0    0 -0.36311831854E+02  0.38535591060E+00  0.20812369397E+02  0.41855135311E+02  0.51100000000E-03 0.  1.
         12    1    3    3    0    0  0.33559218234E+02  0.37231724549E+01 -0.92870854241E+01  0.35019039068E+02  0.00000000000E+00 0. -1.
</event>
<event>
 7    1  0.2429906E-015  0.9000777E+02  0.7816164E-02  0.1186339E+00
        -11   -1    0    0    0    0  0.00000000000E+00  0.00000000000E+00  0.45593999997E+02  0.45594000000E+02  0.51100000000E-03 0.  1.
         11   -1    0    0    0    0 -0.00000000000E+00 -0.00000000000E+00 -0.45593999997E+02  0.45594000000E+02  0.51100000000E-03 0. -1.
    9900012    2    1    2    0    0 -0.46578336686E+00  0.57979386472E+00 -0.91642560538E+00  0.90007766565E+02  0.90000028284E+02 0.  0.
        -12    1    1    2    0    0  0.46578336686E+00 -0.57979386472E+00  0.91642560538E+00  0.11802334348E+01  0.00000000000E+00 0.  1.
         11    1    3    3    0    0 -0.49822458574E+01  0.83282436435E+00  0.79503420932E+01  0.94193582513E+01  0.51100000000E-03 0. -1.
        -11    1    3    3    0    0  0.24362514871E+02  0.23222790794E+02  0.19382145488E+02  0.38839383454E+02  0.51100000000E-03 0.  1.
         12    1    3    3    0    0 -0.19846052381E+02 -0.23475821294E+02 -0.28248913186E+02  0.41749024860E+02  0.00000000000E+00 0. -1.
</event>
<event>
 7    1  0.2429906E-015  0.9000758E+02  0.7816164E-02  0.1186339E+00
        -11   -1    0    0    0    0  0.00000000000E+00  0.00000000000E+00  0.45593999997E+02  0.45594000000E+02  0.51100000000E-03 0.  1.
         11   -1    0    0    0    0 -0.00000000000E+00 -0.00000000000E+00 -0.45593999997E+02  0.45594000000E+02  0.51100000000E-03 0. -1.
    9900012    2    1    2    0    0  0.11465127632E+01 -0.94621292061E-01 -0.26445820141E+00  0.90007583614E+02  0.89999842917E+02 0.  0.
        -12    1    1    2    0    0 -0.11465127632E+01  0.94621292061E-01  0.26445820141E+00  0.11804163864E+01  0.00000000000E+00 0.  1.
         11    1    3    3    0    0  0.43754471044E+01 -0.37384811621E+02  0.70441712998E+01  0.38293459322E+02  0.51100000000E-03 0. -1.
        -11    1    3    3    0    0 -0.90485695781E+01  0.38176050609E+01  0.96268981572E+01  0.13752377547E+02  0.51100000000E-03 0.  1.
        -12    1    3    3    0    0  0.58196352368E+01  0.33472585268E+02 -0.16935527658E+02  0.37961746744E+02  0.00000000000E+00 0.  1.
</event>
<event>
 7    1  0.2429906E-015  0.9000776E+02  0.7816164E-02  0.1186339E+00
        -11   -1    0    0    0    0  0.00000000000E+00  0.00000000000E+00  0.45593999997E+02  0.45594000000E+02  0.51100000000E-03 0. -1.
         11   -1    0    0    0    0 -0.00000000000E+00 -0.00000000000E+00 -0.45593999997E+02  0.45594000000E+02  0.51100000000E-03 0.  1.
    9900012    2    1    2    0    0 -0.10484092095E+01  0.35697956867E+00  0.40788259698E+00  0.90007760831E+02  0.90000022474E+02 0.  0.
        -12    1    1    2    0    0  0.10484092095E+01 -0.35697956867E+00 -0.40788259698E+00  0.11802391689E+01  0.00000000000E+00 0.  1.
         11    1    3    3    0    0  0.16591778320E+02 -0.13354875975E+02 -0.26721549829E+02  0.34171348315E+02  0.51100000000E-03 0. -1.
        -11    1    3    3    0    0  0.58196597298E+01 -0.65128088654E+01 -0.59120275518E+01  0.10546904225E+02  0.51100000000E-03 0.  1.
        -12    1    3    3    0    0 -0.23459847259E+02  0.20224664409E+02  0.33041459978E+02  0.45289508292E+02  0.00000000000E+00 0.  1.
</event>
<event>
 7    1  0.2429906E-015  0.9000762E+02  0.7816164E-02  0.1186339E+00
        -11   -1    0    0    0    0  0.00000000000E+00  0.00000000000E+00  0.45593999997E+02  0.45594000000E+02  0.51100000000E-03 0.  1.
         11   -1    0    0    0    0 -0.00000000000E+00 -0.00000000000E+00 -0.45593999997E+02  0.45594000000E+02  0.51100000000E-03 0. -1.
    9900012    2    1    2    0    0  0.76625197670E+00 -0.42557179870E+00  0.79058984220E+00  0.90007624743E+02  0.89999884590E+02 0.  0.
        -12    1    1    2    0    0 -0.76625197670E+00  0.42557179870E+00 -0.79058984220E+00  0.11803752565E+01  0.00000000000E+00 0.  1.
         11    1    3    3    0    0  0.23711794958E+02 -0.15268807439E+02 -0.15379091890E+02  0.32123234089E+02  0.51100000000E-03 0. -1.
        -11    1    3    3    0    0 -0.38435091652E+01  0.23718052571E+02 -0.84629101244E+01  0.25474289558E+02  0.51100000000E-03 0.  1.
        -12    1    3    3    0    0 -0.19102033816E+02 -0.88748169308E+01  0.24632591857E+02  0.32410101096E+02  0.00000000000E+00 0.  1.
</event>
<event>
 7    1  0.2429906E-015  0.9000721E+02  0.7816164E-02  0.1186340E+00
        -11   -1    0    0    0    0  0.00000000000E+00  0.00000000000E+00  0.45593999997E+02  0.45594000000E+02  0.51100000000E-03 0.  1.
         11   -1    0    0    0    0 -0.00000000000E+00 -0.00000000000E+00 -0.45593999997E+02  0.45594000000E+02  0.51100000000E-03 0. -1.
    9900012    2    1    2    0    0 -0.11580857343E+01  0.11575544718E+00  0.19924060357E+00  0.90007212674E+02  0.89999467080E+02 0.  0.
        -12    1    1    2    0    0  0.11580857343E+01 -0.11575544718E+00 -0.19924060357E+00  0.11807873262E+01  0.00000000000E+00 0.  1.
         11    1    3    3    0    0 -0.23871472638E+01  0.79509146919E+01  0.54347927440E+01  0.99223227587E+01  0.51100000000E-03 0. -1.
        -11    1    3    3    0    0  0.13622941751E+02 -0.37348977788E+02  0.14685815675E+02  0.42381645391E+02  0.51100000000E-03 0.  1.
         12    1    3    3    0    0 -0.12393880222E+02  0.29513818543E+02 -0.19921367816E+02  0.37703244524E+02  0.00000000000E+00 0. -1.
</event>
<event>
 7    1  0.2429906E-015  0.9000792E+02  0.7816164E-02  0.1186339E+00
        -11   -1    0    0    0    0  0.00000000000E+00  0.00000000000E+00  0.45593999997E+02  0.45594000000E+02  0.51100000000E-03 0. -1.
         11   -1    0    0    0    0 -0.00000000000E+00 -0.00000000000E+00 -0.45593999997E+02  0.45594000000E+02  0.51100000000E-03 0.  1.
    9900012    2    1    2    0    0 -0.11754814453E-01 -0.11511070265E+01  0.25960795552E+00  0.90007922946E+02  0.90000186729E+02 0.  0.
        -12    1    1    2    0    0  0.11754814453E-01  0.11511070265E+01 -0.25960795552E+00  0.11800770537E+01  0.00000000000E+00 0.  1.
         11    1    3    3    0    0 -0.16743215780E+02  0.84378871500E+01  0.30051549268E+02  0.35420740081E+02  0.51100000000E-03 0. -1.
        -11    1    3    3    0    0  0.12853553268E+01 -0.15421294031E+02  0.48457631095E+01  0.16215729040E+02  0.51100000000E-03 0.  1.
        -12    1    3    3    0    0  0.15446105639E+02  0.58322998549E+01 -0.34637704422E+02  0.38371453825E+02  0.00000000000E+00 0.  1.
</event>
<event>
 7    1  0.2429906E-015  0.9000774E+02  0.7816164E-02  0.1186339E+00
        -11   -1    0    0    0    0  0.00000000000E+00  0.00000000000E+00  0.45593999997E+02  0.45594000000E+02  0.51100000000E-03 0. -1.
         11   -1    0    0    0    0 -0.00000000000E+00 -0.00000000000E+00 -0.45593999997E+02  0.45594000000E+02  0.51100000000E-03 0.  1.
    9900012    2    1    2    0    0 -0.18578505934E+00  0.74669631570E+00 -0.89495446327E+00  0.90007739449E+02  0.90000000810E+02 0.  0.
        -12    1    1    2    0    0  0.18578505934E+00 -0.74669631570E+00  0.89495446327E+00  0.11802605507E+01  0.00000000000E+00 0.  1.
         11    1    3    3    0    0 -0.65068472061E+01  0.96155633858E-01  0.76608196207E+01  0.10051689609E+02  0.51100000000E-03 0. -1.
        -11    1    3    3    0    0 -0.14933197995E+02  0.35155970413E+02 -0.97190000738E+01  0.39413216321E+02  0.51100000000E-03 0.  1.
         12    1    3    3    0    0  0.21254260142E+02 -0.34505429731E+02  0.11632259898E+01  0.40542833520E+02  0.00000000000E+00 0. -1.
</event>
<event>
 7    1  0.2429906E-015  0.9000774E+02  0.7816164E-02  0.1186339E+00
        -11   -1    0    0    0    0  0.00000000000E+00  0.00000000000E+00  0.45593999997E+02  0.45594000000E+02  0.51100000000E-03 0.  1.
         11   -1    0    0    0    0 -0.00000000000E+00 -0.00000000000E+00 -0.45593999997E+02  0.45594000000E+02  0.51100000000E-03 0. -1.
    9900012    2    1    2    0    0 -0.10347672076E+01  0.19887311870E+00  0.53170957262E+00  0.90007742079E+02  0.90000003474E+02 0.  0.
        -12    1    1    2    0    0  0.10347672076E+01 -0.19887311870E+00 -0.53170957262E+00  0.11802579214E+01  0.00000000000E+00 0.  1.
         11    1    3    3    0    0 -0.90316191907E+00 -0.41074839332E+01  0.57861055145E+01  0.71530513069E+01  0.51100000000E-03 0. -1.
        -11    1    3    3    0    0  0.28395894644E+00  0.21664748376E+02  0.33780719405E+02  0.40132019120E+02  0.51100000000E-03 0.  1.
         12    1    3    3    0    0 -0.41556423501E+00 -0.17358391324E+02 -0.39035115347E+02  0.42722671652E+02  0.00000000000E+00 0. -1.
</event>
<event>
 7    1  0.2429906E-015  0.9000783E+02  0.7816164E-02  0.1186339E+00
        -11   -1    0    0    0    0  0.00000000000E+00  0.00000000000E+00  0.45593999997E+02  0.45594000000E+02  0.51100000000E-03 0. -1.
         11   -1    0    0    0    0 -0.00000000000E+00 -0.00000000000E+00 -0.45593999997E+02  0.45594000000E+02  0.51100000000E-03 0.  1.
    9900012    2    1    2    0    0 -0.34233878715E+00  0.85102573836E+00 -0.74253250712E+00  0.90007832564E+02  0.90000095154E+02 0.  0.
        -12    1    1    2    0    0  0.34233878715E+00 -0.85102573836E+00  0.74253250712E+00  0.11801674359E+01  0.00000000000E+00 0.  1.
         11    1    3    3    0    0 -0.24362152562E+01  0.95875038580E+01 -0.11625053461E+01  0.99602607367E+01  0.51100000000E-03 0. -1.
        -11    1    3    3    0    0 -0.35818104449E+02  0.46632386027E+01 -0.11837248155E+02  0.38010562278E+02  0.51100000000E-03 0.  1.
         12    1    3    3    0    0  0.37911980918E+02 -0.13399716722E+02  0.12257220994E+02  0.42037009549E+02  0.00000000000E+00 0. -1.
</event>
<event>
 7    1  0.2429906E-015  0.9000774E+02  0.7816164E-02  0.1186339E+00
        -11   -1    0    0    0    0  0.00000000000E+00  0.00000000000E+00  0.45593999997E+02  0.45594000000E+02  0.51100000000E-03 0.  1.
         11   -1    0    0    0    0 -0.00000000000E+00 -0.00000000000E+00 -0.45593999997E+02  0.45594000000E+02  0.51100000000E-03 0. -1.
    9900012    2    1    2    0    0 -0.95088023088E+00 -0.67516959489E+00 -0.18162709697E+00  0.90007739182E+02  0.90000000540E+02 0.  0.
        -12    1    1    2    0    0  0.95088023088E+00  0.67516959489E+00  0.18162709697E+00  0.11802608177E+01  0.00000000000E+00 0.  1.
         11    1    3    3    0    0 -0.57253513325E+01  0.15532845120E+02  0.44451802465E+01  0.17140844585E+02  0.51100000000E-03 0. -1.
        -11    1    3    3    0    0  0.29483026018E+02 -0.23778071387E+02  0.14666448074E+02  0.40617117099E+02  0.51100000000E-03 0.  1.
         12    1    3    3    0    0 -0.24708554917E+02  0.75700566716E+01 -0.19293255418E+02  0.32249777498E+02  0.00000000000E+00 0. -1.
</event>
<event>
 7    1  0.2429906E-015  0.9000770E+02  0.7816164E-02  0.1186339E+00
        -11   -1    0    0    0    0  0.00000000000E+00  0.00000000000E+00  0.45593999997E+02  0.45594000000E+02  0.51100000000E-03 0.  1.
         11   -1    0    0    0    0 -0.00000000000E+00 -0.00000000000E+00 -0.45593999997E+02  0.45594000000E+02  0.51100000000E-03 0. -1.
    9900012    2    1    2    0    0 -0.11338325394E+01  0.32275792868E+00  0.57930045036E-01  0.90007701395E+02  0.89999962253E+02 0.  0.
        -12    1    1    2    0    0  0.11338325394E+01 -0.32275792868E+00 -0.57930045036E-01  0.11802986054E+01  0.00000000000E+00 0.  1.
         11    1    3    3    0    0  0.39497313243E+01  0.11415715330E+02 -0.34487398240E+02  0.36541751076E+02  0.51100000000E-03 0. -1.
        -11    1    3    3    0    0 -0.34148457982E+01  0.69583204929E+01 -0.55028696250E+01  0.95058387467E+01  0.51100000000E-03 0.  1.
        -12    1    3    3    0    0 -0.16687180655E+01 -0.18051277894E+02  0.40048197910E+02  0.43960111572E+02  0.00000000000E+00 0.  1.
</event>
<event>
 7    1  0.2429906E-015  0.9000773E+02  0.7816164E-02  0.1186339E+00
        -11   -1    0    0    0    0  0.00000000000E+00  0.00000000000E+00  0.45593999997E+02  0.45594000000E+02  0.51100000000E-03 0. -1.
         11   -1    0    0    0    0 -0.00000000000E+00 -0.00000000000E+00 -0.45593999997E+02  0.45594000000E+02  0.51100000000E-03 0.  1.
    9900012    2    1    2    0    0  0.13994141753E+00 -0.79479061374E+00  0.86126242940E+00  0.90007725162E+02  0.89999986335E+02 0.  0.
        -12    1    1    2    0    0 -0.13994141753E+00  0.79479061374E+00 -0.86126242940E+00  0.11802748376E+01  0.00000000000E+00 0.  1.
         11    1    3    3    0    0  0.32002310472E+02 -0.13542850562E+02  0.10479446974E+02  0.36295667593E+02  0.51100000000E-03 0. -1.
        -11    1    3    3    0    0 -0.89816773714E+01  0.21233792182E+02  0.71086021491E+01  0.24126265430E+02  0.51100000000E-03 0.  1.
        -12    1    3    3    0    0 -0.22880691683E+02 -0.84857322339E+01 -0.16726786694E+02  0.29585792139E+02  0.00000000000E+00 0.  1.
</event>
<event>
 7    1  0.2939391E-015  0.9000777E+02  0.7816164E-02  0.1186339E+00
        -11   -1    0    0    0    0  0.00000000000E+00  0.00000000000E+00  0.45593999997E+02  0.45594000000E+02  0.51100000000E-03 0.  1.
         11   -1    0    0    0    0 -0.00000000000E+00 -0.00000000000E+00 -0.45593999997E+02  0.45594000000E+02  0.51100000000E-03 0. -1.
    9900012    2    1    2    0    0 -0.85440055931E+00 -0.81414332619E+00  0.11068044634E-01  0.90007766052E+02  0.90000027763E+02 0.  0.
        -12    1    1    2    0    0  0.85440055931E+00  0.81414332619E+00 -0.11068044634E-01  0.11802339484E+01  0.00000000000E+00 0.  1.
         11    1    3    3    0    0 -0.66254410879E+01  0.18019562297E+02 -0.36229056618E+02  0.41001776043E+02  0.51100000000E-03 0. -1.
        -11    1    3    3    0    0 -0.88690436898E+01 -0.24145570696E+01  0.41151158515E+01  0.10070958273E+02  0.51100000000E-03 0.  1.
        -12    1    3    3    0    0  0.14640084218E+02 -0.16419148554E+02  0.32125008811E+02  0.38935031735E+02  0.00000000000E+00 0.  1.
</event>
<event>
 7    1  0.2429906E-015  0.9000765E+02  0.7816164E-02  0.1186339E+00
        -11   -1    0    0    0    0  0.00000000000E+00  0.00000000000E+00  0.45593999997E+02  0.45594000000E+02  0.51100000000E-03 0.  1.
         11   -1    0    0    0    0 -0.00000000000E+00 -0.00000000000E+00 -0.45593999997E+02  0.45594000000E+02  0.51100000000E-03 0. -1.
    9900012    2    1    2    0    0 -0.51973871150E-01  0.56334427103E+00 -0.10359399476E+01  0.90007648516E+02  0.89999908676E+02 0.  0.
        -12    1    1    2    0    0  0.51973871150E-01 -0.56334427103E+00  0.10359399476E+01  0.11803514841E+01  0.00000000000E+00 0.  1.
         11    1    3    3    0    0  0.31355086121E+01  0.85707738076E+01  0.28180186597E+01  0.95514819449E+01  0.51100000000E-03 0. -1.
        -11    1    3    3    0    0  0.14917207850E+01  0.35947391985E+02 -0.44240440207E+01  0.36249308782E+02  0.51100000000E-03 0.  1.
         12    1    3    3    0    0 -0.46792032682E+01 -0.43954821521E+02  0.57008541343E+00  0.44206857789E+02  0.00000000000E+00 0. -1.
</event>
<event>
 7    1  0.2429906E-015  0.9000774E+02  0.7816164E-02  0.1186339E+00
        -11   -1    0    0    0    0  0.00000000000E+00  0.00000000000E+00  0.45593999997E+02  0.45594000000E+02  0.51100000000E-03 0. -1.
         11   -1    0    0    0    0 -0.00000000000E+00 -0.00000000000E+00 -0.45593999997E+02  0.45594000000E+02  0.51100000000E-03 0.  1.
    9900012    2    1    2    0    0 -0.64371100420E+00 -0.98767356966E+00  0.56076199986E-01  0.90007742622E+02  0.90000004025E+02 0.  0.
        -12    1    1    2    0    0  0.64371100420E+00  0.98767356966E+00 -0.56076199986E-01  0.11802573776E+01  0.00000000000E+00 0.  1.
         11    1    3    3    0    0  0.78626908548E+01 -0.13949759802E+02  0.54502218333E+00  0.16022320539E+02  0.51100000000E-03 0. -1.
        -11    1    3    3    0    0  0.29247325790E+02 -0.52949899648E+01  0.88686087753E+01  0.31017659590E+02  0.51100000000E-03 0.  1.
         12    1    3    3    0    0 -0.37753727649E+02  0.18257076197E+02 -0.93575547587E+01  0.42967762493E+02  0.00000000000E+00 0. -1.
</event>
<event>
 7    1  0.2429906E-015  0.9000770E+02  0.7816164E-02  0.1186339E+00
        -11   -1    0    0    0    0  0.00000000000E+00  0.00000000000E+00  0.45593999997E+02  0.45594000000E+02  0.51100000000E-03 0. -1.
         11   -1    0    0    0    0 -0.00000000000E+00 -0.00000000000E+00 -0.45593999997E+02  0.45594000000E+02  0.51100000000E-03 0.  1.
    9900012    2    1    2    0    0  0.36297105496E+00  0.79475817710E-01  0.11202839854E+01  0.90007703173E+02  0.89999964055E+02 0.  0.
        -12    1    1    2    0    0 -0.36297105496E+00 -0.79475817710E-01 -0.11202839854E+01  0.11802968272E+01  0.00000000000E+00 0.  1.
         11    1    3    3    0    0 -0.49823507138E+01 -0.27644391857E+01  0.78103809785E+01  0.96678846672E+01  0.51100000000E-03 0. -1.
        -11    1    3    3    0    0  0.28540752770E+01  0.40348489354E+02  0.55085088571E+01  0.40822665382E+02  0.51100000000E-03 0.  1.
         12    1    3    3    0    0  0.24912464918E+01 -0.37504574350E+02 -0.12198605850E+02  0.39517153123E+02  0.00000000000E+00 0. -1.
</event>
<event>
 7    1  0.2429906E-015  0.9000771E+02  0.7816164E-02  0.1186339E+00
        -11   -1    0    0    0    0  0.00000000000E+00  0.00000000000E+00  0.45593999997E+02  0.45594000000E+02  0.51100000000E-03 0.  1.
         11   -1    0    0    0    0 -0.00000000000E+00 -0.00000000000E+00 -0.45593999997E+02  0.45594000000E+02  0.51100000000E-03 0. -1.
    9900012    2    1    2    0    0 -0.87809639446E+00 -0.68148876624E-01 -0.78573640564E+00  0.90007712219E+02  0.89999973220E+02 0.  0.
        -12    1    1    2    0    0  0.87809639446E+00  0.68148876624E-01  0.78573640564E+00  0.11802877812E+01  0.00000000000E+00 0.  1.
         11    1    3    3    0    0 -0.32692135027E+02 -0.68040181959E+00 -0.25648837133E+02  0.41558410530E+02  0.51100000000E-03 0. -1.
        -11    1    3    3    0    0  0.60875444908E+01 -0.33956270881E+01 -0.51868285015E+01  0.86885943290E+01  0.51100000000E-03 0.  1.
        -12    1    3    3    0    0  0.25726494141E+02  0.40078800311E+01  0.30049929228E+02  0.39760707360E+02  0.00000000000E+00 0.  1.
</event>
<event>
 7    1  0.2429906E-015  0.9000776E+02  0.7816164E-02  0.1186339E+00
        -11   -1    0    0    0    0  0.00000000000E+00  0.00000000000E+00  0.45593999997E+02  0.45594000000E+02  0.51100000000E-03 0.  1.
         11   -1    0    0    0    0 -0.00000000000E+00 -0.00000000000E+00 -0.45593999997E+02  0.45594000000E+02  0.51100000000E-03 0. -1.
    9900012    2    1    2    0    0 -0.40103635871E+00 -0.59289736663E+00 -0.93840613784E+00  0.90007761241E+02  0.90000022890E+02 0.  0.
        -12    1    1    2    0    0  0.40103635871E+00  0.59289736663E+00  0.93840613784E+00  0.11802387589E+01  0.00000000000E+00 0.  1.
         11    1    3    3    0    0 -0.23962602278E+01 -0.19192653992E+02 -0.27542023010E+02  0.33655059977E+02  0.51100000000E-03 0. -1.
        -11    1    3    3    0    0  0.13328762411E+02 -0.71012859911E+01 -0.31579291253E+01  0.15429085740E+02  0.51100000000E-03 0.  1.
        -12    1    3    3    0    0 -0.11333538542E+02  0.25701042616E+02  0.29761545997E+02  0.40923615524E+02  0.00000000000E+00 0.  1.
</event>
<event>
 7    1  0.2429906E-015  0.9000771E+02  0.7816164E-02  0.1186339E+00
        -11   -1    0    0    0    0  0.00000000000E+00  0.00000000000E+00  0.45593999997E+02  0.45594000000E+02  0.51100000000E-03 0.  1.
         11   -1    0    0    0    0 -0.00000000000E+00 -0.00000000000E+00 -0.45593999997E+02  0.45594000000E+02  0.51100000000E-03 0. -1.
    9900012    2    1    2    0    0 -0.28506363067E+00  0.46793271626E+00 -0.10453974762E+01  0.90007712669E+02  0.89999973676E+02 0.  0.
        -12    1    1    2    0    0  0.28506363067E+00 -0.46793271626E+00  0.10453974762E+01  0.11802873310E+01  0.00000000000E+00 0.  1.
         11    1    3    3    0    0 -0.92082160076E+00  0.88496703807E+01 -0.20400426161E+00  0.88997863046E+01  0.51100000000E-03 0. -1.
        -11    1    3    3    0    0  0.36158554061E+02  0.61727072077E+01  0.14932674908E+02  0.39604647786E+02  0.51100000000E-03 0.  1.
         12    1    3    3    0    0 -0.35522796091E+02 -0.14554444872E+02 -0.15774068123E+02  0.41503278579E+02  0.00000000000E+00 0. -1.
</event>
<event>
 7    1  0.2429906E-015  0.9000773E+02  0.7816164E-02  0.1186339E+00
        -11   -1    0    0    0    0  0.00000000000E+00  0.00000000000E+00  0.45593999997E+02  0.45594000000E+02  0.51100000000E-03 0.  1.
         11   -1    0    0    0    0 -0.00000000000E+00 -0.00000000000E+00 -0.45593999997E+02  0.45594000000E+02  0.51100000000E-03 0. -1.
    9900012    2    1    2    0    0  0.47187203754E+00  0.80324152123E+00 -0.72469189158E+00  0.90007729481E+02  0.89999990710E+02 0.  0.
        -12    1    1    2    0    0 -0.47187203754E+00 -0.80324152123E+00  0.72469189158E+00  0.11802705194E+01  0.00000000000E+00 0.  1.
         11    1    3    3    0    0 -0.20430744032E+01  0.23361064155E+01  0.72323278412E+01  0.78700770304E+01  0.51100000000E-03 0. -1.
        -11    1    3    3    0    0 -0.90808609867E+00  0.11760708642E+02  0.35055977744E+02  0.36987301388E+02  0.51100000000E-03 0.  1.
         12    1    3    3    0    0  0.34230325394E+01 -0.13293573536E+02 -0.43012997477E+02  0.45150351062E+02  0.00000000000E+00 0. -1.
</event>
<event>
 7    1  0.2429906E-015  0.9000781E+02  0.7816164E-02  0.1186339E+00
        -11   -1    0    0    0    0  0.00000000000E+00  0.00000000000E+00  0.45593999997E+02  0.45594000000E+02  0.51100000000E-03 0.  1.
         11   -1    0    0    0    0 -0.00000000000E+00 -0.00000000000E+00 -0.45593999997E+02  0.45594000000E+02  0.51100000000E-03 0. -1.
    9900012    2    1    2    0    0 -0.39819032211E+00  0.55698571218E+00 -0.96128243145E+00  0.90007808266E+02  0.90000070535E+02 0.  0.
        -12    1    1    2    0    0  0.39819032211E+00 -0.55698571218E+00  0.96128243145E+00  0.11801917341E+01  0.00000000000E+00 0.  1.
         11    1    3    3    0    0 -0.36709974055E+02  0.21210862151E+02  0.10844143465E+01  0.42411069581E+02  0.51100000000E-03 0. -1.
        -11    1    3    3    0    0  0.63600210427E+01 -0.10606517745E+01  0.81401511423E+01  0.10384455245E+02  0.51100000000E-03 0.  1.
        -12    1    3    3    0    0  0.29951762690E+02 -0.19593224664E+02 -0.10185847920E+02  0.37212283440E+02  0.00000000000E+00 0.  1.
</event>
<event>
 7    1  0.2429906E-015  0.9000774E+02  0.7816164E-02  0.1186339E+00
        -11   -1    0    0    0    0  0.00000000000E+00  0.00000000000E+00  0.45593999997E+02  0.45594000000E+02  0.51100000000E-03 0.  1.
         11   -1    0    0    0    0 -0.00000000000E+00 -0.00000000000E+00 -0.45593999997E+02  0.45594000000E+02  0.51100000000E-03 0. -1.
    9900012    2    1    2    0    0 -0.46470094746E+00  0.83626355471E+00  0.69118037639E+00  0.90007739852E+02  0.90000001218E+02 0.  0.
        -12    1    1    2    0    0  0.46470094746E+00 -0.83626355471E+00 -0.69118037639E+00  0.11802601477E+01  0.00000000000E+00 0.  1.
         11    1    3    3    0    0 -0.16152113992E+02 -0.26675567687E+02  0.23506136677E+02  0.39051442478E+02  0.51100000000E-03 0. -1.
        -11    1    3    3    0    0  0.20471278466E+01 -0.76127720755E+01 -0.39549331892E+01  0.88196671075E+01  0.51100000000E-03 0.  1.
        -12    1    3    3    0    0  0.13640285198E+02  0.35124603318E+02 -0.18860023111E+02  0.42136630267E+02  0.00000000000E+00 0.  1.
</event>
<event>
 7    1  0.2429906E-015  0.9000771E+02  0.7816164E-02  0.1186339E+00
        -11   -1    0    0    0    0  0.00000000000E+00  0.00000000000E+00  0.45593999997E+02  0.45594000000E+02  0.51100000000E-03 0. -1.
         11   -1    0    0    0    0 -0.00000000000E+00 -0.00000000000E+00 -0.45593999997E+02  0.45594000000E+02  0.51100000000E-03 0.  1.
    9900012    2    1    2    0    0 -0.30183310999E+00  0.11358001853E+01  0.10925861136E+00  0.90007710742E+02  0.89999971724E+02 0.  0.
        -12    1    1    2    0    0  0.30183310999E+00 -0.11358001853E+01 -0.10925861136E+00  0.11802892575E+01  0.00000000000E+00 0.  1.
         11    1    3    3    0    0  0.55980773690E+01  0.73949946076E+01  0.18922947351E+01  0.94660020653E+01  0.51100000000E-03 0. -1.
        -11    1    3    3    0    0 -0.24951101192E+02  0.25864032237E+02 -0.17560159235E+02  0.39998310050E+02  0.51100000000E-03 0.  1.
         12    1    3    3    0    0  0.19051190713E+02 -0.32123226659E+02  0.15777123111E+02  0.40543398627E+02  0.00000000000E+00 0. -1.
</event>
<event>
 7    1  0.2429906E-015  0.9000765E+02  0.7816164E-02  0.1186339E+00
        -11   -1    0    0    0    0  0.00000000000E+00  0.00000000000E+00  0.45593999997E+02  0.45594000000E+02  0.51100000000E-03 0.  1.
         11   -1    0    0    0    0 -0.00000000000E+00 -0.00000000000E+00 -0.45593999997E+02  0.45594000000E+02  0.51100000000E-03 0. -1.
    9900012    2    1    2    0    0  0.51313387715E+00  0.89668160727E+00  0.57086287057E+00  0.90007648909E+02  0.89999909075E+02 0.  0.
        -12    1    1    2    0    0 -0.51313387715E+00 -0.89668160727E+00 -0.57086287057E+00  0.11803510909E+01  0.00000000000E+00 0.  1.
         11    1    3    3    0    0  0.25139072810E+01  0.82987323782E+00 -0.87605884622E+01  0.91518484403E+01  0.51100000000E-03 0. -1.
        -11    1    3    3    0    0 -0.16121601294E+02 -0.36252910133E+02 -0.34984724100E+01  0.39829873598E+02  0.51100000000E-03 0.  1.
         12    1    3    3    0    0  0.14120827890E+02  0.36319718502E+02  0.12829923743E+02  0.41025926871E+02  0.00000000000E+00 0. -1.
</event>
<event>
 7    1  0.2429906E-015  0.9000773E+02  0.7816164E-02  0.1186339E+00
        -11   -1    0    0    0    0  0.00000000000E+00  0.00000000000E+00  0.45593999997E+02  0.45594000000E+02  0.51100000000E-03 0. -1.
         11   -1    0    0    0    0 -0.00000000000E+00 -0.00000000000E+00 -0.45593999997E+02  0.45594000000E+02  0.51100000000E-03 0.  1.
    9900012    2    1    2    0    0  0.50881437764E+00 -0.59001166860E+00  0.88657860178E+00  0.90007734158E+02  0.89999995449E+02 0.  0.
        -12    1    1    2    0    0 -0.50881437764E+00  0.59001166860E+00 -0.88657860178E+00  0.11802658417E+01  0.00000000000E+00 0.  1.
         11    1    3    3    0    0  0.37369990045E+01  0.74362746136E+01  0.45132826320E+01  0.94674739010E+01  0.51100000000E-03 0. -1.
        -11    1    3    3    0    0  0.27121956856E+02  0.22093423253E+02  0.86857994104E+01  0.36043903873E+02  0.51100000000E-03 0.  1.
         12    1    3    3    0    0 -0.30350141483E+02 -0.30119709535E+02 -0.12312503441E+02  0.44496356384E+02  0.00000000000E+00 0. -1.
</event>
<event>
 7    1  0.2429906E-015  0.9000768E+02  0.7816164E-02  0.1186339E+00
        -11   -1    0    0    0    0  0.00000000000E+00  0.00000000000E+00  0.45593999997E+02  0.45594000000E+02  0.51100000000E-03 0. -1.
         11   -1    0    0    0    0 -0.00000000000E+00 -0.00000000000E+00 -0.45593999997E+02  0.45594000000E+02  0.51100000000E-03 0.  1.
    9900012    2    1    2    0    0  0.15568252948E+00  0.11695811550E+01 -0.31468870078E-01  0.90007683340E+02  0.89999943960E+02 0.  0.
        -12    1    1    2    0    0 -0.15568252948E+00 -0.11695811550E+01  0.31468870078E-01  0.11803166600E+01  0.00000000000E+00 0.  1.
         11    1    3    3    0    0 -0.97238028059E+01  0.10566239548E+02  0.33588364735E+02  0.36529111747E+02  0.51100000000E-03 0. -1.
        -11    1    3    3    0    0  0.68471727376E+01 -0.18835090257E+02 -0.17671472483E+01  0.20118827231E+02  0.51100000000E-03 0.  1.
        -12    1    3    3    0    0  0.30323125978E+01  0.94384318634E+01 -0.31852686357E+02  0.33359744362E+02  0.00000000000E+00 0.  1.
</event>
<event>
 7    1  0.2429906E-015  0.9000783E+02  0.7816164E-02  0.1186339E+00
        -11   -1    0    0    0    0  0.00000000000E+00  0.00000000000E+00  0.45593999997E+02  0.45594000000E+02  0.51100000000E-03 0.  1.
         11   -1    0    0    0    0 -0.00000000000E+00 -0.00000000000E+00 -0.45593999997E+02  0.45594000000E+02  0.51100000000E-03 0. -1.
    9900012    2    1    2    0    0 -0.48950601785E+00  0.21932624602E+00  0.10512282732E+01  0.90007830086E+02  0.90000092643E+02 0.  0.
        -12    1    1    2    0    0  0.48950601785E+00 -0.21932624602E+00 -0.10512282732E+01  0.11801699141E+01  0.00000000000E+00 0.  1.
         11    1    3    3    0    0 -0.16327909816E+02  0.15776716485E+02 -0.27896667862E+02  0.35968451455E+02  0.51100000000E-03 0. -1.
        -11    1    3    3    0    0  0.36534933850E+01  0.11435959964E+02 -0.83936603127E+00  0.12034688604E+02  0.51100000000E-03 0.  1.
        -12    1    3    3    0    0  0.12184910413E+02 -0.26993350203E+02  0.29787262166E+02  0.42004690027E+02  0.00000000000E+00 0.  1.
</event>
<event>
 7    1  0.2429906E-015  0.9000773E+02  0.7816164E-02  0.1186339E+00
        -11   -1    0    0    0    0  0.00000000000E+00  0.00000000000E+00  0.45593999997E+02  0.45594000000E+02  0.51100000000E-03 0.  1.
         11   -1    0    0    0    0 -0.00000000000E+00 -0.00000000000E+00 -0.45593999997E+02  0.45594000000E+02  0.51100000000E-03 0. -1.
    9900012    2    1    2    0    0 -0.98675892040E+00 -0.63417653613E+00  0.13101270478E+00  0.90007729957E+02  0.89999991192E+02 0.  0.
        -12    1    1    2    0    0  0.98675892040E+00  0.63417653613E+00 -0.13101270478E+00  0.11802700432E+01  0.00000000000E+00 0.  1.
         11    1    3    3    0    0 -0.84781023994E+01  0.76817844900E+00 -0.52893603863E+01  0.10022257829E+02  0.51100000000E-03 0. -1.
        -11    1    3    3    0    0  0.42980627276E+02  0.25611760056E+01 -0.34358569875E+01  0.43193738633E+02  0.51100000000E-03 0.  1.
         12    1    3    3    0    0 -0.35489283797E+02 -0.39635309907E+01  0.88562300786E+01  0.36791733495E+02  0.00000000000E+00 0. -1.
</event>
<event>
 7    1  0.2429906E-015  0.9000773E+02  0.7816164E-02  0.1186339E+00
        -11   -1    0    0    0    0  0.00000000000E+00  0.00000000000E+00  0.45593999997E+02  0.45594000000E+02  0.51100000000E-03 0.  1.
         11   -1    0    0    0    0 -0.00000000000E+00 -0.00000000000E+00 -0.45593999997E+02  0.45594000000E+02  0.51100000000E-03 0. -1.
    9900012    2    1    2    0    0  0.12123199122E+00 -0.88146353330E+00 -0.77546834467E+00  0.90007734644E+02  0.89999995942E+02 0.  0.
        -12    1    1    2    0    0 -0.12123199122E+00  0.88146353330E+00  0.77546834467E+00  0.11802653557E+01  0.00000000000E+00 0.  1.
         11    1    3    3    0    0 -0.36835786236E+01  0.86378982299E+01 -0.37862383664E+01  0.10125099433E+02  0.51100000000E-03 0. -1.
        -11    1    3    3    0    0  0.40230251873E+02 -0.19803559896E+01  0.11173654603E+02  0.41800066185E+02  0.51100000000E-03 0.  1.
         12    1    3    3    0    0 -0.36425441259E+02 -0.75390057736E+01 -0.81628845809E+01  0.38082569026E+02  0.00000000000E+00 0. -1.
</event>
<event>
 7    1  0.2429906E-015  0.9000747E+02  0.7816164E-02  0.1186340E+00
        -11   -1    0    0    0    0  0.00000000000E+00  0.00000000000E+00  0.45593999997E+02  0.45594000000E+02  0.51100000000E-03 0. -1.
         11   -1    0    0    0    0 -0.00000000000E+00 -0.00000000000E+00 -0.45593999997E+02  0.45594000000E+02  0.51100000000E-03 0.  1.
    9900012    2    1    2    0    0 -0.10217248210E+01 -0.42370828010E+00 -0.41255271622E+00  0.90007470432E+02  0.89999728242E+02 0.  0.
        -12    1    1    2    0    0  0.10217248210E+01  0.42370828010E+00  0.41255271622E+00  0.11805295676E+01  0.00000000000E+00 0.  1.
         11    1    3    3    0    0 -0.67855068050E+01 -0.17305778122E+02  0.33648154149E+02  0.38441271270E+02  0.51100000000E-03 0. -1.
        -11    1    3    3    0    0  0.10199939777E+02 -0.44699829803E+01 -0.16947586340E-01  0.11136418041E+02  0.51100000000E-03 0.  1.
        -12    1    3    3    0    0 -0.44361577930E+01  0.21352052822E+02 -0.34043759279E+02  0.40429781121E+02  0.00000000000E+00 0.  1.
</event>
<event>
 7    1  0.2429906E-015  0.9000772E+02  0.7816164E-02  0.1186339E+00
        -11   -1    0    0    0    0  0.00000000000E+00  0.00000000000E+00  0.45593999997E+02  0.45594000000E+02  0.51100000000E-03 0.  1.
         11   -1    0    0    0    0 -0.00000000000E+00 -0.00000000000E+00 -0.45593999997E+02  0.45594000000E+02  0.51100000000E-03 0. -1.
    9900012    2    1    2    0    0 -0.77803622842E+00 -0.79205125136E+00 -0.40046616392E+00  0.90007720920E+02  0.89999982036E+02 0.  0.
        -12    1    1    2    0    0  0.77803622842E+00  0.79205125136E+00  0.40046616392E+00  0.11802790797E+01  0.00000000000E+00 0.  1.
         11    1    3    3    0    0 -0.55046685942E+01  0.14942586580E+02 -0.31805531949E+02  0.35569286370E+02  0.51100000000E-03 0. -1.
        -11    1    3    3    0    0  0.76090153033E+01 -0.18058854818E+02 -0.30087110310E+01  0.19826035750E+02  0.51100000000E-03 0.  1.
        -12    1    3    3    0    0 -0.28823829374E+01  0.23242169864E+01  0.34413776816E+02  0.34612398801E+02  0.00000000000E+00 0.  1.
</event>
<event>
 7    1  0.2429906E-015  0.9000757E+02  0.7816164E-02  0.1186339E+00
        -11   -1    0    0    0    0  0.00000000000E+00  0.00000000000E+00  0.45593999997E+02  0.45594000000E+02  0.51100000000E-03 0. -1.
         11   -1    0    0    0    0 -0.00000000000E+00 -0.00000000000E+00 -0.45593999997E+02  0.45594000000E+02  0.51100000000E-03 0.  1.
    9900012    2    1    2    0    0 -0.61441382599E+00  0.84120871561E+00  0.55523392732E+00  0.90007567381E+02  0.89999826471E+02 0.  0.
        -12    1    1    2    0    0  0.61441382599E+00 -0.84120871561E+00 -0.55523392732E+00  0.11804326185E+01  0.00000000000E+00 0.  1.
         11    1    3    3    0    0  0.51278617631E+01 -0.41775913027E+02  0.11003952538E+02  0.43504124485E+02  0.51100000000E-03 0. -1.
        -11    1    3    3    0    0  0.41504851714E+01  0.72064095608E+01 -0.37883629696E+01  0.91384112496E+01  0.51100000000E-03 0.  1.
        -12    1    3    3    0    0 -0.98927607605E+01  0.35410712182E+02 -0.66603556414E+01  0.37365031647E+02  0.00000000000E+00 0.  1.
</event>
<event>
 7    1  0.2429906E-015  0.9000770E+02  0.7816164E-02  0.1186339E+00
        -11   -1    0    0    0    0  0.00000000000E+00  0.00000000000E+00  0.45593999997E+02  0.45594000000E+02  0.51100000000E-03 0. -1.
         11   -1    0    0    0    0 -0.00000000000E+00 -0.00000000000E+00 -0.45593999997E+02  0.45594000000E+02  0.51100000000E-03 0.  1.
    9900012    2    1    2    0    0  0.75496767088E+00 -0.65138506491E-01  0.90491924275E+00  0.90007704255E+02  0.89999965151E+02 0.  0.
        -12    1    1    2    0    0 -0.75496767088E+00  0.65138506491E-01 -0.90491924275E+00  0.11802957447E+01  0.00000000000E+00 0.  1.
         11    1    3    3    0    0  0.60187289574E+01 -0.57031855711E+01  0.42511636704E+01  0.93179298524E+01  0.51100000000E-03 0. -1.
        -11    1    3    3    0    0  0.36027125511E+02 -0.19474367006E+01 -0.11611246990E+02  0.37902075658E+02  0.51100000000E-03 0.  1.
         12    1    3    3    0    0 -0.41290886798E+02  0.75854837652E+01  0.82650025620E+01  0.42787698744E+02  0.00000000000E+00 0. -1.
</event>
<event>
 7    1  0.2429906E-015  0.9000770E+02  0.7816164E-02  0.1186339E+00
        -11   -1    0    0    0    0  0.00000000000E+00  0.00000000000E+00  0.45593999997E+02  0.45594000000E+02  0.51100000000E-03 0.  1.
         11   -1    0    0    0    0 -0.00000000000E+00 -0.00000000000E+00 -0.45593999997E+02  0.45594000000E+02  0.51100000000E-03 0. -1.
    9900012    2    1    2    0    0 -0.16699482006E+00 -0.11040520075E+01  0.38249362767E+00  0.90007695175E+02  0.89999955951E+02 0.  0.
        -12    1    1    2    0    0  0.16699482006E+00  0.11040520075E+01 -0.38249362767E+00  0.11803048252E+01  0.00000000000E+00 0.  1.
         11    1    3    3    0    0 -0.10065636320E+02  0.93458547678E+01 -0.40487570701E+02  0.42754010542E+02  0.51100000000E-03 0. -1.
        -11    1    3    3    0    0  0.53436519086E+01 -0.64708319330E+01  0.30130124222E+01  0.89165310375E+01  0.51100000000E-03 0.  1.
        -12    1    3    3    0    0  0.45549895917E+01 -0.39790748423E+01  0.37857051906E+02  0.38337153596E+02  0.00000000000E+00 0.  1.
</event>
<event>
 7    1  0.2429906E-015  0.9000773E+02  0.7816164E-02  0.1186339E+00
        -11   -1    0    0    0    0  0.00000000000E+00  0.00000000000E+00  0.45593999997E+02  0.45594000000E+02  0.51100000000E-03 0.  1.
         11   -1    0    0    0    0 -0.00000000000E+00 -0.00000000000E+00 -0.45593999997E+02  0.45594000000E+02  0.51100000000E-03 0. -1.
    9900012    2    1    2    0    0  0.65496990824E+00 -0.75659496293E+00 -0.62579632271E+00  0.90007727762E+02  0.89999988968E+02 0.  0.
        -12    1    1    2    0    0 -0.65496990824E+00  0.75659496293E+00  0.62579632271E+00  0.11802722382E+01  0.00000000000E+00 0.  1.
         11    1    3    3    0    0  0.10249274872E+01 -0.56550334366E+01  0.66036641689E+01  0.87543280862E+01  0.51100000000E-03 0. -1.
        -11    1    3    3    0    0  0.32498965161E+02  0.15118581156E+02  0.16486358606E+02  0.39453190657E+02  0.51100000000E-03 0.  1.
         12    1    3    3    0    0 -0.32868922740E+02 -0.10220142682E+02 -0.23715819098E+02  0.41800209018E+02  0.00000000000E+00 0. -1.
</event>
<event>
 7    1  0.2429906E-015  0.9000775E+02  0.7816164E-02  0.1186339E+00
        -11   -1    0    0    0    0  0.00000000000E+00  0.00000000000E+00  0.45593999997E+02  0.45594000000E+02  0.51100000000E-03 0. -1.
         11   -1    0    0    0    0 -0.00000000000E+00 -0.00000000000E+00 -0.45593999997E+02  0.45594000000E+02  0.51100000000E-03 0.  1.
    9900012    2    1    2    0    0 -0.36611605672E+00  0.73007682412E+00 -0.85202341734E+00  0.90007747044E+02  0.90000008505E+02 0.  0.
        -12    1    1    2    0    0  0.36611605672E+00 -0.73007682412E+00  0.85202341734E+00  0.11802529559E+01  0.00000000000E+00 0.  1.
         11    1    3    3    0    0 -0.11406351068E+02 -0.33607693272E+02 -0.86227176164E+01  0.36523049587E+02  0.51100000000E-03 0. -1.
        -11    1    3    3    0    0 -0.64563660538E+01 -0.48644346055E+00 -0.89751083316E+01  0.11066790849E+02  0.51100000000E-03 0.  1.
        -12    1    3    3    0    0  0.17496601065E+02  0.34824213557E+02  0.16745802531E+02  0.42417906609E+02  0.00000000000E+00 0.  1.
</event>
<event>
 7    1  0.2429906E-015  0.9000737E+02  0.7816164E-02  0.1186340E+00
        -11   -1    0    0    0    0  0.00000000000E+00  0.00000000000E+00  0.45593999997E+02  0.45594000000E+02  0.51100000000E-03 0.  1.
         11   -1    0    0    0    0 -0.00000000000E+00 -0.00000000000E+00 -0.45593999997E+02  0.45594000000E+02  0.51100000000E-03 0. -1.
    9900012    2    1    2    0    0  0.11748856881E-01  0.88098363240E+00 -0.78587976048E+00  0.90007374236E+02  0.89999630775E+02 0.  0.
        -12    1    1    2    0    0 -0.11748856881E-01 -0.88098363240E+00  0.78587976048E+00  0.11806257638E+01  0.00000000000E+00 0.  1.
         11    1    3    3    0    0  0.28013488095E+02  0.65989296606E+01 -0.21400580012E+02  0.35864832539E+02  0.51100000000E-03 0. -1.
        -11    1    3    3    0    0  0.62276371954E+01 -0.94330403735E+01 -0.38104354915E+01  0.11928333271E+02  0.51100000000E-03 0.  1.
        -12    1    3    3    0    0 -0.34229376434E+02  0.37150943453E+01  0.24425135743E+02  0.42214208427E+02  0.00000000000E+00 0.  1.
</event>
<event>
 7    1  0.2429906E-015  0.9000779E+02  0.7816164E-02  0.1186339E+00
        -11   -1    0    0    0    0  0.00000000000E+00  0.00000000000E+00  0.45593999997E+02  0.45594000000E+02  0.51100000000E-03 0. -1.
         11   -1    0    0    0    0 -0.00000000000E+00 -0.00000000000E+00 -0.45593999997E+02  0.45594000000E+02  0.51100000000E-03 0.  1.
    9900012    2    1    2    0    0  0.11226314435E+01  0.24167773026E+00  0.27239153654E+00  0.90007785345E+02  0.90000047311E+02 0.  0.
        -12    1    1    2    0    0 -0.11226314435E+01 -0.24167773026E+00 -0.27239153654E+00  0.11802146552E+01  0.00000000000E+00 0.  1.
         11    1    3    3    0    0  0.82463658505E-02 -0.96349594884E+01  0.93012955745E+00  0.96797548317E+01  0.51100000000E-03 0. -1.
        -11    1    3    3    0    0 -0.36293310521E+02 -0.22204115775E+01 -0.13774214398E+02  0.38882690219E+02  0.51100000000E-03 0.  1.
         12    1    3    3    0    0  0.37407695598E+02  0.12097048796E+02  0.13116476377E+02  0.41445340294E+02  0.00000000000E+00 0. -1.
</event>
<event>
 7    1  0.2429906E-015  0.9000756E+02  0.7816164E-02  0.1186339E+00
        -11   -1    0    0    0    0  0.00000000000E+00  0.00000000000E+00  0.45593999997E+02  0.45594000000E+02  0.51100000000E-03 0.  1.
         11   -1    0    0    0    0 -0.00000000000E+00 -0.00000000000E+00 -0.45593999997E+02  0.45594000000E+02  0.51100000000E-03 0. -1.
    9900012    2    1    2    0    0  0.78815677099E+00 -0.38061871333E+00 -0.79206410681E+00  0.90007564805E+02  0.89999823860E+02 0.  0.
        -12    1    1    2    0    0 -0.78815677099E+00  0.38061871333E+00  0.79206410681E+00  0.11804351951E+01  0.00000000000E+00 0.  1.
         11    1    3    3    0    0  0.82137286534E+01  0.12113347482E+01  0.46682537008E+01  0.95249810048E+01  0.51100000000E-03 0. -1.
        -11    1    3    3    0    0 -0.89895608941E+01  0.38035399857E+02  0.51715693948E+01  0.39423964509E+02  0.51100000000E-03 0.  1.
         12    1    3    3    0    0  0.15639890117E+01 -0.39627353318E+02 -0.10631887202E+02  0.41058619291E+02  0.00000000000E+00 0. -1.
</event>
<event>
 7    1  0.2429906E-015  0.9000754E+02  0.7816164E-02  0.1186339E+00
        -11   -1    0    0    0    0  0.00000000000E+00  0.00000000000E+00  0.45593999997E+02  0.45594000000E+02  0.51100000000E-03 0.  1.
         11   -1    0    0    0    0 -0.00000000000E+00 -0.00000000000E+00 -0.45593999997E+02  0.45594000000E+02  0.51100000000E-03 0. -1.
    9900012    2    1    2    0    0 -0.37240012302E+00  0.95934337545E-01 -0.11160653280E+01  0.90007539469E+02  0.89999798190E+02 0.  0.
        -12    1    1    2    0    0  0.37240012302E+00 -0.95934337545E-01  0.11160653280E+01  0.11804605309E+01  0.00000000000E+00 0.  1.
         11    1    3    3    0    0  0.16154714916E+02 -0.33455301184E+02 -0.10248964154E+02  0.38539243088E+02  0.51100000000E-03 0. -1.
        -11    1    3    3    0    0 -0.35230376778E+01 -0.15743984812E+01 -0.90457404401E+01  0.98344265429E+01  0.51100000000E-03 0.  1.
        -12    1    3    3    0    0 -0.13004077361E+02  0.35125634003E+02  0.18178639266E+02  0.41633869838E+02  0.00000000000E+00 0.  1.
</event>
<event>
 7    1  0.2429906E-015  0.9000847E+02  0.7816164E-02  0.1186338E+00
        -11   -1    0    0    0    0  0.00000000000E+00  0.00000000000E+00  0.45593999997E+02  0.45594000000E+02  0.51100000000E-03 0.  1.
         11   -1    0    0    0    0 -0.00000000000E+00 -0.00000000000E+00 -0.45593999997E+02  0.45594000000E+02  0.51100000000E-03 0. -1.
    9900012    2    1    2    0    0  0.80032919271E+00  0.53348794678E-01 -0.86481812735E+00  0.90008473271E+02  0.90000744315E+02 0.  0.
        -12    1    1    2    0    0 -0.80032919271E+00 -0.53348794678E-01  0.86481812735E+00  0.11795267288E+01  0.00000000000E+00 0.  1.
         11    1    3    3    0    0 -0.17732819498E+01  0.82683021380E+01  0.25228905196E+01  0.88246431063E+01  0.51100000000E-03 0. -1.
        -11    1    3    3    0    0 -0.16016301401E+02 -0.17430667103E+02  0.32214564943E+02  0.39976596416E+02  0.51100000000E-03 0.  1.
         12    1    3    3    0    0  0.18589912543E+02  0.92157137601E+01 -0.35602273590E+02  0.41207233749E+02  0.00000000000E+00 0. -1.
</event>
<event>
 7    1  0.4222100E-015  0.9000777E+02  0.7816164E-02  0.1186339E+00
        -11   -1    0    0    0    0  0.00000000000E+00  0.00000000000E+00  0.45593999997E+02  0.45594000000E+02  0.51100000000E-03 0.  1.
         11   -1    0    0    0    0 -0.00000000000E+00 -0.00000000000E+00 -0.45593999997E+02  0.45594000000E+02  0.51100000000E-03 0. -1.
    9900012    2    1    2    0    0  0.39795387886E+00  0.10425478771E+01  0.38428076762E+00  0.90007769059E+02  0.90000030811E+02 0.  0.
        -12    1    1    2    0    0 -0.39795387886E+00 -0.10425478771E+01 -0.38428076762E+00  0.11802309410E+01  0.00000000000E+00 0.  1.
         11    1    3    3    0    0  0.29845575596E+02  0.48591256811E+01  0.28524876122E+02  0.41569676966E+02  0.51100000000E-03 0. -1.
        -11    1    3    3    0    0 -0.87751597128E+01  0.10154423828E+01  0.41768012430E+01  0.97713980628E+01  0.51100000000E-03 0.  1.
        -12    1    3    3    0    0 -0.20672462004E+02 -0.48320201868E+01 -0.32317396597E+02  0.38666694030E+02  0.00000000000E+00 0.  1.
</event>
<event>
 7    1  0.2429906E-015  0.9000741E+02  0.7816164E-02  0.1186340E+00
        -11   -1    0    0    0    0  0.00000000000E+00  0.00000000000E+00  0.45593999997E+02  0.45594000000E+02  0.51100000000E-03 0. -1.
         11   -1    0    0    0    0 -0.00000000000E+00 -0.00000000000E+00 -0.45593999997E+02  0.45594000000E+02  0.51100000000E-03 0.  1.
    9900012    2    1    2    0    0  0.10845713208E+01  0.33139032536E+00 -0.32814050851E+00  0.90007410871E+02  0.89999667894E+02 0.  0.
        -12    1    1    2    0    0 -0.10845713208E+01 -0.33139032536E+00  0.32814050851E+00  0.11805891288E+01  0.00000000000E+00 0.  1.
         11    1    3    3    0    0 -0.33175451740E+01  0.59888087188E+01 -0.68289015179E+01  0.96698413666E+01  0.51100000000E-03 0. -1.
        -11    1    3    3    0    0 -0.18482682885E+01  0.13745949241E+02 -0.33050057464E+02  0.35842342486E+02  0.51100000000E-03 0.  1.
         12    1    3    3    0    0  0.62503847833E+01 -0.19403367635E+02  0.39550818474E+02  0.44495227019E+02  0.00000000000E+00 0. -1.
</event>
<event>
 7    1  0.2429906E-015  0.9000785E+02  0.7816164E-02  0.1186339E+00
        -11   -1    0    0    0    0  0.00000000000E+00  0.00000000000E+00  0.45593999997E+02  0.45594000000E+02  0.51100000000E-03 0.  1.
         11   -1    0    0    0    0 -0.00000000000E+00 -0.00000000000E+00 -0.45593999997E+02  0.45594000000E+02  0.51100000000E-03 0. -1.
    9900012    2    1    2    0    0 -0.40556684113E+00 -0.10926682172E+01 -0.18531470579E+00  0.90007851774E+02  0.90000114617E+02 0.  0.
        -12    1    1    2    0    0  0.40556684113E+00  0.10926682172E+01  0.18531470579E+00  0.11801482262E+01  0.00000000000E+00 0.  1.
         11    1    3    3    0    0 -0.35213817128E+02  0.30452174506E+01  0.55346479536E+01  0.35775949942E+02  0.51100000000E-03 0. -1.
        -11    1    3    3    0    0 -0.93127726041E+01 -0.79104590044E-01 -0.32202145482E+01  0.98541246749E+01  0.51100000000E-03 0.  1.
        -12    1    3    3    0    0  0.44121022891E+02 -0.40587810778E+01 -0.24997481113E+01  0.44377777157E+02  0.00000000000E+00 0.  1.
</event>
<event>
 7    1  0.2429906E-015  0.9000770E+02  0.7816164E-02  0.1186339E+00
        -11   -1    0    0    0    0  0.00000000000E+00  0.00000000000E+00  0.45593999997E+02  0.45594000000E+02  0.51100000000E-03 0.  1.
         11   -1    0    0    0    0 -0.00000000000E+00 -0.00000000000E+00 -0.45593999997E+02  0.45594000000E+02  0.51100000000E-03 0. -1.
    9900012    2    1    2    0    0  0.82545562056E+00 -0.20208497518E+00 -0.81907603797E+00  0.90007703057E+02  0.89999963937E+02 0.  0.
        -12    1    1    2    0    0 -0.82545562056E+00  0.20208497518E+00  0.81907603797E+00  0.11802969434E+01  0.00000000000E+00 0.  1.
         11    1    3    3    0    0  0.71428304115E+00  0.22539514690E+00  0.10142294582E+02  0.10169913613E+02  0.51100000000E-03 0. -1.
        -11    1    3    3    0    0  0.23172499534E+01 -0.15856948124E+02  0.31097473267E+02  0.34983786173E+02  0.51100000000E-03 0.  1.
         12    1    3    3    0    0 -0.22060773740E+01  0.15429468002E+02 -0.42058843888E+02  0.44854003270E+02  0.00000000000E+00 0. -1.
</event>
<event>
 7    1  0.2429906E-015  0.9000775E+02  0.7816164E-02  0.1186339E+00
        -11   -1    0    0    0    0  0.00000000000E+00  0.00000000000E+00  0.45593999997E+02  0.45594000000E+02  0.51100000000E-03 0.  1.
         11   -1    0    0    0    0 -0.00000000000E+00 -0.00000000000E+00 -0.45593999997E+02  0.45594000000E+02  0.51100000000E-03 0. -1.
    9900012    2    1    2    0    0 -0.44681617426E+00  0.10897614640E+01 -0.75991946655E-01  0.90007745994E+02  0.90000007441E+02 0.  0.
        -12    1    1    2    0    0  0.44681617426E+00 -0.10897614640E+01  0.75991946655E-01  0.11802540057E+01  0.00000000000E+00 0.  1.
         11    1    3    3    0    0  0.29016350436E+01  0.63068954942E+01 -0.85143300192E+01  0.10985910642E+02  0.51100000000E-03 0. -1.
        -11    1    3    3    0    0  0.17176408665E+02  0.11313878343E+02  0.35638957778E+02  0.41148124739E+02  0.51100000000E-03 0.  1.
         12    1    3    3    0    0 -0.20524859883E+02 -0.16531012373E+02 -0.27200619705E+02  0.37873710613E+02  0.00000000000E+00 0. -1.
</event>
<event>
 7    1  0.2429906E-015  0.9000776E+02  0.7816164E-02  0.1186339E+00
        -11   -1    0    0    0    0  0.00000000000E+00  0.00000000000E+00  0.45593999997E+02  0.45594000000E+02  0.51100000000E-03 0. -1.
         11   -1    0    0    0    0 -0.00000000000E+00 -0.00000000000E+00 -0.45593999997E+02  0.45594000000E+02  0.51100000000E-03 0.  1.
    9900012    2    1    2    0    0  0.78619529120E+00 -0.54643217567E-01  0.87855904845E+00  0.90007764888E+02  0.90000026585E+02 0.  0.
        -12    1    1    2    0    0 -0.78619529120E+00  0.54643217567E-01 -0.87855904845E+00  0.11802351116E+01  0.00000000000E+00 0.  1.
         11    1    3    3    0    0 -0.10436946963E+01  0.11311726093E+01  0.89664284579E+01  0.90975650392E+01  0.51100000000E-03 0. -1.
        -11    1    3    3    0    0 -0.19696385347E+02  0.50397842219E+01 -0.38260378229E+02  0.43326707274E+02  0.51100000000E-03 0.  1.
         12    1    3    3    0    0  0.21526275334E+02 -0.62256000487E+01  0.30172508819E+02  0.37583492575E+02  0.00000000000E+00 0. -1.
</event>
<event>
 7    1  0.2429906E-015  0.9000773E+02  0.7816164E-02  0.1186339E+00
        -11   -1    0    0    0    0  0.00000000000E+00  0.00000000000E+00  0.45593999997E+02  0.45594000000E+02  0.51100000000E-03 0.  1.
         11   -1    0    0    0    0 -0.00000000000E+00 -0.00000000000E+00 -0.45593999997E+02  0.45594000000E+02  0.51100000000E-03 0. -1.
    9900012    2    1    2    0    0 -0.20496519294E+00 -0.30114088322E+00 -0.11226532401E+01  0.90007725939E+02  0.89999987121E+02 0.  0.
        -12    1    1    2    0    0  0.20496519294E+00  0.30114088322E+00  0.11226532401E+01  0.11802740611E+01  0.00000000000E+00 0.  1.
         11    1    3    3    0    0 -0.86051087549E+01 -0.17609206648E+02 -0.36636592080E+02  0.41549632188E+02  0.51100000000E-03 0. -1.
        -11    1    3    3    0    0  0.82099604430E+01  0.33707447318E+01 -0.14141813488E+01  0.89869505212E+01  0.51100000000E-03 0.  1.
        -12    1    3    3    0    0  0.19018311896E+00  0.13937321033E+02  0.36928120189E+02  0.39471143230E+02  0.00000000000E+00 0.  1.
</event>
<event>
 7    1  0.2429906E-015  0.9000693E+02  0.7816164E-02  0.1186341E+00
        -11   -1    0    0    0    0  0.00000000000E+00  0.00000000000E+00  0.45593999997E+02  0.45594000000E+02  0.51100000000E-03 0.  1.
         11   -1    0    0    0    0 -0.00000000000E+00 -0.00000000000E+00 -0.45593999997E+02  0.45594000000E+02  0.51100000000E-03 0. -1.
    9900012    2    1    2    0    0  0.11054950599E+01  0.37909236305E+00  0.17059191056E+00  0.90006927628E+02  0.89999178269E+02 0.  0.
        -12    1    1    2    0    0 -0.11054950599E+01 -0.37909236305E+00 -0.17059191056E+00  0.11810723717E+01  0.00000000000E+00 0.  1.
         11    1    3    3    0    0  0.11395944705E+01 -0.32269695962E+02  0.15424469547E+02  0.35784720400E+02  0.51100000000E-03 0. -1.
        -11    1    3    3    0    0 -0.58533263705E+00  0.21613668513E+01 -0.22719173092E+02  0.22829256388E+02  0.51100000000E-03 0.  1.
        -12    1    3    3    0    0  0.55123322652E+00  0.30487421474E+02  0.74652954562E+01  0.31392950840E+02  0.00000000000E+00 0.  1.
</event>
<event>
 7    1  0.2429906E-015  0.9000776E+02  0.7816164E-02  0.1186339E+00
        -11   -1    0    0    0    0  0.00000000000E+00  0.00000000000E+00  0.45593999997E+02  0.45594000000E+02  0.51100000000E-03 0.  1.
         11   -1    0    0    0    0 -0.00000000000E+00 -0.00000000000E+00 -0.45593999997E+02  0.45594000000E+02  0.51100000000E-03 0. -1.
    9900012    2    1    2    0    0  0.37004626189E+00 -0.11117052828E+01 -0.14190531230E+00  0.90007762740E+02  0.90000024408E+02 0.  0.
        -12    1    1    2    0    0 -0.37004626189E+00  0.11117052828E+01  0.14190531230E+00  0.11802372598E+01  0.00000000000E+00 0.  1.
         11    1    3    3    0    0  0.50699197139E+01  0.39537923581E+01 -0.58268727408E+01  0.86769237702E+01  0.51100000000E-03 0. -1.
        -11    1    3    3    0    0  0.10884893063E+02  0.29955239754E+02  0.22965566122E+02  0.39283769082E+02  0.51100000000E-03 0.  1.
         12    1    3    3    0    0 -0.15584766515E+02 -0.35020737395E+02 -0.17280598693E+02  0.42047069888E+02  0.00000000000E+00 0. -1.
</event>
<event>
 7    1  0.2429906E-015  0.9000777E+02  0.7816164E-02  0.1186339E+00
        -11   -1    0    0    0    0  0.00000000000E+00  0.00000000000E+00  0.45593999997E+02  0.45594000000E+02  0.51100000000E-03 0.  1.
         11   -1    0    0    0    0 -0.00000000000E+00 -0.00000000000E+00 -0.45593999997E+02  0.45594000000E+02  0.51100000000E-03 0. -1.
    9900012    2    1    2    0    0 -0.54774928034E+00 -0.10117247257E+00 -0.10405196074E+01  0.90007768583E+02  0.90000030329E+02 0.  0.
        -12    1    1    2    0    0  0.54774928034E+00  0.10117247257E+00  0.10405196074E+01  0.11802314166E+01  0.00000000000E+00 0.  1.
         11    1    3    3    0    0  0.65849434316E+01  0.82891516105E+01 -0.54022610519E+01  0.11885114183E+02  0.51100000000E-03 0. -1.
        -11    1    3    3    0    0  0.34126329024E+02  0.17240478184E-01  0.10187797314E+02  0.35614573481E+02  0.51100000000E-03 0.  1.
         12    1    3    3    0    0 -0.41259021736E+02 -0.84075645612E+01 -0.58260558695E+01  0.42508080919E+02  0.00000000000E+00 0. -1.
</event>
<event>
 7    1  0.2429906E-015  0.9000779E+02  0.7816164E-02  0.1186339E+00
        -11   -1    0    0    0    0  0.00000000000E+00  0.00000000000E+00  0.45593999997E+02  0.45594000000E+02  0.51100000000E-03 0.  1.
         11   -1    0    0    0    0 -0.00000000000E+00 -0.00000000000E+00 -0.45593999997E+02  0.45594000000E+02  0.51100000000E-03 0. -1.
    9900012    2    1    2    0    0  0.84287369967E+00 -0.45739881133E+00  0.68792314652E+00  0.90007793238E+02  0.90000055308E+02 0.  0.
        -12    1    1    2    0    0 -0.84287369967E+00  0.45739881133E+00 -0.68792314652E+00  0.11802067623E+01  0.00000000000E+00 0.  1.
         11    1    3    3    0    0  0.13518056373E+01 -0.25523120331E+02 -0.35964132691E+02  0.44121150148E+02  0.51100000000E-03 0. -1.
        -11    1    3    3    0    0  0.25779512587E+01  0.18553148966E+01  0.95837536267E+01  0.10096353792E+02  0.51100000000E-03 0.  1.
        -12    1    3    3    0    0 -0.30868831963E+01  0.23210406623E+02  0.27068302211E+02  0.35790289298E+02  0.00000000000E+00 0.  1.
</event>
<event>
 7    1  0.2429906E-015  0.9000766E+02  0.7816164E-02  0.1186339E+00
        -11   -1    0    0    0    0  0.00000000000E+00  0.00000000000E+00  0.45593999997E+02  0.45594000000E+02  0.51100000000E-03 0.  1.
         11   -1    0    0    0    0 -0.00000000000E+00 -0.00000000000E+00 -0.45593999997E+02  0.45594000000E+02  0.51100000000E-03 0. -1.
    9900012    2    1    2    0    0  0.11796878303E+01  0.35755941126E-01  0.15940800458E-01  0.90007662771E+02  0.89999923120E+02 0.  0.
        -12    1    1    2    0    0 -0.11796878303E+01 -0.35755941126E-01 -0.15940800458E-01  0.11803372287E+01  0.00000000000E+00 0.  1.
         11    1    3    3    0    0 -0.15215696318E+01 -0.36481202691E+02 -0.17819428319E+01  0.36556376249E+02  0.51100000000E-03 0. -1.
        -11    1    3    3    0    0 -0.41761278168E+01 -0.72568641170E+01 -0.29719454654E+01  0.88845135187E+01  0.51100000000E-03 0.  1.
        -12    1    3    3    0    0  0.68773852788E+01  0.43773822749E+02  0.47698290977E+01  0.44566773004E+02  0.00000000000E+00 0.  1.
</event>
<event>
 7    1  0.2429906E-015  0.9000779E+02  0.7816164E-02  0.1186339E+00
        -11   -1    0    0    0    0  0.00000000000E+00  0.00000000000E+00  0.45593999997E+02  0.45594000000E+02  0.51100000000E-03 0.  1.
         11   -1    0    0    0    0 -0.00000000000E+00 -0.00000000000E+00 -0.45593999997E+02  0.45594000000E+02  0.51100000000E-03 0. -1.
    9900012    2    1    2    0    0  0.44340270242E+00 -0.10688730747E+01 -0.23196309288E+00  0.90007787103E+02  0.90000049092E+02 0.  0.
        -12    1    1    2    0    0 -0.44340270242E+00  0.10688730747E+01  0.23196309288E+00  0.11802128973E+01  0.00000000000E+00 0.  1.
         11    1    3    3    0    0  0.43385844214E+01 -0.38520232509E+02 -0.16320373194E+02  0.42059317740E+02  0.51100000000E-03 0. -1.
        -11    1    3    3    0    0 -0.79269884485E+01  0.69593968178E+00  0.10298928816E+01  0.80238492952E+01  0.51100000000E-03 0.  1.
        -12    1    3    3    0    0  0.40318067295E+01  0.36755419752E+02  0.15058517219E+02  0.39924620067E+02  0.00000000000E+00 0.  1.
</event>
<event>
 7    1  0.2429906E-015  0.9000763E+02  0.7816164E-02  0.1186339E+00
        -11   -1    0    0    0    0  0.00000000000E+00  0.00000000000E+00  0.45593999997E+02  0.45594000000E+02  0.51100000000E-03 0. -1.
         11   -1    0    0    0    0 -0.00000000000E+00 -0.00000000000E+00 -0.45593999997E+02  0.45594000000E+02  0.51100000000E-03 0.  1.
    9900012    2    1    2    0    0 -0.43522567246E+00  0.78361916173E+00  0.76797839557E+00  0.90007630908E+02  0.89999890836E+02 0.  0.
        -12    1    1    2    0    0  0.43522567246E+00 -0.78361916173E+00 -0.76797839557E+00  0.11803690917E+01  0.00000000000E+00 0.  1.
         11    1    3    3    0    0  0.87018665845E+01  0.16770258113E+02  0.18176266119E+02  0.26217183097E+02  0.51100000000E-03 0. -1.
        -11    1    3    3    0    0  0.17637888653E+02  0.12998179924E+02 -0.61676101097E+01  0.22761529215E+02  0.51100000000E-03 0.  1.
         12    1    3    3    0    0 -0.26774980910E+02 -0.28984818876E+02 -0.11240677614E+02  0.41028918597E+02  0.00000000000E+00 0. -1.
</event>
<event>
 7    1  0.2429906E-015  0.9000774E+02  0.7816164E-02  0.1186339E+00
        -11   -1    0    0    0    0  0.00000000000E+00  0.00000000000E+00  0.45593999997E+02  0.45594000000E+02  0.51100000000E-03 0. -1.
         11   -1    0    0    0    0 -0.00000000000E+00 -0.00000000000E+00 -0.45593999997E+02  0.45594000000E+02  0.51100000000E-03 0.  1.
    9900012    2    1    2    0    0  0.34175474181E+00 -0.10950842153E+01 -0.27748570215E+00  0.90007744071E+02  0.90000005493E+02 0.  0.
        -12    1    1    2    0    0 -0.34175474181E+00  0.10950842153E+01  0.27748570215E+00  0.11802559286E+01  0.00000000000E+00 0.  1.
         11    1    3    3    0    0  0.46104252915E+01 -0.24280304438E+01 -0.10371323106E+02  0.11606709113E+02  0.51100000000E-03 0. -1.
        -11    1    3    3    0    0  0.10431601600E+02  0.23159426858E+02 -0.24261446768E+02  0.35125420480E+02  0.51100000000E-03 0.  1.
         12    1    3    3    0    0 -0.14700272150E+02 -0.21826480629E+02  0.34355284172E+02  0.43275614479E+02  0.00000000000E+00 0. -1.
</event>
<event>
 7    1  0.2429906E-015  0.9000771E+02  0.7816164E-02  0.1186339E+00
        -11   -1    0    0    0    0  0.00000000000E+00  0.00000000000E+00  0.45593999997E+02  0.45594000000E+02  0.51100000000E-03 0.  1.
         11   -1    0    0    0    0 -0.00000000000E+00 -0.00000000000E+00 -0.45593999997E+02  0.45594000000E+02  0.51100000000E-03 0. -1.
    9900012    2    1    2    0    0  0.23228732313E-01  0.96981523484E+00 -0.67231184841E+00  0.90007710042E+02  0.89999971014E+02 0.  0.
        -12    1    1    2    0    0 -0.23228732313E-01 -0.96981523484E+00  0.67231184841E+00  0.11802899581E+01  0.00000000000E+00 0.  1.
         11    1    3    3    0    0  0.74460855889E+01  0.12643882416E+02 -0.36388682611E+02  0.39235802216E+02  0.51100000000E-03 0. -1.
        -11    1    3    3    0    0  0.91220045897E+01 -0.18299179299E+01 -0.95656276214E+00  0.93527846090E+01  0.51100000000E-03 0.  1.
        -12    1    3    3    0    0 -0.16544861446E+02 -0.98441492509E+01  0.36672933524E+02  0.41419123217E+02  0.00000000000E+00 0.  1.
</event>
<event>
 7    1  0.2429906E-015  0.9000775E+02  0.7816164E-02  0.1186339E+00
        -11   -1    0    0    0    0  0.00000000000E+00  0.00000000000E+00  0.45593999997E+02  0.45594000000E+02  0.51100000000E-03 0. -1.
         11   -1    0    0    0    0 -0.00000000000E+00 -0.00000000000E+00 -0.45593999997E+02  0.45594000000E+02  0.51100000000E-03 0.  1.
    9900012    2    1    2    0    0 -0.11349500588E+01 -0.19004955766E+00  0.26221045654E+00  0.90007752232E+02  0.90000013761E+02 0.  0.
        -12    1    1    2    0    0  0.11349500588E+01  0.19004955766E+00 -0.26221045654E+00  0.11802477680E+01  0.00000000000E+00 0.  1.
         11    1    3    3    0    0 -0.29602043258E+02 -0.88648821459E+01  0.27597611204E+02  0.41430607585E+02  0.51100000000E-03 0. -1.
        -11    1    3    3    0    0  0.17920412460E+01  0.89581705480E+01  0.15407467241E+01  0.92646711827E+01  0.51100000000E-03 0.  1.
        -12    1    3    3    0    0  0.26675051953E+02 -0.28333795985E+00 -0.28876147471E+02  0.39312473464E+02  0.00000000000E+00 0.  1.
</event>
<event>
 7    1  0.2429906E-015  0.9000802E+02  0.7816164E-02  0.1186338E+00
        -11   -1    0    0    0    0  0.00000000000E+00  0.00000000000E+00  0.45593999997E+02  0.45594000000E+02  0.51100000000E-03 0.  1.
         11   -1    0    0    0    0 -0.00000000000E+00 -0.00000000000E+00 -0.45593999997E+02  0.45594000000E+02  0.51100000000E-03 0. -1.
    9900012    2    1    2    0    0 -0.71121614494E+00 -0.48771276879E+00  0.80538838172E+00  0.90008024324E+02  0.90000289445E+02 0.  0.
        -12    1    1    2    0    0  0.71121614494E+00  0.48771276879E+00 -0.80538838172E+00  0.11799756756E+01  0.00000000000E+00 0.  1.
         11    1    3    3    0    0  0.94837255373E+01  0.97989280991E+01 -0.33746443210E+02  0.36397561341E+02  0.51100000000E-03 0. -1.
        -11    1    3    3    0    0  0.95673431815E+01  0.27248483015E+01 -0.19243346750E+01  0.10132221771E+02  0.51100000000E-03 0.  1.
        -12    1    3    3    0    0 -0.19762284864E+02 -0.13011489169E+02  0.36476166267E+02  0.43478241213E+02  0.00000000000E+00 0.  1.
</event>
<event>
 7    1  0.2429906E-015  0.9000778E+02  0.7816164E-02  0.1186339E+00
        -11   -1    0    0    0    0  0.00000000000E+00  0.00000000000E+00  0.45593999997E+02  0.45594000000E+02  0.51100000000E-03 0.  1.
         11   -1    0    0    0    0 -0.00000000000E+00 -0.00000000000E+00 -0.45593999997E+02  0.45594000000E+02  0.51100000000E-03 0. -1.
    9900012    2    1    2    0    0  0.43788547424E+00  0.35069847026E-02 -0.10959750804E+01  0.90007780798E+02  0.90000042705E+02 0.  0.
        -12    1    1    2    0    0 -0.43788547424E+00 -0.35069847026E-02  0.10959750804E+01  0.11802192018E+01  0.00000000000E+00 0.  1.
         11    1    3    3    0    0 -0.74253927705E+01 -0.36036440203E+01  0.32217571423E+01  0.88601595565E+01  0.51100000000E-03 0. -1.
        -11    1    3    3    0    0 -0.17707284393E+02 -0.32368229470E+02 -0.21032032826E+01  0.36955022174E+02  0.51100000000E-03 0.  1.
         12    1    3    3    0    0  0.25570562637E+02  0.35975380475E+02 -0.22145289401E+01  0.44192599068E+02  0.00000000000E+00 0. -1.
</event>
<event>
 7    1  0.2429906E-015  0.9000836E+02  0.7816164E-02  0.1186338E+00
        -11   -1    0    0    0    0  0.00000000000E+00  0.00000000000E+00  0.45593999997E+02  0.45594000000E+02  0.51100000000E-03 0.  1.
         11   -1    0    0    0    0 -0.00000000000E+00 -0.00000000000E+00 -0.45593999997E+02  0.45594000000E+02  0.51100000000E-03 0. -1.
    9900012    2    1    2    0    0 -0.45484517385E-01 -0.11474556126E+01 -0.26985826510E+00  0.90008361620E+02  0.90000631191E+02 0.  0.
        -12    1    1    2    0    0  0.45484517385E-01  0.11474556126E+01  0.26985826510E+00  0.11796383799E+01  0.00000000000E+00 0.  1.
         11    1    3    3    0    0  0.91864222983E+01 -0.78115946220E+01 -0.37548679178E+02  0.39437478031E+02  0.51100000000E-03 0. -1.
        -11    1    3    3    0    0  0.44375698584E+01 -0.75593250418E+01  0.43280299030E+00  0.87762600250E+01  0.51100000000E-03 0.  1.
        -12    1    3    3    0    0 -0.13669476674E+02  0.14223464051E+02  0.36846017922E+02  0.41794623564E+02  0.00000000000E+00 0.  1.
</event>
<event>
 7    1  0.2429906E-015  0.9000775E+02  0.7816164E-02  0.1186339E+00
        -11   -1    0    0    0    0  0.00000000000E+00  0.00000000000E+00  0.45593999997E+02  0.45594000000E+02  0.51100000000E-03 0.  1.
         11   -1    0    0    0    0 -0.00000000000E+00 -0.00000000000E+00 -0.45593999997E+02  0.45594000000E+02  0.51100000000E-03 0. -1.
    9900012    2    1    2    0    0  0.11263806422E+01 -0.27753391522E+00  0.21731429870E+00  0.90007752598E+02  0.90000014132E+02 0.  0.
        -12    1    1    2    0    0 -0.11263806422E+01  0.27753391522E+00 -0.21731429870E+00  0.11802474018E+01  0.00000000000E+00 0.  1.
         11    1    3    3    0    0  0.18925672669E+02  0.15150421787E+02 -0.20117582433E+02  0.31502912397E+02  0.51100000000E-03 0. -1.
        -11    1    3    3    0    0  0.36186533495E+01  0.15038896503E+02 -0.11485296504E+01  0.15510711806E+02  0.51100000000E-03 0.  1.
        -12    1    3    3    0    0 -0.21417945376E+02 -0.30466852205E+02  0.21483426382E+02  0.42994128396E+02  0.00000000000E+00 0.  1.
</event>
<event>
 7    1  0.2429906E-015  0.9000775E+02  0.7816164E-02  0.1186339E+00
        -11   -1    0    0    0    0  0.00000000000E+00  0.00000000000E+00  0.45593999997E+02  0.45594000000E+02  0.51100000000E-03 0.  1.
         11   -1    0    0    0    0 -0.00000000000E+00 -0.00000000000E+00 -0.45593999997E+02  0.45594000000E+02  0.51100000000E-03 0. -1.
    9900012    2    1    2    0    0  0.54389099024E+00 -0.79877828250E+00 -0.67759295812E+00  0.90007747328E+02  0.90000008792E+02 0.  0.
        -12    1    1    2    0    0 -0.54389099024E+00  0.79877828250E+00  0.67759295812E+00  0.11802526724E+01  0.00000000000E+00 0.  1.
         11    1    3    3    0    0 -0.24653003418E+02 -0.27515668433E+02  0.12605565883E+02  0.39035661623E+02  0.51100000000E-03 0. -1.
        -11    1    3    3    0    0  0.42221511011E+01 -0.75880714172E+01 -0.46361300732E+01  0.98437335432E+01  0.51100000000E-03 0.  1.
        -12    1    3    3    0    0  0.20974743307E+02  0.34304961568E+02 -0.86470287684E+01  0.41128352161E+02  0.00000000000E+00 0.  1.
</event>
<event>
 7    1  0.2429906E-015  0.9000770E+02  0.7816164E-02  0.1186339E+00
        -11   -1    0    0    0    0  0.00000000000E+00  0.00000000000E+00  0.45593999997E+02  0.45594000000E+02  0.51100000000E-03 0.  1.
         11   -1    0    0    0    0 -0.00000000000E+00 -0.00000000000E+00 -0.45593999997E+02  0.45594000000E+02  0.51100000000E-03 0. -1.
    9900012    2    1    2    0    0 -0.47106741595E+00  0.70830765994E+00  0.81822527485E+00  0.90007704761E+02  0.89999965664E+02 0.  0.
        -12    1    1    2    0    0  0.47106741595E+00 -0.70830765994E+00 -0.81822527485E+00  0.11802952393E+01  0.00000000000E+00 0.  1.
         11    1    3    3    0    0 -0.11606795395E+02  0.94635577829E+01 -0.62979726316E+01  0.16246263718E+02  0.51100000000E-03 0. -1.
        -11    1    3    3    0    0  0.81789214102E+01 -0.40800247643E+01  0.39686143535E+02  0.40725070245E+02  0.51100000000E-03 0.  1.
         12    1    3    3    0    0  0.29568065688E+01 -0.46752253587E+01 -0.32569945629E+02  0.33036370798E+02  0.00000000000E+00 0. -1.
</event>
<event>
 7    1  0.2429906E-015  0.9000771E+02  0.7816164E-02  0.1186339E+00
        -11   -1    0    0    0    0  0.00000000000E+00  0.00000000000E+00  0.45593999997E+02  0.45594000000E+02  0.51100000000E-03 0.  1.
         11   -1    0    0    0    0 -0.00000000000E+00 -0.00000000000E+00 -0.45593999997E+02  0.45594000000E+02  0.51100000000E-03 0. -1.
    9900012    2    1    2    0    0  0.76691204798E+00 -0.79410228567E+00 -0.41752864205E+00  0.90007710757E+02  0.89999971739E+02 0.  0.
        -12    1    1    2    0    0 -0.76691204798E+00  0.79410228567E+00  0.41752864205E+00  0.11802892427E+01  0.00000000000E+00 0.  1.
         11    1    3    3    0    0 -0.84908838605E+01 -0.52143418945E+01 -0.16991564647E+01  0.10107996986E+02  0.51100000000E-03 0. -1.
        -11    1    3    3    0    0 -0.27130825425E+02 -0.20871258515E+02  0.78020802719E+01  0.35107884828E+02  0.51100000000E-03 0.  1.
         12    1    3    3    0    0  0.36388621334E+02  0.25291498124E+02 -0.65204524493E+01  0.44791828943E+02  0.00000000000E+00 0. -1.
</event>
<event>
 7    1  0.2429906E-015  0.9000777E+02  0.7816164E-02  0.1186339E+00
        -11   -1    0    0    0    0  0.00000000000E+00  0.00000000000E+00  0.45593999997E+02  0.45594000000E+02  0.51100000000E-03 0. -1.
         11   -1    0    0    0    0 -0.00000000000E+00 -0.00000000000E+00 -0.45593999997E+02  0.45594000000E+02  0.51100000000E-03 0.  1.
    9900012    2    1    2    0    0  0.13264368942E+00 -0.44763428716E+00  0.10839656441E+01  0.90007765989E+02  0.90000027700E+02 0.  0.
        -12    1    1    2    0    0 -0.13264368942E+00  0.44763428716E+00 -0.10839656441E+01  0.11802340111E+01  0.00000000000E+00 0.  1.
         11    1    3    3    0    0 -0.28087538534E+01 -0.75820223994E+01  0.13922336712E+02  0.16099926138E+02  0.51100000000E-03 0. -1.
        -11    1    3    3    0    0 -0.16283868629E+02 -0.90807553256E+01 -0.35471411155E+02  0.40073002188E+02  0.51100000000E-03 0.  1.
         12    1    3    3    0    0  0.19225266171E+02  0.16215143438E+02  0.22633040087E+02  0.33834837663E+02  0.00000000000E+00 0. -1.
</event>
<event>
 7    1  0.2429906E-015  0.9000781E+02  0.7816164E-02  0.1186339E+00
        -11   -1    0    0    0    0  0.00000000000E+00  0.00000000000E+00  0.45593999997E+02  0.45594000000E+02  0.51100000000E-03 0. -1.
         11   -1    0    0    0    0 -0.00000000000E+00 -0.00000000000E+00 -0.45593999997E+02  0.45594000000E+02  0.51100000000E-03 0.  1.
    9900012    2    1    2    0    0  0.80140606782E+00 -0.80007642089E+00  0.33238660661E+00  0.90007807295E+02  0.90000069551E+02 0.  0.
        -12    1    1    2    0    0 -0.80140606782E+00  0.80007642089E+00 -0.33238660661E+00  0.11801927051E+01  0.00000000000E+00 0.  1.
         11    1    3    3    0    0  0.12729258673E+02 -0.29405365636E+02  0.15411007391E+02  0.35555712672E+02  0.51100000000E-03 0. -1.
        -11    1    3    3    0    0  0.53921682208E+01 -0.86632263166E+01 -0.74966136615E+01  0.12661997670E+02  0.51100000000E-03 0.  1.
        -12    1    3    3    0    0 -0.17320020826E+02  0.37268515532E+02 -0.75820071225E+01  0.41790096953E+02  0.00000000000E+00 0.  1.
</event>
<event>
 7    1  0.2429906E-015  0.9000771E+02  0.7816164E-02  0.1186339E+00
        -11   -1    0    0    0    0  0.00000000000E+00  0.00000000000E+00  0.45593999997E+02  0.45594000000E+02  0.51100000000E-03 0. -1.
         11   -1    0    0    0    0 -0.00000000000E+00 -0.00000000000E+00 -0.45593999997E+02  0.45594000000E+02  0.51100000000E-03 0.  1.
    9900012    2    1    2    0    0  0.54376431683E-01  0.14182694387E+00  0.11704773077E+01  0.90007708169E+02  0.89999969117E+02 0.  0.
        -12    1    1    2    0    0 -0.54376431683E-01 -0.14182694387E+00 -0.11704773077E+01  0.11802918309E+01  0.00000000000E+00 0.  1.
         11    1    3    3    0    0 -0.61252773051E+01  0.41179866412E+01  0.74771935287E+01  0.10506438948E+02  0.51100000000E-03 0. -1.
        -11    1    3    3    0    0 -0.11199132306E+02  0.34846912273E+02 -0.50347163104E+01  0.36946938005E+02  0.51100000000E-03 0.  1.
         12    1    3    3    0    0  0.17378786043E+02 -0.38823071970E+02 -0.12719999106E+01  0.42554331216E+02  0.00000000000E+00 0. -1.
</event>
<event>
 7    1  0.2429906E-015  0.9000771E+02  0.7816164E-02  0.1186339E+00
        -11   -1    0    0    0    0  0.00000000000E+00  0.00000000000E+00  0.45593999997E+02  0.45594000000E+02  0.51100000000E-03 0.  1.
         11   -1    0    0    0    0 -0.00000000000E+00 -0.00000000000E+00 -0.45593999997E+02  0.45594000000E+02  0.51100000000E-03 0. -1.
    9900012    2    1    2    0    0 -0.34380032989E+00 -0.85492421375E+00 -0.73755177187E+00  0.90007713300E+02  0.89999974316E+02 0.  0.
        -12    1    1    2    0    0  0.34380032989E+00  0.85492421375E+00  0.73755177187E+00  0.11802867000E+01  0.00000000000E+00 0.  1.
         11    1    3    3    0    0 -0.30694133800E+02  0.17409036528E+02 -0.99398200218E+01  0.36660665909E+02  0.51100000000E-03 0. -1.
        -11    1    3    3    0    0 -0.45458937900E+01  0.74367764392E+01 -0.11419063455E+01  0.87906054694E+01  0.51100000000E-03 0.  1.
        -12    1    3    3    0    0  0.34896227260E+02 -0.25700737181E+02  0.10344174595E+02  0.44556441921E+02  0.00000000000E+00 0.  1.
</event>
<event>
 7    1  0.2429906E-015  0.9000773E+02  0.7816164E-02  0.1186339E+00
        -11   -1    0    0    0    0  0.00000000000E+00  0.00000000000E+00  0.45593999997E+02  0.45594000000E+02  0.51100000000E-03 0. -1.
         11   -1    0    0    0    0 -0.00000000000E+00 -0.00000000000E+00 -0.45593999997E+02  0.45594000000E+02  0.51100000000E-03 0.  1.
    9900012    2    1    2    0    0 -0.11010970403E+01  0.35552725739E+00  0.23286624121E+00  0.90007728417E+02  0.89999989632E+02 0.  0.
        -12    1    1    2    0    0  0.11010970403E+01 -0.35552725739E+00 -0.23286624121E+00  0.11802715828E+01  0.00000000000E+00 0.  1.
         11    1    3    3    0    0  0.81990365460E+01 -0.26116684979E+02  0.29377455435E+02  0.40153957746E+02  0.51100000000E-03 0. -1.
        -11    1    3    3    0    0 -0.74505855621E+01 -0.48927097386E+01 -0.49294015733E+01  0.10185717154E+02  0.51100000000E-03 0.  1.
        -12    1    3    3    0    0 -0.18495480242E+01  0.31364921975E+02 -0.24215187620E+02  0.39668053518E+02  0.00000000000E+00 0.  1.
</event>
<event>
 7    1  0.2429906E-015  0.9000779E+02  0.7816164E-02  0.1186339E+00
        -11   -1    0    0    0    0  0.00000000000E+00  0.00000000000E+00  0.45593999997E+02  0.45594000000E+02  0.51100000000E-03 0.  1.
         11   -1    0    0    0    0 -0.00000000000E+00 -0.00000000000E+00 -0.45593999997E+02  0.45594000000E+02  0.51100000000E-03 0. -1.
    9900012    2    1    2    0    0 -0.50900870516E+00 -0.23286901635E+00 -0.10390263047E+01  0.90007790907E+02  0.90000052947E+02 0.  0.
        -12    1    1    2    0    0  0.50900870516E+00  0.23286901635E+00  0.10390263047E+01  0.11802090928E+01  0.00000000000E+00 0.  1.
         11    1    3    3    0    0  0.62459959444E+01 -0.10709691966E+02 -0.37595209844E+02  0.39586737310E+02  0.51100000000E-03 0. -1.
        -11    1    3    3    0    0 -0.79606513952E+01  0.35157957504E+01 -0.37676520008E+01  0.94830370797E+01  0.51100000000E-03 0.  1.
        -12    1    3    3    0    0  0.12056467456E+01  0.69610271992E+01  0.40323835540E+02  0.40938016518E+02  0.00000000000E+00 0.  1.
</event>
<event>
 7    1  0.2429906E-015  0.9000767E+02  0.7816164E-02  0.1186339E+00
        -11   -1    0    0    0    0  0.00000000000E+00  0.00000000000E+00  0.45593999997E+02  0.45594000000E+02  0.51100000000E-03 0. -1.
         11   -1    0    0    0    0 -0.00000000000E+00 -0.00000000000E+00 -0.45593999997E+02  0.45594000000E+02  0.51100000000E-03 0.  1.
    9900012    2    1    2    0    0 -0.13457441908E+00  0.51567553495E+00  0.10531604398E+01  0.90007670197E+02  0.89999930644E+02 0.  0.
        -12    1    1    2    0    0  0.13457441908E+00 -0.51567553495E+00 -0.10531604398E+01  0.11803298029E+01  0.00000000000E+00 0.  1.
         11    1    3    3    0    0  0.27904200822E+02  0.17302560551E+02  0.12385654749E+02  0.35091700856E+02  0.51100000000E-03 0. -1.
        -11    1    3    3    0    0  0.93006465587E+01  0.38814916886E+01 -0.64362858342E+01  0.11958000658E+02  0.51100000000E-03 0.  1.
        -12    1    3    3    0    0 -0.37339421800E+02 -0.20668376705E+02 -0.48962084748E+01  0.42957968683E+02  0.00000000000E+00 0.  1.
</event>
<event>
 7    1  0.2429906E-015  0.9000776E+02  0.7816164E-02  0.1186339E+00
        -11   -1    0    0    0    0  0.00000000000E+00  0.00000000000E+00  0.45593999997E+02  0.45594000000E+02  0.51100000000E-03 0.  1.
         11   -1    0    0    0    0 -0.00000000000E+00 -0.00000000000E+00 -0.45593999997E+02  0.45594000000E+02  0.51100000000E-03 0. -1.
    9900012    2    1    2    0    0  0.56190716390E+00 -0.52947872054E+00 -0.89267941609E+00  0.90007761077E+02  0.90000022723E+02 0.  0.
        -12    1    1    2    0    0 -0.56190716390E+00  0.52947872054E+00  0.89267941609E+00  0.11802389234E+01  0.00000000000E+00 0.  1.
         11    1    3    3    0    0  0.91092377946E+01  0.21444170316E+02 -0.29501389694E+02  0.37592055648E+02  0.51100000000E-03 0. -1.
        -11    1    3    3    0    0  0.50278281568E+01  0.56340189368E+01 -0.31658126038E+01  0.81880153309E+01  0.51100000000E-03 0.  1.
        -12    1    3    3    0    0 -0.13575158788E+02 -0.27607667973E+02  0.31774522882E+02  0.44227690098E+02  0.00000000000E+00 0.  1.
</event>
<event>
 7    1  0.2429906E-015  0.9000773E+02  0.7816164E-02  0.1186339E+00
        -11   -1    0    0    0    0  0.00000000000E+00  0.00000000000E+00  0.45593999997E+02  0.45594000000E+02  0.51100000000E-03 0.  1.
         11   -1    0    0    0    0 -0.00000000000E+00 -0.00000000000E+00 -0.45593999997E+02  0.45594000000E+02  0.51100000000E-03 0. -1.
    9900012    2    1    2    0    0 -0.38939830290E+00  0.10699464801E+01  0.31083743855E+00  0.90007730361E+02  0.89999991601E+02 0.  0.
        -12    1    1    2    0    0  0.38939830290E+00 -0.10699464801E+01 -0.31083743855E+00  0.11802696394E+01  0.00000000000E+00 0.  1.
         11    1    3    3    0    0 -0.80130335256E+01  0.13565235479E+01  0.53966150508E+01  0.97556299994E+01  0.51100000000E-03 0. -1.
        -11    1    3    3    0    0 -0.26542388286E+02  0.67668723323E+01 -0.27477177115E+02  0.38797992211E+02  0.51100000000E-03 0.  1.
         12    1    3    3    0    0  0.34166023509E+02 -0.70534494002E+01  0.22391399503E+02  0.41454108151E+02  0.00000000000E+00 0. -1.
</event>
<event>
 7    1  0.2429906E-015  0.9000772E+02  0.7816164E-02  0.1186339E+00
        -11   -1    0    0    0    0  0.00000000000E+00  0.00000000000E+00  0.45593999997E+02  0.45594000000E+02  0.51100000000E-03 0. -1.
         11   -1    0    0    0    0 -0.00000000000E+00 -0.00000000000E+00 -0.45593999997E+02  0.45594000000E+02  0.51100000000E-03 0.  1.
    9900012    2    1    2    0    0  0.43034454844E+00 -0.83294259565E+00  0.71699359045E+00  0.90007716302E+02  0.89999977358E+02 0.  0.
        -12    1    1    2    0    0 -0.43034454844E+00  0.83294259565E+00 -0.71699359045E+00  0.11802836976E+01  0.00000000000E+00 0.  1.
         11    1    3    3    0    0 -0.35980923271E+01 -0.37332132679E+01 -0.51433390291E+01  0.73032243788E+01  0.51100000000E-03 0. -1.
        -11    1    3    3    0    0 -0.27831998551E+02 -0.17812904206E+02 -0.18201651121E+02  0.37725585527E+02  0.51100000000E-03 0.  1.
         12    1    3    3    0    0  0.31860435426E+02  0.20713174878E+02  0.24061983740E+02  0.44978906396E+02  0.00000000000E+00 0. -1.
</event>
<event>
 7    1  0.2429906E-015  0.9000777E+02  0.7816164E-02  0.1186339E+00
        -11   -1    0    0    0    0  0.00000000000E+00  0.00000000000E+00  0.45593999997E+02  0.45594000000E+02  0.51100000000E-03 0. -1.
         11   -1    0    0    0    0 -0.00000000000E+00 -0.00000000000E+00 -0.45593999997E+02  0.45594000000E+02  0.51100000000E-03 0.  1.
    9900012    2    1    2    0    0  0.69633965145E+00  0.92734163686E+00  0.21929681062E+00  0.90007770144E+02  0.90000031910E+02 0.  0.
        -12    1    1    2    0    0 -0.69633965145E+00 -0.92734163686E+00 -0.21929681062E+00  0.11802298559E+01  0.00000000000E+00 0.  1.
         11    1    3    3    0    0  0.29046255305E+01 -0.30971450428E+01  0.88927001295E+01  0.98544037233E+01  0.51100000000E-03 0. -1.
        -11    1    3    3    0    0  0.28187704031E+02  0.28610274905E+02 -0.26173196440E+00  0.40164200385E+02  0.51100000000E-03 0.  1.
         12    1    3    3    0    0 -0.30395989910E+02 -0.24585788225E+02 -0.84116713544E+01  0.39989166036E+02  0.00000000000E+00 0. -1.
</event>
<event>
 7    1  0.2535490E-015  0.9000764E+02  0.7816164E-02  0.1186339E+00
        -11   -1    0    0    0    0  0.00000000000E+00  0.00000000000E+00  0.45593999997E+02  0.45594000000E+02  0.51100000000E-03 0. -1.
         11   -1    0    0    0    0 -0.00000000000E+00 -0.00000000000E+00 -0.45593999997E+02  0.45594000000E+02  0.51100000000E-03 0.  1.
    9900012    2    1    2    0    0  0.41498084903E+00 -0.27397651123E+00  0.10705061817E+01  0.90007637463E+02  0.89999897477E+02 0.  0.
        -12    1    1    2    0    0 -0.41498084903E+00  0.27397651123E+00 -0.10705061817E+01  0.11803625371E+01  0.00000000000E+00 0.  1.
         11    1    3    3    0    0  0.29134771278E+01 -0.15041432123E+02  0.42428722555E+02  0.45110193163E+02  0.51100000000E-03 0. -1.
        -11    1    3    3    0    0 -0.23137542151E+01  0.58568372153E+01 -0.70611723158E+01  0.94612977688E+01  0.51100000000E-03 0.  1.
        -12    1    3    3    0    0 -0.18474206366E+00  0.89106183969E+01 -0.34297044058E+02  0.35436146531E+02  0.00000000000E+00 0.  1.
</event>
<event>
 7    1  0.2429906E-015  0.9000780E+02  0.7816164E-02  0.1186339E+00
        -11   -1    0    0    0    0  0.00000000000E+00  0.00000000000E+00  0.45593999997E+02  0.45594000000E+02  0.51100000000E-03 0. -1.
         11   -1    0    0    0    0 -0.00000000000E+00 -0.00000000000E+00 -0.45593999997E+02  0.45594000000E+02  0.51100000000E-03 0.  1.
    9900012    2    1    2    0    0  0.96417766951E+00  0.44005365832E+00 -0.51922037449E+00  0.90007798493E+02  0.90000060633E+02 0.  0.
        -12    1    1    2    0    0 -0.96417766951E+00 -0.44005365832E+00  0.51922037449E+00  0.11802015073E+01  0.00000000000E+00 0.  1.
         11    1    3    3    0    0 -0.68852360851E+00  0.13390472873E+02  0.37461690028E+01  0.13921659778E+02  0.51100000000E-03 0. -1.
        -11    1    3    3    0    0  0.77007065863E+01  0.21583097371E+02 -0.26140031916E+02  0.34762512033E+02  0.51100000000E-03 0.  1.
         12    1    3    3    0    0 -0.60480053083E+01 -0.34533516585E+02  0.21874642538E+02  0.41323626682E+02  0.00000000000E+00 0. -1.
</event>
<event>
 7    1  0.2429906E-015  0.9000770E+02  0.7816164E-02  0.1186339E+00
        -11   -1    0    0    0    0  0.00000000000E+00  0.00000000000E+00  0.45593999997E+02  0.45594000000E+02  0.51100000000E-03 0. -1.
         11   -1    0    0    0    0 -0.00000000000E+00 -0.00000000000E+00 -0.45593999997E+02  0.45594000000E+02  0.51100000000E-03 0.  1.
    9900012    2    1    2    0    0 -0.78565755574E+00  0.87607226428E+00  0.91337310394E-01  0.90007702194E+02  0.89999963063E+02 0.  0.
        -12    1    1    2    0    0  0.78565755574E+00 -0.87607226428E+00 -0.91337310394E-01  0.11802978062E+01  0.00000000000E+00 0.  1.
         11    1    3    3    0    0 -0.87756967595E+01 -0.52295596103E+00 -0.57710795677E+01  0.10516258659E+02  0.51100000000E-03 0. -1.
        -11    1    3    3    0    0 -0.29152554180E+02  0.99048280988E+01 -0.16883654435E+02  0.35114595573E+02  0.51100000000E-03 0.  1.
         12    1    3    3    0    0  0.37142593384E+02 -0.85057998735E+01  0.22746071313E+02  0.44376847961E+02  0.00000000000E+00 0. -1.
</event>
<event>
 7    1  0.2429906E-015  0.9000784E+02  0.7816164E-02  0.1186339E+00
        -11   -1    0    0    0    0  0.00000000000E+00  0.00000000000E+00  0.45593999997E+02  0.45594000000E+02  0.51100000000E-03 0. -1.
         11   -1    0    0    0    0 -0.00000000000E+00 -0.00000000000E+00 -0.45593999997E+02  0.45594000000E+02  0.51100000000E-03 0.  1.
    9900012    2    1    2    0    0 -0.70744295681E+00 -0.45493403800E+00  0.82785740852E+00  0.90007835433E+02  0.90000098061E+02 0.  0.
        -12    1    1    2    0    0  0.70744295681E+00  0.45493403800E+00 -0.82785740852E+00  0.11801645669E+01  0.00000000000E+00 0.  1.
         11    1    3    3    0    0  0.12572024618E+02 -0.33428322574E+02  0.65987180272E+01  0.36318750432E+02  0.51100000000E-03 0. -1.
        -11    1    3    3    0    0 -0.36848801334E+01  0.51810180531E+01  0.15926133074E+02  0.17148265353E+02  0.51100000000E-03 0.  1.
        -12    1    3    3    0    0 -0.95945874412E+01  0.27792370483E+02 -0.21696993693E+02  0.36540819648E+02  0.00000000000E+00 0.  1.
</event>
<event>
 7    1  0.2429906E-015  0.9000683E+02  0.7816164E-02  0.1186341E+00
        -11   -1    0    0    0    0  0.00000000000E+00  0.00000000000E+00  0.45593999997E+02  0.45594000000E+02  0.51100000000E-03 0.  1.
         11   -1    0    0    0    0 -0.00000000000E+00 -0.00000000000E+00 -0.45593999997E+02  0.45594000000E+02  0.51100000000E-03 0. -1.
    9900012    2    1    2    0    0 -0.30910804349E+00  0.11377084598E+01  0.72368902605E-01  0.90006828725E+02  0.89999078060E+02 0.  0.
        -12    1    1    2    0    0  0.30910804349E+00 -0.11377084598E+01 -0.72368902605E-01  0.11811712747E+01  0.00000000000E+00 0.  1.
         11    1    3    3    0    0  0.19578832195E+00  0.10246086539E+02 -0.22293771834E+01  0.10487647273E+02  0.51100000000E-03 0. -1.
        -11    1    3    3    0    0 -0.30756314059E+02 -0.19205594447E+02  0.21635553152E+02  0.42224434550E+02  0.51100000000E-03 0.  1.
         12    1    3    3    0    0  0.30251417694E+02  0.10097216368E+02 -0.19333807066E+02  0.37294746903E+02  0.00000000000E+00 0. -1.
</event>
<event>
 7    1  0.2429906E-015  0.9000775E+02  0.7816164E-02  0.1186339E+00
        -11   -1    0    0    0    0  0.00000000000E+00  0.00000000000E+00  0.45593999997E+02  0.45594000000E+02  0.51100000000E-03 0.  1.
         11   -1    0    0    0    0 -0.00000000000E+00 -0.00000000000E+00 -0.45593999997E+02  0.45594000000E+02  0.51100000000E-03 0. -1.
    9900012    2    1    2    0    0  0.50543460415E+00  0.88244298341E+00 -0.59902416980E+00  0.90007745911E+02  0.90000007357E+02 0.  0.
        -12    1    1    2    0    0 -0.50543460415E+00 -0.88244298341E+00  0.59902416980E+00  0.11802540888E+01  0.00000000000E+00 0.  1.
         11    1    3    3    0    0 -0.53707382124E+01 -0.62024554363E+01 -0.58927581906E+01  0.10101479186E+02  0.51100000000E-03 0. -1.
        -11    1    3    3    0    0 -0.25418468850E+02 -0.19921152118E+02  0.17597219404E+02  0.36777887261E+02  0.51100000000E-03 0.  1.
         12    1    3    3    0    0  0.31294641666E+02  0.27006050537E+02 -0.12303485383E+02  0.43128379464E+02  0.00000000000E+00 0. -1.
</event>
<event>
 7    1  0.2429906E-015  0.9000771E+02  0.7816164E-02  0.1186339E+00
        -11   -1    0    0    0    0  0.00000000000E+00  0.00000000000E+00  0.45593999997E+02  0.45594000000E+02  0.51100000000E-03 0.  1.
         11   -1    0    0    0    0 -0.00000000000E+00 -0.00000000000E+00 -0.45593999997E+02  0.45594000000E+02  0.51100000000E-03 0. -1.
    9900012    2    1    2    0    0  0.12795042360E+00 -0.11044376492E+01 -0.39613673447E+00  0.90007712686E+02  0.89999973693E+02 0.  0.
        -12    1    1    2    0    0 -0.12795042360E+00  0.11044376492E+01  0.39613673447E+00  0.11802873143E+01  0.00000000000E+00 0.  1.
         11    1    3    3    0    0 -0.30771447553E+01  0.75768571495E+01  0.76100561396E+00  0.82132036328E+01  0.51100000000E-03 0. -1.
        -11    1    3    3    0    0 -0.93572719735E+01 -0.42649698503E+02 -0.93697209337E+01  0.44658112274E+02  0.51100000000E-03 0.  1.
         12    1    3    3    0    0  0.12562367152E+02  0.33968403705E+02  0.82125785853E+01  0.37136396779E+02  0.00000000000E+00 0. -1.
</event>
<event>
 7    1  0.2485816E-015  0.9000740E+02  0.7816164E-02  0.1186340E+00
        -11   -1    0    0    0    0  0.00000000000E+00  0.00000000000E+00  0.45593999997E+02  0.45594000000E+02  0.51100000000E-03 0. -1.
         11   -1    0    0    0    0 -0.00000000000E+00 -0.00000000000E+00 -0.45593999997E+02  0.45594000000E+02  0.51100000000E-03 0.  1.
    9900012    2    1    2    0    0 -0.22560822571E+00  0.53312196610E-01  0.11576146875E+01  0.90007401412E+02  0.89999658310E+02 0.  0.
        -12    1    1    2    0    0  0.22560822571E+00 -0.53312196610E-01 -0.11576146875E+01  0.11805985883E+01  0.00000000000E+00 0.  1.
         11    1    3    3    0    0  0.96824012553E+01  0.22845846130E+02  0.31009303735E+02  0.39714713871E+02  0.51100000000E-03 0. -1.
        -11    1    3    3    0    0  0.89496298730E+01  0.55496129071E+00 -0.16655546953E+01  0.91201935068E+01  0.51100000000E-03 0.  1.
        -12    1    3    3    0    0 -0.18857639354E+02 -0.23347495224E+02 -0.28186134352E+02  0.41172494034E+02  0.00000000000E+00 0.  1.
</event>
<event>
 7    1  0.2429906E-015  0.9000742E+02  0.7816164E-02  0.1186340E+00
        -11   -1    0    0    0    0  0.00000000000E+00  0.00000000000E+00  0.45593999997E+02  0.45594000000E+02  0.51100000000E-03 0.  1.
         11   -1    0    0    0    0 -0.00000000000E+00 -0.00000000000E+00 -0.45593999997E+02  0.45594000000E+02  0.51100000000E-03 0. -1.
    9900012    2    1    2    0    0  0.11230236211E+01 -0.23437141397E+00  0.27865228457E+00  0.90007424247E+02  0.89999681446E+02 0.  0.
        -12    1    1    2    0    0 -0.11230236211E+01  0.23437141397E+00 -0.27865228457E+00  0.11805757531E+01  0.00000000000E+00 0.  1.
         11    1    3    3    0    0 -0.43787085196E+01 -0.28553013621E+01  0.86529605665E+01  0.10109379852E+02  0.51100000000E-03 0. -1.
        -11    1    3    3    0    0  0.42335390819E+02  0.10466025735E+01 -0.13647530456E+01  0.42370310878E+02  0.51100000000E-03 0.  1.
         12    1    3    3    0    0 -0.36833658678E+02  0.15743273747E+01 -0.70095552363E+01  0.37527733517E+02  0.00000000000E+00 0. -1.
</event>
<event>
 7    1  0.2429906E-015  0.9000774E+02  0.7816164E-02  0.1186339E+00
        -11   -1    0    0    0    0  0.00000000000E+00  0.00000000000E+00  0.45593999997E+02  0.45594000000E+02  0.51100000000E-03 0.  1.
         11   -1    0    0    0    0 -0.00000000000E+00 -0.00000000000E+00 -0.45593999997E+02  0.45594000000E+02  0.51100000000E-03 0. -1.
    9900012    2    1    2    0    0 -0.11785967158E+00  0.10026467477E+01 -0.61140229935E+00  0.90007744022E+02  0.90000005443E+02 0.  0.
        -12    1    1    2    0    0  0.11785967158E+00 -0.10026467477E+01  0.61140229935E+00  0.11802559784E+01  0.00000000000E+00 0.  1.
         11    1    3    3    0    0  0.35346191803E+01  0.71794561233E+01  0.33636876477E+01  0.86805828047E+01  0.51100000000E-03 0. -1.
        -11    1    3    3    0    0  0.34906499418E+02  0.12663703944E+02  0.50448719389E+01  0.37473775261E+02  0.51100000000E-03 0.  1.
         12    1    3    3    0    0 -0.38558978270E+02 -0.18840513320E+02 -0.90199618859E+01  0.43853385956E+02  0.00000000000E+00 0. -1.
</event>
<event>
 7    1  0.2429906E-015  0.9000777E+02  0.7816164E-02  0.1186339E+00
        -11   -1    0    0    0    0  0.00000000000E+00  0.00000000000E+00  0.45593999997E+02  0.45594000000E+02  0.51100000000E-03 0.  1.
         11   -1    0    0    0    0 -0.00000000000E+00 -0.00000000000E+00 -0.45593999997E+02  0.45594000000E+02  0.51100000000E-03 0. -1.
    9900012    2    1    2    0    0 -0.23680734023E+00 -0.10852434018E+01  0.39887686982E+00  0.90007773871E+02  0.90000035686E+02 0.  0.
        -12    1    1    2    0    0  0.23680734023E+00  0.10852434018E+01 -0.39887686982E+00  0.11802261286E+01  0.00000000000E+00 0.  1.
         11    1    3    3    0    0  0.10967953971E+02 -0.16024254021E+01  0.14708101767E+01  0.11181550175E+02  0.51100000000E-03 0. -1.
        -11    1    3    3    0    0 -0.33270627247E+02  0.21244301522E+02  0.17639272577E+02  0.43236546137E+02  0.51100000000E-03 0.  1.
         12    1    3    3    0    0  0.22065865935E+02 -0.20727119521E+02 -0.18711205884E+02  0.35589677559E+02  0.00000000000E+00 0. -1.
</event>
<event>
 7    1  0.2429906E-015  0.9000739E+02  0.7816164E-02  0.1186340E+00
        -11   -1    0    0    0    0  0.00000000000E+00  0.00000000000E+00  0.45593999997E+02  0.45594000000E+02  0.51100000000E-03 0. -1.
         11   -1    0    0    0    0 -0.00000000000E+00 -0.00000000000E+00 -0.45593999997E+02  0.45594000000E+02  0.51100000000E-03 0.  1.
    9900012    2    1    2    0    0  0.70476077693E+00  0.89833384985E+00  0.30026287566E+00  0.90007386069E+02  0.89999642765E+02 0.  0.
        -12    1    1    2    0    0 -0.70476077693E+00 -0.89833384985E+00 -0.30026287566E+00  0.11806139305E+01  0.00000000000E+00 0.  1.
         11    1    3    3    0    0 -0.32041921745E+02  0.83671918240E+01  0.29132366818E+02  0.44106569180E+02  0.51100000000E-03 0. -1.
        -11    1    3    3    0    0  0.99014942386E+01 -0.19275185931E+00 -0.23514550768E+01  0.10178707318E+02  0.51100000000E-03 0.  1.
        -12    1    3    3    0    0  0.22845188284E+02 -0.72761061149E+01 -0.26480648865E+02  0.35722109571E+02  0.00000000000E+00 0.  1.
</event>
<event>
 7    1  0.2429906E-015  0.9000778E+02  0.7816164E-02  0.1186339E+00
        -11   -1    0    0    0    0  0.00000000000E+00  0.00000000000E+00  0.45593999997E+02  0.45594000000E+02  0.51100000000E-03 0.  1.
         11   -1    0    0    0    0 -0.00000000000E+00 -0.00000000000E+00 -0.45593999997E+02  0.45594000000E+02  0.51100000000E-03 0. -1.
    9900012    2    1    2    0    0  0.95789160934E+00 -0.28524323952E+00  0.62769300385E+00  0.90007780297E+02  0.90000042197E+02 0.  0.
        -12    1    1    2    0    0 -0.95789160934E+00  0.28524323952E+00 -0.62769300385E+00  0.11802197033E+01  0.00000000000E+00 0.  1.
         11    1    3    3    0    0 -0.19613629337E+01  0.99878376622E+01  0.18389422409E+01  0.10343382162E+02  0.51100000000E-03 0. -1.
        -11    1    3    3    0    0 -0.21368415910E+01  0.75215586633E+00  0.38282793131E+02  0.38349759851E+02  0.51100000000E-03 0.  1.
         12    1    3    3    0    0  0.50560961340E+01 -0.11025236768E+02 -0.39494042368E+02  0.41314638284E+02  0.00000000000E+00 0. -1.
</event>
<event>
 7    1  0.2429906E-015  0.9000771E+02  0.7816164E-02  0.1186339E+00
        -11   -1    0    0    0    0  0.00000000000E+00  0.00000000000E+00  0.45593999997E+02  0.45594000000E+02  0.51100000000E-03 0. -1.
         11   -1    0    0    0    0 -0.00000000000E+00 -0.00000000000E+00 -0.45593999997E+02  0.45594000000E+02  0.51100000000E-03 0.  1.
    9900012    2    1    2    0    0  0.96798703923E+00 -0.22780400572E+00 -0.63575240144E+00  0.90007714149E+02  0.89999975176E+02 0.  0.
        -12    1    1    2    0    0 -0.96798703923E+00  0.22780400572E+00  0.63575240144E+00  0.11802858506E+01  0.00000000000E+00 0.  1.
         11    1    3    3    0    0 -0.29695767144E+02 -0.19842912669E+02 -0.82486309576E+01  0.36655418186E+02  0.51100000000E-03 0. -1.
        -11    1    3    3    0    0 -0.70809590017E+01  0.49815506367E+01 -0.61220814914E+01  0.10603570586E+02  0.51100000000E-03 0.  1.
        -12    1    3    3    0    0  0.37744713185E+02  0.14633558026E+02  0.13734960048E+02  0.42748725378E+02  0.00000000000E+00 0.  1.
</event>
<event>
 7    1  0.2429906E-015  0.9000775E+02  0.7816164E-02  0.1186339E+00
        -11   -1    0    0    0    0  0.00000000000E+00  0.00000000000E+00  0.45593999997E+02  0.45594000000E+02  0.51100000000E-03 0. -1.
         11   -1    0    0    0    0 -0.00000000000E+00 -0.00000000000E+00 -0.45593999997E+02  0.45594000000E+02  0.51100000000E-03 0.  1.
    9900012    2    1    2    0    0  0.52189181867E+00  0.28748517769E-02  0.10585894186E+01  0.90007749648E+02  0.90000011144E+02 0.  0.
        -12    1    1    2    0    0 -0.52189181867E+00 -0.28748517769E-02 -0.10585894186E+01  0.11802503516E+01  0.00000000000E+00 0.  1.
         11    1    3    3    0    0 -0.93324461122E+01  0.48088112843E+00 -0.41208137197E+00  0.93539087239E+01  0.51100000000E-03 0. -1.
        -11    1    3    3    0    0 -0.14925288441E+02 -0.21533472117E+02 -0.26862959390E+02  0.37524302044E+02  0.51100000000E-03 0.  1.
         12    1    3    3    0    0  0.24779626372E+02  0.21055465840E+02  0.28333630180E+02  0.43129538881E+02  0.00000000000E+00 0. -1.
</event>
<event>
 7    1  0.2429906E-015  0.9000776E+02  0.7816164E-02  0.1186339E+00
        -11   -1    0    0    0    0  0.00000000000E+00  0.00000000000E+00  0.45593999997E+02  0.45594000000E+02  0.51100000000E-03 0. -1.
         11   -1    0    0    0    0 -0.00000000000E+00 -0.00000000000E+00 -0.45593999997E+02  0.45594000000E+02  0.51100000000E-03 0.  1.
    9900012    2    1    2    0    0  0.59140257494E+00 -0.73196739617E+00  0.71234156787E+00  0.90007761133E+02  0.90000022780E+02 0.  0.
        -12    1    1    2    0    0 -0.59140257494E+00  0.73196739617E+00 -0.71234156787E+00  0.11802388674E+01  0.00000000000E+00 0.  1.
         11    1    3    3    0    0  0.37439051882E+01  0.32854153609E+00  0.19737360435E+02  0.20091992505E+02  0.51100000000E-03 0. -1.
        -11    1    3    3    0    0 -0.29790037107E+02 -0.14992615813E+02 -0.21617145250E+02  0.39743248594E+02  0.51100000000E-03 0.  1.
         12    1    3    3    0    0  0.26637534493E+02  0.13932106881E+02  0.25921263825E+01  0.30172520034E+02  0.00000000000E+00 0. -1.
</event>
<event>
 7    1  0.2429906E-015  0.9000769E+02  0.7816164E-02  0.1186339E+00
        -11   -1    0    0    0    0  0.00000000000E+00  0.00000000000E+00  0.45593999997E+02  0.45594000000E+02  0.51100000000E-03 0.  1.
         11   -1    0    0    0    0 -0.00000000000E+00 -0.00000000000E+00 -0.45593999997E+02  0.45594000000E+02  0.51100000000E-03 0. -1.
    9900012    2    1    2    0    0  0.98529116615E+00  0.56751811500E+00 -0.31664749690E+00  0.90007686004E+02  0.89999946659E+02 0.  0.
        -12    1    1    2    0    0 -0.98529116615E+00 -0.56751811500E+00  0.31664749690E+00  0.11803139965E+01  0.00000000000E+00 0.  1.
         11    1    3    3    0    0  0.86696581280E+01  0.24495729521E+01 -0.36880278404E-01  0.90091475801E+01  0.51100000000E-03 0. -1.
        -11    1    3    3    0    0 -0.74664212553E+01  0.39164469973E+02  0.16740945758E+01  0.39904958934E+02  0.51100000000E-03 0.  1.
         12    1    3    3    0    0 -0.21794570648E+00 -0.41046524810E+02 -0.19538617943E+01  0.41093579489E+02  0.00000000000E+00 0. -1.
</event>
<event>
 7    1  0.2429906E-015  0.9000812E+02  0.7816164E-02  0.1186338E+00
        -11   -1    0    0    0    0  0.00000000000E+00  0.00000000000E+00  0.45593999997E+02  0.45594000000E+02  0.51100000000E-03 0.  1.
         11   -1    0    0    0    0 -0.00000000000E+00 -0.00000000000E+00 -0.45593999997E+02  0.45594000000E+02  0.51100000000E-03 0. -1.
    9900012    2    1    2    0    0  0.85410219440E+00 -0.42279732209E+00 -0.69560030833E+00  0.90008123768E+02  0.90000390201E+02 0.  0.
        -12    1    1    2    0    0 -0.85410219440E+00  0.42279732209E+00  0.69560030833E+00  0.11798762321E+01  0.00000000000E+00 0.  1.
         11    1    3    3    0    0  0.33078380787E+02 -0.17721029278E+02  0.17217890766E+02  0.41287648478E+02  0.51100000000E-03 0. -1.
        -11    1    3    3    0    0 -0.62310908519E+01 -0.71197155857E+01 -0.20136864443E+01  0.96732505696E+01  0.51100000000E-03 0.  1.
        -12    1    3    3    0    0 -0.25993187741E+02  0.24417947541E+02 -0.15899804630E+02  0.39047224720E+02  0.00000000000E+00 0.  1.
</event>
<event>
 7    1  0.2429906E-015  0.9000764E+02  0.7816164E-02  0.1186339E+00
        -11   -1    0    0    0    0  0.00000000000E+00  0.00000000000E+00  0.45593999997E+02  0.45594000000E+02  0.51100000000E-03 0.  1.
         11   -1    0    0    0    0 -0.00000000000E+00 -0.00000000000E+00 -0.45593999997E+02  0.45594000000E+02  0.51100000000E-03 0. -1.
    9900012    2    1    2    0    0  0.87617352124E+00  0.75058153409E+00 -0.24940532257E+00  0.90007637474E+02  0.89999897488E+02 0.  0.
        -12    1    1    2    0    0 -0.87617352124E+00 -0.75058153409E+00  0.24940532257E+00  0.11803625263E+01  0.00000000000E+00 0.  1.
         11    1    3    3    0    0 -0.65261914044E+01 -0.48341072511E+01 -0.10448858681E+01  0.81885013220E+01  0.51100000000E-03 0. -1.
        -11    1    3    3    0    0  0.49065880797E+01 -0.32731846195E+02 -0.19472136623E+02  0.38400683155E+02  0.51100000000E-03 0.  1.
         12    1    3    3    0    0  0.24957768459E+01  0.38316534980E+02  0.20267617168E+02  0.43418452996E+02  0.00000000000E+00 0. -1.
</event>
<event>
 7    1  0.2429906E-015  0.9000777E+02  0.7816164E-02  0.1186339E+00
        -11   -1    0    0    0    0  0.00000000000E+00  0.00000000000E+00  0.45593999997E+02  0.45594000000E+02  0.51100000000E-03 0.  1.
         11   -1    0    0    0    0 -0.00000000000E+00 -0.00000000000E+00 -0.45593999997E+02  0.45594000000E+02  0.51100000000E-03 0. -1.
    9900012    2    1    2    0    0  0.94697932048E+00  0.49550996512E+00  0.50064850167E+00  0.90007767446E+02  0.90000029176E+02 0.  0.
        -12    1    1    2    0    0 -0.94697932048E+00 -0.49550996512E+00 -0.50064850167E+00  0.11802325539E+01  0.00000000000E+00 0.  1.
         11    1    3    3    0    0 -0.34273294405E+02  0.96383672474E+01  0.13745478124E+02  0.38164053790E+02  0.51100000000E-03 0. -1.
        -11    1    3    3    0    0 -0.54556568645E+01 -0.49198031316E+01 -0.75849074039E+01  0.10559331194E+02  0.51100000000E-03 0.  1.
        -12    1    3    3    0    0  0.40675930590E+02 -0.42230541506E+01 -0.56599222189E+01  0.41284382462E+02  0.00000000000E+00 0.  1.
</event>
<event>
 7    1  0.2451728E-015  0.9000785E+02  0.7816164E-02  0.1186339E+00
        -11   -1    0    0    0    0  0.00000000000E+00  0.00000000000E+00  0.45593999997E+02  0.45594000000E+02  0.51100000000E-03 0.  1.
         11   -1    0    0    0    0 -0.00000000000E+00 -0.00000000000E+00 -0.45593999997E+02  0.45594000000E+02  0.51100000000E-03 0. -1.
    9900012    2    1    2    0    0 -0.10216524088E+01 -0.44781369199E+00 -0.38528440168E+00  0.90007849663E+02  0.90000112479E+02 0.  0.
        -12    1    1    2    0    0  0.10216524088E+01  0.44781369199E+00  0.38528440168E+00  0.11801503367E+01  0.00000000000E+00 0.  1.
         11    1    3    3    0    0  0.93940831721E+01 -0.14591373080E+02 -0.37178292762E+02  0.41029043615E+02  0.51100000000E-03 0. -1.
        -11    1    3    3    0    0 -0.48492184919E+01 -0.73525967128E+01  0.47877042802E+01  0.10024854659E+02  0.51100000000E-03 0.  1.
        -12    1    3    3    0    0 -0.55665170890E+01  0.21496156101E+02  0.32005304080E+02  0.38953951389E+02  0.00000000000E+00 0.  1.
</event>
<event>
 7    1  0.2429906E-015  0.9000793E+02  0.7816164E-02  0.1186339E+00
        -11   -1    0    0    0    0  0.00000000000E+00  0.00000000000E+00  0.45593999997E+02  0.45594000000E+02  0.51100000000E-03 0. -1.
         11   -1    0    0    0    0 -0.00000000000E+00 -0.00000000000E+00 -0.45593999997E+02  0.45594000000E+02  0.51100000000E-03 0.  1.
    9900012    2    1    2    0    0 -0.11180862105E+01 -0.37490059735E+00 -0.43539402348E-01  0.90007930972E+02  0.90000194860E+02 0.  0.
        -12    1    1    2    0    0  0.11180862105E+01  0.37490059735E+00  0.43539402348E-01  0.11800690283E+01  0.00000000000E+00 0.  1.
         11    1    3    3    0    0 -0.74055882934E+01  0.97965831676E+01  0.11852125582E+02  0.17067180810E+02  0.51100000000E-03 0. -1.
        -11    1    3    3    0    0 -0.22523745842E+02 -0.27050472578E+02 -0.17120858136E+02  0.39142955650E+02  0.51100000000E-03 0.  1.
         12    1    3    3    0    0  0.28811247925E+02  0.16878988814E+02  0.52251931516E+01  0.33797794511E+02  0.00000000000E+00 0. -1.
</event>
<event>
 7    1  0.2429906E-015  0.9000773E+02  0.7816164E-02  0.1186339E+00
        -11   -1    0    0    0    0  0.00000000000E+00  0.00000000000E+00  0.45593999997E+02  0.45594000000E+02  0.51100000000E-03 0.  1.
         11   -1    0    0    0    0 -0.00000000000E+00 -0.00000000000E+00 -0.45593999997E+02  0.45594000000E+02  0.51100000000E-03 0. -1.
    9900012    2    1    2    0    0  0.10083439871E+01 -0.16803452410E+00 -0.58994973010E+00  0.90007731437E+02  0.89999992692E+02 0.  0.
        -12    1    1    2    0    0 -0.10083439871E+01  0.16803452410E+00  0.58994973010E+00  0.11802685634E+01  0.00000000000E+00 0.  1.
         11    1    3    3    0    0  0.61517063050E+01 -0.50883947979E+01  0.11265980669E+02  0.13807880821E+02  0.51100000000E-03 0. -1.
        -11    1    3    3    0    0  0.16133300478E+02 -0.22906321117E+02  0.15258431857E+02  0.31903019832E+02  0.51100000000E-03 0.  1.
         12    1    3    3    0    0 -0.21276662796E+02  0.27826681390E+02 -0.27114362256E+02  0.44296830783E+02  0.00000000000E+00 0. -1.
</event>
<event>
 7    1  0.2429906E-015  0.9000768E+02  0.7816164E-02  0.1186339E+00
        -11   -1    0    0    0    0  0.00000000000E+00  0.00000000000E+00  0.45593999997E+02  0.45594000000E+02  0.51100000000E-03 0. -1.
         11   -1    0    0    0    0 -0.00000000000E+00 -0.00000000000E+00 -0.45593999997E+02  0.45594000000E+02  0.51100000000E-03 0.  1.
    9900012    2    1    2    0    0 -0.67064817201E+00 -0.90929564191E-01 -0.96701396464E+00  0.90007680906E+02  0.89999941494E+02 0.  0.
        -12    1    1    2    0    0  0.67064817201E+00  0.90929564191E-01  0.96701396464E+00  0.11803190942E+01  0.00000000000E+00 0.  1.
         11    1    3    3    0    0  0.76887918538E+01 -0.26732692016E+01 -0.49261306998E+01  0.95147597095E+01  0.51100000000E-03 0. -1.
        -11    1    3    3    0    0 -0.85820945671E+01 -0.55637338374E+01 -0.37176573691E+02  0.38557815200E+02  0.51100000000E-03 0.  1.
         12    1    3    3    0    0  0.22265454128E+00  0.81460734748E+01  0.41135690426E+02  0.41935105996E+02  0.00000000000E+00 0. -1.
</event>
<event>
 7    1  0.2429906E-015  0.9000774E+02  0.7816164E-02  0.1186339E+00
        -11   -1    0    0    0    0  0.00000000000E+00  0.00000000000E+00  0.45593999997E+02  0.45594000000E+02  0.51100000000E-03 0.  1.
         11   -1    0    0    0    0 -0.00000000000E+00 -0.00000000000E+00 -0.45593999997E+02  0.45594000000E+02  0.51100000000E-03 0. -1.
    9900012    2    1    2    0    0 -0.62018419885E+00  0.96657553046E+00 -0.27223217151E+00  0.90007742803E+02  0.90000004208E+02 0.  0.
        -12    1    1    2    0    0  0.62018419885E+00 -0.96657553046E+00  0.27223217151E+00  0.11802571973E+01  0.00000000000E+00 0.  1.
         11    1    3    3    0    0 -0.34949995789E+01 -0.37943561709E+01  0.56888500330E+01  0.76795296579E+01  0.51100000000E-03 0. -1.
        -11    1    3    3    0    0  0.11899274838E+02 -0.34166749543E+02  0.12542564322E+02  0.38291976131E+02  0.51100000000E-03 0.  1.
         12    1    3    3    0    0 -0.90244594578E+01  0.38927681244E+02 -0.18503646527E+02  0.44036237014E+02  0.00000000000E+00 0. -1.
</event>
<event>
 7    1  0.2429906E-015  0.9000776E+02  0.7816164E-02  0.1186339E+00
        -11   -1    0    0    0    0  0.00000000000E+00  0.00000000000E+00  0.45593999997E+02  0.45594000000E+02  0.51100000000E-03 0.  1.
         11   -1    0    0    0    0 -0.00000000000E+00 -0.00000000000E+00 -0.45593999997E+02  0.45594000000E+02  0.51100000000E-03 0. -1.
    9900012    2    1    2    0    0  0.86366578573E+00  0.68122113994E+00 -0.42777102429E+00  0.90007758974E+02  0.90000020592E+02 0.  0.
        -12    1    1    2    0    0 -0.86366578573E+00 -0.68122113994E+00  0.42777102429E+00  0.11802410263E+01  0.00000000000E+00 0.  1.
         11    1    3    3    0    0 -0.15824336849E+02 -0.38366921606E+01 -0.37230767576E+02  0.40635697337E+02  0.51100000000E-03 0. -1.
        -11    1    3    3    0    0  0.88734581533E+01 -0.45793419218E+01 -0.68851230483E+00  0.10009129907E+02  0.51100000000E-03 0.  1.
        -12    1    3    3    0    0  0.78145444819E+01  0.90972552224E+01  0.37491508857E+02  0.39362931730E+02  0.00000000000E+00 0.  1.
</event>
<event>
 7    1  0.2429906E-015  0.9000776E+02  0.7816164E-02  0.1186339E+00
        -11   -1    0    0    0    0  0.00000000000E+00  0.00000000000E+00  0.45593999997E+02  0.45594000000E+02  0.51100000000E-03 0. -1.
         11   -1    0    0    0    0 -0.00000000000E+00 -0.00000000000E+00 -0.45593999997E+02  0.45594000000E+02  0.51100000000E-03 0.  1.
    9900012    2    1    2    0    0 -0.67557201573E+00 -0.92220465234E+00  0.29342463776E+00  0.90007764012E+02  0.90000025697E+02 0.  0.
        -12    1    1    2    0    0  0.67557201573E+00  0.92220465234E+00 -0.29342463776E+00  0.11802359880E+01  0.00000000000E+00 0.  1.
         11    1    3    3    0    0  0.64008071811E+01 -0.31028760093E+02  0.29038610924E+02  0.42976682168E+02  0.51100000000E-03 0. -1.
        -11    1    3    3    0    0 -0.37726249612E+01 -0.11250932206E+01 -0.92841122731E+01  0.10084308346E+02  0.51100000000E-03 0.  1.
        -12    1    3    3    0    0 -0.33037542357E+01  0.31231648662E+02 -0.19461074013E+02  0.36946773498E+02  0.00000000000E+00 0.  1.
</event>
<event>
 7    1  0.2429906E-015  0.9000783E+02  0.7816164E-02  0.1186339E+00
        -11   -1    0    0    0    0  0.00000000000E+00  0.00000000000E+00  0.45593999997E+02  0.45594000000E+02  0.51100000000E-03 0. -1.
         11   -1    0    0    0    0 -0.00000000000E+00 -0.00000000000E+00 -0.45593999997E+02  0.45594000000E+02  0.51100000000E-03 0.  1.
    9900012    2    1    2    0    0 -0.33290174341E+00  0.11130563672E+01 -0.20754496949E+00  0.90007833503E+02  0.90000096105E+02 0.  0.
        -12    1    1    2    0    0  0.33290174341E+00 -0.11130563672E+01  0.20754496949E+00  0.11801664974E+01  0.00000000000E+00 0.  1.
         11    1    3    3    0    0  0.78368208380E+01 -0.43244347409E+01 -0.50945383338E+01  0.10299068782E+02  0.51100000000E-03 0. -1.
        -11    1    3    3    0    0  0.18502977742E+02  0.11655161207E+02 -0.28883853965E+02  0.36228165676E+02  0.51100000000E-03 0.  1.
         12    1    3    3    0    0 -0.26672700323E+02 -0.62176700990E+01  0.33770847329E+02  0.43480599045E+02  0.00000000000E+00 0. -1.
</event>
<event>
 7    1  0.2429906E-015  0.9000773E+02  0.7816164E-02  0.1186339E+00
        -11   -1    0    0    0    0  0.00000000000E+00  0.00000000000E+00  0.45593999997E+02  0.45594000000E+02  0.51100000000E-03 0.  1.
         11   -1    0    0    0    0 -0.00000000000E+00 -0.00000000000E+00 -0.45593999997E+02  0.45594000000E+02  0.51100000000E-03 0. -1.
    9900012    2    1    2    0    0 -0.94650445313E+00 -0.31674470776E+00 -0.62995117699E+00  0.90007730380E+02  0.89999991621E+02 0.  0.
        -12    1    1    2    0    0  0.94650445313E+00  0.31674470776E+00  0.62995117699E+00  0.11802696197E+01  0.00000000000E+00 0.  1.
         11    1    3    3    0    0 -0.19551286450E+02  0.15025341049E+02 -0.29027237200E+02  0.38086666633E+02  0.51100000000E-03 0. -1.
        -11    1    3    3    0    0 -0.84046737041E+01 -0.15830039298E+01 -0.22211038784E+01  0.88361611695E+01  0.51100000000E-03 0.  1.
        -12    1    3    3    0    0  0.27009455701E+02 -0.13759081826E+02  0.30618389902E+02  0.43084902578E+02  0.00000000000E+00 0.  1.
</event>
<event>
 7    1  0.2429906E-015  0.9000769E+02  0.7816164E-02  0.1186339E+00
        -11   -1    0    0    0    0  0.00000000000E+00  0.00000000000E+00  0.45593999997E+02  0.45594000000E+02  0.51100000000E-03 0.  1.
         11   -1    0    0    0    0 -0.00000000000E+00 -0.00000000000E+00 -0.45593999997E+02  0.45594000000E+02  0.51100000000E-03 0. -1.
    9900012    2    1    2    0    0  0.78377743008E+00  0.87836270337E+00  0.85485059324E-01  0.90007688264E+02  0.89999948949E+02 0.  0.
        -12    1    1    2    0    0 -0.78377743008E+00 -0.87836270337E+00 -0.85485059324E-01  0.11803117359E+01  0.00000000000E+00 0.  1.
         11    1    3    3    0    0  0.15806724695E+01  0.10605795319E+02  0.60940901770E+01  0.12333667547E+02  0.51100000000E-03 0. -1.
        -11    1    3    3    0    0  0.17723423429E+02 -0.38550634304E+02  0.20480738256E+01  0.42479003636E+02  0.51100000000E-03 0.  1.
         12    1    3    3    0    0 -0.18520318468E+02  0.28823201688E+02 -0.80566789434E+01  0.35195017081E+02  0.00000000000E+00 0. -1.
</event>
<event>
 7    1  0.2429906E-015  0.9000774E+02  0.7816164E-02  0.1186339E+00
        -11   -1    0    0    0    0  0.00000000000E+00  0.00000000000E+00  0.45593999997E+02  0.45594000000E+02  0.51100000000E-03 0.  1.
         11   -1    0    0    0    0 -0.00000000000E+00 -0.00000000000E+00 -0.45593999997E+02  0.45594000000E+02  0.51100000000E-03 0. -1.
    9900012    2    1    2    0    0 -0.11373251911E+01 -0.31455769348E+00 -0.23584402054E-01  0.90007740979E+02  0.90000002360E+02 0.  0.
        -12    1    1    2    0    0  0.11373251911E+01  0.31455769348E+00  0.23584402054E-01  0.11802590210E+01  0.00000000000E+00 0.  1.
         11    1    3    3    0    0  0.28011784371E+01  0.12031324662E+02 -0.58447698148E+01  0.13666042156E+02  0.51100000000E-03 0. -1.
        -11    1    3    3    0    0  0.20419116197E+02  0.16830486133E+02  0.22596787361E+02  0.34796844239E+02  0.51100000000E-03 0.  1.
         12    1    3    3    0    0 -0.24357619825E+02 -0.29176368488E+02 -0.16775601948E+02  0.41544854584E+02  0.00000000000E+00 0. -1.
</event>
<event>
 8    1  0.2429906E-015  0.9000782E+02  0.7816164E-02  0.1186339E+00
        -11   -1    0    0    0    0  0.00000000000E+00  0.00000000000E+00  0.45593999997E+02  0.45594000000E+02  0.51100000000E-03 0.  1.
         11   -1    0    0    0    0 -0.00000000000E+00 -0.00000000000E+00 -0.45593999997E+02  0.45594000000E+02  0.51100000000E-03 0. -1.
    9900012    2    1    2    0    0  0.14917619645E+00  0.22045280890E+00 -0.11497685606E+01  0.90007821742E+02  0.90000084189E+02 0.  0.
         23    2    3    3    0    0 -0.24339664442E+02  0.61386110891E+01 -0.74124191956E+01  0.64047299670E+02  0.58455203579E+02 0.  0.
        -12    1    1    2    0    0 -0.14917619645E+00 -0.22045280890E+00  0.11497685606E+01  0.11801782584E+01  0.00000000000E+00 0.  1.
         11    1    4    4    0    0 -0.17810635000E+02  0.27795916179E+02  0.11088261935E+02  0.34825008662E+02  0.51100000000E-03 0. -1.
        -11    1    4    4    0    0 -0.65290294417E+01 -0.21657305090E+02 -0.18500681131E+02  0.29222291008E+02  0.51100000000E-03 0.  1.
        -12    1    3    3    0    0  0.24488840638E+02 -0.59181582802E+01  0.62626506350E+01  0.25960522071E+02  0.00000000000E+00 0.  1.
</event>
<event>
 7    1  0.2429906E-015  0.9000777E+02  0.7816164E-02  0.1186339E+00
        -11   -1    0    0    0    0  0.00000000000E+00  0.00000000000E+00  0.45593999997E+02  0.45594000000E+02  0.51100000000E-03 0.  1.
         11   -1    0    0    0    0 -0.00000000000E+00 -0.00000000000E+00 -0.45593999997E+02  0.45594000000E+02  0.51100000000E-03 0. -1.
    9900012    2    1    2    0    0 -0.81214722146E+00 -0.43861542091E-01 -0.85523630853E+00  0.90007772866E+02  0.90000034668E+02 0.  0.
        -12    1    1    2    0    0  0.81214722146E+00  0.43861542091E-01  0.85523630853E+00  0.11802271339E+01  0.00000000000E+00 0.  1.
         11    1    3    3    0    0  0.75316461445E+01  0.33159047404E+02  0.48529026306E+01  0.34348199117E+02  0.51100000000E-03 0. -1.
        -11    1    3    3    0    0  0.59368546046E+00  0.10614857448E+02 -0.16024640465E+01  0.10751537209E+02  0.51100000000E-03 0.  1.
        -12    1    3    3    0    0 -0.89374788264E+01 -0.43817766394E+02 -0.41056748926E+01  0.44908036540E+02  0.00000000000E+00 0.  1.
</event>
<event>
 7    1  0.2429906E-015  0.9000777E+02  0.7816164E-02  0.1186339E+00
        -11   -1    0    0    0    0  0.00000000000E+00  0.00000000000E+00  0.45593999997E+02  0.45594000000E+02  0.51100000000E-03 0. -1.
         11   -1    0    0    0    0 -0.00000000000E+00 -0.00000000000E+00 -0.45593999997E+02  0.45594000000E+02  0.51100000000E-03 0.  1.
    9900012    2    1    2    0    0  0.83009795784E+00  0.74331628239E+00  0.38906604565E+00  0.90007765234E+02  0.90000026935E+02 0.  0.
        -12    1    1    2    0    0 -0.83009795784E+00 -0.74331628239E+00 -0.38906604565E+00  0.11802347661E+01  0.00000000000E+00 0.  1.
         11    1    3    3    0    0  0.19762926829E+01  0.13004355336E+01  0.96611928702E+01  0.99466332636E+01  0.51100000000E-03 0. -1.
        -11    1    3    3    0    0  0.12105210003E+02 -0.37847421170E+02 -0.17284503731E+01  0.39773746862E+02  0.51100000000E-03 0.  1.
         12    1    3    3    0    0 -0.13251404728E+02  0.37290301919E+02 -0.75436764514E+01  0.40287385109E+02  0.00000000000E+00 0. -1.
</event>
<event>
 7    1  0.2429906E-015  0.9000771E+02  0.7816164E-02  0.1186339E+00
        -11   -1    0    0    0    0  0.00000000000E+00  0.00000000000E+00  0.45593999997E+02  0.45594000000E+02  0.51100000000E-03 0.  1.
         11   -1    0    0    0    0 -0.00000000000E+00 -0.00000000000E+00 -0.45593999997E+02  0.45594000000E+02  0.51100000000E-03 0. -1.
    9900012    2    1    2    0    0  0.11158504889E+01 -0.41594874827E-02  0.38462864464E+00  0.90007712404E+02  0.89999973408E+02 0.  0.
        -12    1    1    2    0    0 -0.11158504889E+01  0.41594874827E-02 -0.38462864464E+00  0.11802875960E+01  0.00000000000E+00 0.  1.
         11    1    3    3    0    0  0.80515835450E+01  0.18683009959E+01  0.30699892584E+01  0.88172206789E+01  0.51100000000E-03 0. -1.
        -11    1    3    3    0    0 -0.20775652324E+02  0.28303893424E+02  0.20537236733E+02  0.40675744681E+02  0.51100000000E-03 0.  1.
         12    1    3    3    0    0  0.13839919268E+02 -0.30176353908E+02 -0.23222597347E+02  0.40514747044E+02  0.00000000000E+00 0. -1.
</event>
<event>
 7    1  0.2508697E-015  0.9000728E+02  0.7816164E-02  0.1186340E+00
        -11   -1    0    0    0    0  0.00000000000E+00  0.00000000000E+00  0.45593999997E+02  0.45594000000E+02  0.51100000000E-03 0. -1.
         11   -1    0    0    0    0 -0.00000000000E+00 -0.00000000000E+00 -0.45593999997E+02  0.45594000000E+02  0.51100000000E-03 0.  1.
    9900012    2    1    2    0    0  0.31037805840E+00  0.48745783019E+00  0.10296384059E+01  0.90007277796E+02  0.89999533062E+02 0.  0.
        -12    1    1    2    0    0 -0.31037805840E+00 -0.48745783019E+00 -0.10296384059E+01  0.11807222037E+01  0.00000000000E+00 0.  1.
         11    1    3    3    0    0  0.43748562658E+01  0.81450612945E+01  0.37538406801E+01  0.99786126766E+01  0.51100000000E-03 0. -1.
        -11    1    3    3    0    0  0.99362865384E+01  0.46832770525E+01 -0.38305677430E+02  0.39849564587E+02  0.51100000000E-03 0.  1.
         12    1    3    3    0    0 -0.14000764746E+02 -0.12340880517E+02  0.35581475156E+02  0.40179100533E+02  0.00000000000E+00 0. -1.
</event>
<event>
 7    1  0.2429906E-015  0.9000767E+02  0.7816164E-02  0.1186339E+00
        -11   -1    0    0    0    0  0.00000000000E+00  0.00000000000E+00  0.45593999997E+02  0.45594000000E+02  0.51100000000E-03 0. -1.
         11   -1    0    0    0    0 -0.00000000000E+00 -0.00000000000E+00 -0.45593999997E+02  0.45594000000E+02  0.51100000000E-03 0.  1.
    9900012    2    1    2    0    0 -0.11407659773E+01  0.38970479191E-01  0.30053915357E+00  0.90007665515E+02  0.89999925900E+02 0.  0.
        -12    1    1    2    0    0  0.11407659773E+01 -0.38970479191E-01 -0.30053915357E+00  0.11803344848E+01  0.00000000000E+00 0.  1.
         11    1    3    3    0    0 -0.21646766827E+02 -0.25181387586E+02  0.65359359638E+01  0.33843806730E+02  0.51100000000E-03 0. -1.
        -11    1    3    3    0    0  0.19413257714E+01 -0.10013860329E+02  0.89214581721E+01  0.13551330585E+02  0.51100000000E-03 0.  1.
        -12    1    3    3    0    0  0.18564675079E+02  0.35234218394E+02 -0.15156854982E+02  0.42612528200E+02  0.00000000000E+00 0.  1.
</event>
<event>
 7    1  0.2429906E-015  0.9000739E+02  0.7816164E-02  0.1186340E+00
        -11   -1    0    0    0    0  0.00000000000E+00  0.00000000000E+00  0.45593999997E+02  0.45594000000E+02  0.51100000000E-03 0. -1.
         11   -1    0    0    0    0 -0.00000000000E+00 -0.00000000000E+00 -0.45593999997E+02  0.45594000000E+02  0.51100000000E-03 0.  1.
    9900012    2    1    2    0    0  0.94802274528E+00  0.52956810950E+00  0.46331343430E+00  0.90007386242E+02  0.89999642939E+02 0.  0.
        -12    1    1    2    0    0 -0.94802274528E+00 -0.52956810950E+00 -0.46331343430E+00  0.11806137584E+01  0.00000000000E+00 0.  1.
         11    1    3    3    0    0  0.30776932955E+02  0.27354453948E+02 -0.80196139326E+01  0.41949969735E+02  0.51100000000E-03 0. -1.
        -11    1    3    3    0    0 -0.36865624714E+01  0.28679579592E+01 -0.44346939245E+01  0.64406860020E+01  0.51100000000E-03 0.  1.
        -12    1    3    3    0    0 -0.26142347738E+02 -0.29692843798E+02  0.12917621291E+02  0.41616730504E+02  0.00000000000E+00 0.  1.
</event>
<event>
 7    1  0.2429906E-015  0.9000775E+02  0.7816164E-02  0.1186339E+00
        -11   -1    0    0    0    0  0.00000000000E+00  0.00000000000E+00  0.45593999997E+02  0.45594000000E+02  0.51100000000E-03 0.  1.
         11   -1    0    0    0    0 -0.00000000000E+00 -0.00000000000E+00 -0.45593999997E+02  0.45594000000E+02  0.51100000000E-03 0. -1.
    9900012    2    1    2    0    0 -0.99210216741E+00  0.10151431150E+00 -0.63121044015E+00  0.90007746432E+02  0.90000007884E+02 0.  0.
        -12    1    1    2    0    0  0.99210216741E+00 -0.10151431150E+00  0.63121044015E+00  0.11802535684E+01  0.00000000000E+00 0.  1.
         11    1    3    3    0    0 -0.97380481145E+01  0.66019216566E+01  0.36353665154E+01  0.12313847514E+02  0.51100000000E-03 0. -1.
        -11    1    3    3    0    0  0.22462184565E+02  0.41237095548E+01  0.30933475965E+02  0.38450418092E+02  0.51100000000E-03 0.  1.
         12    1    3    3    0    0 -0.13716238618E+02 -0.10624116900E+02 -0.35200052920E+02  0.39243480826E+02  0.00000000000E+00 0. -1.
</event>
<event>
 7    1  0.2429906E-015  0.9000766E+02  0.7816164E-02  0.1186339E+00
        -11   -1    0    0    0    0  0.00000000000E+00  0.00000000000E+00  0.45593999997E+02  0.45594000000E+02  0.51100000000E-03 0.  1.
         11   -1    0    0    0    0 -0.00000000000E+00 -0.00000000000E+00 -0.45593999997E+02  0.45594000000E+02  0.51100000000E-03 0. -1.
    9900012    2    1    2    0    0  0.27190875977E+00  0.66826818446E+00  0.93417119814E+00  0.90007664214E+02  0.89999924582E+02 0.  0.
        -12    1    1    2    0    0 -0.27190875977E+00 -0.66826818446E+00 -0.93417119814E+00  0.11803357859E+01  0.00000000000E+00 0.  1.
         11    1    3    3    0    0 -0.71809287111E+01 -0.80392924478E+00  0.65546574520E+01  0.97557969412E+01  0.51100000000E-03 0. -1.
        -11    1    3    3    0    0  0.19030461909E+02  0.33384494577E+02  0.14169864899E+02  0.40956904547E+02  0.51100000000E-03 0.  1.
         12    1    3    3    0    0 -0.11577624438E+02 -0.31912297147E+02 -0.19790351153E+02  0.39294962725E+02  0.00000000000E+00 0. -1.
</event>
<event>
 7    1  0.2429906E-015  0.9000763E+02  0.7816164E-02  0.1186339E+00
        -11   -1    0    0    0    0  0.00000000000E+00  0.00000000000E+00  0.45593999997E+02  0.45594000000E+02  0.51100000000E-03 0.  1.
         11   -1    0    0    0    0 -0.00000000000E+00 -0.00000000000E+00 -0.45593999997E+02  0.45594000000E+02  0.51100000000E-03 0. -1.
    9900012    2    1    2    0    0  0.28269100109E+00 -0.75787597645E+00 -0.85964016945E+00  0.90007630813E+02  0.89999890739E+02 0.  0.
        -12    1    1    2    0    0 -0.28269100109E+00  0.75787597645E+00  0.85964016945E+00  0.11803691875E+01  0.00000000000E+00 0.  1.
         11    1    3    3    0    0  0.55513651994E+01 -0.14972316187E+01  0.24639133901E+00  0.57550036534E+01  0.51100000000E-03 0. -1.
        -11    1    3    3    0    0 -0.15635741038E+02  0.38905881808E+02 -0.11269242579E+02  0.43418197401E+02  0.51100000000E-03 0.  1.
         12    1    3    3    0    0  0.10367066839E+02 -0.38166526165E+02  0.10163211071E+02  0.40834429758E+02  0.00000000000E+00 0. -1.
</event>
<event>
 7    1  0.2429906E-015  0.9000774E+02  0.7816164E-02  0.1186339E+00
        -11   -1    0    0    0    0  0.00000000000E+00  0.00000000000E+00  0.45593999997E+02  0.45594000000E+02  0.51100000000E-03 0.  1.
         11   -1    0    0    0    0 -0.00000000000E+00 -0.00000000000E+00 -0.45593999997E+02  0.45594000000E+02  0.51100000000E-03 0. -1.
    9900012    2    1    2    0    0  0.76970709591E+00  0.71988752910E+00  0.53133723835E+00  0.90007743109E+02  0.90000004518E+02 0.  0.
        -12    1    1    2    0    0 -0.76970709591E+00 -0.71988752910E+00 -0.53133723835E+00  0.11802568911E+01  0.00000000000E+00 0.  1.
         11    1    3    3    0    0 -0.14516937741E+02  0.15087563462E+02 -0.31535014118E+02  0.37852782834E+02  0.51100000000E-03 0. -1.
        -11    1    3    3    0    0 -0.10612076566E+02  0.74951258259E+00  0.49846906551E+01  0.11748407524E+02  0.51100000000E-03 0.  1.
        -12    1    3    3    0    0  0.25898721402E+02 -0.15117188515E+02  0.27081660702E+02  0.40406552751E+02  0.00000000000E+00 0.  1.
</event>
<event>
 7    1  0.2429906E-015  0.9000758E+02  0.7816164E-02  0.1186339E+00
        -11   -1    0    0    0    0  0.00000000000E+00  0.00000000000E+00  0.45593999997E+02  0.45594000000E+02  0.51100000000E-03 0.  1.
         11   -1    0    0    0    0 -0.00000000000E+00 -0.00000000000E+00 -0.45593999997E+02  0.45594000000E+02  0.51100000000E-03 0. -1.
    9900012    2    1    2    0    0 -0.79293731416E+00 -0.52404017824E+00  0.70001476354E+00  0.90007581277E+02  0.89999840550E+02 0.  0.
        -12    1    1    2    0    0  0.79293731416E+00  0.52404017824E+00 -0.70001476354E+00  0.11804187231E+01  0.00000000000E+00 0.  1.
         11    1    3    3    0    0 -0.55047721383E+01  0.91108787283E+01 -0.12963389703E+02  0.16773792068E+02  0.51100000000E-03 0. -1.
        -11    1    3    3    0    0  0.18573604425E+02  0.11241370530E+02  0.34419668314E+02  0.40694726438E+02  0.51100000000E-03 0.  1.
         12    1    3    3    0    0 -0.13861769601E+02 -0.20876289437E+02 -0.20756263848E+02  0.32539062771E+02  0.00000000000E+00 0. -1.
</event>
<event>
 7    1  0.2429906E-015  0.9000780E+02  0.7816164E-02  0.1186339E+00
        -11   -1    0    0    0    0  0.00000000000E+00  0.00000000000E+00  0.45593999997E+02  0.45594000000E+02  0.51100000000E-03 0. -1.
         11   -1    0    0    0    0 -0.00000000000E+00 -0.00000000000E+00 -0.45593999997E+02  0.45594000000E+02  0.51100000000E-03 0.  1.
    9900012    2    1    2    0    0 -0.61725934173E+00 -0.13967077083E+00  0.99616699701E+00  0.90007802684E+02  0.90000064879E+02 0.  0.
        -12    1    1    2    0    0  0.61725934173E+00  0.13967077083E+00 -0.99616699701E+00  0.11801973162E+01  0.00000000000E+00 0.  1.
         11    1    3    3    0    0  0.23670410181E+02 -0.26450316967E+01  0.25622925337E+02  0.34983121843E+02  0.51100000000E-03 0. -1.
        -11    1    3    3    0    0  0.76847931517E+01 -0.48358143030E+01  0.53905363337E+01  0.10559310015E+02  0.51100000000E-03 0.  1.
        -12    1    3    3    0    0 -0.31972462674E+02  0.73411752289E+01 -0.30017294673E+02  0.44465370826E+02  0.00000000000E+00 0.  1.
</event>
<event>
 7    1  0.2429906E-015  0.9000797E+02  0.7816164E-02  0.1186339E+00
        -11   -1    0    0    0    0  0.00000000000E+00  0.00000000000E+00  0.45593999997E+02  0.45594000000E+02  0.51100000000E-03 0.  1.
         11   -1    0    0    0    0 -0.00000000000E+00 -0.00000000000E+00 -0.45593999997E+02  0.45594000000E+02  0.51100000000E-03 0. -1.
    9900012    2    1    2    0    0 -0.80926162379E+00  0.23588010139E-02 -0.85881302718E+00  0.90007970443E+02  0.90000234853E+02 0.  0.
        -12    1    1    2    0    0  0.80926162379E+00 -0.23588010139E-02  0.85881302718E+00  0.11800295570E+01  0.00000000000E+00 0.  1.
         11    1    3    3    0    0  0.64402493892E+01 -0.52262652425E+01 -0.53856904714E+01  0.98892023285E+01  0.51100000000E-03 0. -1.
        -11    1    3    3    0    0 -0.90171998840E+01  0.53310079180E+01  0.41653229718E+02  0.42950216360E+02  0.51100000000E-03 0.  1.
         12    1    3    3    0    0  0.17676888710E+01 -0.10238387447E+00 -0.37126352274E+02  0.37168551755E+02  0.00000000000E+00 0. -1.
</event>
<event>
 7    1  0.2429906E-015  0.9000784E+02  0.7816164E-02  0.1186339E+00
        -11   -1    0    0    0    0  0.00000000000E+00  0.00000000000E+00  0.45593999997E+02  0.45594000000E+02  0.51100000000E-03 0.  1.
         11   -1    0    0    0    0 -0.00000000000E+00 -0.00000000000E+00 -0.45593999997E+02  0.45594000000E+02  0.51100000000E-03 0. -1.
    9900012    2    1    2    0    0  0.48826892765E-01  0.86081839844E+00  0.80584816564E+00  0.90007837449E+02  0.90000100103E+02 0.  0.
        -12    1    1    2    0    0 -0.48826892765E-01 -0.86081839844E+00 -0.80584816564E+00  0.11801625509E+01  0.00000000000E+00 0.  1.
         11    1    3    3    0    0  0.36546941856E+01  0.10082853200E+02  0.40769744989E+00  0.10732517679E+02  0.51100000000E-03 0. -1.
        -11    1    3    3    0    0 -0.89938428809E+01  0.26018127779E+02  0.23999305269E+02  0.36521210776E+02  0.51100000000E-03 0.  1.
         12    1    3    3    0    0  0.53879755881E+01 -0.35240162581E+02 -0.23601154554E+02  0.42754108994E+02  0.00000000000E+00 0. -1.
</event>
<event>
 7    1  0.2429906E-015  0.9000775E+02  0.7816164E-02  0.1186339E+00
        -11   -1    0    0    0    0  0.00000000000E+00  0.00000000000E+00  0.45593999997E+02  0.45594000000E+02  0.51100000000E-03 0.  1.
         11   -1    0    0    0    0 -0.00000000000E+00 -0.00000000000E+00 -0.45593999997E+02  0.45594000000E+02  0.51100000000E-03 0. -1.
    9900012    2    1    2    0    0 -0.67436282441E+00 -0.91777740193E+00 -0.30967525662E+00  0.90007754541E+02  0.90000016101E+02 0.  0.
        -12    1    1    2    0    0  0.67436282441E+00  0.91777740193E+00  0.30967525662E+00  0.11802454588E+01  0.00000000000E+00 0.  1.
         11    1    3    3    0    0  0.71117437840E+01 -0.62576751829E+01  0.29541526011E+01  0.99228229953E+01  0.51100000000E-03 0. -1.
        -11    1    3    3    0    0  0.13503972926E+02 -0.26836638183E+02  0.18993334468E+02  0.35543061042E+02  0.51100000000E-03 0.  1.
         12    1    3    3    0    0 -0.21290079534E+02  0.32176535964E+02 -0.22257162325E+02  0.44541870504E+02  0.00000000000E+00 0. -1.
</event>
<event>
 7    1  0.2429906E-015  0.9000770E+02  0.7816164E-02  0.1186339E+00
        -11   -1    0    0    0    0  0.00000000000E+00  0.00000000000E+00  0.45593999997E+02  0.45594000000E+02  0.51100000000E-03 0.  1.
         11   -1    0    0    0    0 -0.00000000000E+00 -0.00000000000E+00 -0.45593999997E+02  0.45594000000E+02  0.51100000000E-03 0. -1.
    9900012    2    1    2    0    0 -0.53627986057E+00 -0.99477859750E+00  0.34048242910E+00  0.90007699686E+02  0.89999960522E+02 0.  0.
        -12    1    1    2    0    0  0.53627986057E+00  0.99477859750E+00 -0.34048242910E+00  0.11803003141E+01  0.00000000000E+00 0.  1.
         11    1    3    3    0    0 -0.20019323084E+02 -0.35658035157E+02 -0.56984983375E+01  0.41288517188E+02  0.51100000000E-03 0. -1.
        -11    1    3    3    0    0  0.35573765211E+01  0.16371840236E+02 -0.10122855186E+02  0.19574582443E+02  0.51100000000E-03 0.  1.
        -12    1    3    3    0    0  0.15925666702E+02  0.18291416323E+02  0.16161835953E+02  0.29144600055E+02  0.00000000000E+00 0.  1.
</event>
<event>
 7    1  0.2429906E-015  0.9000773E+02  0.7816164E-02  0.1186339E+00
        -11   -1    0    0    0    0  0.00000000000E+00  0.00000000000E+00  0.45593999997E+02  0.45594000000E+02  0.51100000000E-03 0. -1.
         11   -1    0    0    0    0 -0.00000000000E+00 -0.00000000000E+00 -0.45593999997E+02  0.45594000000E+02  0.51100000000E-03 0.  1.
    9900012    2    1    2    0    0 -0.71205558491E+00  0.39653362119E+00  0.85368348290E+00  0.90007729879E+02  0.89999991114E+02 0.  0.
        -12    1    1    2    0    0  0.71205558491E+00 -0.39653362119E+00 -0.85368348290E+00  0.11802701207E+01  0.00000000000E+00 0.  1.
         11    1    3    3    0    0  0.66847672179E+01 -0.44222894510E+01  0.79277413969E+01  0.11273501704E+02  0.51100000000E-03 0. -1.
        -11    1    3    3    0    0  0.20521868428E+02 -0.27890050738E+02  0.23630969414E+01  0.34707149715E+02  0.51100000000E-03 0.  1.
         12    1    3    3    0    0 -0.27918691231E+02  0.32708873810E+02 -0.94371548553E+01  0.44027078460E+02  0.00000000000E+00 0. -1.
</event>
<event>
 7    1  0.2429906E-015  0.9000791E+02  0.7816164E-02  0.1186339E+00
        -11   -1    0    0    0    0  0.00000000000E+00  0.00000000000E+00  0.45593999997E+02  0.45594000000E+02  0.51100000000E-03 0.  1.
         11   -1    0    0    0    0 -0.00000000000E+00 -0.00000000000E+00 -0.45593999997E+02  0.45594000000E+02  0.51100000000E-03 0. -1.
    9900012    2    1    2    0    0  0.54832693970E+00  0.57629427459E+00 -0.87168655851E+00  0.90007908910E+02  0.90000172508E+02 0.  0.
        -12    1    1    2    0    0 -0.54832693970E+00 -0.57629427459E+00  0.87168655851E+00  0.11800910897E+01  0.00000000000E+00 0.  1.
         11    1    3    3    0    0  0.20415555735E+01  0.62164754812E+01 -0.76768677648E+01  0.10086962650E+02  0.51100000000E-03 0. -1.
        -11    1    3    3    0    0  0.15010562513E+02 -0.21838888499E+02 -0.27731289379E+02  0.38357247668E+02  0.51100000000E-03 0.  1.
         12    1    3    3    0    0 -0.16503791147E+02  0.16198707292E+02  0.34536470585E+02  0.41563698592E+02  0.00000000000E+00 0. -1.
</event>
<event>
 7    1  0.2429906E-015  0.9000781E+02  0.7816164E-02  0.1186339E+00
        -11   -1    0    0    0    0  0.00000000000E+00  0.00000000000E+00  0.45593999997E+02  0.45594000000E+02  0.51100000000E-03 0.  1.
         11   -1    0    0    0    0 -0.00000000000E+00 -0.00000000000E+00 -0.45593999997E+02  0.45594000000E+02  0.51100000000E-03 0. -1.
    9900012    2    1    2    0    0  0.33583817688E+00 -0.90811232621E+00 -0.67482531736E+00  0.90007811673E+02  0.90000073987E+02 0.  0.
        -12    1    1    2    0    0 -0.33583817688E+00  0.90811232621E+00  0.67482531736E+00  0.11801883269E+01  0.00000000000E+00 0.  1.
         11    1    3    3    0    0  0.37399417934E+02  0.71357919774E+01 -0.46654224852E+01  0.38358860204E+02  0.51100000000E-03 0. -1.
        -11    1    3    3    0    0  0.47412035692E+01 -0.84290345506E+01  0.12694499798E+01  0.97539293749E+01  0.51100000000E-03 0.  1.
        -12    1    3    3    0    0 -0.41804783326E+02  0.38513024695E+00  0.27211471881E+01  0.41895022094E+02  0.00000000000E+00 0.  1.
</event>
<event>
 7    1  0.2429906E-015  0.9000758E+02  0.7816164E-02  0.1186339E+00
        -11   -1    0    0    0    0  0.00000000000E+00  0.00000000000E+00  0.45593999997E+02  0.45594000000E+02  0.51100000000E-03 0. -1.
         11   -1    0    0    0    0 -0.00000000000E+00 -0.00000000000E+00 -0.45593999997E+02  0.45594000000E+02  0.51100000000E-03 0.  1.
    9900012    2    1    2    0    0  0.27932483972E-01 -0.11076925998E+01  0.40696119333E+00  0.90007584593E+02  0.89999843910E+02 0.  0.
        -12    1    1    2    0    0 -0.27932483972E-01  0.11076925998E+01 -0.40696119333E+00  0.11804154066E+01  0.00000000000E+00 0.  1.
         11    1    3    3    0    0 -0.64300080282E+01 -0.89981499623E+00  0.64248840651E+01  0.91342107366E+01  0.51100000000E-03 0. -1.
        -11    1    3    3    0    0  0.35785670485E+02 -0.19361891119E+02  0.10683566971E+02  0.42067037491E+02  0.51100000000E-03 0.  1.
         12    1    3    3    0    0 -0.29327729973E+02  0.19154013516E+02 -0.16701489843E+02  0.38806336365E+02  0.00000000000E+00 0. -1.
</event>
<event>
 7    1  0.2429906E-015  0.9000782E+02  0.7816164E-02  0.1186339E+00
        -11   -1    0    0    0    0  0.00000000000E+00  0.00000000000E+00  0.45593999997E+02  0.45594000000E+02  0.51100000000E-03 0.  1.
         11   -1    0    0    0    0 -0.00000000000E+00 -0.00000000000E+00 -0.45593999997E+02  0.45594000000E+02  0.51100000000E-03 0. -1.
    9900012    2    1    2    0    0 -0.51185863007E+00  0.53617076269E+00 -0.91833807850E+00  0.90007820704E+02  0.90000083137E+02 0.  0.
        -12    1    1    2    0    0  0.51185863007E+00 -0.53617076269E+00  0.91833807850E+00  0.11801792959E+01  0.00000000000E+00 0.  1.
         11    1    3    3    0    0  0.54961314309E+01  0.34537725705E+02 -0.46386414752E+01  0.35278590569E+02  0.51100000000E-03 0. -1.
        -11    1    3    3    0    0  0.45466635409E+01  0.88124219525E+01 -0.24220589469E+01  0.10207707863E+02  0.51100000000E-03 0.  1.
        -12    1    3    3    0    0 -0.10554653602E+02 -0.42813976895E+02  0.61423623436E+01  0.44521522271E+02  0.00000000000E+00 0.  1.
</event>
<event>
 7    1  0.2429906E-015  0.9000772E+02  0.7816164E-02  0.1186339E+00
        -11   -1    0    0    0    0  0.00000000000E+00  0.00000000000E+00  0.45593999997E+02  0.45594000000E+02  0.51100000000E-03 0.  1.
         11   -1    0    0    0    0 -0.00000000000E+00 -0.00000000000E+00 -0.45593999997E+02  0.45594000000E+02  0.51100000000E-03 0. -1.
    9900012    2    1    2    0    0 -0.11074060908E+01 -0.12180433877E+00 -0.38970128785E+00  0.90007723913E+02  0.89999985069E+02 0.  0.
        -12    1    1    2    0    0  0.11074060908E+01  0.12180433877E+00  0.38970128785E+00  0.11802760866E+01  0.00000000000E+00 0.  1.
         11    1    3    3    0    0 -0.13340130465E+02 -0.13972802959E+02 -0.37950039900E+02  0.42584079561E+02  0.51100000000E-03 0. -1.
        -11    1    3    3    0    0  0.94701894105E+01  0.33816025937E+01  0.20018582694E+01  0.10253153679E+02  0.51100000000E-03 0.  1.
        -12    1    3    3    0    0  0.27625349640E+01  0.10469396026E+02  0.35558480343E+02  0.37170490673E+02  0.00000000000E+00 0.  1.
</event>
<event>
 7    1  0.2429906E-015  0.9000763E+02  0.7816164E-02  0.1186339E+00
        -11   -1    0    0    0    0  0.00000000000E+00  0.00000000000E+00  0.45593999997E+02  0.45594000000E+02  0.51100000000E-03 0. -1.
         11   -1    0    0    0    0 -0.00000000000E+00 -0.00000000000E+00 -0.45593999997E+02  0.45594000000E+02  0.51100000000E-03 0.  1.
    9900012    2    1    2    0    0 -0.30341276963E+00  0.11281231824E+01  0.16896571853E+00  0.90007631143E+02  0.89999891074E+02 0.  0.
        -12    1    1    2    0    0  0.30341276963E+00 -0.11281231824E+01 -0.16896571853E+00  0.11803688565E+01  0.00000000000E+00 0.  1.
         11    1    3    3    0    0  0.24990420866E+02  0.17146531804E+01  0.24403433578E+02  0.34971255929E+02  0.51100000000E-03 0. -1.
        -11    1    3    3    0    0  0.55870435737E+01 -0.26024129593E+01 -0.23272504776E+02  0.24074822697E+02  0.51100000000E-03 0.  1.
        -12    1    3    3    0    0 -0.30880877209E+02  0.20158829613E+01 -0.96196308341E+00  0.30961552518E+02  0.00000000000E+00 0.  1.
</event>
<event>
 7    1  0.2429906E-015  0.9000770E+02  0.7816164E-02  0.1186339E+00
        -11   -1    0    0    0    0  0.00000000000E+00  0.00000000000E+00  0.45593999997E+02  0.45594000000E+02  0.51100000000E-03 0.  1.
         11   -1    0    0    0    0 -0.00000000000E+00 -0.00000000000E+00 -0.45593999997E+02  0.45594000000E+02  0.51100000000E-03 0. -1.
    9900012    2    1    2    0    0 -0.65553406751E+00 -0.54185261030E+00 -0.81839467289E+00  0.90007703848E+02  0.89999964739E+02 0.  0.
        -12    1    1    2    0    0  0.65553406751E+00  0.54185261030E+00  0.81839467289E+00  0.11802961516E+01  0.00000000000E+00 0.  1.
         11    1    3    3    0    0  0.32889405110E+01 -0.85256262049E+01  0.55741580333E+01  0.10703955807E+02  0.51100000000E-03 0. -1.
        -11    1    3    3    0    0  0.19941700671E+02 -0.66884599130E+01  0.27945330015E+02  0.34976397636E+02  0.51100000000E-03 0.  1.
         12    1    3    3    0    0 -0.23886175250E+02  0.14672233508E+02 -0.34337882722E+02  0.44327350405E+02  0.00000000000E+00 0. -1.
</event>
<event>
 7    1  0.2429906E-015  0.9000776E+02  0.7816164E-02  0.1186339E+00
        -11   -1    0    0    0    0  0.00000000000E+00  0.00000000000E+00  0.45593999997E+02  0.45594000000E+02  0.51100000000E-03 0. -1.
         11   -1    0    0    0    0 -0.00000000000E+00 -0.00000000000E+00 -0.45593999997E+02  0.45594000000E+02  0.51100000000E-03 0.  1.
    9900012    2    1    2    0    0  0.25683464230E+00  0.99567099097E+00  0.57935368040E+00  0.90007756194E+02  0.90000017775E+02 0.  0.
        -12    1    1    2    0    0 -0.25683464230E+00 -0.99567099097E+00 -0.57935368040E+00  0.11802438065E+01  0.00000000000E+00 0.  1.
         11    1    3    3    0    0  0.88887864659E+01  0.41390467603E+01  0.10771067745E+01  0.98641974932E+01  0.51100000000E-03 0. -1.
        -11    1    3    3    0    0  0.27108235278E+01  0.16660644412E+02 -0.34952945302E+02  0.38815383831E+02  0.51100000000E-03 0.  1.
         12    1    3    3    0    0 -0.11342775351E+02 -0.19804020181E+02  0.34455192207E+02  0.41328174870E+02  0.00000000000E+00 0. -1.
</event>
<event>
 7    1  0.2429906E-015  0.9000765E+02  0.7816164E-02  0.1186339E+00
        -11   -1    0    0    0    0  0.00000000000E+00  0.00000000000E+00  0.45593999997E+02  0.45594000000E+02  0.51100000000E-03 0. -1.
         11   -1    0    0    0    0 -0.00000000000E+00 -0.00000000000E+00 -0.45593999997E+02  0.45594000000E+02  0.51100000000E-03 0.  1.
    9900012    2    1    2    0    0  0.10151528354E+01  0.59032565050E+00 -0.11924003326E+00  0.90007645037E+02  0.89999905152E+02 0.  0.
        -12    1    1    2    0    0 -0.10151528354E+01 -0.59032565050E+00  0.11924003326E+00  0.11803549629E+01  0.00000000000E+00 0.  1.
         11    1    3    3    0    0  0.60880083239E+01  0.25882155089E+01 -0.67094336140E+01  0.94222717301E+01  0.51100000000E-03 0. -1.
        -11    1    3    3    0    0  0.16285070695E+02  0.33549140650E+02 -0.47471220261E+01  0.37593663478E+02  0.51100000000E-03 0.  1.
         12    1    3    3    0    0 -0.21357926184E+02 -0.35547030509E+02  0.11337315607E+02  0.42991709829E+02  0.00000000000E+00 0. -1.
</event>
<event>
 7    1  0.2429906E-015  0.9000769E+02  0.7816164E-02  0.1186339E+00
        -11   -1    0    0    0    0  0.00000000000E+00  0.00000000000E+00  0.45593999997E+02  0.45594000000E+02  0.51100000000E-03 0.  1.
         11   -1    0    0    0    0 -0.00000000000E+00 -0.00000000000E+00 -0.45593999997E+02  0.45594000000E+02  0.51100000000E-03 0. -1.
    9900012    2    1    2    0    0  0.61784899869E+00  0.42113700440E+00 -0.91325418922E+00  0.90007692000E+02  0.89999952734E+02 0.  0.
        -12    1    1    2    0    0 -0.61784899869E+00 -0.42113700440E+00  0.91325418922E+00  0.11803080004E+01  0.00000000000E+00 0.  1.
         11    1    3    3    0    0 -0.37958562260E+02 -0.85185592157E+00 -0.72806778452E+01  0.38659880723E+02  0.51100000000E-03 0. -1.
        -11    1    3    3    0    0 -0.55870603327E+01  0.32890392298E+01  0.25751747505E+01  0.69759979554E+01  0.51100000000E-03 0.  1.
        -12    1    3    3    0    0  0.44163471591E+02 -0.20160463038E+01  0.37922489055E+01  0.44371813322E+02  0.00000000000E+00 0.  1.
</event>
<event>
 7    1  0.2429906E-015  0.9000779E+02  0.7816164E-02  0.1186339E+00
        -11   -1    0    0    0    0  0.00000000000E+00  0.00000000000E+00  0.45593999997E+02  0.45594000000E+02  0.51100000000E-03 0. -1.
         11   -1    0    0    0    0 -0.00000000000E+00 -0.00000000000E+00 -0.45593999997E+02  0.45594000000E+02  0.51100000000E-03 0.  1.
    9900012    2    1    2    0    0  0.48321543101E-01  0.16072887942E-01  0.11791157216E+01  0.90007785107E+02  0.90000047070E+02 0.  0.
        -12    1    1    2    0    0 -0.48321543101E-01 -0.16072887942E-01 -0.11791157216E+01  0.11802148932E+01  0.00000000000E+00 0.  1.
         11    1    3    3    0    0 -0.13404385240E+01  0.27955863020E+02  0.13001578685E+00  0.27988282494E+02  0.51100000000E-03 0. -1.
        -11    1    3    3    0    0 -0.23161406891E+02 -0.55336530251E+01 -0.11559500796E+02  0.26470627946E+02  0.51100000000E-03 0.  1.
         12    1    3    3    0    0  0.24550166958E+02 -0.22406137106E+02  0.12608600730E+02  0.35548874667E+02  0.00000000000E+00 0. -1.
</event>
<event>
 7    1  0.2429906E-015  0.9000779E+02  0.7816164E-02  0.1186339E+00
        -11   -1    0    0    0    0  0.00000000000E+00  0.00000000000E+00  0.45593999997E+02  0.45594000000E+02  0.51100000000E-03 0. -1.
         11   -1    0    0    0    0 -0.00000000000E+00 -0.00000000000E+00 -0.45593999997E+02  0.45594000000E+02  0.51100000000E-03 0.  1.
    9900012    2    1    2    0    0 -0.31090865350E+00  0.82961516353E-01  0.11354981608E+01  0.90007786936E+02  0.90000048923E+02 0.  0.
        -12    1    1    2    0    0  0.31090865350E+00 -0.82961516353E-01 -0.11354981608E+01  0.11802130643E+01  0.00000000000E+00 0.  1.
         11    1    3    3    0    0  0.17425560481E+02  0.19404086668E+02  0.69116372652E+01  0.26980353360E+02  0.51100000000E-03 0. -1.
        -11    1    3    3    0    0 -0.14717129846E+02  0.17850096761E+02  0.60334173454E+01  0.23908617493E+02  0.51100000000E-03 0.  1.
        -12    1    3    3    0    0 -0.30193392888E+01 -0.37171221912E+02 -0.11809556450E+02  0.39118816083E+02  0.00000000000E+00 0.  1.
</event>
<event>
 7    1  0.2429906E-015  0.9000766E+02  0.7816164E-02  0.1186339E+00
        -11   -1    0    0    0    0  0.00000000000E+00  0.00000000000E+00  0.45593999997E+02  0.45594000000E+02  0.51100000000E-03 0.  1.
         11   -1    0    0    0    0 -0.00000000000E+00 -0.00000000000E+00 -0.45593999997E+02  0.45594000000E+02  0.51100000000E-03 0. -1.
    9900012    2    1    2    0    0 -0.11664510611E+01  0.16435595173E+00 -0.74682566210E-01  0.90007661725E+02  0.89999922060E+02 0.  0.
        -12    1    1    2    0    0  0.11664510611E+01 -0.16435595173E+00  0.74682566210E-01  0.11803382746E+01  0.00000000000E+00 0.  1.
         11    1    3    3    0    0  0.22514109951E+01 -0.35443879050E+01  0.77485932451E+01  0.88131852715E+01  0.51100000000E-03 0. -1.
        -11    1    3    3    0    0  0.51567307905E+01 -0.28757712420E+02  0.21770247030E+02  0.36435443624E+02  0.51100000000E-03 0.  1.
         12    1    3    3    0    0 -0.85745928467E+01  0.32466456277E+02 -0.29593522842E+02  0.44759032830E+02  0.00000000000E+00 0. -1.
</event>
<event>
 7    1  0.2429906E-015  0.9000803E+02  0.7816164E-02  0.1186338E+00
        -11   -1    0    0    0    0  0.00000000000E+00  0.00000000000E+00  0.45593999997E+02  0.45594000000E+02  0.51100000000E-03 0.  1.
         11   -1    0    0    0    0 -0.00000000000E+00 -0.00000000000E+00 -0.45593999997E+02  0.45594000000E+02  0.51100000000E-03 0. -1.
    9900012    2    1    2    0    0  0.73967506566E+00 -0.83198089473E+00  0.39117470509E+00  0.90008030059E+02  0.90000295255E+02 0.  0.
        -12    1    1    2    0    0 -0.73967506566E+00  0.83198089473E+00 -0.39117470509E+00  0.11799699411E+01  0.00000000000E+00 0.  1.
         11    1    3    3    0    0 -0.33135081412E+02 -0.12147885948E+02  0.95612241198E+01  0.36563940708E+02  0.51100000000E-03 0. -1.
        -11    1    3    3    0    0 -0.73471038348E+01 -0.29423578135E+01 -0.55694587721E+01  0.96776172449E+01  0.51100000000E-03 0.  1.
        -12    1    3    3    0    0  0.41221860312E+02  0.14258262867E+02 -0.36005906426E+01  0.43766472106E+02  0.00000000000E+00 0.  1.
</event>
<event>
 7    1  0.2429906E-015  0.9000774E+02  0.7816164E-02  0.1186339E+00
        -11   -1    0    0    0    0  0.00000000000E+00  0.00000000000E+00  0.45593999997E+02  0.45594000000E+02  0.51100000000E-03 0.  1.
         11   -1    0    0    0    0 -0.00000000000E+00 -0.00000000000E+00 -0.45593999997E+02  0.45594000000E+02  0.51100000000E-03 0. -1.
    9900012    2    1    2    0    0 -0.55459341564E+00  0.99909146436E+00 -0.29538613195E+00  0.90007741309E+02  0.90000002694E+02 0.  0.
        -12    1    1    2    0    0  0.55459341564E+00 -0.99909146436E+00  0.29538613195E+00  0.11802586910E+01  0.00000000000E+00 0.  1.
         11    1    3    3    0    0  0.13086233862E+02 -0.34340690390E+01 -0.39645849940E+02  0.41890759895E+02  0.51100000000E-03 0. -1.
        -11    1    3    3    0    0 -0.64467638836E+00  0.88844743388E+01  0.32349463413E+01  0.94770443713E+01  0.51100000000E-03 0.  1.
        -12    1    3    3    0    0 -0.12996150889E+02 -0.44513138355E+01  0.36115517467E+02  0.38639937043E+02  0.00000000000E+00 0.  1.
</event>
<event>
 7    1  0.2429906E-015  0.9000790E+02  0.7816164E-02  0.1186339E+00
        -11   -1    0    0    0    0  0.00000000000E+00  0.00000000000E+00  0.45593999997E+02  0.45594000000E+02  0.51100000000E-03 0.  1.
         11   -1    0    0    0    0 -0.00000000000E+00 -0.00000000000E+00 -0.45593999997E+02  0.45594000000E+02  0.51100000000E-03 0. -1.
    9900012    2    1    2    0    0  0.71811671077E-01  0.21934368318E+00 -0.11573132245E+01  0.90007897264E+02  0.90000160708E+02 0.  0.
        -12    1    1    2    0    0 -0.71811671077E-01 -0.21934368318E+00  0.11573132245E+01  0.11801027358E+01  0.00000000000E+00 0.  1.
         11    1    3    3    0    0  0.21203139659E+02  0.29017405961E+02 -0.32489932826E+01  0.36085162293E+02  0.51100000000E-03 0. -1.
        -11    1    3    3    0    0  0.14480305307E+01  0.93896601052E+01 -0.16026109908E+00  0.95020099553E+01  0.51100000000E-03 0.  1.
        -12    1    3    3    0    0 -0.22579358518E+02 -0.38187722383E+02  0.22519411572E+01  0.44420725016E+02  0.00000000000E+00 0.  1.
</event>
<event>
 7    1  0.2429906E-015  0.9000794E+02  0.7816164E-02  0.1186339E+00
        -11   -1    0    0    0    0  0.00000000000E+00  0.00000000000E+00  0.45593999997E+02  0.45594000000E+02  0.51100000000E-03 0.  1.
         11   -1    0    0    0    0 -0.00000000000E+00 -0.00000000000E+00 -0.45593999997E+02  0.45594000000E+02  0.51100000000E-03 0. -1.
    9900012    2    1    2    0    0 -0.24851662139E+00  0.10095609502E+01 -0.55818193369E+00  0.90007940301E+02  0.90000204312E+02 0.  0.
        -12    1    1    2    0    0  0.24851662139E+00 -0.10095609502E+01  0.55818193369E+00  0.11800596995E+01  0.00000000000E+00 0.  1.
         11    1    3    3    0    0  0.42991448423E+01 -0.66958160746E+01 -0.29342778620E+01  0.84809543161E+01  0.51100000000E-03 0. -1.
        -11    1    3    3    0    0  0.21951412443E+02  0.14924810961E+01  0.33564000360E+02  0.40132706469E+02  0.51100000000E-03 0.  1.
         12    1    3    3    0    0 -0.26499073907E+02  0.62128959287E+01 -0.31187904432E+02  0.41394279515E+02  0.00000000000E+00 0. -1.
</event>
<event>
 7    1  0.2429906E-015  0.9000765E+02  0.7816164E-02  0.1186339E+00
        -11   -1    0    0    0    0  0.00000000000E+00  0.00000000000E+00  0.45593999997E+02  0.45594000000E+02  0.51100000000E-03 0.  1.
         11   -1    0    0    0    0 -0.00000000000E+00 -0.00000000000E+00 -0.45593999997E+02  0.45594000000E+02  0.51100000000E-03 0. -1.
    9900012    2    1    2    0    0 -0.44528698975E+00 -0.10706898151E+01 -0.22035822027E+00  0.90007654742E+02  0.89999914984E+02 0.  0.
        -12    1    1    2    0    0  0.44528698975E+00  0.10706898151E+01  0.22035822027E+00  0.11803452582E+01  0.00000000000E+00 0.  1.
         11    1    3    3    0    0  0.35435140396E+02 -0.13419403207E+02 -0.41899253026E+01  0.38121975705E+02  0.51100000000E-03 0. -1.
        -11    1    3    3    0    0  0.38243408607E+01  0.92700000014E+00 -0.79628514326E+01  0.88821120922E+01  0.51100000000E-03 0.  1.
        -12    1    3    3    0    0 -0.39704768247E+02  0.11421713392E+02  0.11932418515E+02  0.43003566945E+02  0.00000000000E+00 0.  1.
</event>
<event>
 7    1  0.2429906E-015  0.9000772E+02  0.7816164E-02  0.1186339E+00
        -11   -1    0    0    0    0  0.00000000000E+00  0.00000000000E+00  0.45593999997E+02  0.45594000000E+02  0.51100000000E-03 0.  1.
         11   -1    0    0    0    0 -0.00000000000E+00 -0.00000000000E+00 -0.45593999997E+02  0.45594000000E+02  0.51100000000E-03 0. -1.
    9900012    2    1    2    0    0  0.13084322123E+00 -0.79013895176E+00 -0.86695855915E+00  0.90007721789E+02  0.89999982917E+02 0.  0.
        -12    1    1    2    0    0 -0.13084322123E+00  0.79013895176E+00  0.86695855915E+00  0.11802782108E+01  0.00000000000E+00 0.  1.
         11    1    3    3    0    0  0.83494767019E+01  0.35255288063E+00 -0.57317861772E+01  0.10133677899E+02  0.51100000000E-03 0. -1.
        -11    1    3    3    0    0 -0.36447848616E+02  0.17529295359E+02  0.17064625935E+02  0.43896734766E+02  0.51100000000E-03 0.  1.
         12    1    3    3    0    0  0.28229215135E+02 -0.18671987192E+02 -0.12199798317E+02  0.35977309124E+02  0.00000000000E+00 0. -1.
</event>
<event>
 7    1  0.2429906E-015  0.9000776E+02  0.7816164E-02  0.1186339E+00
        -11   -1    0    0    0    0  0.00000000000E+00  0.00000000000E+00  0.45593999997E+02  0.45594000000E+02  0.51100000000E-03 0.  1.
         11   -1    0    0    0    0 -0.00000000000E+00 -0.00000000000E+00 -0.45593999997E+02  0.45594000000E+02  0.51100000000E-03 0. -1.
    9900012    2    1    2    0    0 -0.69250845267E+00 -0.76600428536E+00 -0.57152734757E+00  0.90007756791E+02  0.90000018381E+02 0.  0.
        -12    1    1    2    0    0  0.69250845267E+00  0.76600428536E+00  0.57152734757E+00  0.11802432085E+01  0.00000000000E+00 0.  1.
         11    1    3    3    0    0 -0.15165122334E+02 -0.37998221327E+02  0.35167152940E+01  0.41063524521E+02  0.51100000000E-03 0. -1.
        -11    1    3    3    0    0 -0.10184499911E+00  0.61703806824E+00 -0.91854787897E+01  0.92067436827E+01  0.51100000000E-03 0.  1.
        -12    1    3    3    0    0  0.14574458881E+02  0.36615178973E+02  0.50972361481E+01  0.39737488587E+02  0.00000000000E+00 0.  1.
</event>
<event>
 7    1  0.2429906E-015  0.9000792E+02  0.7816164E-02  0.1186339E+00
        -11   -1    0    0    0    0  0.00000000000E+00  0.00000000000E+00  0.45593999997E+02  0.45594000000E+02  0.51100000000E-03 0.  1.
         11   -1    0    0    0    0 -0.00000000000E+00 -0.00000000000E+00 -0.45593999997E+02  0.45594000000E+02  0.51100000000E-03 0. -1.
    9900012    2    1    2    0    0  0.70181955851E+00  0.62180060774E-01 -0.94666156384E+00  0.90007921541E+02  0.90000185305E+02 0.  0.
        -12    1    1    2    0    0 -0.70181955851E+00 -0.62180060774E-01  0.94666156384E+00  0.11800784589E+01  0.00000000000E+00 0.  1.
         11    1    3    3    0    0  0.32707194742E+02  0.49080748884E+01 -0.23163388605E+02  0.40378117328E+02  0.51100000000E-03 0. -1.
        -11    1    3    3    0    0  0.25470226763E+00  0.90789946076E+01  0.29071942676E+01  0.95364980522E+01  0.51100000000E-03 0.  1.
        -12    1    3    3    0    0 -0.32260077452E+02 -0.13924889435E+02  0.19309532774E+02  0.40093306161E+02  0.00000000000E+00 0.  1.
</event>
<event>
 7    1  0.2429906E-015  0.9000781E+02  0.7816164E-02  0.1186339E+00
        -11   -1    0    0    0    0  0.00000000000E+00  0.00000000000E+00  0.45593999997E+02  0.45594000000E+02  0.51100000000E-03 0.  1.
         11   -1    0    0    0    0 -0.00000000000E+00 -0.00000000000E+00 -0.45593999997E+02  0.45594000000E+02  0.51100000000E-03 0. -1.
    9900012    2    1    2    0    0  0.27216718389E+00  0.10551748350E+01  0.45319257837E+00  0.90007808312E+02  0.90000070581E+02 0.  0.
        -12    1    1    2    0    0 -0.27216718389E+00 -0.10551748350E+01 -0.45319257837E+00  0.11801916884E+01  0.00000000000E+00 0.  1.
         11    1    3    3    0    0  0.16975841850E+02  0.38600996275E+02  0.40509750956E+01  0.42363032462E+02  0.51100000000E-03 0. -1.
        -11    1    3    3    0    0 -0.14439085021E+00 -0.52109722934E+01 -0.95036209467E+01  0.10839459964E+02  0.51100000000E-03 0.  1.
        -12    1    3    3    0    0 -0.16559283816E+02 -0.32334849147E+02  0.59058384295E+01  0.36805315885E+02  0.00000000000E+00 0.  1.
</event>
<event>
 7    1  0.2429906E-015  0.9000771E+02  0.7816164E-02  0.1186339E+00
        -11   -1    0    0    0    0  0.00000000000E+00  0.00000000000E+00  0.45593999997E+02  0.45594000000E+02  0.51100000000E-03 0.  1.
         11   -1    0    0    0    0 -0.00000000000E+00 -0.00000000000E+00 -0.45593999997E+02  0.45594000000E+02  0.51100000000E-03 0. -1.
    9900012    2    1    2    0    0  0.44645106150E+00 -0.93719527808E+00  0.56163132684E+00  0.90007710507E+02  0.89999971486E+02 0.  0.
        -12    1    1    2    0    0 -0.44645106150E+00  0.93719527808E+00 -0.56163132684E+00  0.11802894928E+01  0.00000000000E+00 0.  1.
         11    1    3    3    0    0  0.92061288723E+01  0.19372518961E+01  0.41949396670E+01  0.10300644290E+02  0.51100000000E-03 0. -1.
        -11    1    3    3    0    0 -0.34887971179E+02 -0.74178315325E+01  0.22744261811E+02  0.42302437321E+02  0.51100000000E-03 0.  1.
         12    1    3    3    0    0  0.26128293369E+02  0.45433843583E+01 -0.26377570151E+02  0.37404628896E+02  0.00000000000E+00 0. -1.
</event>
<event>
 7    1  0.2429906E-015  0.9000784E+02  0.7816164E-02  0.1186339E+00
        -11   -1    0    0    0    0  0.00000000000E+00  0.00000000000E+00  0.45593999997E+02  0.45594000000E+02  0.51100000000E-03 0. -1.
         11   -1    0    0    0    0 -0.00000000000E+00 -0.00000000000E+00 -0.45593999997E+02  0.45594000000E+02  0.51100000000E-03 0.  1.
    9900012    2    1    2    0    0  0.87805102207E+00 -0.77819754429E+00  0.12729456236E+00  0.90007843688E+02  0.90000106425E+02 0.  0.
        -12    1    1    2    0    0 -0.87805102207E+00  0.77819754429E+00 -0.12729456236E+00  0.11801563121E+01  0.00000000000E+00 0.  1.
         11    1    3    3    0    0  0.13261093248E+01  0.54772301308E+01  0.40957948141E+01  0.69666456252E+01  0.51100000000E-03 0. -1.
        -11    1    3    3    0    0  0.26474762158E+02  0.26718843720E+02 -0.12478203468E+02  0.39629726256E+02  0.51100000000E-03 0.  1.
         12    1    3    3    0    0 -0.26922820461E+02 -0.32974271395E+02  0.85097032167E+01  0.43411471807E+02  0.00000000000E+00 0. -1.
</event>
<event>
 7    1  0.2429906E-015  0.9000774E+02  0.7816164E-02  0.1186339E+00
        -11   -1    0    0    0    0  0.00000000000E+00  0.00000000000E+00  0.45593999997E+02  0.45594000000E+02  0.51100000000E-03 0. -1.
         11   -1    0    0    0    0 -0.00000000000E+00 -0.00000000000E+00 -0.45593999997E+02  0.45594000000E+02  0.51100000000E-03 0.  1.
    9900012    2    1    2    0    0 -0.27693876670E+00  0.10066923740E+01  0.55036119019E+00  0.90007736446E+02  0.89999997767E+02 0.  0.
        -12    1    1    2    0    0  0.27693876670E+00 -0.10066923740E+01 -0.55036119019E+00  0.11802635536E+01  0.00000000000E+00 0.  1.
         11    1    3    3    0    0 -0.14416470257E+02  0.37244866771E+02  0.10416673729E+02  0.41273742347E+02  0.51100000000E-03 0. -1.
        -11    1    3    3    0    0 -0.63616748361E+00 -0.11965925941E+01 -0.10611132630E+02  0.10697321107E+02  0.51100000000E-03 0.  1.
        -12    1    3    3    0    0  0.14775698974E+02 -0.35041581803E+02  0.74482009101E+00  0.38036672993E+02  0.00000000000E+00 0.  1.
</event>
<event>
 7    1  0.2429906E-015  0.9000773E+02  0.7816164E-02  0.1186339E+00
        -11   -1    0    0    0    0  0.00000000000E+00  0.00000000000E+00  0.45593999997E+02  0.45594000000E+02  0.51100000000E-03 0.  1.
         11   -1    0    0    0    0 -0.00000000000E+00 -0.00000000000E+00 -0.45593999997E+02  0.45594000000E+02  0.51100000000E-03 0. -1.
    9900012    2    1    2    0    0 -0.82136107361E+00  0.51561609558E+00  0.67271786764E+00  0.90007727446E+02  0.89999988649E+02 0.  0.
        -12    1    1    2    0    0  0.82136107361E+00 -0.51561609558E+00 -0.67271786764E+00  0.11802725536E+01  0.00000000000E+00 0.  1.
         11    1    3    3    0    0 -0.50253278149E+01 -0.83580081321E+01 -0.42158712307E-01  0.97525379877E+01  0.51100000000E-03 0. -1.
        -11    1    3    3    0    0 -0.12387503312E+02 -0.22289463019E+02  0.26316704568E+02  0.36644772336E+02  0.51100000000E-03 0.  1.
         12    1    3    3    0    0  0.16591470053E+02  0.31163087247E+02 -0.25601827988E+02  0.43610417123E+02  0.00000000000E+00 0. -1.
</event>
<event>
 7    1  0.2429906E-015  0.9000780E+02  0.7816164E-02  0.1186339E+00
        -11   -1    0    0    0    0  0.00000000000E+00  0.00000000000E+00  0.45593999997E+02  0.45594000000E+02  0.51100000000E-03 0.  1.
         11   -1    0    0    0    0 -0.00000000000E+00 -0.00000000000E+00 -0.45593999997E+02  0.45594000000E+02  0.51100000000E-03 0. -1.
    9900012    2    1    2    0    0 -0.40134053229E+00 -0.10690418358E+01 -0.29824951827E+00  0.90007797710E+02  0.90000059840E+02 0.  0.
        -12    1    1    2    0    0  0.40134053229E+00  0.10690418358E+01  0.29824951827E+00  0.11802022897E+01  0.00000000000E+00 0.  1.
         11    1    3    3    0    0 -0.10070344661E+01 -0.23569203042E+01 -0.79823344455E+01  0.83837256155E+01  0.51100000000E-03 0. -1.
        -11    1    3    3    0    0  0.29940415480E+02  0.22497727259E+02 -0.13347808948E+02  0.39758523802E+02  0.51100000000E-03 0.  1.
         12    1    3    3    0    0 -0.29334721546E+02 -0.21209848791E+02  0.21031893875E+02  0.41865548293E+02  0.00000000000E+00 0. -1.
</event>
<event>
 7    1  0.2429906E-015  0.9000781E+02  0.7816164E-02  0.1186339E+00
        -11   -1    0    0    0    0  0.00000000000E+00  0.00000000000E+00  0.45593999997E+02  0.45594000000E+02  0.51100000000E-03 0.  1.
         11   -1    0    0    0    0 -0.00000000000E+00 -0.00000000000E+00 -0.45593999997E+02  0.45594000000E+02  0.51100000000E-03 0. -1.
    9900012    2    1    2    0    0 -0.67283031558E+00  0.96690247338E+00  0.72520404272E-01  0.90007805001E+02  0.90000067227E+02 0.  0.
        -12    1    1    2    0    0  0.67283031558E+00 -0.96690247338E+00 -0.72520404272E-01  0.11801949990E+01  0.00000000000E+00 0.  1.
         11    1    3    3    0    0  0.76546635440E+00  0.10744362245E+02  0.49086355221E+01  0.11837312269E+02  0.51100000000E-03 0. -1.
        -11    1    3    3    0    0  0.23773948455E+02  0.10957987502E+02  0.23322273680E+02  0.35060042286E+02  0.51100000000E-03 0.  1.
         12    1    3    3    0    0 -0.25212245125E+02 -0.20735447274E+02 -0.28158388798E+02  0.43110450446E+02  0.00000000000E+00 0. -1.
</event>
<event>
 7    1  0.2429906E-015  0.9000774E+02  0.7816164E-02  0.1186339E+00
        -11   -1    0    0    0    0  0.00000000000E+00  0.00000000000E+00  0.45593999997E+02  0.45594000000E+02  0.51100000000E-03 0.  1.
         11   -1    0    0    0    0 -0.00000000000E+00 -0.00000000000E+00 -0.45593999997E+02  0.45594000000E+02  0.51100000000E-03 0. -1.
    9900012    2    1    2    0    0 -0.23354453684E+00 -0.38221487883E+00 -0.10919608743E+01  0.90007741632E+02  0.90000003021E+02 0.  0.
        -12    1    1    2    0    0  0.23354453684E+00  0.38221487883E+00  0.10919608743E+01  0.11802583681E+01  0.00000000000E+00 0.  1.
         11    1    3    3    0    0 -0.23810559364E+02 -0.19077361060E+02  0.15132266700E+02  0.34056922027E+02  0.51100000000E-03 0. -1.
        -11    1    3    3    0    0 -0.52185841176E+01  0.11308035330E+01  0.11246575981E+02  0.12449811580E+02  0.51100000000E-03 0.  1.
        -12    1    3    3    0    0  0.28795598944E+02  0.17564342648E+02 -0.27470803555E+02  0.43501008025E+02  0.00000000000E+00 0.  1.
</event>
<event>
 7    1  0.2429906E-015  0.9000772E+02  0.7816164E-02  0.1186339E+00
        -11   -1    0    0    0    0  0.00000000000E+00  0.00000000000E+00  0.45593999997E+02  0.45594000000E+02  0.51100000000E-03 0.  1.
         11   -1    0    0    0    0 -0.00000000000E+00 -0.00000000000E+00 -0.45593999997E+02  0.45594000000E+02  0.51100000000E-03 0. -1.
    9900012    2    1    2    0    0  0.32785825695E+00 -0.86887680163E+00 -0.72843783460E+00  0.90007720537E+02  0.89999981648E+02 0.  0.
        -12    1    1    2    0    0 -0.32785825695E+00  0.86887680163E+00  0.72843783460E+00  0.11802794635E+01  0.00000000000E+00 0.  1.
         11    1    3    3    0    0 -0.14852145952E+02  0.36820654172E+02  0.26102516553E+01  0.39788946041E+02  0.51100000000E-03 0. -1.
        -11    1    3    3    0    0  0.10115469173E+02  0.17664536236E+01 -0.16753352234E+01  0.10404317535E+02  0.51100000000E-03 0.  1.
        -12    1    3    3    0    0  0.50645350363E+01 -0.39455984597E+02 -0.16633542665E+01  0.39814456961E+02  0.00000000000E+00 0.  1.
</event>
<event>
 7    1  0.2429906E-015  0.9000775E+02  0.7816164E-02  0.1186339E+00
        -11   -1    0    0    0    0  0.00000000000E+00  0.00000000000E+00  0.45593999997E+02  0.45594000000E+02  0.51100000000E-03 0. -1.
         11   -1    0    0    0    0 -0.00000000000E+00 -0.00000000000E+00 -0.45593999997E+02  0.45594000000E+02  0.51100000000E-03 0.  1.
    9900012    2    1    2    0    0 -0.47066414213E-01  0.67158836386E+00  0.96939898386E+00  0.90007754022E+02  0.90000015575E+02 0.  0.
        -12    1    1    2    0    0  0.47066414213E-01 -0.67158836386E+00 -0.96939898386E+00  0.11802459776E+01  0.00000000000E+00 0.  1.
         11    1    3    3    0    0  0.16882735182E+02 -0.12537906871E+02  0.62770267118E+01  0.21946000103E+02  0.51100000000E-03 0. -1.
        -11    1    3    3    0    0  0.11196769526E+02 -0.18953184833E+02  0.78247605521E+01  0.23362742585E+02  0.51100000000E-03 0.  1.
        -12    1    3    3    0    0 -0.28126571123E+02  0.32162680068E+02 -0.13132388280E+02  0.44699011334E+02  0.00000000000E+00 0.  1.
</event>
<event>
 7    1  0.2429906E-015  0.9000802E+02  0.7816164E-02  0.1186338E+00
        -11   -1    0    0    0    0  0.00000000000E+00  0.00000000000E+00  0.45593999997E+02  0.45594000000E+02  0.51100000000E-03 0. -1.
         11   -1    0    0    0    0 -0.00000000000E+00 -0.00000000000E+00 -0.45593999997E+02  0.45594000000E+02  0.51100000000E-03 0.  1.
    9900012    2    1    2    0    0  0.59309688656E+00  0.73887006181E+00  0.70332274572E+00  0.90008018742E+02  0.90000283789E+02 0.  0.
        -12    1    1    2    0    0 -0.59309688656E+00 -0.73887006181E+00 -0.70332274572E+00  0.11799812582E+01  0.00000000000E+00 0.  1.
         11    1    3    3    0    0 -0.10592864949E+01  0.43138861824E+01  0.86891160293E+01  0.97587109550E+01  0.51100000000E-03 0. -1.
        -11    1    3    3    0    0 -0.37007637558E+02  0.85964252689E+01  0.34136702970E+01  0.38145994681E+02  0.51100000000E-03 0.  1.
         12    1    3    3    0    0  0.38660020940E+02 -0.12171441389E+02 -0.11399463581E+02  0.42103313106E+02  0.00000000000E+00 0. -1.
</event>
<event>
 7    1  0.2429906E-015  0.9000778E+02  0.7816164E-02  0.1186339E+00
        -11   -1    0    0    0    0  0.00000000000E+00  0.00000000000E+00  0.45593999997E+02  0.45594000000E+02  0.51100000000E-03 0.  1.
         11   -1    0    0    0    0 -0.00000000000E+00 -0.00000000000E+00 -0.45593999997E+02  0.45594000000E+02  0.51100000000E-03 0. -1.
    9900012    2    1    2    0    0  0.34406410392E+00 -0.84985404455E-01 -0.11257501300E+01  0.90007781384E+02  0.90000043298E+02 0.  0.
        -12    1    1    2    0    0 -0.34406410392E+00  0.84985404455E-01  0.11257501300E+01  0.11802186161E+01  0.00000000000E+00 0.  1.
         11    1    3    3    0    0 -0.75481089228E+01  0.10669945485E+00 -0.82350198574E+01  0.11171431663E+02  0.51100000000E-03 0. -1.
        -11    1    3    3    0    0 -0.79176147497E+01 -0.32589866979E+02  0.21699762460E+02  0.39945810095E+02  0.51100000000E-03 0.  1.
         12    1    3    3    0    0  0.15809787776E+02  0.32398182120E+02 -0.14590492733E+02  0.38890539626E+02  0.00000000000E+00 0. -1.
</event>
<event>
 7    1  0.2429906E-015  0.9000764E+02  0.7816164E-02  0.1186339E+00
        -11   -1    0    0    0    0  0.00000000000E+00  0.00000000000E+00  0.45593999997E+02  0.45594000000E+02  0.51100000000E-03 0. -1.
         11   -1    0    0    0    0 -0.00000000000E+00 -0.00000000000E+00 -0.45593999997E+02  0.45594000000E+02  0.51100000000E-03 0.  1.
    9900012    2    1    2    0    0 -0.90342552239E+00 -0.96201315472E-01  0.75354160502E+00  0.90007636786E+02  0.89999896791E+02 0.  0.
        -12    1    1    2    0    0  0.90342552239E+00  0.96201315472E-01 -0.75354160502E+00  0.11803632145E+01  0.00000000000E+00 0.  1.
         11    1    3    3    0    0  0.23730363891E+01 -0.65275603936E+01 -0.59793363772E+01  0.91647591441E+01  0.51100000000E-03 0. -1.
        -11    1    3    3    0    0  0.32389175679E+02 -0.11256998810E+02 -0.12669723008E+02  0.36555445624E+02  0.51100000000E-03 0.  1.
         12    1    3    3    0    0 -0.35665637591E+02  0.17688357888E+02  0.19402600990E+02  0.44287432018E+02  0.00000000000E+00 0. -1.
</event>
<event>
 7    1  0.3027788E-015  0.9000781E+02  0.7816164E-02  0.1186339E+00
        -11   -1    0    0    0    0  0.00000000000E+00  0.00000000000E+00  0.45593999997E+02  0.45594000000E+02  0.51100000000E-03 0. -1.
         11   -1    0    0    0    0 -0.00000000000E+00 -0.00000000000E+00 -0.45593999997E+02  0.45594000000E+02  0.51100000000E-03 0.  1.
    9900012    2    1    2    0    0 -0.51328951421E+00 -0.59279391570E+00  0.88202623139E+00  0.90007813140E+02  0.90000075473E+02 0.  0.
        -12    1    1    2    0    0  0.51328951421E+00  0.59279391570E+00 -0.88202623139E+00  0.11801868601E+01  0.00000000000E+00 0.  1.
         11    1    3    3    0    0 -0.29082551945E+02 -0.63741572918E+01  0.21026441311E+02  0.36449087002E+02  0.51100000000E-03 0. -1.
        -11    1    3    3    0    0 -0.50926040420E+01 -0.13790267396E+01  0.76697455944E+01  0.93092066483E+01  0.51100000000E-03 0.  1.
        -12    1    3    3    0    0  0.33661866473E+02  0.71603901156E+01 -0.27814160674E+02  0.44249519489E+02  0.00000000000E+00 0.  1.
</event>
<event>
 7    1  0.2429906E-015  0.9000773E+02  0.7816164E-02  0.1186339E+00
        -11   -1    0    0    0    0  0.00000000000E+00  0.00000000000E+00  0.45593999997E+02  0.45594000000E+02  0.51100000000E-03 0. -1.
         11   -1    0    0    0    0 -0.00000000000E+00 -0.00000000000E+00 -0.45593999997E+02  0.45594000000E+02  0.51100000000E-03 0.  1.
    9900012    2    1    2    0    0 -0.10631364671E+01 -0.34846924308E+00  0.37594729785E+00  0.90007734635E+02  0.89999995932E+02 0.  0.
        -12    1    1    2    0    0  0.10631364671E+01  0.34846924308E+00 -0.37594729785E+00  0.11802653650E+01  0.00000000000E+00 0.  1.
         11    1    3    3    0    0  0.49301468583E+01 -0.83438230495E+00 -0.80783300214E+01  0.95006293513E+01  0.51100000000E-03 0. -1.
        -11    1    3    3    0    0 -0.12164741114E+02 -0.11445319585E+02 -0.32969942546E+02  0.36959347647E+02  0.51100000000E-03 0.  1.
         12    1    3    3    0    0  0.61714577881E+01  0.11931232646E+02  0.41424219865E+02  0.43547757636E+02  0.00000000000E+00 0. -1.
</event>
<event>
 7    1  0.2429906E-015  0.9000792E+02  0.7816164E-02  0.1186339E+00
        -11   -1    0    0    0    0  0.00000000000E+00  0.00000000000E+00  0.45593999997E+02  0.45594000000E+02  0.51100000000E-03 0. -1.
         11   -1    0    0    0    0 -0.00000000000E+00 -0.00000000000E+00 -0.45593999997E+02  0.45594000000E+02  0.51100000000E-03 0.  1.
    9900012    2    1    2    0    0  0.77105959005E-01  0.11180265348E+01  0.36967946681E+00  0.90007918829E+02  0.90000182558E+02 0.  0.
        -12    1    1    2    0    0 -0.77105959005E-01 -0.11180265348E+01 -0.36967946681E+00  0.11800811708E+01  0.00000000000E+00 0.  1.
         11    1    3    3    0    0  0.73740098546E+01 -0.31996140437E+01 -0.12917591813E+01  0.81413876832E+01  0.51100000000E-03 0. -1.
        -11    1    3    3    0    0  0.77875107033E+01 -0.17120869551E+02 -0.33254820128E+02  0.38205399607E+02  0.51100000000E-03 0.  1.
         12    1    3    3    0    0 -0.15084414599E+02  0.21438510129E+02  0.34916258776E+02  0.43661131539E+02  0.00000000000E+00 0. -1.
</event>
<event>
 7    1  0.2429906E-015  0.9000776E+02  0.7816164E-02  0.1186339E+00
        -11   -1    0    0    0    0  0.00000000000E+00  0.00000000000E+00  0.45593999997E+02  0.45594000000E+02  0.51100000000E-03 0.  1.
         11   -1    0    0    0    0 -0.00000000000E+00 -0.00000000000E+00 -0.45593999997E+02  0.45594000000E+02  0.51100000000E-03 0. -1.
    9900012    2    1    2    0    0  0.41222319604E+00 -0.10672423752E+01 -0.28989292783E+00  0.90007757584E+02  0.90000019184E+02 0.  0.
        -12    1    1    2    0    0 -0.41222319604E+00  0.10672423752E+01  0.28989292783E+00  0.11802424160E+01  0.00000000000E+00 0.  1.
         11    1    3    3    0    0 -0.10437350879E+02  0.12413884194E+02 -0.38705060484E+02  0.41965754152E+02  0.51100000000E-03 0. -1.
        -11    1    3    3    0    0 -0.59339986072E+01 -0.58574783016E+01  0.45848884880E+01  0.95154397814E+01  0.51100000000E-03 0.  1.
        -12    1    3    3    0    0  0.16783572683E+02 -0.76236482676E+01  0.33830279069E+02  0.38526563651E+02  0.00000000000E+00 0.  1.
</event>
<event>
 7    1  0.2429906E-015  0.9000775E+02  0.7816164E-02  0.1186339E+00
        -11   -1    0    0    0    0  0.00000000000E+00  0.00000000000E+00  0.45593999997E+02  0.45594000000E+02  0.51100000000E-03 0.  1.
         11   -1    0    0    0    0 -0.00000000000E+00 -0.00000000000E+00 -0.45593999997E+02  0.45594000000E+02  0.51100000000E-03 0. -1.
    9900012    2    1    2    0    0 -0.82907288113E+00  0.40131568673E+00 -0.73795406390E+00  0.90007749042E+02  0.90000010530E+02 0.  0.
        -12    1    1    2    0    0  0.82907288113E+00 -0.40131568673E+00  0.73795406390E+00  0.11802509577E+01  0.00000000000E+00 0.  1.
         11    1    3    3    0    0 -0.49083359162E+01  0.82918414770E+01 -0.10767279979E+01  0.96956557276E+01  0.51100000000E-03 0. -1.
        -11    1    3    3    0    0 -0.29818174618E+02  0.10066496585E+02  0.19917340026E+02  0.37244574437E+02  0.51100000000E-03 0.  1.
         12    1    3    3    0    0  0.33897437653E+02 -0.17957022375E+02 -0.19578566092E+02  0.43067518877E+02  0.00000000000E+00 0. -1.
</event>
<event>
 7    1  0.2429906E-015  0.9000783E+02  0.7816164E-02  0.1186339E+00
        -11   -1    0    0    0    0  0.00000000000E+00  0.00000000000E+00  0.45593999997E+02  0.45594000000E+02  0.51100000000E-03 0.  1.
         11   -1    0    0    0    0 -0.00000000000E+00 -0.00000000000E+00 -0.45593999997E+02  0.45594000000E+02  0.51100000000E-03 0. -1.
    9900012    2    1    2    0    0 -0.36320468080E-01 -0.11546217407E+01 -0.24151383075E+00  0.90007830745E+02  0.90000093311E+02 0.  0.
        -12    1    1    2    0    0  0.36320468080E-01  0.11546217407E+01  0.24151383075E+00  0.11801692552E+01  0.00000000000E+00 0.  1.
         11    1    3    3    0    0  0.32221528397E+02  0.13844980494E+02 -0.20811299175E+02  0.40780148979E+02  0.51100000000E-03 0. -1.
        -11    1    3    3    0    0 -0.74533841969E+01  0.70544639779E+01  0.16031601356E+00  0.10263727368E+02  0.51100000000E-03 0.  1.
        -12    1    3    3    0    0 -0.24804464669E+02 -0.22054066212E+02  0.20409469330E+02  0.38963954398E+02  0.00000000000E+00 0.  1.
</event>
<event>
 7    1  0.2429906E-015  0.9000776E+02  0.7816164E-02  0.1186339E+00
        -11   -1    0    0    0    0  0.00000000000E+00  0.00000000000E+00  0.45593999997E+02  0.45594000000E+02  0.51100000000E-03 0.  1.
         11   -1    0    0    0    0 -0.00000000000E+00 -0.00000000000E+00 -0.45593999997E+02  0.45594000000E+02  0.51100000000E-03 0. -1.
    9900012    2    1    2    0    0  0.25889440242E+00 -0.10918090064E+01 -0.36590597604E+00  0.90007762566E+02  0.90000024232E+02 0.  0.
        -12    1    1    2    0    0 -0.25889440242E+00  0.10918090064E+01  0.36590597604E+00  0.11802374343E+01  0.00000000000E+00 0.  1.
         11    1    3    3    0    0 -0.13898915799E+01 -0.95883535820E+01 -0.46622013466E+01  0.10751950738E+02  0.51100000000E-03 0. -1.
        -11    1    3    3    0    0 -0.34322412886E+01  0.41811431215E+02 -0.92079073295E+01  0.42950688215E+02  0.51100000000E-03 0.  1.
         12    1    3    3    0    0  0.50810272709E+01 -0.33314886640E+02  0.13504202700E+02  0.36305123612E+02  0.00000000000E+00 0. -1.
</event>
<event>
 7    1  0.2429906E-015  0.9000761E+02  0.7816164E-02  0.1186339E+00
        -11   -1    0    0    0    0  0.00000000000E+00  0.00000000000E+00  0.45593999997E+02  0.45594000000E+02  0.51100000000E-03 0. -1.
         11   -1    0    0    0    0 -0.00000000000E+00 -0.00000000000E+00 -0.45593999997E+02  0.45594000000E+02  0.51100000000E-03 0.  1.
    9900012    2    1    2    0    0 -0.43884012762E+00 -0.70229956119E-01  0.10935338651E+01  0.90007606329E+02  0.89999865932E+02 0.  0.
        -12    1    1    2    0    0  0.43884012762E+00  0.70229956119E-01 -0.10935338651E+01  0.11803936710E+01  0.00000000000E+00 0.  1.
         11    1    3    3    0    0 -0.24428635844E+01 -0.36663091551E+01 -0.66937776976E+01  0.80134927116E+01  0.51100000000E-03 0. -1.
        -11    1    3    3    0    0  0.62226290946E+01 -0.24045618316E+02 -0.27444325882E+02  0.37014914513E+02  0.51100000000E-03 0.  1.
         12    1    3    3    0    0 -0.42186056378E+01  0.27641697515E+02  0.35231637445E+02  0.44979199104E+02  0.00000000000E+00 0. -1.
</event>
<event>
 7    1  0.2429906E-015  0.9000786E+02  0.7816164E-02  0.1186339E+00
        -11   -1    0    0    0    0  0.00000000000E+00  0.00000000000E+00  0.45593999997E+02  0.45594000000E+02  0.51100000000E-03 0. -1.
         11   -1    0    0    0    0 -0.00000000000E+00 -0.00000000000E+00 -0.45593999997E+02  0.45594000000E+02  0.51100000000E-03 0.  1.
    9900012    2    1    2    0    0 -0.11194573338E+01  0.21551425427E+00  0.30512751992E+00  0.90007858517E+02  0.90000121450E+02 0.  0.
        -12    1    1    2    0    0  0.11194573338E+01 -0.21551425427E+00 -0.30512751992E+00  0.11801414828E+01  0.00000000000E+00 0.  1.
         11    1    3    3    0    0 -0.41807577496E+02 -0.39040746733E+01 -0.16029873667E+02  0.44945213151E+02  0.51100000000E-03 0. -1.
        -11    1    3    3    0    0  0.10630894268E+02 -0.30917189693E+01  0.37592496422E+01  0.11692159649E+02  0.51100000000E-03 0.  1.
        -12    1    3    3    0    0  0.30057225895E+02  0.72113078968E+01  0.12575751545E+02  0.33370485717E+02  0.00000000000E+00 0.  1.
</event>
<event>
 7    1  0.2429906E-015  0.9000774E+02  0.7816164E-02  0.1186339E+00
        -11   -1    0    0    0    0  0.00000000000E+00  0.00000000000E+00  0.45593999997E+02  0.45594000000E+02  0.51100000000E-03 0. -1.
         11   -1    0    0    0    0 -0.00000000000E+00 -0.00000000000E+00 -0.45593999997E+02  0.45594000000E+02  0.51100000000E-03 0.  1.
    9900012    2    1    2    0    0 -0.28248692910E+00 -0.69090800097E+00  0.91425822899E+00  0.90007736961E+02  0.89999998289E+02 0.  0.
        -12    1    1    2    0    0  0.28248692910E+00  0.69090800097E+00 -0.91425822899E+00  0.11802630386E+01  0.00000000000E+00 0.  1.
         11    1    3    3    0    0  0.11563528125E+02 -0.44537904735E+01 -0.77692439138E+01  0.14625750700E+02  0.51100000000E-03 0. -1.
        -11    1    3    3    0    0 -0.72121705377E+01 -0.26334076153E+02 -0.19766864667E+02  0.33707979912E+02  0.51100000000E-03 0.  1.
         12    1    3    3    0    0 -0.46338445169E+01  0.30096958626E+02  0.28450366810E+02  0.41674006349E+02  0.00000000000E+00 0. -1.
</event>
<event>
 7    1  0.2429906E-015  0.9000774E+02  0.7816164E-02  0.1186339E+00
        -11   -1    0    0    0    0  0.00000000000E+00  0.00000000000E+00  0.45593999997E+02  0.45594000000E+02  0.51100000000E-03 0.  1.
         11   -1    0    0    0    0 -0.00000000000E+00 -0.00000000000E+00 -0.45593999997E+02  0.45594000000E+02  0.51100000000E-03 0. -1.
    9900012    2    1    2    0    0  0.11192217898E+01  0.24679203592E+00 -0.28186076078E+00  0.90007741887E+02  0.90000003280E+02 0.  0.
        -12    1    1    2    0    0 -0.11192217898E+01 -0.24679203592E+00  0.28186076078E+00  0.11802581126E+01  0.00000000000E+00 0.  1.
         11    1    3    3    0    0 -0.39156183056E+01  0.39200600865E+01  0.69168638079E+01  0.88623892374E+01  0.51100000000E-03 0. -1.
        -11    1    3    3    0    0 -0.86343601758E+00  0.28295429550E+02  0.23228553575E+02  0.36618882515E+02  0.51100000000E-03 0.  1.
         12    1    3    3    0    0  0.58982761130E+01 -0.31968697601E+02 -0.30427278144E+02  0.44526470135E+02  0.00000000000E+00 0. -1.
</event>
<event>
 7    1  0.2429906E-015  0.9000767E+02  0.7816164E-02  0.1186339E+00
        -11   -1    0    0    0    0  0.00000000000E+00  0.00000000000E+00  0.45593999997E+02  0.45594000000E+02  0.51100000000E-03 0.  1.
         11   -1    0    0    0    0 -0.00000000000E+00 -0.00000000000E+00 -0.45593999997E+02  0.45594000000E+02  0.51100000000E-03 0. -1.
    9900012    2    1    2    0    0  0.34224655069E+00 -0.11159538262E+01  0.17520033453E+00  0.90007669199E+02  0.89999929632E+02 0.  0.
        -12    1    1    2    0    0 -0.34224655069E+00  0.11159538262E+01 -0.17520033453E+00  0.11803308015E+01  0.00000000000E+00 0.  1.
         11    1    3    3    0    0 -0.11943439132E+02  0.19497902105E+02 -0.32957772290E+02  0.40112699727E+02  0.51100000000E-03 0. -1.
        -11    1    3    3    0    0  0.13786957544E+02  0.25158057557E+00  0.46438176230E+01  0.14550207335E+02  0.51100000000E-03 0.  1.
        -12    1    3    3    0    0 -0.15012718617E+01 -0.20865436507E+02  0.28489155001E+02  0.35344762137E+02  0.00000000000E+00 0.  1.
</event>
<event>
 7    1  0.2429906E-015  0.9000777E+02  0.7816164E-02  0.1186339E+00
        -11   -1    0    0    0    0  0.00000000000E+00  0.00000000000E+00  0.45593999997E+02  0.45594000000E+02  0.51100000000E-03 0. -1.
         11   -1    0    0    0    0 -0.00000000000E+00 -0.00000000000E+00 -0.45593999997E+02  0.45594000000E+02  0.51100000000E-03 0.  1.
    9900012    2    1    2    0    0 -0.35471407486E+00 -0.35231273587E+00  0.10691078985E+01  0.90007772040E+02  0.90000033831E+02 0.  0.
        -12    1    1    2    0    0  0.35471407486E+00  0.35231273587E+00 -0.10691078985E+01  0.11802279599E+01  0.00000000000E+00 0.  1.
         11    1    3    3    0    0  0.76838899374E+00 -0.76578806750E+00  0.74387134075E+01  0.75174005102E+01  0.51100000000E-03 0. -1.
        -11    1    3    3    0    0  0.23804236633E+02 -0.18666258710E+02 -0.30453881524E+02  0.42924466171E+02  0.51100000000E-03 0.  1.
         12    1    3    3    0    0 -0.24927339702E+02  0.19079734041E+02  0.24084276015E+02  0.39565905359E+02  0.00000000000E+00 0. -1.
</event>
<event>
 7    1  0.2429906E-015  0.9000773E+02  0.7816164E-02  0.1186339E+00
        -11   -1    0    0    0    0  0.00000000000E+00  0.00000000000E+00  0.45593999997E+02  0.45594000000E+02  0.51100000000E-03 0.  1.
         11   -1    0    0    0    0 -0.00000000000E+00 -0.00000000000E+00 -0.45593999997E+02  0.45594000000E+02  0.51100000000E-03 0. -1.
    9900012    2    1    2    0    0  0.16689514835E+00  0.11592960497E+01  0.14563799834E+00  0.90007732341E+02  0.89999993607E+02 0.  0.
        -12    1    1    2    0    0 -0.16689514835E+00 -0.11592960497E+01 -0.14563799834E+00  0.11802676595E+01  0.00000000000E+00 0.  1.
         11    1    3    3    0    0  0.79501894274E+01 -0.45107296676E+01  0.91540259017E+00  0.91864114990E+01  0.51100000000E-03 0. -1.
        -11    1    3    3    0    0  0.16291684899E+02 -0.16156216358E+02  0.28843379829E+02  0.36856246202E+02  0.51100000000E-03 0.  1.
         12    1    3    3    0    0 -0.24074979178E+02  0.21826242076E+02 -0.29613144421E+02  0.43965074640E+02  0.00000000000E+00 0. -1.
</event>
<event>
 7    1  0.2429906E-015  0.9000786E+02  0.7816164E-02  0.1186339E+00
        -11   -1    0    0    0    0  0.00000000000E+00  0.00000000000E+00  0.45593999997E+02  0.45594000000E+02  0.51100000000E-03 0. -1.
         11   -1    0    0    0    0 -0.00000000000E+00 -0.00000000000E+00 -0.45593999997E+02  0.45594000000E+02  0.51100000000E-03 0.  1.
    9900012    2    1    2    0    0 -0.51692087863E+00 -0.43611313052E+00  0.96712571066E+00  0.90007858484E+02  0.90000121416E+02 0.  0.
        -12    1    1    2    0    0  0.51692087863E+00  0.43611313052E+00 -0.96712571066E+00  0.11801415159E+01  0.00000000000E+00 0.  1.
         11    1    3    3    0    0  0.83705056668E+00  0.21235297907E+01 -0.95540566999E+01  0.98229339868E+01  0.51100000000E-03 0. -1.
        -11    1    3    3    0    0  0.31883835463E+02 -0.19573108404E+02 -0.83725648039E+01  0.38337780036E+02  0.51100000000E-03 0.  1.
         12    1    3    3    0    0 -0.33237806908E+02  0.17013465483E+02  0.18893747214E+02  0.41847144462E+02  0.00000000000E+00 0. -1.
</event>
<event>
 7    1  0.2429906E-015  0.9000781E+02  0.7816164E-02  0.1186339E+00
        -11   -1    0    0    0    0  0.00000000000E+00  0.00000000000E+00  0.45593999997E+02  0.45594000000E+02  0.51100000000E-03 0.  1.
         11   -1    0    0    0    0 -0.00000000000E+00 -0.00000000000E+00 -0.45593999997E+02  0.45594000000E+02  0.51100000000E-03 0. -1.
    9900012    2    1    2    0    0  0.93752557099E+00  0.34859818014E+00 -0.62639672985E+00  0.90007810290E+02  0.90000072586E+02 0.  0.
        -12    1    1    2    0    0 -0.93752557099E+00 -0.34859818014E+00  0.62639672985E+00  0.11801897096E+01  0.00000000000E+00 0.  1.
         11    1    3    3    0    0 -0.53952020924E+01  0.39595921908E+02 -0.10905922639E+02  0.41423234860E+02  0.51100000000E-03 0. -1.
        -11    1    3    3    0    0  0.58317750339E+01 -0.23566759800E+01 -0.55968715101E+01  0.84195304312E+01  0.51100000000E-03 0.  1.
        -12    1    3    3    0    0  0.50095262949E+00 -0.36890647748E+02  0.15876397419E+02  0.40165045000E+02  0.00000000000E+00 0.  1.
</event>
<event>
 7    1  0.2429906E-015  0.9000776E+02  0.7816164E-02  0.1186339E+00
        -11   -1    0    0    0    0  0.00000000000E+00  0.00000000000E+00  0.45593999997E+02  0.45594000000E+02  0.51100000000E-03 0.  1.
         11   -1    0    0    0    0 -0.00000000000E+00 -0.00000000000E+00 -0.45593999997E+02  0.45594000000E+02  0.51100000000E-03 0. -1.
    9900012    2    1    2    0    0  0.79922161285E+00 -0.81548299913E+00  0.29868063688E+00  0.90007755182E+02  0.90000016750E+02 0.  0.
        -12    1    1    2    0    0 -0.79922161285E+00  0.81548299913E+00 -0.29868063688E+00  0.11802448183E+01  0.00000000000E+00 0.  1.
         11    1    3    3    0    0 -0.34792439504E+02  0.12381485577E+02 -0.14799893156E+02  0.39785070937E+02  0.51100000000E-03 0. -1.
        -11    1    3    3    0    0  0.16237764373E+01  0.72572813298E+01  0.59650277893E+01  0.95334326979E+01  0.51100000000E-03 0.  1.
        -12    1    3    3    0    0  0.33967884680E+02 -0.20454249906E+02  0.91335460034E+01  0.40689251547E+02  0.00000000000E+00 0.  1.
</event>
<event>
 7    1  0.2429906E-015  0.9000773E+02  0.7816164E-02  0.1186339E+00
        -11   -1    0    0    0    0  0.00000000000E+00  0.00000000000E+00  0.45593999997E+02  0.45594000000E+02  0.51100000000E-03 0. -1.
         11   -1    0    0    0    0 -0.00000000000E+00 -0.00000000000E+00 -0.45593999997E+02  0.45594000000E+02  0.51100000000E-03 0.  1.
    9900012    2    1    2    0    0 -0.19698001678E+00  0.11550563594E+01 -0.14173015074E+00  0.90007727254E+02  0.89999988453E+02 0.  0.
        -12    1    1    2    0    0  0.19698001678E+00 -0.11550563594E+01  0.14173015074E+00  0.11802727464E+01  0.00000000000E+00 0.  1.
         11    1    3    3    0    0 -0.55263332048E+01 -0.45930098490E+01  0.70512996318E+01  0.10067617639E+02  0.51100000000E-03 0. -1.
        -11    1    3    3    0    0 -0.18868056571E+02 -0.30301798308E+02 -0.77103665109E+01  0.36519204420E+02  0.51100000000E-03 0.  1.
         12    1    3    3    0    0  0.24197409759E+02  0.36049864516E+02  0.51733672834E+00  0.43420905195E+02  0.00000000000E+00 0. -1.
</event>
<event>
 7    1  0.2429906E-015  0.9000777E+02  0.7816164E-02  0.1186339E+00
        -11   -1    0    0    0    0  0.00000000000E+00  0.00000000000E+00  0.45593999997E+02  0.45594000000E+02  0.51100000000E-03 0. -1.
         11   -1    0    0    0    0 -0.00000000000E+00 -0.00000000000E+00 -0.45593999997E+02  0.45594000000E+02  0.51100000000E-03 0.  1.
    9900012    2    1    2    0    0  0.33561264344E+00 -0.56035292166E+00  0.98301626595E+00  0.90007766031E+02  0.90000027742E+02 0.  0.
        -12    1    1    2    0    0 -0.33561264344E+00  0.56035292166E+00 -0.98301626595E+00  0.11802339693E+01  0.00000000000E+00 0.  1.
         11    1    3    3    0    0  0.13661746263E+02  0.17718218819E+02  0.30060879236E+02  0.37473124366E+02  0.51100000000E-03 0. -1.
        -11    1    3    3    0    0  0.44673874178E+01  0.39075563541E+01  0.52725071891E+01  0.79388840098E+01  0.51100000000E-03 0.  1.
        -12    1    3    3    0    0 -0.17793521037E+02 -0.22186128095E+02 -0.34350370159E+02  0.44595757655E+02  0.00000000000E+00 0.  1.
</event>
<event>
 7    1  0.2429906E-015  0.9000774E+02  0.7816164E-02  0.1186339E+00
        -11   -1    0    0    0    0  0.00000000000E+00  0.00000000000E+00  0.45593999997E+02  0.45594000000E+02  0.51100000000E-03 0.  1.
         11   -1    0    0    0    0 -0.00000000000E+00 -0.00000000000E+00 -0.45593999997E+02  0.45594000000E+02  0.51100000000E-03 0. -1.
    9900012    2    1    2    0    0  0.53218973810E+00 -0.24157524232E+00 -0.10253919967E+01  0.90007740172E+02  0.90000001542E+02 0.  0.
        -12    1    1    2    0    0 -0.53218973810E+00  0.24157524232E+00  0.10253919967E+01  0.11802598282E+01  0.00000000000E+00 0.  1.
         11    1    3    3    0    0  0.86143610557E+01 -0.12600657355E+01  0.33565729749E+01  0.93306786706E+01  0.51100000000E-03 0. -1.
        -11    1    3    3    0    0  0.28623545408E+01 -0.27394457569E+02  0.25846864814E+02  0.37771812241E+02  0.51100000000E-03 0.  1.
         12    1    3    3    0    0 -0.10944525858E+02  0.28412948063E+02 -0.30228829785E+02  0.42905249260E+02  0.00000000000E+00 0. -1.
</event>
<event>
 7    1  0.2429906E-015  0.9000771E+02  0.7816164E-02  0.1186339E+00
        -11   -1    0    0    0    0  0.00000000000E+00  0.00000000000E+00  0.45593999997E+02  0.45594000000E+02  0.51100000000E-03 0. -1.
         11   -1    0    0    0    0 -0.00000000000E+00 -0.00000000000E+00 -0.45593999997E+02  0.45594000000E+02  0.51100000000E-03 0.  1.
    9900012    2    1    2    0    0  0.10173037967E+01  0.24364559710E+00  0.54664595885E+00  0.90007706818E+02  0.89999967748E+02 0.  0.
        -12    1    1    2    0    0 -0.10173037967E+01 -0.24364559710E+00 -0.54664595885E+00  0.11802931823E+01  0.00000000000E+00 0.  1.
         11    1    3    3    0    0 -0.16636316996E+02 -0.94064190388E+01  0.34972566265E+02  0.39853834869E+02  0.51100000000E-03 0. -1.
        -11    1    3    3    0    0  0.35727486671E+01 -0.98714413782E+01 -0.37186357875E+01  0.11137241144E+02  0.51100000000E-03 0.  1.
        -12    1    3    3    0    0  0.14080872126E+02  0.19521506014E+02 -0.30707284518E+02  0.39016630805E+02  0.00000000000E+00 0.  1.
</event>
<event>
 7    1  0.2429906E-015  0.9000780E+02  0.7816164E-02  0.1186339E+00
        -11   -1    0    0    0    0  0.00000000000E+00  0.00000000000E+00  0.45593999997E+02  0.45594000000E+02  0.51100000000E-03 0. -1.
         11   -1    0    0    0    0 -0.00000000000E+00 -0.00000000000E+00 -0.45593999997E+02  0.45594000000E+02  0.51100000000E-03 0.  1.
    9900012    2    1    2    0    0  0.58836327261E+00 -0.90310516295E+00  0.48073052211E+00  0.90007799970E+02  0.90000062130E+02 0.  0.
        -12    1    1    2    0    0 -0.58836327261E+00  0.90310516295E+00 -0.48073052211E+00  0.11802000300E+01  0.00000000000E+00 0.  1.
         11    1    3    3    0    0  0.20525500713E+02  0.16984851382E+01  0.35113189047E+02  0.40707702915E+02  0.51100000000E-03 0. -1.
        -11    1    3    3    0    0  0.55456316489E+01 -0.38065859136E+01 -0.57993964937E+00  0.67513300142E+01  0.51100000000E-03 0.  1.
        -12    1    3    3    0    0 -0.25482769089E+02  0.12049956125E+01 -0.34052518876E+02  0.42548767041E+02  0.00000000000E+00 0.  1.
</event>
<event>
 7    1  0.2429906E-015  0.9000734E+02  0.7816164E-02  0.1186340E+00
        -11   -1    0    0    0    0  0.00000000000E+00  0.00000000000E+00  0.45593999997E+02  0.45594000000E+02  0.51100000000E-03 0. -1.
         11   -1    0    0    0    0 -0.00000000000E+00 -0.00000000000E+00 -0.45593999997E+02  0.45594000000E+02  0.51100000000E-03 0.  1.
    9900012    2    1    2    0    0 -0.95269496335E+00 -0.49447115965E+00  0.49176638003E+00  0.90007337646E+02  0.89999593702E+02 0.  0.
        -12    1    1    2    0    0  0.95269496335E+00  0.49447115965E+00 -0.49176638003E+00  0.11806623537E+01  0.00000000000E+00 0.  1.
         11    1    3    3    0    0  0.63322033357E+00  0.80616814509E+01 -0.45151943022E+01  0.92616767194E+01  0.51100000000E-03 0. -1.
        -11    1    3    3    0    0  0.11790722754E+02 -0.14217787647E+02 -0.34235973227E+02  0.38900751814E+02  0.51100000000E-03 0.  1.
         12    1    3    3    0    0 -0.13376638051E+02  0.56616350363E+01  0.39242933910E+02  0.41844909113E+02  0.00000000000E+00 0. -1.
</event>
<event>
 7    1  0.2429906E-015  0.9000835E+02  0.7816164E-02  0.1186338E+00
        -11   -1    0    0    0    0  0.00000000000E+00  0.00000000000E+00  0.45593999997E+02  0.45594000000E+02  0.51100000000E-03 0. -1.
         11   -1    0    0    0    0 -0.00000000000E+00 -0.00000000000E+00 -0.45593999997E+02  0.45594000000E+02  0.51100000000E-03 0.  1.
    9900012    2    1    2    0    0 -0.53330322562E+00 -0.55607417529E+00 -0.89328322629E+00  0.90008345075E+02  0.90000614428E+02 0.  0.
        -12    1    1    2    0    0  0.53330322562E+00  0.55607417529E+00  0.89328322629E+00  0.11796549246E+01  0.00000000000E+00 0.  1.
         11    1    3    3    0    0 -0.11761823193E+02 -0.68159438254E+01 -0.13707743313E+01  0.13662964451E+02  0.51100000000E-03 0. -1.
        -11    1    3    3    0    0 -0.31023497989E+02 -0.74826176267E+01  0.24268354707E+00  0.31914039068E+02  0.51100000000E-03 0.  1.
         12    1    3    3    0    0  0.42252017957E+02  0.13742487277E+02  0.23480755798E+00  0.44431341557E+02  0.00000000000E+00 0. -1.
</event>
<event>
 7    1  0.2429906E-015  0.9000770E+02  0.7816164E-02  0.1186339E+00
        -11   -1    0    0    0    0  0.00000000000E+00  0.00000000000E+00  0.45593999997E+02  0.45594000000E+02  0.51100000000E-03 0. -1.
         11   -1    0    0    0    0 -0.00000000000E+00 -0.00000000000E+00 -0.45593999997E+02  0.45594000000E+02  0.51100000000E-03 0.  1.
    9900012    2    1    2    0    0 -0.14282526988E-01 -0.10495223063E+01  0.53981224822E+00  0.90007704137E+02  0.89999965031E+02 0.  0.
        -12    1    1    2    0    0  0.14282526988E-01  0.10495223063E+01 -0.53981224822E+00  0.11802958635E+01  0.00000000000E+00 0.  1.
         11    1    3    3    0    0  0.42127742194E+01  0.70292563225E+01  0.32059140622E+01  0.87997611505E+01  0.51100000000E-03 0. -1.
        -11    1    3    3    0    0  0.35555472180E+02  0.10624292097E+02  0.74266538343E+00  0.37116286676E+02  0.51100000000E-03 0.  1.
         12    1    3    3    0    0 -0.39782528926E+02 -0.18703070726E+02 -0.34087671974E+01  0.44091656310E+02  0.00000000000E+00 0. -1.
</event>
<event>
 7    1  0.2429906E-015  0.9000742E+02  0.7816164E-02  0.1186340E+00
        -11   -1    0    0    0    0  0.00000000000E+00  0.00000000000E+00  0.45593999997E+02  0.45594000000E+02  0.51100000000E-03 0.  1.
         11   -1    0    0    0    0 -0.00000000000E+00 -0.00000000000E+00 -0.45593999997E+02  0.45594000000E+02  0.51100000000E-03 0. -1.
    9900012    2    1    2    0    0  0.10857330637E+01 -0.45234187212E+00 -0.10168368888E+00  0.90007420046E+02  0.89999677190E+02 0.  0.
        -12    1    1    2    0    0 -0.10857330637E+01  0.45234187212E+00  0.10168368888E+00  0.11805799539E+01  0.00000000000E+00 0.  1.
         11    1    3    3    0    0  0.26194033711E+02  0.30914917042E+02  0.22777177652E+01  0.40583832942E+02  0.51100000000E-03 0. -1.
        -11    1    3    3    0    0  0.42218749963E+00 -0.45349562563E+01  0.94935536318E+01  0.10529559884E+02  0.51100000000E-03 0.  1.
        -12    1    3    3    0    0 -0.25530488147E+02 -0.26832302658E+02 -0.11872955086E+02  0.38894027220E+02  0.00000000000E+00 0.  1.
</event>
<event>
 7    1  0.2429906E-015  0.9000778E+02  0.7816164E-02  0.1186339E+00
        -11   -1    0    0    0    0  0.00000000000E+00  0.00000000000E+00  0.45593999997E+02  0.45594000000E+02  0.51100000000E-03 0. -1.
         11   -1    0    0    0    0 -0.00000000000E+00 -0.00000000000E+00 -0.45593999997E+02  0.45594000000E+02  0.51100000000E-03 0.  1.
    9900012    2    1    2    0    0  0.84566572163E+00 -0.19483288266E+00  0.79988622984E+00  0.90007776146E+02  0.90000037991E+02 0.  0.
        -12    1    1    2    0    0 -0.84566572163E+00  0.19483288266E+00 -0.79988622984E+00  0.11802238540E+01  0.00000000000E+00 0.  1.
         11    1    3    3    0    0  0.17478336513E+00  0.13198316357E+01  0.13157942329E+02  0.13225125760E+02  0.51100000000E-03 0. -1.
        -11    1    3    3    0    0  0.14707928423E+02 -0.35190147162E+02 -0.12994984040E+02  0.40293165999E+02  0.51100000000E-03 0.  1.
         12    1    3    3    0    0 -0.14037046067E+02  0.33675482644E+02  0.63692794022E+00  0.36489484386E+02  0.00000000000E+00 0. -1.
</event>
<event>
 7    1  0.2429906E-015  0.9000774E+02  0.7816164E-02  0.1186339E+00
        -11   -1    0    0    0    0  0.00000000000E+00  0.00000000000E+00  0.45593999997E+02  0.45594000000E+02  0.51100000000E-03 0.  1.
         11   -1    0    0    0    0 -0.00000000000E+00 -0.00000000000E+00 -0.45593999997E+02  0.45594000000E+02  0.51100000000E-03 0. -1.
    9900012    2    1    2    0    0  0.11566840346E+01 -0.82671271784E-01 -0.21968404651E+00  0.90007740039E+02  0.90000001408E+02 0.  0.
        -12    1    1    2    0    0 -0.11566840346E+01  0.82671271784E-01  0.21968404651E+00  0.11802599609E+01  0.00000000000E+00 0.  1.
         11    1    3    3    0    0  0.60241514786E+01  0.29906826077E+02 -0.17589205711E+02  0.35214894645E+02  0.51100000000E-03 0. -1.
        -11    1    3    3    0    0  0.57409074536E+01  0.15287117693E+01 -0.10060949016E+02  0.11684077774E+02  0.51100000000E-03 0.  1.
        -12    1    3    3    0    0 -0.10608374898E+02 -0.31518209118E+02  0.27430470681E+02  0.43108767620E+02  0.00000000000E+00 0.  1.
</event>
<event>
 7    1  0.2429906E-015  0.9000762E+02  0.7816164E-02  0.1186339E+00
        -11   -1    0    0    0    0  0.00000000000E+00  0.00000000000E+00  0.45593999997E+02  0.45594000000E+02  0.51100000000E-03 0. -1.
         11   -1    0    0    0    0 -0.00000000000E+00 -0.00000000000E+00 -0.45593999997E+02  0.45594000000E+02  0.51100000000E-03 0.  1.
    9900012    2    1    2    0    0 -0.87031936893E+00  0.79739984674E+00  0.13746115754E-02  0.90007616923E+02  0.89999876666E+02 0.  0.
        -12    1    1    2    0    0  0.87031936893E+00 -0.79739984674E+00 -0.13746115754E-02  0.11803830773E+01  0.00000000000E+00 0.  1.
         11    1    3    3    0    0  0.55536900603E+01  0.87329011641E+01 -0.36451790363E+01  0.10972436671E+02  0.51100000000E-03 0. -1.
        -11    1    3    3    0    0  0.10122705335E+02  0.31128403367E+02 -0.10401598311E+02  0.34345886320E+02  0.51100000000E-03 0.  1.
         12    1    3    3    0    0 -0.16546714765E+02 -0.39063904684E+02  0.14048151959E+02  0.44689293932E+02  0.00000000000E+00 0. -1.
</event>
<event>
 7    1  0.2429906E-015  0.9000753E+02  0.7816164E-02  0.1186339E+00
        -11   -1    0    0    0    0  0.00000000000E+00  0.00000000000E+00  0.45593999997E+02  0.45594000000E+02  0.51100000000E-03 0.  1.
         11   -1    0    0    0    0 -0.00000000000E+00 -0.00000000000E+00 -0.45593999997E+02  0.45594000000E+02  0.51100000000E-03 0. -1.
    9900012    2    1    2    0    0 -0.43364157505E+00  0.10110600113E+01  0.42805054811E+00  0.90007527792E+02  0.89999786359E+02 0.  0.
        -12    1    1    2    0    0  0.43364157505E+00 -0.10110600113E+01 -0.42805054811E+00  0.11804722080E+01  0.00000000000E+00 0.  1.
         11    1    3    3    0    0 -0.13516727022E+01 -0.60514914358E+01  0.76358821510E+01  0.98363745444E+01  0.51100000000E-03 0. -1.
        -11    1    3    3    0    0 -0.64054233195E+01 -0.81125109423E+01  0.34061083550E+02  0.35594939170E+02  0.51100000000E-03 0.  1.
         12    1    3    3    0    0  0.73234544466E+01  0.15175062389E+02 -0.41268915153E+02  0.44576214077E+02  0.00000000000E+00 0. -1.
</event>
<event>
 7    1  0.2429906E-015  0.9000774E+02  0.7816164E-02  0.1186339E+00
        -11   -1    0    0    0    0  0.00000000000E+00  0.00000000000E+00  0.45593999997E+02  0.45594000000E+02  0.51100000000E-03 0.  1.
         11   -1    0    0    0    0 -0.00000000000E+00 -0.00000000000E+00 -0.45593999997E+02  0.45594000000E+02  0.51100000000E-03 0. -1.
    9900012    2    1    2    0    0  0.11000345455E+01  0.42583275393E+00  0.40135262331E-01  0.90007737159E+02  0.89999998489E+02 0.  0.
        -12    1    1    2    0    0 -0.11000345455E+01 -0.42583275393E+00 -0.40135262331E-01  0.11802628415E+01  0.00000000000E+00 0.  1.
         11    1    3    3    0    0 -0.69303701091E+01 -0.37822279142E+01 -0.52401035160E+01  0.94759676531E+01  0.51100000000E-03 0. -1.
        -11    1    3    3    0    0 -0.34830590367E+02 -0.79652373179E+01  0.65025323013E+00  0.35735666502E+02  0.51100000000E-03 0.  1.
         12    1    3    3    0    0  0.42860995021E+02  0.12173297986E+02  0.46299855482E+01  0.44796103003E+02  0.00000000000E+00 0. -1.
</event>
<event>
 7    1  0.2643985E-015  0.9000780E+02  0.7816164E-02  0.1186339E+00
        -11   -1    0    0    0    0  0.00000000000E+00  0.00000000000E+00  0.45593999997E+02  0.45594000000E+02  0.51100000000E-03 0. -1.
         11   -1    0    0    0    0 -0.00000000000E+00 -0.00000000000E+00 -0.45593999997E+02  0.45594000000E+02  0.51100000000E-03 0.  1.
    9900012    2    1    2    0    0  0.36328193262E+00 -0.99227232033E+00  0.52563412286E+00  0.90007801139E+02  0.90000063314E+02 0.  0.
        -12    1    1    2    0    0 -0.36328193262E+00  0.99227232033E+00 -0.52563412286E+00  0.11801988610E+01  0.00000000000E+00 0.  1.
         11    1    3    3    0    0 -0.11526021782E+02  0.36103713820E+02  0.21458943723E+02  0.43552423534E+02  0.51100000000E-03 0. -1.
        -11    1    3    3    0    0  0.67725818893E+01 -0.42198689697E+01 -0.60111643487E+01  0.99904582806E+01  0.51100000000E-03 0.  1.
        -12    1    3    3    0    0  0.51167218255E+01 -0.32876117171E+02 -0.14922145251E+02  0.36464919325E+02  0.00000000000E+00 0.  1.
</event>
<event>
 8    1  0.2429906E-015  0.9000761E+02  0.7816164E-02  0.1186339E+00
        -11   -1    0    0    0    0  0.00000000000E+00  0.00000000000E+00  0.45593999997E+02  0.45594000000E+02  0.51100000000E-03 0. -1.
         11   -1    0    0    0    0 -0.00000000000E+00 -0.00000000000E+00 -0.45593999997E+02  0.45594000000E+02  0.51100000000E-03 0.  1.
    9900012    2    1    2    0    0  0.56494359874E+00 -0.68799112818E+00  0.77513235025E+00  0.90007608869E+02  0.89999868506E+02 0.  0.
         23    2    3    3    0    0  0.21841509484E+02  0.13854016416E+02  0.12490854651E+01  0.64231905759E+02  0.58780882909E+02 0.  0.
        -12    1    1    2    0    0 -0.56494359874E+00  0.68799112818E+00 -0.77513235025E+00  0.11803911312E+01  0.00000000000E+00 0.  1.
         11    1    4    4    0    0  0.12455582970E+02 -0.13714879283E+02  0.21784335641E+02  0.28597145670E+02  0.51100000000E-03 0. -1.
        -11    1    4    4    0    0  0.93859265137E+01  0.27568895699E+02 -0.20535250176E+02  0.35634760089E+02  0.51100000000E-03 0.  1.
         12    1    3    3    0    0 -0.21276565885E+02 -0.14542007544E+02 -0.47395311484E+00  0.25775703110E+02  0.00000000000E+00 0. -1.
</event>
<event>
 7    1  0.2535922E-015  0.9000702E+02  0.7816164E-02  0.1186340E+00
        -11   -1    0    0    0    0  0.00000000000E+00  0.00000000000E+00  0.45593999997E+02  0.45594000000E+02  0.51100000000E-03 0. -1.
         11   -1    0    0    0    0 -0.00000000000E+00 -0.00000000000E+00 -0.45593999997E+02  0.45594000000E+02  0.51100000000E-03 0.  1.
    9900012    2    1    2    0    0  0.50042272299E+00  0.23702814748E+00  0.10431220283E+01  0.90007022096E+02  0.89999273985E+02 0.  0.
        -12    1    1    2    0    0 -0.50042272299E+00 -0.23702814748E+00 -0.10431220283E+01  0.11809779042E+01  0.00000000000E+00 0.  1.
         11    1    3    3    0    0 -0.22319042391E+02  0.30347191669E+02  0.23491799533E+01  0.37744010679E+02  0.51100000000E-03 0. -1.
        -11    1    3    3    0    0 -0.63923572617E+01 -0.91592543312E+00  0.76423909648E+01  0.10005363096E+02  0.51100000000E-03 0.  1.
        -12    1    3    3    0    0  0.29211822375E+02 -0.29194238089E+02 -0.89484488899E+01  0.42257648321E+02  0.00000000000E+00 0.  1.
</event>
<event>
 7    1  0.2429906E-015  0.9000776E+02  0.7816164E-02  0.1186339E+00
        -11   -1    0    0    0    0  0.00000000000E+00  0.00000000000E+00  0.45593999997E+02  0.45594000000E+02  0.51100000000E-03 0.  1.
         11   -1    0    0    0    0 -0.00000000000E+00 -0.00000000000E+00 -0.45593999997E+02  0.45594000000E+02  0.51100000000E-03 0. -1.
    9900012    2    1    2    0    0  0.94097431963E+00  0.54962638370E+00 -0.45325252246E+00  0.90007762871E+02  0.90000024541E+02 0.  0.
        -12    1    1    2    0    0 -0.94097431963E+00 -0.54962638370E+00  0.45325252246E+00  0.11802371291E+01  0.00000000000E+00 0.  1.
         11    1    3    3    0    0  0.30115325200E+02  0.91657224484E+01 -0.26189844566E+02  0.40949374092E+02  0.51100000000E-03 0. -1.
        -11    1    3    3    0    0  0.51642402018E+01 -0.28947231416E+01  0.81024347240E+01  0.10034851650E+02  0.51100000000E-03 0.  1.
        -12    1    3    3    0    0 -0.34338591082E+02 -0.57213729231E+01  0.17634157319E+02  0.39023537128E+02  0.00000000000E+00 0.  1.
</event>
<event>
 7    1  0.2429906E-015  0.9000748E+02  0.7816164E-02  0.1186340E+00
        -11   -1    0    0    0    0  0.00000000000E+00  0.00000000000E+00  0.45593999997E+02  0.45594000000E+02  0.51100000000E-03 0. -1.
         11   -1    0    0    0    0 -0.00000000000E+00 -0.00000000000E+00 -0.45593999997E+02  0.45594000000E+02  0.51100000000E-03 0.  1.
    9900012    2    1    2    0    0 -0.18840609707E+00  0.11272967090E+01 -0.29553980653E+00  0.90007475326E+02  0.89999733200E+02 0.  0.
        -12    1    1    2    0    0  0.18840609707E+00 -0.11272967090E+01  0.29553980653E+00  0.11805246735E+01  0.00000000000E+00 0.  1.
         11    1    3    3    0    0  0.68668669906E+01  0.21543644252E+01 -0.68224560655E+01  0.99167058729E+01  0.51100000000E-03 0. -1.
        -11    1    3    3    0    0 -0.22591119607E+02  0.22417350958E+02 -0.23034969504E+02  0.39287480568E+02  0.51100000000E-03 0.  1.
         12    1    3    3    0    0  0.15535846519E+02 -0.23444418674E+02  0.29561885763E+02  0.40803288886E+02  0.00000000000E+00 0. -1.
</event>
<event>
 7    1  0.2429906E-015  0.9000746E+02  0.7816164E-02  0.1186340E+00
        -11   -1    0    0    0    0  0.00000000000E+00  0.00000000000E+00  0.45593999997E+02  0.45594000000E+02  0.51100000000E-03 0. -1.
         11   -1    0    0    0    0 -0.00000000000E+00 -0.00000000000E+00 -0.45593999997E+02  0.45594000000E+02  0.51100000000E-03 0.  1.
    9900012    2    1    2    0    0 -0.52798019486E+00  0.84694093270E+00  0.63056587302E+00  0.90007455486E+02  0.89999713098E+02 0.  0.
        -12    1    1    2    0    0  0.52798019486E+00 -0.84694093270E+00 -0.63056587302E+00  0.11805445141E+01  0.00000000000E+00 0.  1.
         11    1    3    3    0    0 -0.39713044597E+01 -0.60767206493E+01  0.79851517893E+01  0.10791683943E+02  0.51100000000E-03 0. -1.
        -11    1    3    3    0    0  0.33025862808E+02 -0.13062841097E+02 -0.20693009203E+02  0.41104088141E+02  0.51100000000E-03 0.  1.
         12    1    3    3    0    0 -0.29582538543E+02  0.19986502679E+02  0.13338423287E+02  0.38111683402E+02  0.00000000000E+00 0. -1.
</event>
<event>
 7    1  0.2429906E-015  0.9000792E+02  0.7816164E-02  0.1186339E+00
        -11   -1    0    0    0    0  0.00000000000E+00  0.00000000000E+00  0.45593999997E+02  0.45594000000E+02  0.51100000000E-03 0. -1.
         11   -1    0    0    0    0 -0.00000000000E+00 -0.00000000000E+00 -0.45593999997E+02  0.45594000000E+02  0.51100000000E-03 0.  1.
    9900012    2    1    2    0    0 -0.46975710233E+00  0.15758017155E+00  0.10710162098E+01  0.90007924169E+02  0.90000187968E+02 0.  0.
        -12    1    1    2    0    0  0.46975710233E+00 -0.15758017155E+00 -0.10710162098E+01  0.11800758312E+01  0.00000000000E+00 0.  1.
         11    1    3    3    0    0  0.16481583344E+01  0.89988176014E+01  0.15507397247E+01  0.92790052308E+01  0.51100000000E-03 0. -1.
        -11    1    3    3    0    0 -0.35475055229E+02  0.89623865622E+01  0.15426227574E+02  0.39708593703E+02  0.51100000000E-03 0.  1.
         12    1    3    3    0    0  0.33357139792E+02 -0.17803623992E+02 -0.15905951089E+02  0.41020325235E+02  0.00000000000E+00 0. -1.
</event>
<event>
 7    1  0.2429906E-015  0.9000768E+02  0.7816164E-02  0.1186339E+00
        -11   -1    0    0    0    0  0.00000000000E+00  0.00000000000E+00  0.45593999997E+02  0.45594000000E+02  0.51100000000E-03 0. -1.
         11   -1    0    0    0    0 -0.00000000000E+00 -0.00000000000E+00 -0.45593999997E+02  0.45594000000E+02  0.51100000000E-03 0.  1.
    9900012    2    1    2    0    0 -0.94528171879E+00  0.70629199494E+00 -0.27171149808E-01  0.90007684711E+02  0.89999945349E+02 0.  0.
        -12    1    1    2    0    0  0.94528171879E+00 -0.70629199494E+00  0.27171149808E-01  0.11803152890E+01  0.00000000000E+00 0.  1.
         11    1    3    3    0    0 -0.26940705246E+02  0.72842195658E+00 -0.26925854909E+02  0.38096375950E+02  0.51100000000E-03 0. -1.
        -11    1    3    3    0    0 -0.89409920357E+01  0.23871765862E+01  0.40806495714E+01  0.10113933548E+02  0.51100000000E-03 0.  1.
        -12    1    3    3    0    0  0.34936415563E+02 -0.24093065479E+01  0.22818034188E+02  0.41797375212E+02  0.00000000000E+00 0.  1.
</event>
<event>
 7    1  0.2429906E-015  0.9000770E+02  0.7816164E-02  0.1186339E+00
        -11   -1    0    0    0    0  0.00000000000E+00  0.00000000000E+00  0.45593999997E+02  0.45594000000E+02  0.51100000000E-03 0.  1.
         11   -1    0    0    0    0 -0.00000000000E+00 -0.00000000000E+00 -0.45593999997E+02  0.45594000000E+02  0.51100000000E-03 0. -1.
    9900012    2    1    2    0    0  0.66990757554E+00  0.21528370023E+00 -0.94761881553E+00  0.90007701457E+02  0.89999962316E+02 0.  0.
        -12    1    1    2    0    0 -0.66990757554E+00 -0.21528370023E+00  0.94761881553E+00  0.11802985431E+01  0.00000000000E+00 0.  1.
         11    1    3    3    0    0 -0.25624547107E+02  0.15753858875E+02 -0.21021632094E+02  0.36697554415E+02  0.51100000000E-03 0. -1.
        -11    1    3    3    0    0 -0.47506067272E+01  0.71670689559E+01 -0.21843711031E+01  0.88716750996E+01  0.51100000000E-03 0.  1.
        -12    1    3    3    0    0  0.31045061410E+02 -0.22705644130E+02  0.22258384381E+02  0.44438471942E+02  0.00000000000E+00 0.  1.
</event>
<event>
 7    1  0.2429906E-015  0.9000796E+02  0.7816164E-02  0.1186339E+00
        -11   -1    0    0    0    0  0.00000000000E+00  0.00000000000E+00  0.45593999997E+02  0.45594000000E+02  0.51100000000E-03 0.  1.
         11   -1    0    0    0    0 -0.00000000000E+00 -0.00000000000E+00 -0.45593999997E+02  0.45594000000E+02  0.51100000000E-03 0. -1.
    9900012    2    1    2    0    0 -0.38738558381E+00  0.13645851853E+00 -0.11062567476E+01  0.90007960802E+02  0.90000225084E+02 0.  0.
        -12    1    1    2    0    0  0.38738558381E+00 -0.13645851853E+00  0.11062567476E+01  0.11800391983E+01  0.00000000000E+00 0.  1.
         11    1    3    3    0    0 -0.13160586431E+02  0.97940773408E+01  0.12953771705E+02  0.20902755508E+02  0.51100000000E-03 0. -1.
        -11    1    3    3    0    0  0.94841025241E+00  0.25867657063E+02  0.60815648606E+01  0.26589858882E+02  0.51100000000E-03 0.  1.
         12    1    3    3    0    0  0.11824790595E+02 -0.35525275885E+02 -0.20141593313E+02  0.42515346412E+02  0.00000000000E+00 0. -1.
</event>
<event>
 7    1  0.2429906E-015  0.9000772E+02  0.7816164E-02  0.1186339E+00
        -11   -1    0    0    0    0  0.00000000000E+00  0.00000000000E+00  0.45593999997E+02  0.45594000000E+02  0.51100000000E-03 0. -1.
         11   -1    0    0    0    0 -0.00000000000E+00 -0.00000000000E+00 -0.45593999997E+02  0.45594000000E+02  0.51100000000E-03 0.  1.
    9900012    2    1    2    0    0  0.49854168597E+00 -0.78250353758E+00  0.72952506304E+00  0.90007719348E+02  0.89999980444E+02 0.  0.
        -12    1    1    2    0    0 -0.49854168597E+00  0.78250353758E+00 -0.72952506304E+00  0.11802806516E+01  0.00000000000E+00 0.  1.
         11    1    3    3    0    0 -0.61965937937E+01  0.35662406543E+01 -0.44617948404E+01  0.84275417832E+01  0.51100000000E-03 0. -1.
        -11    1    3    3    0    0 -0.17855521523E+02 -0.88423848474E+01 -0.31459312493E+02  0.37238364108E+02  0.51100000000E-03 0.  1.
         12    1    3    3    0    0  0.24550657003E+02  0.44936406555E+01  0.36650632397E+02  0.44341813457E+02  0.00000000000E+00 0. -1.
</event>
<event>
 7    1  0.2429906E-015  0.9000770E+02  0.7816164E-02  0.1186339E+00
        -11   -1    0    0    0    0  0.00000000000E+00  0.00000000000E+00  0.45593999997E+02  0.45594000000E+02  0.51100000000E-03 0.  1.
         11   -1    0    0    0    0 -0.00000000000E+00 -0.00000000000E+00 -0.45593999997E+02  0.45594000000E+02  0.51100000000E-03 0. -1.
    9900012    2    1    2    0    0 -0.94021254237E+00  0.20924717947E+00 -0.68214117521E+00  0.90007703177E+02  0.89999964059E+02 0.  0.
        -12    1    1    2    0    0  0.94021254237E+00 -0.20924717947E+00  0.68214117521E+00  0.11802968228E+01  0.00000000000E+00 0.  1.
         11    1    3    3    0    0 -0.93981704986E+01 -0.25418421602E+02 -0.26277719710E+02  0.37748381673E+02  0.51100000000E-03 0. -1.
        -11    1    3    3    0    0 -0.91063711632E+01 -0.36235803456E+01  0.33501735884E+00  0.98065573559E+01  0.51100000000E-03 0.  1.
        -12    1    3    3    0    0  0.17564329119E+02  0.29251249127E+02  0.25260561176E+02  0.42452764149E+02  0.00000000000E+00 0.  1.
</event>
<event>
 7    1  0.2429906E-015  0.9000773E+02  0.7816164E-02  0.1186339E+00
        -11   -1    0    0    0    0  0.00000000000E+00  0.00000000000E+00  0.45593999997E+02  0.45594000000E+02  0.51100000000E-03 0.  1.
         11   -1    0    0    0    0 -0.00000000000E+00 -0.00000000000E+00 -0.45593999997E+02  0.45594000000E+02  0.51100000000E-03 0. -1.
    9900012    2    1    2    0    0  0.58685172840E+00  0.35789543394E+00  0.95945378996E+00  0.90007730680E+02  0.89999991925E+02 0.  0.
        -12    1    1    2    0    0 -0.58685172840E+00 -0.35789543394E+00 -0.95945378996E+00  0.11802693200E+01  0.00000000000E+00 0.  1.
         11    1    3    3    0    0  0.39675186190E+01  0.68490850097E+00  0.77155231269E+01  0.87028501670E+01  0.51100000000E-03 0. -1.
        -11    1    3    3    0    0 -0.13409617785E+00  0.19901639300E+01  0.37157267879E+02  0.37210768479E+02  0.51100000000E-03 0.  1.
         12    1    3    3    0    0 -0.32465707127E+01 -0.23171769970E+01 -0.43913337216E+02  0.44094112034E+02  0.00000000000E+00 0. -1.
</event>
<event>
 7    1  0.2429906E-015  0.9000791E+02  0.7816164E-02  0.1186339E+00
        -11   -1    0    0    0    0  0.00000000000E+00  0.00000000000E+00  0.45593999997E+02  0.45594000000E+02  0.51100000000E-03 0.  1.
         11   -1    0    0    0    0 -0.00000000000E+00 -0.00000000000E+00 -0.45593999997E+02  0.45594000000E+02  0.51100000000E-03 0. -1.
    9900012    2    1    2    0    0 -0.98752005083E+00 -0.62256916258E+00  0.17269608503E+00  0.90007910109E+02  0.90000173722E+02 0.  0.
        -12    1    1    2    0    0  0.98752005083E+00  0.62256916258E+00 -0.17269608503E+00  0.11800898910E+01  0.00000000000E+00 0.  1.
         11    1    3    3    0    0  0.94331774144E+01  0.33332629124E+02  0.10827847732E+02  0.36294507673E+02  0.51100000000E-03 0. -1.
        -11    1    3    3    0    0 -0.53195347164E+01  0.62142947532E+01  0.57767033391E+01  0.10014250377E+02  0.51100000000E-03 0.  1.
        -12    1    3    3    0    0 -0.51011627488E+01 -0.40169493040E+02 -0.16431854986E+02  0.43699152060E+02  0.00000000000E+00 0.  1.
</event>
<event>
 7    1  0.2429906E-015  0.9000771E+02  0.7816164E-02  0.1186339E+00
        -11   -1    0    0    0    0  0.00000000000E+00  0.00000000000E+00  0.45593999997E+02  0.45594000000E+02  0.51100000000E-03 0. -1.
         11   -1    0    0    0    0 -0.00000000000E+00 -0.00000000000E+00 -0.45593999997E+02  0.45594000000E+02  0.51100000000E-03 0.  1.
    9900012    2    1    2    0    0  0.88488632151E+00  0.64822909822E+00  0.43572415876E+00  0.90007711769E+02  0.89999972764E+02 0.  0.
        -12    1    1    2    0    0 -0.88488632151E+00 -0.64822909822E+00 -0.43572415876E+00  0.11802882310E+01  0.00000000000E+00 0.  1.
         11    1    3    3    0    0 -0.77048811955E+01 -0.67605012318E+01  0.67950722445E+01  0.12298072134E+02  0.51100000000E-03 0. -1.
        -11    1    3    3    0    0 -0.16268803466E+01  0.36615073145E+02 -0.22300908710E+02  0.42902690482E+02  0.51100000000E-03 0.  1.
         12    1    3    3    0    0  0.10216647864E+02 -0.29206342815E+02  0.15941560625E+02  0.34806949153E+02  0.00000000000E+00 0. -1.
</event>
<event>
 7    1  0.2429906E-015  0.9000772E+02  0.7816164E-02  0.1186339E+00
        -11   -1    0    0    0    0  0.00000000000E+00  0.00000000000E+00  0.45593999997E+02  0.45594000000E+02  0.51100000000E-03 0.  1.
         11   -1    0    0    0    0 -0.00000000000E+00 -0.00000000000E+00 -0.45593999997E+02  0.45594000000E+02  0.51100000000E-03 0. -1.
    9900012    2    1    2    0    0  0.11240664379E+01 -0.22570556480E+00 -0.28035098623E+00  0.90007718239E+02  0.89999979320E+02 0.  0.
        -12    1    1    2    0    0 -0.11240664379E+01  0.22570556480E+00  0.28035098623E+00  0.11802817606E+01  0.00000000000E+00 0.  1.
         11    1    3    3    0    0 -0.83969430189E+01 -0.19721067957E+02 -0.28215516749E+02  0.35433664207E+02  0.51100000000E-03 0. -1.
        -11    1    3    3    0    0 -0.15288214451E+01 -0.59816634871E+00 -0.10061163648E+02  0.10194219548E+02  0.51100000000E-03 0.  1.
        -12    1    3    3    0    0  0.11049830902E+02  0.20093528741E+02  0.37996329410E+02  0.44379834485E+02  0.00000000000E+00 0.  1.
</event>
<event>
 7    1  0.2429906E-015  0.9000776E+02  0.7816164E-02  0.1186339E+00
        -11   -1    0    0    0    0  0.00000000000E+00  0.00000000000E+00  0.45593999997E+02  0.45594000000E+02  0.51100000000E-03 0. -1.
         11   -1    0    0    0    0 -0.00000000000E+00 -0.00000000000E+00 -0.45593999997E+02  0.45594000000E+02  0.51100000000E-03 0.  1.
    9900012    2    1    2    0    0 -0.56760198668E+00  0.34202266833E+00  0.97663469973E+00  0.90007759831E+02  0.90000021460E+02 0.  0.
        -12    1    1    2    0    0  0.56760198668E+00 -0.34202266833E+00 -0.97663469973E+00  0.11802401695E+01  0.00000000000E+00 0.  1.
         11    1    3    3    0    0 -0.29850087579E+01 -0.94272441915E+00 -0.10771519467E+02  0.11217158219E+02  0.51100000000E-03 0. -1.
        -11    1    3    3    0    0  0.45816018243E+01  0.32144740957E+02 -0.16920066081E+02  0.36613714410E+02  0.51100000000E-03 0.  1.
         12    1    3    3    0    0 -0.21641950532E+01 -0.30859993870E+02  0.28668220247E+02  0.42176887202E+02  0.00000000000E+00 0. -1.
</event>
<event>
 7    1  0.2429906E-015  0.9000774E+02  0.7816164E-02  0.1186339E+00
        -11   -1    0    0    0    0  0.00000000000E+00  0.00000000000E+00  0.45593999997E+02  0.45594000000E+02  0.51100000000E-03 0.  1.
         11   -1    0    0    0    0 -0.00000000000E+00 -0.00000000000E+00 -0.45593999997E+02  0.45594000000E+02  0.51100000000E-03 0. -1.
    9900012    2    1    2    0    0  0.40185353895E+00 -0.18824912660E+00 -0.10936610830E+01  0.90007737925E+02  0.89999999266E+02 0.  0.
        -12    1    1    2    0    0 -0.40185353895E+00  0.18824912660E+00  0.10936610830E+01  0.11802620747E+01  0.00000000000E+00 0.  1.
         11    1    3    3    0    0 -0.98524129524E+01 -0.22294666484E+01 -0.11645472894E+02  0.15416147434E+02  0.51100000000E-03 0. -1.
        -11    1    3    3    0    0 -0.16952787319E+02 -0.17602424293E+02 -0.18144267441E+02  0.30437752547E+02  0.51100000000E-03 0.  1.
        -12    1    3    3    0    0  0.27207053810E+02  0.19643641815E+02  0.28696079252E+02  0.44153837944E+02  0.00000000000E+00 0.  1.
</event>
<event>
 7    1  0.2429906E-015  0.9000757E+02  0.7816164E-02  0.1186339E+00
        -11   -1    0    0    0    0  0.00000000000E+00  0.00000000000E+00  0.45593999997E+02  0.45594000000E+02  0.51100000000E-03 0.  1.
         11   -1    0    0    0    0 -0.00000000000E+00 -0.00000000000E+00 -0.45593999997E+02  0.45594000000E+02  0.51100000000E-03 0. -1.
    9900012    2    1    2    0    0  0.78728482808E+00  0.62340982093E+00 -0.62045586507E+00  0.90007566738E+02  0.89999825819E+02 0.  0.
        -12    1    1    2    0    0 -0.78728482808E+00 -0.62340982093E+00  0.62045586507E+00  0.11804332619E+01  0.00000000000E+00 0.  1.
         11    1    3    3    0    0  0.14883440668E+02  0.35363295768E+02 -0.32992573248E+01  0.38509279308E+02  0.51100000000E-03 0. -1.
        -11    1    3    3    0    0  0.12784702276E+01  0.42456569039E+01  0.81072197830E+01  0.92405141382E+01  0.51100000000E-03 0.  1.
        -12    1    3    3    0    0 -0.15374626067E+02 -0.38985542851E+02 -0.54284183232E+01  0.42257773292E+02  0.00000000000E+00 0.  1.
</event>
<event>
 7    1  0.2429906E-015  0.9000775E+02  0.7816164E-02  0.1186339E+00
        -11   -1    0    0    0    0  0.00000000000E+00  0.00000000000E+00  0.45593999997E+02  0.45594000000E+02  0.51100000000E-03 0. -1.
         11   -1    0    0    0    0 -0.00000000000E+00 -0.00000000000E+00 -0.45593999997E+02  0.45594000000E+02  0.51100000000E-03 0.  1.
    9900012    2    1    2    0    0 -0.96805217151E+00 -0.65370584201E+00  0.16893691610E+00  0.90007747478E+02  0.90000008944E+02 0.  0.
        -12    1    1    2    0    0  0.96805217151E+00  0.65370584201E+00 -0.16893691610E+00  0.11802525222E+01  0.00000000000E+00 0.  1.
         11    1    3    3    0    0  0.18624551754E+01  0.26773297462E+01  0.85346922621E+01  0.91366189654E+01  0.51100000000E-03 0. -1.
        -11    1    3    3    0    0  0.15666365892E+01  0.36310280605E+02 -0.16904233434E+02  0.40082963165E+02  0.51100000000E-03 0.  1.
         12    1    3    3    0    0 -0.43971439360E+01 -0.39641316194E+02  0.85384780876E+01  0.40788165347E+02  0.00000000000E+00 0. -1.
</event>
<event>
 7    1  0.2429906E-015  0.9000795E+02  0.7816164E-02  0.1186339E+00
        -11   -1    0    0    0    0  0.00000000000E+00  0.00000000000E+00  0.45593999997E+02  0.45594000000E+02  0.51100000000E-03 0.  1.
         11   -1    0    0    0    0 -0.00000000000E+00 -0.00000000000E+00 -0.45593999997E+02  0.45594000000E+02  0.51100000000E-03 0. -1.
    9900012    2    1    2    0    0 -0.42515352673E+00 -0.88743165927E+00  0.65133503403E+00  0.90007945850E+02  0.90000209935E+02 0.  0.
        -12    1    1    2    0    0  0.42515352673E+00  0.88743165927E+00 -0.65133503403E+00  0.11800541503E+01  0.00000000000E+00 0.  1.
         11    1    3    3    0    0  0.17034501673E+02 -0.22837591107E+00 -0.84147361277E+01  0.19000899641E+02  0.51100000000E-03 0. -1.
        -11    1    3    3    0    0 -0.17173580558E+02 -0.26061242434E+02  0.25878302830E+02  0.40543887135E+02  0.51100000000E-03 0.  1.
         12    1    3    3    0    0 -0.28607464152E+00  0.25402186686E+02 -0.16812231668E+02  0.30463159074E+02  0.00000000000E+00 0. -1.
</event>
<event>
 7    1  0.2429906E-015  0.9000773E+02  0.7816164E-02  0.1186339E+00
        -11   -1    0    0    0    0  0.00000000000E+00  0.00000000000E+00  0.45593999997E+02  0.45594000000E+02  0.51100000000E-03 0.  1.
         11   -1    0    0    0    0 -0.00000000000E+00 -0.00000000000E+00 -0.45593999997E+02  0.45594000000E+02  0.51100000000E-03 0. -1.
    9900012    2    1    2    0    0 -0.13044660709E+00 -0.10940830069E+01 -0.42308864946E+00  0.90007729714E+02  0.89999990946E+02 0.  0.
        -12    1    1    2    0    0  0.13044660709E+00  0.10940830069E+01  0.42308864946E+00  0.11802702862E+01  0.00000000000E+00 0.  1.
         11    1    3    3    0    0  0.17369792801E+01 -0.19426304190E+01 -0.90188906779E+01  0.93878271866E+01  0.51100000000E-03 0. -1.
        -11    1    3    3    0    0  0.35778563665E+02 -0.14077714510E+02  0.11178457034E+02  0.40040549018E+02  0.51100000000E-03 0.  1.
         12    1    3    3    0    0 -0.37645989552E+02  0.14926261922E+02 -0.25826550058E+01  0.40579353509E+02  0.00000000000E+00 0. -1.
</event>
<event>
 7    1  0.2429906E-015  0.9000780E+02  0.7816164E-02  0.1186339E+00
        -11   -1    0    0    0    0  0.00000000000E+00  0.00000000000E+00  0.45593999997E+02  0.45594000000E+02  0.51100000000E-03 0.  1.
         11   -1    0    0    0    0 -0.00000000000E+00 -0.00000000000E+00 -0.45593999997E+02  0.45594000000E+02  0.51100000000E-03 0. -1.
    9900012    2    1    2    0    0 -0.20730836987E+00  0.83413231681E+00 -0.80877055646E+00  0.90007803705E+02  0.90000065914E+02 0.  0.
        -12    1    1    2    0    0  0.20730836987E+00 -0.83413231681E+00  0.80877055646E+00  0.11801962952E+01  0.00000000000E+00 0.  1.
         11    1    3    3    0    0 -0.36586249548E+01 -0.74999238087E+01 -0.35586543802E+01  0.90718473838E+01  0.51100000000E-03 0. -1.
        -11    1    3    3    0    0  0.18466164032E+01  0.36928356454E+02 -0.22051023535E+02  0.43050681084E+02  0.51100000000E-03 0.  1.
         12    1    3    3    0    0  0.16047001817E+01 -0.28594300329E+02  0.24800907359E+02  0.37885275237E+02  0.00000000000E+00 0. -1.
</event>
<event>
 7    1  0.2429906E-015  0.9000774E+02  0.7816164E-02  0.1186339E+00
        -11   -1    0    0    0    0  0.00000000000E+00  0.00000000000E+00  0.45593999997E+02  0.45594000000E+02  0.51100000000E-03 0.  1.
         11   -1    0    0    0    0 -0.00000000000E+00 -0.00000000000E+00 -0.45593999997E+02  0.45594000000E+02  0.51100000000E-03 0. -1.
    9900012    2    1    2    0    0  0.81791203618E+00  0.73039261603E+00 -0.43654232942E+00  0.90007736183E+02  0.89999997501E+02 0.  0.
        -12    1    1    2    0    0 -0.81791203618E+00 -0.73039261603E+00  0.43654232942E+00  0.11802638171E+01  0.00000000000E+00 0.  1.
         11    1    3    3    0    0 -0.34380707643E+02  0.54910195278E+01 -0.15057324858E+01  0.34848982539E+02  0.51100000000E-03 0. -1.
        -11    1    3    3    0    0 -0.92845044991E+01 -0.36080091232E+01  0.35931703666E+01  0.10589175000E+02  0.51100000000E-03 0.  1.
        -12    1    3    3    0    0  0.44483124178E+02 -0.11526177885E+01 -0.25239802102E+01  0.44569578644E+02  0.00000000000E+00 0.  1.
</event>
<event>
 7    1  0.2429906E-015  0.9000782E+02  0.7816164E-02  0.1186339E+00
        -11   -1    0    0    0    0  0.00000000000E+00  0.00000000000E+00  0.45593999997E+02  0.45594000000E+02  0.51100000000E-03 0. -1.
         11   -1    0    0    0    0 -0.00000000000E+00 -0.00000000000E+00 -0.45593999997E+02  0.45594000000E+02  0.51100000000E-03 0.  1.
    9900012    2    1    2    0    0  0.71653030374E+00  0.93387760035E+00  0.85361627644E-01  0.90007817956E+02  0.90000080353E+02 0.  0.
        -12    1    1    2    0    0 -0.71653030374E+00 -0.93387760035E+00 -0.85361627644E-01  0.11801820436E+01  0.00000000000E+00 0.  1.
         11    1    3    3    0    0  0.58739513603E+01 -0.43022169006E+01  0.90730143136E+01  0.11633226717E+02  0.51100000000E-03 0. -1.
        -11    1    3    3    0    0  0.14121201948E+02  0.37487692838E+02 -0.76061990493E+01  0.40774866315E+02  0.51100000000E-03 0.  1.
         12    1    3    3    0    0 -0.19278623005E+02 -0.32251598337E+02 -0.13814536366E+01  0.37599724925E+02  0.00000000000E+00 0. -1.
</event>
<event>
 7    1  0.2429906E-015  0.9000732E+02  0.7816164E-02  0.1186340E+00
        -11   -1    0    0    0    0  0.00000000000E+00  0.00000000000E+00  0.45593999997E+02  0.45594000000E+02  0.51100000000E-03 0.  1.
         11   -1    0    0    0    0 -0.00000000000E+00 -0.00000000000E+00 -0.45593999997E+02  0.45594000000E+02  0.51100000000E-03 0. -1.
    9900012    2    1    2    0    0  0.56997726682E+00 -0.95373361503E+00 -0.39939154217E+00  0.90007324135E+02  0.89999580013E+02 0.  0.
        -12    1    1    2    0    0 -0.56997726682E+00  0.95373361503E+00  0.39939154217E+00  0.11806758645E+01  0.00000000000E+00 0.  1.
         11    1    3    3    0    0 -0.74980845209E+01  0.60505855231E+00 -0.41679231602E+01  0.85999390152E+01  0.51100000000E-03 0. -1.
        -11    1    3    3    0    0 -0.10424390010E+02  0.29845085345E+02  0.24030208963E+02  0.39709545067E+02  0.51100000000E-03 0.  1.
         12    1    3    3    0    0  0.18492451798E+02 -0.31403877512E+02 -0.20261677345E+02  0.41697840054E+02  0.00000000000E+00 0. -1.
</event>
<event>
 7    1  0.2429906E-015  0.9000781E+02  0.7816164E-02  0.1186339E+00
        -11   -1    0    0    0    0  0.00000000000E+00  0.00000000000E+00  0.45593999997E+02  0.45594000000E+02  0.51100000000E-03 0. -1.
         11   -1    0    0    0    0 -0.00000000000E+00 -0.00000000000E+00 -0.45593999997E+02  0.45594000000E+02  0.51100000000E-03 0.  1.
    9900012    2    1    2    0    0  0.37116781073E+00 -0.10318248440E+01  0.43637306795E+00  0.90007809546E+02  0.90000071832E+02 0.  0.
        -12    1    1    2    0    0 -0.37116781073E+00  0.10318248440E+01 -0.43637306795E+00  0.11801904536E+01  0.00000000000E+00 0.  1.
         11    1    3    3    0    0 -0.14025235144E+02  0.14689742232E+02  0.37910253506E+02  0.43007941928E+02  0.51100000000E-03 0. -1.
        -11    1    3    3    0    0  0.90499533461E+01  0.26136927578E-01 -0.45845303077E+01  0.10144962154E+02  0.51100000000E-03 0.  1.
        -12    1    3    3    0    0  0.53464496089E+01 -0.15747704004E+02 -0.32889350130E+02  0.36854905465E+02  0.00000000000E+00 0.  1.
</event>
<event>
 7    1  0.2429906E-015  0.9000778E+02  0.7816164E-02  0.1186339E+00
        -11   -1    0    0    0    0  0.00000000000E+00  0.00000000000E+00  0.45593999997E+02  0.45594000000E+02  0.51100000000E-03 0.  1.
         11   -1    0    0    0    0 -0.00000000000E+00 -0.00000000000E+00 -0.45593999997E+02  0.45594000000E+02  0.51100000000E-03 0. -1.
    9900012    2    1    2    0    0 -0.75492151488E-01  0.37285791011E+00 -0.11172289896E+01  0.90007778537E+02  0.90000040414E+02 0.  0.
        -12    1    1    2    0    0  0.75492151488E-01 -0.37285791011E+00  0.11172289896E+01  0.11802214629E+01  0.00000000000E+00 0.  1.
         11    1    3    3    0    0 -0.80896560346E+01  0.27118644562E+01 -0.91369582873E+01  0.12501229963E+02  0.51100000000E-03 0. -1.
        -11    1    3    3    0    0 -0.29653366820E+02  0.75961045589E+00  0.22293130403E+02  0.37106371895E+02  0.51100000000E-03 0.  1.
         12    1    3    3    0    0  0.37667530703E+02 -0.30986170020E+01 -0.14273401105E+02  0.40400176679E+02  0.00000000000E+00 0. -1.
</event>
<event>
 7    1  0.2429906E-015  0.9000795E+02  0.7816164E-02  0.1186339E+00
        -11   -1    0    0    0    0  0.00000000000E+00  0.00000000000E+00  0.45593999997E+02  0.45594000000E+02  0.51100000000E-03 0.  1.
         11   -1    0    0    0    0 -0.00000000000E+00 -0.00000000000E+00 -0.45593999997E+02  0.45594000000E+02  0.51100000000E-03 0. -1.
    9900012    2    1    2    0    0  0.10534508640E+01 -0.49299373877E+00 -0.19929898731E+00  0.90007948461E+02  0.90000212580E+02 0.  0.
        -12    1    1    2    0    0 -0.10534508640E+01  0.49299373877E+00  0.19929898731E+00  0.11800515395E+01  0.00000000000E+00 0.  1.
         11    1    3    3    0    0 -0.72783528839E+00 -0.88960553321E+01 -0.15785749007E+01  0.90642949895E+01  0.51100000000E-03 0. -1.
        -11    1    3    3    0    0  0.37129607538E+02  0.15394980340E+02  0.14301903489E+02  0.42663305301E+02  0.51100000000E-03 0.  1.
         12    1    3    3    0    0 -0.35348321386E+02 -0.69919187466E+01 -0.12922627575E+02  0.38280348170E+02  0.00000000000E+00 0. -1.
</event>
<event>
 7    1  0.2429906E-015  0.9000794E+02  0.7816164E-02  0.1186339E+00
        -11   -1    0    0    0    0  0.00000000000E+00  0.00000000000E+00  0.45593999997E+02  0.45594000000E+02  0.51100000000E-03 0.  1.
         11   -1    0    0    0    0 -0.00000000000E+00 -0.00000000000E+00 -0.45593999997E+02  0.45594000000E+02  0.51100000000E-03 0. -1.
    9900012    2    1    2    0    0 -0.47631716167E+00 -0.98209006571E+00  0.44850832959E+00  0.90007941248E+02  0.90000205273E+02 0.  0.
        -12    1    1    2    0    0  0.47631716167E+00  0.98209006571E+00 -0.44850832959E+00  0.11800587517E+01  0.00000000000E+00 0.  1.
         11    1    3    3    0    0 -0.70618628905E+01 -0.37368342761E+02  0.11706236211E+02  0.39790688794E+02  0.51100000000E-03 0. -1.
        -11    1    3    3    0    0 -0.11647054650E+02  0.51498019300E+01 -0.20894408838E+01  0.12905041860E+02  0.51100000000E-03 0.  1.
        -12    1    3    3    0    0  0.18232600379E+02  0.31236450765E+02 -0.91682869974E+01  0.37312210595E+02  0.00000000000E+00 0.  1.
</event>
<event>
 7    1  0.4279767E-015  0.9000783E+02  0.7816164E-02  0.1186339E+00
        -11   -1    0    0    0    0  0.00000000000E+00  0.00000000000E+00  0.45593999997E+02  0.45594000000E+02  0.51100000000E-03 0. -1.
         11   -1    0    0    0    0 -0.00000000000E+00 -0.00000000000E+00 -0.45593999997E+02  0.45594000000E+02  0.51100000000E-03 0.  1.
    9900012    2    1    2    0    0 -0.93887837605E+00 -0.22271735251E+00  0.67948669478E+00  0.90007831456E+02  0.90000094031E+02 0.  0.
        -12    1    1    2    0    0  0.93887837605E+00  0.22271735251E+00 -0.67948669478E+00  0.11801685441E+01  0.00000000000E+00 0.  1.
         11    1    3    3    0    0 -0.26161625631E+02 -0.16907130373E+01  0.28718220529E+02  0.38884770243E+02  0.51100000000E-03 0. -1.
        -11    1    3    3    0    0 -0.78355306013E+01  0.46081381036E+01 -0.31364193778E+01  0.96160076623E+01  0.51100000000E-03 0.  1.
        -12    1    3    3    0    0  0.33058277856E+02 -0.31401424189E+01 -0.24902314456E+02  0.41507053551E+02  0.00000000000E+00 0.  1.
</event>
<event>
 7    1  0.2429906E-015  0.9000786E+02  0.7816164E-02  0.1186339E+00
        -11   -1    0    0    0    0  0.00000000000E+00  0.00000000000E+00  0.45593999997E+02  0.45594000000E+02  0.51100000000E-03 0.  1.
         11   -1    0    0    0    0 -0.00000000000E+00 -0.00000000000E+00 -0.45593999997E+02  0.45594000000E+02  0.51100000000E-03 0. -1.
    9900012    2    1    2    0    0  0.27211297200E+00  0.82736633913E+00 -0.79634133941E+00  0.90007855917E+02  0.90000118815E+02 0.  0.
        -12    1    1    2    0    0 -0.27211297200E+00 -0.82736633913E+00  0.79634133941E+00  0.11801440834E+01  0.00000000000E+00 0.  1.
         11    1    3    3    0    0  0.18448401705E+01 -0.62133705961E+01  0.62922658453E+01  0.90333835936E+01  0.51100000000E-03 0. -1.
        -11    1    3    3    0    0  0.19610682656E+02  0.88249004042E+01  0.30779258115E+02  0.37547576110E+02  0.51100000000E-03 0.  1.
         12    1    3    3    0    0 -0.21183409854E+02 -0.17841634690E+01 -0.37867865300E+02  0.43426896213E+02  0.00000000000E+00 0. -1.
</event>
<event>
 7    1  0.2429906E-015  0.9000770E+02  0.7816164E-02  0.1186339E+00
        -11   -1    0    0    0    0  0.00000000000E+00  0.00000000000E+00  0.45593999997E+02  0.45594000000E+02  0.51100000000E-03 0. -1.
         11   -1    0    0    0    0 -0.00000000000E+00 -0.00000000000E+00 -0.45593999997E+02  0.45594000000E+02  0.51100000000E-03 0.  1.
    9900012    2    1    2    0    0  0.21679277139E+00 -0.88943988729E-01  0.11568007151E+01  0.90007704260E+02  0.89999965156E+02 0.  0.
        -12    1    1    2    0    0 -0.21679277139E+00  0.88943988729E-01 -0.11568007151E+01  0.11802957398E+01  0.00000000000E+00 0.  1.
         11    1    3    3    0    0 -0.17847115134E+01  0.80608711453E+01  0.57976709884E+01  0.10088400664E+02  0.51100000000E-03 0. -1.
        -11    1    3    3    0    0 -0.19257410566E+02 -0.35278114456E+02  0.11580531278E+02  0.41827047782E+02  0.51100000000E-03 0.  1.
         12    1    3    3    0    0  0.21258914850E+02  0.27128299322E+02 -0.16221401552E+02  0.38092255814E+02  0.00000000000E+00 0. -1.
</event>
<event>
 7    1  0.3662701E-015  0.9000776E+02  0.7816164E-02  0.1186339E+00
        -11   -1    0    0    0    0  0.00000000000E+00  0.00000000000E+00  0.45593999997E+02  0.45594000000E+02  0.51100000000E-03 0. -1.
         11   -1    0    0    0    0 -0.00000000000E+00 -0.00000000000E+00 -0.45593999997E+02  0.45594000000E+02  0.51100000000E-03 0.  1.
    9900012    2    1    2    0    0 -0.84799253232E+00  0.18508216371E+00  0.79975772634E+00  0.90007763090E+02  0.90000024763E+02 0.  0.
        -12    1    1    2    0    0  0.84799253232E+00 -0.18508216371E+00 -0.79975772634E+00  0.11802369097E+01  0.00000000000E+00 0.  1.
         11    1    3    3    0    0 -0.79721778656E+01 -0.52309237153E+01  0.40986570800E+02  0.42081078516E+02  0.51100000000E-03 0. -1.
        -11    1    3    3    0    0 -0.65771207395E+00  0.93189867024E+01 -0.31171915510E+01  0.98485014982E+01  0.51100000000E-03 0.  1.
        -12    1    3    3    0    0  0.77818974072E+01 -0.39029808235E+01 -0.37069621523E+02  0.38078183076E+02  0.00000000000E+00 0.  1.
</event>
<event>
 7    1  0.2916519E-015  0.9000775E+02  0.7816164E-02  0.1186339E+00
        -11   -1    0    0    0    0  0.00000000000E+00  0.00000000000E+00  0.45593999997E+02  0.45594000000E+02  0.51100000000E-03 0.  1.
         11   -1    0    0    0    0 -0.00000000000E+00 -0.00000000000E+00 -0.45593999997E+02  0.45594000000E+02  0.51100000000E-03 0. -1.
    9900012    2    1    2    0    0  0.92064716500E+00  0.38634698566E+00 -0.62938913438E+00  0.90007751773E+02  0.90000013296E+02 0.  0.
        -12    1    1    2    0    0 -0.92064716500E+00 -0.38634698566E+00  0.62938913438E+00  0.11802482274E+01  0.00000000000E+00 0.  1.
         11    1    3    3    0    0  0.64592187870E+00 -0.32432949550E+02 -0.19701396714E+02  0.37953372239E+02  0.51100000000E-03 0. -1.
        -11    1    3    3    0    0 -0.74130415830E+01 -0.55145151091E+01  0.23640243602E+01  0.95368586986E+01  0.51100000000E-03 0.  1.
        -12    1    3    3    0    0  0.76877668693E+01  0.38333811645E+02  0.16707983220E+02  0.42517520835E+02  0.00000000000E+00 0.  1.
</event>
<event>
 7    1  0.2429906E-015  0.9000741E+02  0.7816164E-02  0.1186340E+00
        -11   -1    0    0    0    0  0.00000000000E+00  0.00000000000E+00  0.45593999997E+02  0.45594000000E+02  0.51100000000E-03 0. -1.
         11   -1    0    0    0    0 -0.00000000000E+00 -0.00000000000E+00 -0.45593999997E+02  0.45594000000E+02  0.51100000000E-03 0.  1.
    9900012    2    1    2    0    0 -0.40930251008E+00  0.79855419184E+00  0.76719158289E+00  0.90007406816E+02  0.89999663785E+02 0.  0.
        -12    1    1    2    0    0  0.40930251008E+00 -0.79855419184E+00 -0.76719158289E+00  0.11805931843E+01  0.00000000000E+00 0.  1.
         11    1    3    3    0    0 -0.21707817069E+01 -0.11896348558E+02  0.24520767917E+02  0.27340509537E+02  0.51100000000E-03 0. -1.
        -11    1    3    3    0    0 -0.83720773158E+01  0.30264376814E+02  0.40916796663E-01  0.31401048660E+02  0.51100000000E-03 0.  1.
         12    1    3    3    0    0  0.10133556513E+02 -0.17569474063E+02 -0.23794493131E+02  0.31265848618E+02  0.00000000000E+00 0. -1.
</event>
<event>
 7    1  0.2429906E-015  0.9000776E+02  0.7816164E-02  0.1186339E+00
        -11   -1    0    0    0    0  0.00000000000E+00  0.00000000000E+00  0.45593999997E+02  0.45594000000E+02  0.51100000000E-03 0.  1.
         11   -1    0    0    0    0 -0.00000000000E+00 -0.00000000000E+00 -0.45593999997E+02  0.45594000000E+02  0.51100000000E-03 0. -1.
    9900012    2    1    2    0    0 -0.56295741812E+00 -0.91909697775E+00 -0.48094747305E+00  0.90007758168E+02  0.90000019776E+02 0.  0.
        -12    1    1    2    0    0  0.56295741812E+00  0.91909697775E+00  0.48094747305E+00  0.11802418316E+01  0.00000000000E+00 0.  1.
         11    1    3    3    0    0 -0.12676353764E+02  0.27132958844E+02 -0.20264294209E+02  0.36159770746E+02  0.51100000000E-03 0. -1.
        -11    1    3    3    0    0 -0.67046008819E+01  0.69377860807E+01  0.43485577220E+00  0.96578283528E+01  0.51100000000E-03 0.  1.
        -12    1    3    3    0    0  0.18817997228E+02 -0.34989841902E+02  0.19348490964E+02  0.44190159069E+02  0.00000000000E+00 0.  1.
</event>
<event>
 7    1  0.2429906E-015  0.9000773E+02  0.7816164E-02  0.1186339E+00
        -11   -1    0    0    0    0  0.00000000000E+00  0.00000000000E+00  0.45593999997E+02  0.45594000000E+02  0.51100000000E-03 0. -1.
         11   -1    0    0    0    0 -0.00000000000E+00 -0.00000000000E+00 -0.45593999997E+02  0.45594000000E+02  0.51100000000E-03 0.  1.
    9900012    2    1    2    0    0 -0.22615820355E+00 -0.11482147673E+01  0.15328016023E+00  0.90007729060E+02  0.89999990283E+02 0.  0.
        -12    1    1    2    0    0  0.22615820355E+00  0.11482147673E+01 -0.15328016023E+00  0.11802709403E+01  0.00000000000E+00 0.  1.
         11    1    3    3    0    0 -0.57042514929E+01 -0.91445890650E+01 -0.40474086005E+01  0.11512754271E+02  0.51100000000E-03 0. -1.
        -11    1    3    3    0    0  0.27432606783E+02 -0.11418222387E+02 -0.23717057399E+02  0.38018712884E+02  0.51100000000E-03 0.  1.
         12    1    3    3    0    0 -0.21954513494E+02  0.19414596685E+02  0.27917746160E+02  0.40476261905E+02  0.00000000000E+00 0. -1.
</event>
<event>
 7    1  0.2429906E-015  0.9000773E+02  0.7816164E-02  0.1186339E+00
        -11   -1    0    0    0    0  0.00000000000E+00  0.00000000000E+00  0.45593999997E+02  0.45594000000E+02  0.51100000000E-03 0. -1.
         11   -1    0    0    0    0 -0.00000000000E+00 -0.00000000000E+00 -0.45593999997E+02  0.45594000000E+02  0.51100000000E-03 0.  1.
    9900012    2    1    2    0    0  0.10554483568E+01  0.31649413801E+00 -0.42296660654E+00  0.90007728623E+02  0.89999989841E+02 0.  0.
        -12    1    1    2    0    0 -0.10554483568E+01 -0.31649413801E+00  0.42296660654E+00  0.11802713771E+01  0.00000000000E+00 0.  1.
         11    1    3    3    0    0 -0.26474170950E+02  0.27752133047E+01  0.23086166795E+02  0.35235701127E+02  0.51100000000E-03 0. -1.
        -11    1    3    3    0    0  0.27669516863E+01  0.16380403712E+02 -0.15319805716E+02  0.22598010860E+02  0.51100000000E-03 0.  1.
        -12    1    3    3    0    0  0.24762667621E+02 -0.18839122879E+02 -0.81893276852E+01  0.32174016636E+02  0.00000000000E+00 0.  1.
</event>
<event>
 7    1  0.2429906E-015  0.9000772E+02  0.7816164E-02  0.1186339E+00
        -11   -1    0    0    0    0  0.00000000000E+00  0.00000000000E+00  0.45593999997E+02  0.45594000000E+02  0.51100000000E-03 0. -1.
         11   -1    0    0    0    0 -0.00000000000E+00 -0.00000000000E+00 -0.45593999997E+02  0.45594000000E+02  0.51100000000E-03 0.  1.
    9900012    2    1    2    0    0 -0.66199613992E+00 -0.80316101302E+00  0.55655011612E+00  0.90007722688E+02  0.89999983827E+02 0.  0.
        -12    1    1    2    0    0  0.66199613992E+00  0.80316101302E+00 -0.55655011612E+00  0.11802773123E+01  0.00000000000E+00 0.  1.
         11    1    3    3    0    0 -0.14587779235E+02 -0.16634389987E+02  0.28066068631E+01  0.22302091283E+02  0.51100000000E-03 0. -1.
        -11    1    3    3    0    0  0.19133427126E+01 -0.21732002834E+02  0.13030756490E+02  0.25411443140E+02  0.51100000000E-03 0.  1.
        -12    1    3    3    0    0  0.12012440382E+02  0.37563231808E+02 -0.15280813237E+02  0.42294188265E+02  0.00000000000E+00 0.  1.
</event>
<event>
 7    1  0.2429906E-015  0.9000766E+02  0.7816164E-02  0.1186339E+00
        -11   -1    0    0    0    0  0.00000000000E+00  0.00000000000E+00  0.45593999997E+02  0.45594000000E+02  0.51100000000E-03 0.  1.
         11   -1    0    0    0    0 -0.00000000000E+00 -0.00000000000E+00 -0.45593999997E+02  0.45594000000E+02  0.51100000000E-03 0. -1.
    9900012    2    1    2    0    0  0.91025617317E+00  0.17856325121E+00 -0.72989158085E+00  0.90007664092E+02  0.89999924458E+02 0.  0.
        -12    1    1    2    0    0 -0.91025617317E+00 -0.17856325121E+00  0.72989158085E+00  0.11803359078E+01  0.00000000000E+00 0.  1.
         11    1    3    3    0    0 -0.18822996176E+01  0.82862555536E+01 -0.85173546497E+00  0.85399377348E+01  0.51100000000E-03 0. -1.
        -11    1    3    3    0    0  0.17225631467E+02  0.30267143744E+02  0.14909796390E+02  0.37883035761E+02  0.51100000000E-03 0.  1.
         12    1    3    3    0    0 -0.14433075676E+02 -0.38374836046E+02 -0.14787952506E+02  0.43584690596E+02  0.00000000000E+00 0. -1.
</event>
<event>
 7    1  0.2429906E-015  0.9000772E+02  0.7816164E-02  0.1186339E+00
        -11   -1    0    0    0    0  0.00000000000E+00  0.00000000000E+00  0.45593999997E+02  0.45594000000E+02  0.51100000000E-03 0. -1.
         11   -1    0    0    0    0 -0.00000000000E+00 -0.00000000000E+00 -0.45593999997E+02  0.45594000000E+02  0.51100000000E-03 0.  1.
    9900012    2    1    2    0    0  0.28511427001E+00  0.11186329616E+01  0.24583528347E+00  0.90007718323E+02  0.89999979405E+02 0.  0.
        -12    1    1    2    0    0 -0.28511427001E+00 -0.11186329616E+01 -0.24583528347E+00  0.11802816767E+01  0.00000000000E+00 0.  1.
         11    1    3    3    0    0 -0.28867764526E+02  0.11311557597E+02  0.15244652823E+02  0.34549943617E+02  0.51100000000E-03 0. -1.
        -11    1    3    3    0    0 -0.59923811795E+01  0.97726338845E+01  0.19490658104E+01  0.11628063598E+02  0.51100000000E-03 0.  1.
        -12    1    3    3    0    0  0.35145259976E+02 -0.19965558520E+02 -0.16947883350E+02  0.43829711108E+02  0.00000000000E+00 0.  1.
</event>
<event>
 7    1  0.2429906E-015  0.9000764E+02  0.7816164E-02  0.1186339E+00
        -11   -1    0    0    0    0  0.00000000000E+00  0.00000000000E+00  0.45593999997E+02  0.45594000000E+02  0.51100000000E-03 0. -1.
         11   -1    0    0    0    0 -0.00000000000E+00 -0.00000000000E+00 -0.45593999997E+02  0.45594000000E+02  0.51100000000E-03 0.  1.
    9900012    2    1    2    0    0 -0.30774174073E+00 -0.11183051156E+01  0.21892313929E+00  0.90007644693E+02  0.89999904803E+02 0.  0.
        -12    1    1    2    0    0  0.30774174073E+00  0.11183051156E+01 -0.21892313929E+00  0.11803553073E+01  0.00000000000E+00 0.  1.
         11    1    3    3    0    0  0.54382111325E+01 -0.89080184473E+01 -0.64287372730E+01  0.12257878942E+02  0.51100000000E-03 0. -1.
        -11    1    3    3    0    0  0.33175224952E+02 -0.94800496472E+01  0.68106726168E+01  0.35168908906E+02  0.51100000000E-03 0.  1.
         12    1    3    3    0    0 -0.38921177825E+02  0.17269762979E+02 -0.16301220444E+00  0.42580856844E+02  0.00000000000E+00 0. -1.
</event>
<event>
 7    1  0.2429906E-015  0.9000792E+02  0.7816164E-02  0.1186339E+00
        -11   -1    0    0    0    0  0.00000000000E+00  0.00000000000E+00  0.45593999997E+02  0.45594000000E+02  0.51100000000E-03 0. -1.
         11   -1    0    0    0    0 -0.00000000000E+00 -0.00000000000E+00 -0.45593999997E+02  0.45594000000E+02  0.51100000000E-03 0.  1.
    9900012    2    1    2    0    0  0.59902753627E+00 -0.94967555044E+00  0.36313697965E+00  0.90007921144E+02  0.90000184903E+02 0.  0.
        -12    1    1    2    0    0 -0.59902753627E+00  0.94967555044E+00 -0.36313697965E+00  0.11800788560E+01  0.00000000000E+00 0.  1.
         11    1    3    3    0    0 -0.90041868136E+01 -0.32881765590E+02 -0.51870355033E+01  0.34484652037E+02  0.51100000000E-03 0. -1.
        -11    1    3    3    0    0  0.21967389270E+01 -0.11075154217E+02 -0.12363407358E+01  0.11358399602E+02  0.51100000000E-03 0.  1.
        -12    1    3    3    0    0  0.74064754229E+01  0.43007244257E+02  0.67865132187E+01  0.44164869505E+02  0.00000000000E+00 0.  1.
</event>
<event>
 7    1  0.2429906E-015  0.9000770E+02  0.7816164E-02  0.1186339E+00
        -11   -1    0    0    0    0  0.00000000000E+00  0.00000000000E+00  0.45593999997E+02  0.45594000000E+02  0.51100000000E-03 0.  1.
         11   -1    0    0    0    0 -0.00000000000E+00 -0.00000000000E+00 -0.45593999997E+02  0.45594000000E+02  0.51100000000E-03 0. -1.
    9900012    2    1    2    0    0  0.10730800833E+01 -0.19590833648E+00  0.45079980617E+00  0.90007702831E+02  0.89999963709E+02 0.  0.
        -12    1    1    2    0    0 -0.10730800833E+01  0.19590833648E+00 -0.45079980617E+00  0.11802971688E+01  0.00000000000E+00 0.  1.
         11    1    3    3    0    0  0.20075318653E+01  0.55401073472E+01 -0.59256250136E+01  0.83567939829E+01  0.51100000000E-03 0. -1.
        -11    1    3    3    0    0 -0.74065711905E+01  0.32309487110E+02  0.22249023718E+02  0.39922165658E+02  0.51100000000E-03 0.  1.
         12    1    3    3    0    0  0.64721194084E+01 -0.38045502794E+02 -0.15872598898E+02  0.41728743191E+02  0.00000000000E+00 0. -1.
</event>
<event>
 7    1  0.2429906E-015  0.9000725E+02  0.7816164E-02  0.1186340E+00
        -11   -1    0    0    0    0  0.00000000000E+00  0.00000000000E+00  0.45593999997E+02  0.45594000000E+02  0.51100000000E-03 0. -1.
         11   -1    0    0    0    0 -0.00000000000E+00 -0.00000000000E+00 -0.45593999997E+02  0.45594000000E+02  0.51100000000E-03 0.  1.
    9900012    2    1    2    0    0 -0.94836639949E+00 -0.98900254010E-01  0.69641739055E+00  0.90007247160E+02  0.89999502021E+02 0.  0.
        -12    1    1    2    0    0  0.94836639949E+00  0.98900254010E-01 -0.69641739055E+00  0.11807528403E+01  0.00000000000E+00 0.  1.
         11    1    3    3    0    0  0.10332009412E+02 -0.12973059072E+02 -0.64837222431E+01  0.17807002403E+02  0.51100000000E-03 0. -1.
        -11    1    3    3    0    0  0.99896631321E+01  0.65616538695E+01  0.34786877851E+02  0.36782815850E+02  0.51100000000E-03 0.  1.
        -12    1    3    3    0    0 -0.21270038944E+02  0.63125049483E+01 -0.27606738217E+02  0.35417428907E+02  0.00000000000E+00 0.  1.
</event>
<event>
 7    1  0.2429906E-015  0.9000789E+02  0.7816164E-02  0.1186339E+00
        -11   -1    0    0    0    0  0.00000000000E+00  0.00000000000E+00  0.45593999997E+02  0.45594000000E+02  0.51100000000E-03 0. -1.
         11   -1    0    0    0    0 -0.00000000000E+00 -0.00000000000E+00 -0.45593999997E+02  0.45594000000E+02  0.51100000000E-03 0.  1.
    9900012    2    1    2    0    0  0.73345277692E+00  0.51356528200E+00  0.76873207129E+00  0.90007893534E+02  0.90000156928E+02 0.  0.
        -12    1    1    2    0    0 -0.73345277692E+00 -0.51356528200E+00 -0.76873207129E+00  0.11801064665E+01  0.00000000000E+00 0.  1.
         11    1    3    3    0    0 -0.27105849911E+02 -0.12357041894E+02  0.18546142219E+02  0.35091066886E+02  0.51100000000E-03 0. -1.
        -11    1    3    3    0    0 -0.98156625567E+01 -0.11318739615E+01  0.20887665455E+01  0.10099075009E+02  0.51100000000E-03 0.  1.
        -12    1    3    3    0    0  0.37654965244E+02  0.14002481137E+02 -0.19866176693E+02  0.44817751639E+02  0.00000000000E+00 0.  1.
</event>
<event>
 7    1  0.2429906E-015  0.9000770E+02  0.7816164E-02  0.1186339E+00
        -11   -1    0    0    0    0  0.00000000000E+00  0.00000000000E+00  0.45593999997E+02  0.45594000000E+02  0.51100000000E-03 0.  1.
         11   -1    0    0    0    0 -0.00000000000E+00 -0.00000000000E+00 -0.45593999997E+02  0.45594000000E+02  0.51100000000E-03 0. -1.
    9900012    2    1    2    0    0  0.11195442951E+01 -0.22318138463E+00  0.29987856825E+00  0.90007696431E+02  0.89999957224E+02 0.  0.
        -12    1    1    2    0    0 -0.11195442951E+01  0.22318138463E+00 -0.29987856825E+00  0.11803035690E+01  0.00000000000E+00 0.  1.
         11    1    3    3    0    0 -0.18159779840E+01 -0.66176769657E+01  0.45501783474E+01  0.82338051783E+01  0.51100000000E-03 0. -1.
        -11    1    3    3    0    0  0.19712387545E+02  0.30397946513E+02  0.22049876627E+02  0.42412385390E+02  0.51100000000E-03 0.  1.
         12    1    3    3    0    0 -0.16776865266E+02 -0.24003450932E+02 -0.26300176406E+02  0.39361505863E+02  0.00000000000E+00 0. -1.
</event>
<event>
 7    1  0.2429906E-015  0.9000777E+02  0.7816164E-02  0.1186339E+00
        -11   -1    0    0    0    0  0.00000000000E+00  0.00000000000E+00  0.45593999997E+02  0.45594000000E+02  0.51100000000E-03 0.  1.
         11   -1    0    0    0    0 -0.00000000000E+00 -0.00000000000E+00 -0.45593999997E+02  0.45594000000E+02  0.51100000000E-03 0. -1.
    9900012    2    1    2    0    0 -0.50988262929E+00 -0.10509547518E+01 -0.16872285732E+00  0.90007765452E+02  0.90000027156E+02 0.  0.
        -12    1    1    2    0    0  0.50988262929E+00  0.10509547518E+01  0.16872285732E+00  0.11802345481E+01  0.00000000000E+00 0.  1.
         11    1    3    3    0    0  0.71720812327E+01  0.45943626258E+01  0.31371237273E+01  0.90768090587E+01  0.51100000000E-03 0. -1.
        -11    1    3    3    0    0  0.19111518948E+02  0.28055087125E+02  0.10804552240E+02  0.35624098858E+02  0.51100000000E-03 0.  1.
         12    1    3    3    0    0 -0.26793482810E+02 -0.33700404502E+02 -0.14110398825E+02  0.45306857535E+02  0.00000000000E+00 0. -1.
</event>
<event>
 7    1  0.2429906E-015  0.9000773E+02  0.7816164E-02  0.1186339E+00
        -11   -1    0    0    0    0  0.00000000000E+00  0.00000000000E+00  0.45593999997E+02  0.45594000000E+02  0.51100000000E-03 0.  1.
         11   -1    0    0    0    0 -0.00000000000E+00 -0.00000000000E+00 -0.45593999997E+02  0.45594000000E+02  0.51100000000E-03 0. -1.
    9900012    2    1    2    0    0 -0.10098574705E+01 -0.48417645104E+00 -0.37256091990E+00  0.90007728597E+02  0.89999989814E+02 0.  0.
        -12    1    1    2    0    0  0.10098574705E+01  0.48417645104E+00  0.37256091990E+00  0.11802714034E+01  0.00000000000E+00 0.  1.
         11    1    3    3    0    0  0.66239280914E+01 -0.34890468865E+01 -0.13056553363E+02  0.15050696247E+02  0.51100000000E-03 0. -1.
        -11    1    3    3    0    0  0.19264030934E+02 -0.26601677043E+02 -0.47458148638E+00  0.32847790446E+02  0.51100000000E-03 0.  1.
         12    1    3    3    0    0 -0.26897816496E+02  0.29606547479E+02  0.13158573929E+02  0.42109241904E+02  0.00000000000E+00 0. -1.
</event>
<event>
 7    1  0.2429906E-015  0.9000773E+02  0.7816164E-02  0.1186339E+00
        -11   -1    0    0    0    0  0.00000000000E+00  0.00000000000E+00  0.45593999997E+02  0.45594000000E+02  0.51100000000E-03 0.  1.
         11   -1    0    0    0    0 -0.00000000000E+00 -0.00000000000E+00 -0.45593999997E+02  0.45594000000E+02  0.51100000000E-03 0. -1.
    9900012    2    1    2    0    0  0.44009001365E+00 -0.10056044868E+01 -0.43372967688E+00  0.90007728406E+02  0.89999989621E+02 0.  0.
        -12    1    1    2    0    0 -0.44009001365E+00  0.10056044868E+01  0.43372967688E+00  0.11802715944E+01  0.00000000000E+00 0.  1.
         11    1    3    3    0    0 -0.16471733217E+02 -0.34050879405E+01  0.31304342241E+00  0.16822919352E+02  0.51100000000E-03 0. -1.
        -11    1    3    3    0    0  0.21804629836E+02 -0.27745373170E+02  0.15557965796E+02  0.38565501612E+02  0.51100000000E-03 0.  1.
         12    1    3    3    0    0 -0.48928066048E+01  0.30144856624E+02 -0.16304738895E+02  0.34619307442E+02  0.00000000000E+00 0. -1.
</event>
<event>
 7    1  0.6532807E-015  0.9000772E+02  0.7816164E-02  0.1186339E+00
        -11   -1    0    0    0    0  0.00000000000E+00  0.00000000000E+00  0.45593999997E+02  0.45594000000E+02  0.51100000000E-03 0. -1.
         11   -1    0    0    0    0 -0.00000000000E+00 -0.00000000000E+00 -0.45593999997E+02  0.45594000000E+02  0.51100000000E-03 0.  1.
    9900012    2    1    2    0    0 -0.55251223540E+00 -0.69892123760E+00  0.77414127375E+00  0.90007722330E+02  0.89999983465E+02 0.  0.
        -12    1    1    2    0    0  0.55251223540E+00  0.69892123760E+00 -0.77414127375E+00  0.11802776700E+01  0.00000000000E+00 0.  1.
         11    1    3    3    0    0 -0.78575254264E+01 -0.17216033382E+02  0.33864355878E+02  0.38793390037E+02  0.51100000000E-03 0. -1.
        -11    1    3    3    0    0 -0.41568596349E+01 -0.84712578887E+01 -0.18782501114E+01  0.96213053160E+01  0.51100000000E-03 0.  1.
        -12    1    3    3    0    0  0.11461872826E+02  0.24988370033E+02 -0.31211964493E+02  0.41593026977E+02  0.00000000000E+00 0.  1.
</event>
<event>
 7    1  0.2429906E-015  0.9000775E+02  0.7816164E-02  0.1186339E+00
        -11   -1    0    0    0    0  0.00000000000E+00  0.00000000000E+00  0.45593999997E+02  0.45594000000E+02  0.51100000000E-03 0.  1.
         11   -1    0    0    0    0 -0.00000000000E+00 -0.00000000000E+00 -0.45593999997E+02  0.45594000000E+02  0.51100000000E-03 0. -1.
    9900012    2    1    2    0    0  0.80862942120E+00  0.81310500728E+00 -0.27921212992E+00  0.90007753963E+02  0.90000015516E+02 0.  0.
        -12    1    1    2    0    0 -0.80862942120E+00 -0.81310500728E+00  0.27921212992E+00  0.11802460367E+01  0.00000000000E+00 0.  1.
         11    1    3    3    0    0  0.51614430382E+01 -0.40262014433E+01  0.62179555586E+01  0.90284973217E+01  0.51100000000E-03 0. -1.
        -11    1    3    3    0    0 -0.19324548460E+02 -0.16588233801E+02  0.27900555285E+02  0.37776297586E+02  0.51100000000E-03 0.  1.
         12    1    3    3    0    0  0.14971734843E+02  0.21427540251E+02 -0.34397722973E+02  0.43202959056E+02  0.00000000000E+00 0. -1.
</event>
<event>
 7    1  0.2429906E-015  0.9000799E+02  0.7816164E-02  0.1186339E+00
        -11   -1    0    0    0    0  0.00000000000E+00  0.00000000000E+00  0.45593999997E+02  0.45594000000E+02  0.51100000000E-03 0. -1.
         11   -1    0    0    0    0 -0.00000000000E+00 -0.00000000000E+00 -0.45593999997E+02  0.45594000000E+02  0.51100000000E-03 0.  1.
    9900012    2    1    2    0    0  0.97920853481E+00  0.56230265728E+00 -0.34262801137E+00  0.90007988311E+02  0.90000252956E+02 0.  0.
        -12    1    1    2    0    0 -0.97920853481E+00 -0.56230265728E+00  0.34262801137E+00  0.11800116894E+01  0.00000000000E+00 0.  1.
         11    1    3    3    0    0 -0.53918588353E+01  0.77604208969E+01 -0.49599270244E+01  0.10672260798E+02  0.51100000000E-03 0. -1.
        -11    1    3    3    0    0 -0.26865964309E+00 -0.62285891073E+01 -0.36827382987E+02  0.37351353900E+02  0.51100000000E-03 0.  1.
         12    1    3    3    0    0  0.66397270132E+01 -0.96952913227E+00  0.41444682000E+02  0.41984373612E+02  0.00000000000E+00 0. -1.
</event>
<event>
 7    1  0.2429906E-015  0.9000773E+02  0.7816164E-02  0.1186339E+00
        -11   -1    0    0    0    0  0.00000000000E+00  0.00000000000E+00  0.45593999997E+02  0.45594000000E+02  0.51100000000E-03 0. -1.
         11   -1    0    0    0    0 -0.00000000000E+00 -0.00000000000E+00 -0.45593999997E+02  0.45594000000E+02  0.51100000000E-03 0.  1.
    9900012    2    1    2    0    0  0.22597724186E+00  0.73270661451E-02  0.11584090876E+01  0.90007732652E+02  0.89999993923E+02 0.  0.
        -12    1    1    2    0    0 -0.22597724186E+00 -0.73270661451E-02 -0.11584090876E+01  0.11802673485E+01  0.00000000000E+00 0.  1.
         11    1    3    3    0    0  0.17144524090E+02  0.13458231500E+02  0.35649489546E+01  0.22085460436E+02  0.51100000000E-03 0. -1.
        -11    1    3    3    0    0  0.13312297390E+02  0.12555305256E+02  0.15714461235E+02  0.24120473545E+02  0.51100000000E-03 0.  1.
        -12    1    3    3    0    0 -0.30230844238E+02 -0.26006209690E+02 -0.18121001102E+02  0.43801798670E+02  0.00000000000E+00 0.  1.
</event>
<event>
 7    1  0.2429906E-015  0.9000743E+02  0.7816164E-02  0.1186340E+00
        -11   -1    0    0    0    0  0.00000000000E+00  0.00000000000E+00  0.45593999997E+02  0.45594000000E+02  0.51100000000E-03 0.  1.
         11   -1    0    0    0    0 -0.00000000000E+00 -0.00000000000E+00 -0.45593999997E+02  0.45594000000E+02  0.51100000000E-03 0. -1.
    9900012    2    1    2    0    0  0.32187016686E+00  0.44399617260E+00  0.10454682341E+01  0.90007433681E+02  0.89999691005E+02 0.  0.
        -12    1    1    2    0    0 -0.32187016686E+00 -0.44399617260E+00 -0.10454682341E+01  0.11805663192E+01  0.00000000000E+00 0.  1.
         11    1    3    3    0    0 -0.69146006788E+01 -0.43763993594E+01  0.77026067449E+01  0.11238092580E+02  0.51100000000E-03 0. -1.
        -11    1    3    3    0    0 -0.98257726053E+01 -0.21974469454E+02  0.24448644977E+02  0.34309755997E+02  0.51100000000E-03 0.  1.
         12    1    3    3    0    0  0.17062243451E+02  0.26794864986E+02 -0.31105783488E+02  0.44459585104E+02  0.00000000000E+00 0. -1.
</event>
<event>
 7    1  0.2429906E-015  0.9000770E+02  0.7816164E-02  0.1186339E+00
        -11   -1    0    0    0    0  0.00000000000E+00  0.00000000000E+00  0.45593999997E+02  0.45594000000E+02  0.51100000000E-03 0. -1.
         11   -1    0    0    0    0 -0.00000000000E+00 -0.00000000000E+00 -0.45593999997E+02  0.45594000000E+02  0.51100000000E-03 0.  1.
    9900012    2    1    2    0    0 -0.61051575901E+00 -0.99534592701E+00 -0.17220935298E+00  0.90007703822E+02  0.89999964713E+02 0.  0.
        -12    1    1    2    0    0  0.61051575901E+00  0.99534592701E+00  0.17220935298E+00  0.11802961779E+01  0.00000000000E+00 0.  1.
         11    1    3    3    0    0  0.47238990264E+01 -0.66528118537E+01 -0.88547439293E+01  0.12040831279E+02  0.51100000000E-03 0. -1.
        -11    1    3    3    0    0  0.12654647294E+02 -0.13990341762E+02 -0.27307858193E+02  0.33190192529E+02  0.51100000000E-03 0.  1.
         12    1    3    3    0    0 -0.17989062079E+02  0.19647807688E+02  0.35990392769E+02  0.44776680015E+02  0.00000000000E+00 0. -1.
</event>
<event>
 7    1  0.2429906E-015  0.9000772E+02  0.7816164E-02  0.1186339E+00
        -11   -1    0    0    0    0  0.00000000000E+00  0.00000000000E+00  0.45593999997E+02  0.45594000000E+02  0.51100000000E-03 0.  1.
         11   -1    0    0    0    0 -0.00000000000E+00 -0.00000000000E+00 -0.45593999997E+02  0.45594000000E+02  0.51100000000E-03 0. -1.
    9900012    2    1    2    0    0  0.69671459973E+00  0.89316945039E+00 -0.33149106509E+00  0.90007724936E+02  0.89999986105E+02 0.  0.
        -12    1    1    2    0    0 -0.69671459973E+00 -0.89316945039E+00  0.33149106509E+00  0.11802750641E+01  0.00000000000E+00 0.  1.
         11    1    3    3    0    0 -0.38907804660E+02 -0.78605774078E+01  0.34203205190E+01  0.39840990618E+02  0.51100000000E-03 0. -1.
        -11    1    3    3    0    0  0.15087713891E+01 -0.12713584150E+01 -0.10077941495E+02  0.10269257440E+02  0.51100000000E-03 0.  1.
        -12    1    3    3    0    0  0.38095747871E+02  0.10025105273E+02  0.63261299114E+01  0.39897476878E+02  0.00000000000E+00 0.  1.
</event>
<event>
 7    1  0.2429906E-015  0.9000775E+02  0.7816164E-02  0.1186339E+00
        -11   -1    0    0    0    0  0.00000000000E+00  0.00000000000E+00  0.45593999997E+02  0.45594000000E+02  0.51100000000E-03 0.  1.
         11   -1    0    0    0    0 -0.00000000000E+00 -0.00000000000E+00 -0.45593999997E+02  0.45594000000E+02  0.51100000000E-03 0. -1.
    9900012    2    1    2    0    0  0.75405421316E-01  0.72230331151E+00 -0.93036508455E+00  0.90007751195E+02  0.90000012711E+02 0.  0.
        -12    1    1    2    0    0 -0.75405421316E-01 -0.72230331151E+00  0.93036508455E+00  0.11802488051E+01  0.00000000000E+00 0.  1.
         11    1    3    3    0    0  0.32428486433E+01 -0.22878774056E+02  0.62842770689E+00  0.23115996437E+02  0.51100000000E-03 0. -1.
        -11    1    3    3    0    0 -0.16757513696E+02 -0.14901706370E+02  0.98562494383E+01  0.24495321416E+02  0.51100000000E-03 0.  1.
         12    1    3    3    0    0  0.13590070474E+02  0.38502783737E+02 -0.11415042230E+02  0.42396433342E+02  0.00000000000E+00 0. -1.
</event>
<event>
 7    1  0.2429906E-015  0.9000781E+02  0.7816164E-02  0.1186339E+00
        -11   -1    0    0    0    0  0.00000000000E+00  0.00000000000E+00  0.45593999997E+02  0.45594000000E+02  0.51100000000E-03 0. -1.
         11   -1    0    0    0    0 -0.00000000000E+00 -0.00000000000E+00 -0.45593999997E+02  0.45594000000E+02  0.51100000000E-03 0.  1.
    9900012    2    1    2    0    0  0.26666551080E+00  0.11291232047E+01 -0.21639002020E+00  0.90007807496E+02  0.90000069755E+02 0.  0.
        -12    1    1    2    0    0 -0.26666551080E+00 -0.11291232047E+01  0.21639002020E+00  0.11801925042E+01  0.00000000000E+00 0.  1.
         11    1    3    3    0    0  0.47997921134E+01 -0.20751629707E+02  0.25682556187E+02  0.33365578556E+02  0.51100000000E-03 0. -1.
        -11    1    3    3    0    0  0.18091767847E+02  0.12370178466E+01 -0.29536710580E+01  0.18372981521E+02  0.51100000000E-03 0.  1.
        -12    1    3    3    0    0 -0.22624894450E+02  0.20643735065E+02 -0.22945275149E+02  0.38269247419E+02  0.00000000000E+00 0.  1.
</event>
<event>
 7    1  0.2429906E-015  0.9000773E+02  0.7816164E-02  0.1186339E+00
        -11   -1    0    0    0    0  0.00000000000E+00  0.00000000000E+00  0.45593999997E+02  0.45594000000E+02  0.51100000000E-03 0.  1.
         11   -1    0    0    0    0 -0.00000000000E+00 -0.00000000000E+00 -0.45593999997E+02  0.45594000000E+02  0.51100000000E-03 0. -1.
    9900012    2    1    2    0    0 -0.53388084257E+00  0.54585866268E+00 -0.90002520177E+00  0.90007730625E+02  0.89999991869E+02 0.  0.
        -12    1    1    2    0    0  0.53388084257E+00 -0.54585866268E+00  0.90002520177E+00  0.11802693750E+01  0.00000000000E+00 0.  1.
         11    1    3    3    0    0 -0.10976365541E+02  0.12258833735E+02 -0.39189662517E+01  0.16915020005E+02  0.51100000000E-03 0. -1.
        -11    1    3    3    0    0 -0.22973501774E+02 -0.37435731320E+01  0.23517317405E+02  0.33088673919E+02  0.51100000000E-03 0.  1.
         12    1    3    3    0    0  0.33415986472E+02 -0.79694019404E+01 -0.20498376355E+02  0.40004036701E+02  0.00000000000E+00 0. -1.
</event>
<event>
 7    1  0.2429906E-015  0.9000767E+02  0.7816164E-02  0.1186339E+00
        -11   -1    0    0    0    0  0.00000000000E+00  0.00000000000E+00  0.45593999997E+02  0.45594000000E+02  0.51100000000E-03 0. -1.
         11   -1    0    0    0    0 -0.00000000000E+00 -0.00000000000E+00 -0.45593999997E+02  0.45594000000E+02  0.51100000000E-03 0.  1.
    9900012    2    1    2    0    0  0.83393941327E+00  0.66362095508E+00  0.50727492378E+00  0.90007671416E+02  0.89999931879E+02 0.  0.
        -12    1    1    2    0    0 -0.83393941327E+00 -0.66362095508E+00 -0.50727492378E+00  0.11803285836E+01  0.00000000000E+00 0.  1.
         11    1    3    3    0    0  0.41333798965E+01 -0.47626554855E+01 -0.70321226479E+01  0.94455527016E+01  0.51100000000E-03 0. -1.
        -11    1    3    3    0    0  0.19766562329E+02  0.12376039301E+02 -0.28740704103E+02  0.37012314271E+02  0.51100000000E-03 0.  1.
         12    1    3    3    0    0 -0.23066002812E+02 -0.69497628605E+01  0.36280101675E+02  0.43549804444E+02  0.00000000000E+00 0. -1.
</event>
<event>
 7    1  0.2429906E-015  0.9000774E+02  0.7816164E-02  0.1186339E+00
        -11   -1    0    0    0    0  0.00000000000E+00  0.00000000000E+00  0.45593999997E+02  0.45594000000E+02  0.51100000000E-03 0.  1.
         11   -1    0    0    0    0 -0.00000000000E+00 -0.00000000000E+00 -0.45593999997E+02  0.45594000000E+02  0.51100000000E-03 0. -1.
    9900012    2    1    2    0    0  0.10999078385E+01  0.76534364348E-01 -0.42112919656E+00  0.90007743857E+02  0.90000005276E+02 0.  0.
        -12    1    1    2    0    0 -0.10999078385E+01 -0.76534364348E-01  0.42112919656E+00  0.11802561427E+01  0.00000000000E+00 0.  1.
         11    1    3    3    0    0 -0.19145006960E+01  0.38650647552E+01  0.19865592129E+01  0.47487320670E+01  0.51100000000E-03 0. -1.
        -11    1    3    3    0    0  0.20853684317E+02  0.35936888995E+02 -0.35171085882E+01  0.41697796025E+02  0.51100000000E-03 0.  1.
         12    1    3    3    0    0 -0.17839275783E+02 -0.39725419386E+02  0.11094201788E+01  0.43561215765E+02  0.00000000000E+00 0. -1.
</event>
<event>
 7    1  0.2429906E-015  0.9000851E+02  0.7816164E-02  0.1186338E+00
        -11   -1    0    0    0    0  0.00000000000E+00  0.00000000000E+00  0.45593999997E+02  0.45594000000E+02  0.51100000000E-03 0.  1.
         11   -1    0    0    0    0 -0.00000000000E+00 -0.00000000000E+00 -0.45593999997E+02  0.45594000000E+02  0.51100000000E-03 0. -1.
    9900012    2    1    2    0    0 -0.10626917053E+00 -0.93679474465E-01 -0.11709517115E+01  0.90008509902E+02  0.90000781429E+02 0.  0.
        -12    1    1    2    0    0  0.10626917053E+00  0.93679474465E-01  0.11709517115E+01  0.11794900980E+01  0.00000000000E+00 0.  1.
         11    1    3    3    0    0 -0.14107924369E+02 -0.17385142551E+02 -0.11511568398E+02  0.25175244165E+02  0.51100000000E-03 0. -1.
        -11    1    3    3    0    0 -0.19343358823E+02  0.33999940434E+01 -0.11364538193E+02  0.22690928114E+02  0.51100000000E-03 0.  1.
        -12    1    3    3    0    0  0.33345014022E+02  0.13891469033E+02  0.21705154880E+02  0.42142337623E+02  0.00000000000E+00 0.  1.
</event>
<event>
 7    1  0.2429906E-015  0.9000777E+02  0.7816164E-02  0.1186339E+00
        -11   -1    0    0    0    0  0.00000000000E+00  0.00000000000E+00  0.45593999997E+02  0.45594000000E+02  0.51100000000E-03 0.  1.
         11   -1    0    0    0    0 -0.00000000000E+00 -0.00000000000E+00 -0.45593999997E+02  0.45594000000E+02  0.51100000000E-03 0. -1.
    9900012    2    1    2    0    0  0.55975494979E+00  0.51034688565E+00 -0.90507267163E+00  0.90007772866E+02  0.90000034668E+02 0.  0.
        -12    1    1    2    0    0 -0.55975494979E+00 -0.51034688565E+00  0.90507267163E+00  0.11802271343E+01  0.00000000000E+00 0.  1.
         11    1    3    3    0    0 -0.53674684066E+00  0.36425372177E+02 -0.24161613901E+01  0.36509364162E+02  0.51100000000E-03 0. -1.
        -11    1    3    3    0    0 -0.37234478127E+01  0.79889720192E+01 -0.24643166967E+01  0.91520814343E+01  0.51100000000E-03 0.  1.
        -12    1    3    3    0    0  0.48199496031E+01 -0.43903997311E+02  0.39754054151E+01  0.44346327269E+02  0.00000000000E+00 0.  1.
</event>
<event>
 7    1  0.2429906E-015  0.9000781E+02  0.7816164E-02  0.1186339E+00
        -11   -1    0    0    0    0  0.00000000000E+00  0.00000000000E+00  0.45593999997E+02  0.45594000000E+02  0.51100000000E-03 0. -1.
         11   -1    0    0    0    0 -0.00000000000E+00 -0.00000000000E+00 -0.45593999997E+02  0.45594000000E+02  0.51100000000E-03 0.  1.
    9900012    2    1    2    0    0  0.10549901829E+01 -0.48093959391E+00  0.22033340246E+00  0.90007807648E+02  0.90000069909E+02 0.  0.
        -12    1    1    2    0    0 -0.10549901829E+01  0.48093959391E+00 -0.22033340246E+00  0.11801923518E+01  0.00000000000E+00 0.  1.
         11    1    3    3    0    0 -0.60233843354E+01  0.27029977129E+02  0.24325299382E+02  0.36859476566E+02  0.51100000000E-03 0. -1.
        -11    1    3    3    0    0 -0.15894445563E+01  0.55758702546E+01  0.54406070769E+01  0.79509036418E+01  0.51100000000E-03 0.  1.
        -12    1    3    3    0    0  0.86678190745E+01 -0.33086786977E+02 -0.29545573057E+02  0.45197427440E+02  0.00000000000E+00 0.  1.
</event>
<event>
 7    1  0.2429906E-015  0.9000771E+02  0.7816164E-02  0.1186339E+00
        -11   -1    0    0    0    0  0.00000000000E+00  0.00000000000E+00  0.45593999997E+02  0.45594000000E+02  0.51100000000E-03 0.  1.
         11   -1    0    0    0    0 -0.00000000000E+00 -0.00000000000E+00 -0.45593999997E+02  0.45594000000E+02  0.51100000000E-03 0. -1.
    9900012    2    1    2    0    0  0.51930343763E+00  0.79609792165E+00 -0.69973514334E+00  0.90007713072E+02  0.89999974085E+02 0.  0.
        -12    1    1    2    0    0 -0.51930343763E+00 -0.79609792165E+00  0.69973514334E+00  0.11802869278E+01  0.00000000000E+00 0.  1.
         11    1    3    3    0    0 -0.29890738781E+01  0.16318811340E+02 -0.26281697111E+00  0.16592384977E+02  0.51100000000E-03 0. -1.
        -11    1    3    3    0    0 -0.41717990175E+01  0.28241137081E+02 -0.40615863745E+01  0.28835086523E+02  0.51100000000E-03 0.  1.
         12    1    3    3    0    0  0.76801763332E+01 -0.43763850499E+02  0.36246682023E+01  0.44580241572E+02  0.00000000000E+00 0. -1.
</event>
<event>
 7    1  0.2429906E-015  0.9000771E+02  0.7816164E-02  0.1186339E+00
        -11   -1    0    0    0    0  0.00000000000E+00  0.00000000000E+00  0.45593999997E+02  0.45594000000E+02  0.51100000000E-03 0.  1.
         11   -1    0    0    0    0 -0.00000000000E+00 -0.00000000000E+00 -0.45593999997E+02  0.45594000000E+02  0.51100000000E-03 0. -1.
    9900012    2    1    2    0    0  0.92453588722E+00  0.44533604459E+00 -0.58308732142E+00  0.90007711212E+02  0.89999972200E+02 0.  0.
        -12    1    1    2    0    0 -0.92453588722E+00 -0.44533604459E+00  0.58308732142E+00  0.11802887883E+01  0.00000000000E+00 0.  1.
         11    1    3    3    0    0 -0.26363023222E+02 -0.14214900179E+02 -0.28384472829E+02  0.41264399651E+02  0.51100000000E-03 0. -1.
        -11    1    3    3    0    0 -0.16311766486E+01 -0.30135317145E+01  0.97697591890E+01  0.10353275111E+02  0.51100000000E-03 0.  1.
        -12    1    3    3    0    0  0.28918735757E+02  0.17673767938E+02  0.18031626318E+02  0.38390036450E+02  0.00000000000E+00 0.  1.
</event>
<event>
 7    1  0.2429906E-015  0.9000772E+02  0.7816164E-02  0.1186339E+00
        -11   -1    0    0    0    0  0.00000000000E+00  0.00000000000E+00  0.45593999997E+02  0.45594000000E+02  0.51100000000E-03 0.  1.
         11   -1    0    0    0    0 -0.00000000000E+00 -0.00000000000E+00 -0.45593999997E+02  0.45594000000E+02  0.51100000000E-03 0. -1.
    9900012    2    1    2    0    0 -0.26885365587E+00  0.10559360656E+01 -0.45363475744E+00  0.90007717086E+02  0.89999978152E+02 0.  0.
        -12    1    1    2    0    0  0.26885365587E+00 -0.10559360656E+01  0.45363475744E+00  0.11802829136E+01  0.00000000000E+00 0.  1.
         11    1    3    3    0    0 -0.72877853079E+01 -0.33611747669E+02 -0.11503390295E+02  0.36265539905E+02  0.51100000000E-03 0. -1.
        -11    1    3    3    0    0 -0.75153269954E+01 -0.39666700164E+01 -0.45204129033E+01  0.96254217541E+01  0.51100000000E-03 0.  1.
        -12    1    3    3    0    0  0.14534258647E+02  0.38634353751E+02  0.15570168440E+02  0.44116755428E+02  0.00000000000E+00 0.  1.
</event>
<event>
 7    1  0.2429906E-015  0.9000785E+02  0.7816164E-02  0.1186339E+00
        -11   -1    0    0    0    0  0.00000000000E+00  0.00000000000E+00  0.45593999997E+02  0.45594000000E+02  0.51100000000E-03 0. -1.
         11   -1    0    0    0    0 -0.00000000000E+00 -0.00000000000E+00 -0.45593999997E+02  0.45594000000E+02  0.51100000000E-03 0.  1.
    9900012    2    1    2    0    0 -0.79389504020E+00  0.46936172239E+00 -0.73632486947E+00  0.90007854215E+02  0.90000117090E+02 0.  0.
        -12    1    1    2    0    0  0.79389504020E+00 -0.46936172239E+00  0.73632486947E+00  0.11801457854E+01  0.00000000000E+00 0.  1.
         11    1    3    3    0    0 -0.27956162009E+01 -0.35158263252E+02  0.12945810017E+02  0.37570107028E+02  0.51100000000E-03 0. -1.
        -11    1    3    3    0    0 -0.82341575774E+01 -0.43606387914E+01 -0.18696196395E+01  0.95032625733E+01  0.51100000000E-03 0.  1.
        -12    1    3    3    0    0  0.10235878738E+02  0.39988263766E+02 -0.11812515247E+02  0.42934484613E+02  0.00000000000E+00 0.  1.
</event>
<event>
 7    1  0.2429906E-015  0.9000785E+02  0.7816164E-02  0.1186339E+00
        -11   -1    0    0    0    0  0.00000000000E+00  0.00000000000E+00  0.45593999997E+02  0.45594000000E+02  0.51100000000E-03 0.  1.
         11   -1    0    0    0    0 -0.00000000000E+00 -0.00000000000E+00 -0.45593999997E+02  0.45594000000E+02  0.51100000000E-03 0. -1.
    9900012    2    1    2    0    0 -0.78164796831E+00 -0.33349020006E+00 -0.81888143622E+00  0.90007849134E+02  0.90000111943E+02 0.  0.
        -12    1    1    2    0    0  0.78164796831E+00  0.33349020006E+00  0.81888143622E+00  0.11801508660E+01  0.00000000000E+00 0.  1.
         11    1    3    3    0    0  0.63369464622E+01 -0.66656770707E+01  0.21065374090E+01  0.94353400253E+01  0.51100000000E-03 0. -1.
        -11    1    3    3    0    0  0.18052793528E+02 -0.17033668299E-01  0.32187981589E+02  0.36904875062E+02  0.51100000000E-03 0.  1.
         12    1    3    3    0    0 -0.25171387958E+02  0.63492205389E+01 -0.35113400434E+02  0.43667634047E+02  0.00000000000E+00 0. -1.
</event>
<event>
 7    1  0.2429906E-015  0.9000772E+02  0.7816164E-02  0.1186339E+00
        -11   -1    0    0    0    0  0.00000000000E+00  0.00000000000E+00  0.45593999997E+02  0.45594000000E+02  0.51100000000E-03 0.  1.
         11   -1    0    0    0    0 -0.00000000000E+00 -0.00000000000E+00 -0.45593999997E+02  0.45594000000E+02  0.51100000000E-03 0. -1.
    9900012    2    1    2    0    0 -0.25389832772E+00  0.92393601779E+00 -0.68914951925E+00  0.90007724953E+02  0.89999986123E+02 0.  0.
        -12    1    1    2    0    0  0.25389832772E+00 -0.92393601779E+00  0.68914951925E+00  0.11802750466E+01  0.00000000000E+00 0.  1.
         11    1    3    3    0    0 -0.37961736060E+02 -0.10041557704E+02 -0.11450046063E+02  0.40902687453E+02  0.51100000000E-03 0. -1.
        -11    1    3    3    0    0  0.32893575838E+01 -0.79736325240E+01  0.18250553392E+01  0.88164344376E+01  0.51100000000E-03 0.  1.
        -12    1    3    3    0    0  0.34418480148E+02  0.18939126246E+02  0.89358412043E+01  0.40288603062E+02  0.00000000000E+00 0.  1.
</event>
<event>
 7    1  0.2429906E-015  0.9000780E+02  0.7816164E-02  0.1186339E+00
        -11   -1    0    0    0    0  0.00000000000E+00  0.00000000000E+00  0.45593999997E+02  0.45594000000E+02  0.51100000000E-03 0. -1.
         11   -1    0    0    0    0 -0.00000000000E+00 -0.00000000000E+00 -0.45593999997E+02  0.45594000000E+02  0.51100000000E-03 0.  1.
    9900012    2    1    2    0    0 -0.92876297669E+00  0.31266113108E+00  0.65765509593E+00  0.90007801765E+02  0.90000063948E+02 0.  0.
        -12    1    1    2    0    0  0.92876297669E+00 -0.31266113108E+00 -0.65765509593E+00  0.11801982354E+01  0.00000000000E+00 0.  1.
         11    1    3    3    0    0  0.95518431034E+01 -0.20471833156E+02  0.86272234618E+01  0.24181866023E+02  0.51100000000E-03 0. -1.
        -11    1    3    3    0    0 -0.85299235052E+01 -0.21436978497E+02 -0.31398242111E+01  0.23284375414E+02  0.51100000000E-03 0.  1.
        -12    1    3    3    0    0 -0.19506825749E+01  0.42221472784E+02 -0.48297441548E+01  0.42541560328E+02  0.00000000000E+00 0.  1.
</event>
<event>
 7    1  0.2429906E-015  0.9000888E+02  0.7816164E-02  0.1186337E+00
        -11   -1    0    0    0    0  0.00000000000E+00  0.00000000000E+00  0.45593999997E+02  0.45594000000E+02  0.51100000000E-03 0. -1.
         11   -1    0    0    0    0 -0.00000000000E+00 -0.00000000000E+00 -0.45593999997E+02  0.45594000000E+02  0.51100000000E-03 0.  1.
    9900012    2    1    2    0    0 -0.97968404755E+00 -0.60911632293E+00  0.24394886800E+00  0.90008883984E+02  0.90001160446E+02 0.  0.
        -12    1    1    2    0    0  0.97968404755E+00  0.60911632293E+00 -0.24394886800E+00  0.11791160155E+01  0.00000000000E+00 0.  1.
         11    1    3    3    0    0  0.72480787341E+01 -0.33332975256E+01 -0.67968675898E+01  0.10480597646E+02  0.51100000000E-03 0. -1.
        -11    1    3    3    0    0  0.34870999331E+02 -0.55798938883E+01  0.37649943387E+01  0.35514743316E+02  0.51100000000E-03 0.  1.
         12    1    3    3    0    0 -0.43098762113E+02  0.83040750909E+01  0.32758221190E+01  0.44013543022E+02  0.00000000000E+00 0. -1.
</event>
<event>
 7    1  0.2429906E-015  0.9000774E+02  0.7816164E-02  0.1186339E+00
        -11   -1    0    0    0    0  0.00000000000E+00  0.00000000000E+00  0.45593999997E+02  0.45594000000E+02  0.51100000000E-03 0. -1.
         11   -1    0    0    0    0 -0.00000000000E+00 -0.00000000000E+00 -0.45593999997E+02  0.45594000000E+02  0.51100000000E-03 0.  1.
    9900012    2    1    2    0    0  0.10858860590E+00  0.90647641181E+00  0.74801678965E+00  0.90007737280E+02  0.89999998612E+02 0.  0.
        -12    1    1    2    0    0 -0.10858860590E+00 -0.90647641181E+00 -0.74801678965E+00  0.11802627199E+01  0.00000000000E+00 0.  1.
         11    1    3    3    0    0  0.51982988648E+01 -0.83144936759E+01 -0.50888343548E+00  0.98189652605E+01  0.51100000000E-03 0. -1.
        -11    1    3    3    0    0 -0.30867456278E+02 -0.20033555901E+02 -0.12466380359E+02  0.38852977475E+02  0.51100000000E-03 0.  1.
         12    1    3    3    0    0  0.25777746019E+02  0.29254525989E+02  0.13723280584E+02  0.41335794545E+02  0.00000000000E+00 0. -1.
</event>
<event>
 7    1  0.2429906E-015  0.9000775E+02  0.7816164E-02  0.1186339E+00
        -11   -1    0    0    0    0  0.00000000000E+00  0.00000000000E+00  0.45593999997E+02  0.45594000000E+02  0.51100000000E-03 0.  1.
         11   -1    0    0    0    0 -0.00000000000E+00 -0.00000000000E+00 -0.45593999997E+02  0.45594000000E+02  0.51100000000E-03 0. -1.
    9900012    2    1    2    0    0  0.77380799641E+00 -0.75597662876E+00 -0.47191541415E+00  0.90007752722E+02  0.90000014258E+02 0.  0.
        -12    1    1    2    0    0 -0.77380799641E+00  0.75597662876E+00  0.47191541415E+00  0.11802472778E+01  0.00000000000E+00 0.  1.
         11    1    3    3    0    0  0.10802909504E+02  0.15044545833E+02 -0.11117122865E+02  0.21601658133E+02  0.51100000000E-03 0. -1.
        -11    1    3    3    0    0  0.19907958382E+02  0.67799339163E+00 -0.15613809304E+02  0.25309633012E+02  0.51100000000E-03 0.  1.
         12    1    3    3    0    0 -0.29937059890E+02 -0.16478515853E+02  0.26259016754E+02  0.43096461577E+02  0.00000000000E+00 0. -1.
</event>
<event>
 7    1  0.2429906E-015  0.9000777E+02  0.7816164E-02  0.1186339E+00
        -11   -1    0    0    0    0  0.00000000000E+00  0.00000000000E+00  0.45593999997E+02  0.45594000000E+02  0.51100000000E-03 0.  1.
         11   -1    0    0    0    0 -0.00000000000E+00 -0.00000000000E+00 -0.45593999997E+02  0.45594000000E+02  0.51100000000E-03 0. -1.
    9900012    2    1    2    0    0  0.35134037787E+00  0.66021055473E+00 -0.91302419197E+00  0.90007774931E+02  0.90000036760E+02 0.  0.
        -12    1    1    2    0    0 -0.35134037787E+00 -0.66021055473E+00  0.91302419197E+00  0.11802250687E+01  0.00000000000E+00 0.  1.
         11    1    3    3    0    0 -0.37555604788E+01 -0.78216217410E+01 -0.48185586877E+01  0.99247422766E+01  0.51100000000E-03 0. -1.
        -11    1    3    3    0    0 -0.34419102907E+02  0.17709360818E+02  0.10056095541E+02  0.39992763887E+02  0.51100000000E-03 0.  1.
         12    1    3    3    0    0  0.38526003764E+02 -0.92275285227E+01 -0.61505610453E+01  0.40090268767E+02  0.00000000000E+00 0. -1.
</event>
<event>
 7    1  0.2429906E-015  0.9000784E+02  0.7816164E-02  0.1186339E+00
        -11   -1    0    0    0    0  0.00000000000E+00  0.00000000000E+00  0.45593999997E+02  0.45594000000E+02  0.51100000000E-03 0.  1.
         11   -1    0    0    0    0 -0.00000000000E+00 -0.00000000000E+00 -0.45593999997E+02  0.45594000000E+02  0.51100000000E-03 0. -1.
    9900012    2    1    2    0    0  0.42646418431E+00 -0.14655697019E+00 -0.10906117169E+01  0.90007837061E+02  0.90000099710E+02 0.  0.
        -12    1    1    2    0    0 -0.42646418431E+00  0.14655697019E+00  0.10906117169E+01  0.11801629392E+01  0.00000000000E+00 0.  1.
         11    1    3    3    0    0 -0.79810968316E+01  0.25940619813E+00 -0.52450311103E+01  0.95538238324E+01  0.51100000000E-03 0. -1.
        -11    1    3    3    0    0  0.40021455574E+02  0.99138232842E+01  0.17274896726E+02  0.44703723062E+02  0.51100000000E-03 0.  1.
         12    1    3    3    0    0 -0.31613894558E+02 -0.10319786452E+02 -0.13120477333E+02  0.35750290167E+02  0.00000000000E+00 0. -1.
</event>
<event>
 7    1  0.3371280E-015  0.9000775E+02  0.7816164E-02  0.1186339E+00
        -11   -1    0    0    0    0  0.00000000000E+00  0.00000000000E+00  0.45593999997E+02  0.45594000000E+02  0.51100000000E-03 0. -1.
         11   -1    0    0    0    0 -0.00000000000E+00 -0.00000000000E+00 -0.45593999997E+02  0.45594000000E+02  0.51100000000E-03 0.  1.
    9900012    2    1    2    0    0  0.50877418348E+00  0.15548410585E+00  0.10535535210E+01  0.90007745155E+02  0.90000006591E+02 0.  0.
        -12    1    1    2    0    0 -0.50877418348E+00 -0.15548410585E+00 -0.10535535210E+01  0.11802548447E+01  0.00000000000E+00 0.  1.
         11    1    3    3    0    0  0.83882188208E+01  0.26459367677E+02  0.24225920561E+02  0.36842306933E+02  0.51100000000E-03 0. -1.
        -11    1    3    3    0    0 -0.56857866151E+01  0.81395213424E+01  0.23952342216E+01  0.10213575493E+02  0.51100000000E-03 0.  1.
        -12    1    3    3    0    0 -0.21936580222E+01 -0.34443404914E+02 -0.25567601262E+02  0.42951862729E+02  0.00000000000E+00 0.  1.
</event>
<event>
 7    1  0.2429906E-015  0.9000812E+02  0.7816164E-02  0.1186338E+00
        -11   -1    0    0    0    0  0.00000000000E+00  0.00000000000E+00  0.45593999997E+02  0.45594000000E+02  0.51100000000E-03 0.  1.
         11   -1    0    0    0    0 -0.00000000000E+00 -0.00000000000E+00 -0.45593999997E+02  0.45594000000E+02  0.51100000000E-03 0. -1.
    9900012    2    1    2    0    0  0.76808414009E+00  0.58971065900E+00 -0.67410256028E+00  0.90008116036E+02  0.90000382366E+02 0.  0.
        -12    1    1    2    0    0 -0.76808414009E+00 -0.58971065900E+00  0.67410256028E+00  0.11798839644E+01  0.00000000000E+00 0.  1.
         11    1    3    3    0    0  0.65100925109E+01 -0.17648666257E+02  0.78842825202E+01  0.20396534909E+02  0.51100000000E-03 0. -1.
        -11    1    3    3    0    0 -0.22397181110E+02 -0.16762078901E+02  0.52517985696E+01  0.28463703189E+02  0.51100000000E-03 0.  1.
         12    1    3    3    0    0  0.16655172739E+02  0.35000455817E+02 -0.13810183650E+02  0.41147877938E+02  0.00000000000E+00 0. -1.
</event>
<event>
 7    1  0.2429906E-015  0.9000772E+02  0.7816164E-02  0.1186339E+00
        -11   -1    0    0    0    0  0.00000000000E+00  0.00000000000E+00  0.45593999997E+02  0.45594000000E+02  0.51100000000E-03 0.  1.
         11   -1    0    0    0    0 -0.00000000000E+00 -0.00000000000E+00 -0.45593999997E+02  0.45594000000E+02  0.51100000000E-03 0. -1.
    9900012    2    1    2    0    0 -0.10125554562E+01 -0.46512994766E+00 -0.38916893631E+00  0.90007717457E+02  0.89999978528E+02 0.  0.
        -12    1    1    2    0    0  0.10125554562E+01  0.46512994766E+00  0.38916893631E+00  0.11802825429E+01  0.00000000000E+00 0.  1.
         11    1    3    3    0    0  0.16045385791E+02 -0.28181951991E+02  0.14543913204E+02  0.35541556448E+02  0.51100000000E-03 0. -1.
        -11    1    3    3    0    0  0.21731988503E+01 -0.97003745316E+01 -0.37288167250E+00  0.99478188714E+01  0.51100000000E-03 0.  1.
        -12    1    3    3    0    0 -0.19231140098E+02  0.37417196575E+02 -0.14560200467E+02  0.44518342137E+02  0.00000000000E+00 0.  1.
</event>
<event>
 7    1  0.2429906E-015  0.9000773E+02  0.7816164E-02  0.1186339E+00
        -11   -1    0    0    0    0  0.00000000000E+00  0.00000000000E+00  0.45593999997E+02  0.45594000000E+02  0.51100000000E-03 0. -1.
         11   -1    0    0    0    0 -0.00000000000E+00 -0.00000000000E+00 -0.45593999997E+02  0.45594000000E+02  0.51100000000E-03 0.  1.
    9900012    2    1    2    0    0 -0.13657299950E-01 -0.44544470789E+00  0.10928960161E+01  0.90007733415E+02  0.89999994696E+02 0.  0.
        -12    1    1    2    0    0  0.13657299950E-01  0.44544470789E+00 -0.10928960161E+01  0.11802665849E+01  0.00000000000E+00 0.  1.
         11    1    3    3    0    0  0.12250824090E+01  0.73378248222E+01 -0.10552350770E+01  0.75138552926E+01  0.51100000000E-03 0. -1.
        -11    1    3    3    0    0 -0.37610666217E+02  0.18922372171E+01 -0.15748603212E+02  0.40818638860E+02  0.51100000000E-03 0.  1.
         12    1    3    3    0    0  0.36371926509E+02 -0.96755067471E+01  0.17896734305E+02  0.41675239262E+02  0.00000000000E+00 0. -1.
</event>
<event>
 7    1  0.2429906E-015  0.9000779E+02  0.7816164E-02  0.1186339E+00
        -11   -1    0    0    0    0  0.00000000000E+00  0.00000000000E+00  0.45593999997E+02  0.45594000000E+02  0.51100000000E-03 0. -1.
         11   -1    0    0    0    0 -0.00000000000E+00 -0.00000000000E+00 -0.45593999997E+02  0.45594000000E+02  0.51100000000E-03 0.  1.
    9900012    2    1    2    0    0 -0.48618667354E+00 -0.22798222712E+00  0.10509679626E+01  0.90007793647E+02  0.90000055723E+02 0.  0.
        -12    1    1    2    0    0  0.48618667354E+00  0.22798222712E+00 -0.10509679626E+01  0.11802063531E+01  0.00000000000E+00 0.  1.
         11    1    3    3    0    0 -0.39447108503E+02 -0.17210869291E+02 -0.40069309031E+01  0.43224343680E+02  0.51100000000E-03 0. -1.
        -11    1    3    3    0    0  0.41761474500E+01  0.10087672713E+02 -0.28477512027E+00  0.10921650307E+02  0.51100000000E-03 0.  1.
        -12    1    3    3    0    0  0.34784774380E+02  0.68952143504E+01  0.53426739860E+01  0.35861799661E+02  0.00000000000E+00 0.  1.
</event>
<event>
 7    1  0.2429906E-015  0.9000792E+02  0.7816164E-02  0.1186339E+00
        -11   -1    0    0    0    0  0.00000000000E+00  0.00000000000E+00  0.45593999997E+02  0.45594000000E+02  0.51100000000E-03 0.  1.
         11   -1    0    0    0    0 -0.00000000000E+00 -0.00000000000E+00 -0.45593999997E+02  0.45594000000E+02  0.51100000000E-03 0. -1.
    9900012    2    1    2    0    0  0.68742566316E+00  0.63967768982E+00 -0.71474352317E+00  0.90007915303E+02  0.90000178984E+02 0.  0.
        -12    1    1    2    0    0 -0.68742566316E+00 -0.63967768982E+00  0.71474352317E+00  0.11800846974E+01  0.00000000000E+00 0.  1.
         11    1    3    3    0    0  0.32503020602E+01 -0.85865354444E+01  0.16942999724E+01  0.93361505492E+01  0.51100000000E-03 0. -1.
        -11    1    3    3    0    0 -0.35364836369E+01  0.23333092564E+02  0.34128555206E+02  0.41493351345E+02  0.51100000000E-03 0.  1.
         12    1    3    3    0    0  0.97360723981E+00 -0.14106879429E+02 -0.36537598702E+02  0.39178413408E+02  0.00000000000E+00 0. -1.
</event>
<event>
 7    1  0.2429906E-015  0.9000775E+02  0.7816164E-02  0.1186339E+00
        -11   -1    0    0    0    0  0.00000000000E+00  0.00000000000E+00  0.45593999997E+02  0.45594000000E+02  0.51100000000E-03 0. -1.
         11   -1    0    0    0    0 -0.00000000000E+00 -0.00000000000E+00 -0.45593999997E+02  0.45594000000E+02  0.51100000000E-03 0.  1.
    9900012    2    1    2    0    0  0.88070081137E+00  0.47278925341E+00 -0.62756322845E+00  0.90007746128E+02  0.90000007577E+02 0.  0.
        -12    1    1    2    0    0 -0.88070081137E+00 -0.47278925341E+00  0.62756322845E+00  0.11802538723E+01  0.00000000000E+00 0.  1.
         11    1    3    3    0    0 -0.17505596653E+01  0.63203871225E+01 -0.67785774124E+01  0.94319067275E+01  0.51100000000E-03 0. -1.
        -11    1    3    3    0    0 -0.84028849599E+00  0.14525314203E+02 -0.33133271227E+02  0.36187076421E+02  0.51100000000E-03 0.  1.
         12    1    3    3    0    0  0.34715489727E+01 -0.20372912072E+02  0.39284285411E+02  0.44388762979E+02  0.00000000000E+00 0. -1.
</event>
<event>
 7    1  0.2429906E-015  0.9000772E+02  0.7816164E-02  0.1186339E+00
        -11   -1    0    0    0    0  0.00000000000E+00  0.00000000000E+00  0.45593999997E+02  0.45594000000E+02  0.51100000000E-03 0. -1.
         11   -1    0    0    0    0 -0.00000000000E+00 -0.00000000000E+00 -0.45593999997E+02  0.45594000000E+02  0.51100000000E-03 0.  1.
    9900012    2    1    2    0    0 -0.45916100962E+00 -0.87464696277E+00  0.64592465083E+00  0.90007722576E+02  0.89999983714E+02 0.  0.
        -12    1    1    2    0    0  0.45916100962E+00  0.87464696277E+00 -0.64592465083E+00  0.11802774237E+01  0.00000000000E+00 0.  1.
         11    1    3    3    0    0  0.26871983976E+01  0.40973806527E+01  0.48133392588E+00  0.49235399918E+01  0.51100000000E-03 0. -1.
        -11    1    3    3    0    0  0.25181323326E+02 -0.23639631035E+02 -0.25174937633E+02  0.42740012693E+02  0.51100000000E-03 0.  1.
         12    1    3    3    0    0 -0.28327682733E+02  0.18667603420E+02  0.25339528357E+02  0.42344169892E+02  0.00000000000E+00 0. -1.
</event>
<event>
 7    1  0.2429906E-015  0.9000797E+02  0.7816164E-02  0.1186339E+00
        -11   -1    0    0    0    0  0.00000000000E+00  0.00000000000E+00  0.45593999997E+02  0.45594000000E+02  0.51100000000E-03 0. -1.
         11   -1    0    0    0    0 -0.00000000000E+00 -0.00000000000E+00 -0.45593999997E+02  0.45594000000E+02  0.51100000000E-03 0.  1.
    9900012    2    1    2    0    0  0.94180806622E+00  0.44699632763E+00  0.55286754641E+00  0.90007970054E+02  0.90000234458E+02 0.  0.
        -12    1    1    2    0    0 -0.94180806622E+00 -0.44699632763E+00 -0.55286754641E+00  0.11800299464E+01  0.00000000000E+00 0.  1.
         11    1    3    3    0    0 -0.61419346330E+00 -0.10531400206E+02 -0.37957815361E+01  0.11211404089E+02  0.51100000000E-03 0. -1.
        -11    1    3    3    0    0 -0.18155300737E+02 -0.19717607134E+02  0.25190598948E+02  0.36782675971E+02  0.51100000000E-03 0.  1.
         12    1    3    3    0    0  0.19711302267E+02  0.30696003668E+02 -0.20841949866E+02  0.42013889994E+02  0.00000000000E+00 0. -1.
</event>
<event>
 7    1  0.2429906E-015  0.9000774E+02  0.7816164E-02  0.1186339E+00
        -11   -1    0    0    0    0  0.00000000000E+00  0.00000000000E+00  0.45593999997E+02  0.45594000000E+02  0.51100000000E-03 0.  1.
         11   -1    0    0    0    0 -0.00000000000E+00 -0.00000000000E+00 -0.45593999997E+02  0.45594000000E+02  0.51100000000E-03 0. -1.
    9900012    2    1    2    0    0  0.32801805467E+00 -0.11285094081E+01 -0.10906166267E+00  0.90007735718E+02  0.89999997030E+02 0.  0.
        -12    1    1    2    0    0 -0.32801805467E+00  0.11285094081E+01  0.10906166267E+00  0.11802642817E+01  0.00000000000E+00 0.  1.
         11    1    3    3    0    0  0.28810140370E+02 -0.18516409473E+02  0.27258780531E+02  0.43771254542E+02  0.51100000000E-03 0. -1.
        -11    1    3    3    0    0 -0.52538776686E+01  0.96161152125E+01 -0.23154843025E+01  0.11199748665E+02  0.51100000000E-03 0.  1.
        -12    1    3    3    0    0 -0.23228244647E+02  0.77717848522E+01 -0.25052357891E+02  0.35036732511E+02  0.00000000000E+00 0.  1.
</event>
<event>
 7    1  0.2429906E-015  0.9000778E+02  0.7816164E-02  0.1186339E+00
        -11   -1    0    0    0    0  0.00000000000E+00  0.00000000000E+00  0.45593999997E+02  0.45594000000E+02  0.51100000000E-03 0.  1.
         11   -1    0    0    0    0 -0.00000000000E+00 -0.00000000000E+00 -0.45593999997E+02  0.45594000000E+02  0.51100000000E-03 0. -1.
    9900012    2    1    2    0    0 -0.98165389019E+00  0.43798743378E+00 -0.48727430388E+00  0.90007782393E+02  0.90000044321E+02 0.  0.
        -12    1    1    2    0    0  0.98165389019E+00 -0.43798743378E+00  0.48727430388E+00  0.11802176068E+01  0.00000000000E+00 0.  1.
         11    1    3    3    0    0  0.71433477214E+01  0.64261202548E+00 -0.28636776657E+02  0.29521269357E+02  0.51100000000E-03 0. -1.
        -11    1    3    3    0    0  0.32347543040E+01 -0.21021379325E+02 -0.28472892527E+01  0.21458543298E+02  0.51100000000E-03 0.  1.
        -12    1    3    3    0    0 -0.11359755916E+02  0.20816754733E+02  0.30996791605E+02  0.39027969738E+02  0.00000000000E+00 0.  1.
</event>
<event>
 7    1  0.2429906E-015  0.9000812E+02  0.7816164E-02  0.1186338E+00
        -11   -1    0    0    0    0  0.00000000000E+00  0.00000000000E+00  0.45593999997E+02  0.45594000000E+02  0.51100000000E-03 0.  1.
         11   -1    0    0    0    0 -0.00000000000E+00 -0.00000000000E+00 -0.45593999997E+02  0.45594000000E+02  0.51100000000E-03 0. -1.
    9900012    2    1    2    0    0  0.77275711430E+00  0.58686320982E+00 -0.67123165654E+00  0.90008121226E+02  0.90000387625E+02 0.  0.
        -12    1    1    2    0    0 -0.77275711430E+00 -0.58686320982E+00  0.67123165654E+00  0.11798787741E+01  0.00000000000E+00 0.  1.
         11    1    3    3    0    0  0.22945801111E+02 -0.22485299236E+02 -0.48136267576E+01  0.32484911470E+02  0.51100000000E-03 0. -1.
        -11    1    3    3    0    0  0.95183162697E+01 -0.22019137698E+01 -0.10576462062E+02  0.14398205405E+02  0.51100000000E-03 0.  1.
        -12    1    3    3    0    0 -0.31691360267E+02  0.25274076215E+02  0.14718857164E+02  0.43125004351E+02  0.00000000000E+00 0.  1.
</event>
<event>
 7    1  0.2429906E-015  0.9000778E+02  0.7816164E-02  0.1186339E+00
        -11   -1    0    0    0    0  0.00000000000E+00  0.00000000000E+00  0.45593999997E+02  0.45594000000E+02  0.51100000000E-03 0.  1.
         11   -1    0    0    0    0 -0.00000000000E+00 -0.00000000000E+00 -0.45593999997E+02  0.45594000000E+02  0.51100000000E-03 0. -1.
    9900012    2    1    2    0    0  0.22174204796E+00  0.19921803645E+00 -0.11419512173E+01  0.90007783942E+02  0.90000045890E+02 0.  0.
        -12    1    1    2    0    0 -0.22174204796E+00 -0.19921803645E+00  0.11419512173E+01  0.11802160584E+01  0.00000000000E+00 0.  1.
         11    1    3    3    0    0 -0.22396306654E+01 -0.68804555812E+01  0.54668602978E+01  0.90688023630E+01  0.51100000000E-03 0. -1.
        -11    1    3    3    0    0 -0.16150586812E+02 -0.29518775363E+02  0.12180426207E+02  0.35784945664E+02  0.51100000000E-03 0.  1.
        -12    1    3    3    0    0  0.18611959526E+02  0.36598448981E+02 -0.18789237722E+02  0.45154035915E+02  0.00000000000E+00 0.  1.
</event>
<event>
 7    1  0.2429906E-015  0.9000772E+02  0.7816164E-02  0.1186339E+00
        -11   -1    0    0    0    0  0.00000000000E+00  0.00000000000E+00  0.45593999997E+02  0.45594000000E+02  0.51100000000E-03 0. -1.
         11   -1    0    0    0    0 -0.00000000000E+00 -0.00000000000E+00 -0.45593999997E+02  0.45594000000E+02  0.51100000000E-03 0.  1.
    9900012    2    1    2    0    0  0.26974401882E+00 -0.82721336555E-01  0.11460591177E+01  0.90007722000E+02  0.89999983131E+02 0.  0.
        -12    1    1    2    0    0 -0.26974401882E+00  0.82721336555E-01 -0.11460591177E+01  0.11802779996E+01  0.00000000000E+00 0.  1.
         11    1    3    3    0    0 -0.14019425891E+02 -0.80867252798E+01 -0.10002952433E+02  0.19026257796E+02  0.51100000000E-03 0. -1.
        -11    1    3    3    0    0 -0.21681419383E+02  0.21593866833E+02  0.11034779464E+02  0.32529146766E+02  0.51100000000E-03 0.  1.
         12    1    3    3    0    0  0.35970589293E+02 -0.13589862890E+02  0.11423208719E+00  0.38452317439E+02  0.00000000000E+00 0. -1.
</event>
<event>
 7    1  0.2429906E-015  0.9000773E+02  0.7816164E-02  0.1186339E+00
        -11   -1    0    0    0    0  0.00000000000E+00  0.00000000000E+00  0.45593999997E+02  0.45594000000E+02  0.51100000000E-03 0.  1.
         11   -1    0    0    0    0 -0.00000000000E+00 -0.00000000000E+00 -0.45593999997E+02  0.45594000000E+02  0.51100000000E-03 0. -1.
    9900012    2    1    2    0    0 -0.20584242315E+00 -0.10967454307E+01 -0.38448043793E+00  0.90007725943E+02  0.89999987125E+02 0.  0.
        -12    1    1    2    0    0  0.20584242315E+00  0.10967454307E+01  0.38448043793E+00  0.11802740572E+01  0.00000000000E+00 0.  1.
         11    1    3    3    0    0  0.10587350429E+01  0.16687934853E+02  0.26074022362E+02  0.30975195430E+02  0.51100000000E-03 0. -1.
        -11    1    3    3    0    0 -0.37932919193E+01  0.79079584173E+01  0.10669005260E+02  0.13811319395E+02  0.51100000000E-03 0.  1.
        -12    1    3    3    0    0  0.25287144532E+01 -0.25692638701E+02 -0.37127508061E+02  0.45221211118E+02  0.00000000000E+00 0.  1.
</event>
<event>
 7    1  0.2429906E-015  0.9000775E+02  0.7816164E-02  0.1186339E+00
        -11   -1    0    0    0    0  0.00000000000E+00  0.00000000000E+00  0.45593999997E+02  0.45594000000E+02  0.51100000000E-03 0. -1.
         11   -1    0    0    0    0 -0.00000000000E+00 -0.00000000000E+00 -0.45593999997E+02  0.45594000000E+02  0.51100000000E-03 0.  1.
    9900012    2    1    2    0    0  0.73400780838E+00 -0.11710748897E+00  0.91679370530E+00  0.90007749042E+02  0.90000010529E+02 0.  0.
        -12    1    1    2    0    0 -0.73400780838E+00  0.11710748897E+00 -0.91679370530E+00  0.11802509584E+01  0.00000000000E+00 0.  1.
         11    1    3    3    0    0 -0.15042312951E+00  0.27448829513E+01  0.39558522398E+02  0.39653924195E+02  0.51100000000E-03 0. -1.
        -11    1    3    3    0    0  0.14615638756E+01 -0.44595623082E+01  0.48966013614E+01  0.67823720111E+01  0.51100000000E-03 0.  1.
        -12    1    3    3    0    0 -0.57713293770E+00  0.15975718679E+01 -0.43538330054E+02  0.43571452835E+02  0.00000000000E+00 0.  1.
</event>
<event>
 7    1  0.2429906E-015  0.9000775E+02  0.7816164E-02  0.1186339E+00
        -11   -1    0    0    0    0  0.00000000000E+00  0.00000000000E+00  0.45593999997E+02  0.45594000000E+02  0.51100000000E-03 0.  1.
         11   -1    0    0    0    0 -0.00000000000E+00 -0.00000000000E+00 -0.45593999997E+02  0.45594000000E+02  0.51100000000E-03 0. -1.
    9900012    2    1    2    0    0  0.83551084079E-03  0.83527805054E+00 -0.83384714182E+00  0.90007749528E+02  0.90000011022E+02 0.  0.
        -12    1    1    2    0    0 -0.83551084079E-03 -0.83527805054E+00  0.83384714182E+00  0.11802504716E+01  0.00000000000E+00 0.  1.
         11    1    3    3    0    0 -0.33409782694E+02  0.22325847230E+02  0.32089949658E+01  0.40310726651E+02  0.51100000000E-03 0. -1.
        -11    1    3    3    0    0  0.20288343211E+01  0.18013340522E+01 -0.98230307964E+01  0.10190824665E+02  0.51100000000E-03 0.  1.
        -12    1    3    3    0    0  0.31381783884E+02 -0.23291903231E+02  0.57801886888E+01  0.39506198212E+02  0.00000000000E+00 0.  1.
</event>
<event>
 7    1  0.2429906E-015  0.9000762E+02  0.7816164E-02  0.1186339E+00
        -11   -1    0    0    0    0  0.00000000000E+00  0.00000000000E+00  0.45593999997E+02  0.45594000000E+02  0.51100000000E-03 0. -1.
         11   -1    0    0    0    0 -0.00000000000E+00 -0.00000000000E+00 -0.45593999997E+02  0.45594000000E+02  0.51100000000E-03 0.  1.
    9900012    2    1    2    0    0  0.63453683906E+00 -0.68073654591E+00  0.72613317341E+00  0.90007615050E+02  0.89999874768E+02 0.  0.
        -12    1    1    2    0    0 -0.63453683906E+00  0.68073654591E+00 -0.72613317341E+00  0.11803849502E+01  0.00000000000E+00 0.  1.
         11    1    3    3    0    0  0.56628442364E+01 -0.15731612526E+00 -0.63785921659E+01  0.85310603965E+01  0.51100000000E-03 0. -1.
        -11    1    3    3    0    0 -0.25022653071E+02 -0.20011050089E+02 -0.23736376980E+02  0.39874689776E+02  0.51100000000E-03 0.  1.
         12    1    3    3    0    0  0.19994345673E+02  0.19487629668E+02  0.30841102320E+02  0.41601864877E+02  0.00000000000E+00 0. -1.
</event>
<event>
 7    1  0.2429906E-015  0.9000779E+02  0.7816164E-02  0.1186339E+00
        -11   -1    0    0    0    0  0.00000000000E+00  0.00000000000E+00  0.45593999997E+02  0.45594000000E+02  0.51100000000E-03 0. -1.
         11   -1    0    0    0    0 -0.00000000000E+00 -0.00000000000E+00 -0.45593999997E+02  0.45594000000E+02  0.51100000000E-03 0.  1.
    9900012    2    1    2    0    0  0.69620933535E+00  0.76975010982E+00  0.56184783138E+00  0.90007789995E+02  0.90000052023E+02 0.  0.
        -12    1    1    2    0    0 -0.69620933535E+00 -0.76975010982E+00 -0.56184783138E+00  0.11802100050E+01  0.00000000000E+00 0.  1.
         11    1    3    3    0    0  0.23491516019E+02  0.15743876139E+02  0.71810285255E+01  0.29176842388E+02  0.51100000000E-03 0. -1.
        -11    1    3    3    0    0  0.14499025041E+02  0.39690034582E+01  0.73465694491E+01  0.16731610757E+02  0.51100000000E-03 0.  1.
        -12    1    3    3    0    0 -0.37294331725E+02 -0.18943129488E+02 -0.13965750143E+02  0.44099336850E+02  0.00000000000E+00 0.  1.
</event>
<event>
 7    1  0.2429906E-015  0.9000768E+02  0.7816164E-02  0.1186339E+00
        -11   -1    0    0    0    0  0.00000000000E+00  0.00000000000E+00  0.45593999997E+02  0.45594000000E+02  0.51100000000E-03 0. -1.
         11   -1    0    0    0    0 -0.00000000000E+00 -0.00000000000E+00 -0.45593999997E+02  0.45594000000E+02  0.51100000000E-03 0.  1.
    9900012    2    1    2    0    0  0.69244682235E-01 -0.32890908756E+00  0.11314548505E+01  0.90007675429E+02  0.89999935945E+02 0.  0.
        -12    1    1    2    0    0 -0.69244682235E-01  0.32890908756E+00 -0.11314548505E+01  0.11803245709E+01  0.00000000000E+00 0.  1.
         11    1    3    3    0    0  0.51839533755E+01 -0.92097062366E+01 -0.30234716016E+01  0.10992426591E+02  0.51100000000E-03 0. -1.
        -11    1    3    3    0    0  0.46085726736E+01  0.35382339039E+02 -0.20831014454E+02  0.41316824919E+02  0.51100000000E-03 0.  1.
         12    1    3    3    0    0 -0.97232813668E+01 -0.26501541890E+02  0.24985940906E+02  0.37698423920E+02  0.00000000000E+00 0. -1.
</event>
<event>
 7    1  0.2429906E-015  0.9000770E+02  0.7816164E-02  0.1186339E+00
        -11   -1    0    0    0    0  0.00000000000E+00  0.00000000000E+00  0.45593999997E+02  0.45594000000E+02  0.51100000000E-03 0.  1.
         11   -1    0    0    0    0 -0.00000000000E+00 -0.00000000000E+00 -0.45593999997E+02  0.45594000000E+02  0.51100000000E-03 0. -1.
    9900012    2    1    2    0    0  0.85248622491E+00  0.32697275365E+00 -0.74797769752E+00  0.90007697250E+02  0.89999958054E+02 0.  0.
        -12    1    1    2    0    0 -0.85248622491E+00 -0.32697275365E+00  0.74797769752E+00  0.11803027498E+01  0.00000000000E+00 0.  1.
         11    1    3    3    0    0  0.91024324845E+01 -0.29991627945E+01  0.21611275700E+01  0.98244453908E+01  0.51100000000E-03 0. -1.
        -11    1    3    3    0    0 -0.38351566222E+02 -0.18195003421E+02 -0.67450528157E+01  0.42981350827E+02  0.51100000000E-03 0.  1.
         12    1    3    3    0    0  0.30101619962E+02  0.21521138969E+02  0.38359475482E+01  0.37201901033E+02  0.00000000000E+00 0. -1.
</event>
<event>
 7    1  0.2429906E-015  0.9000768E+02  0.7816164E-02  0.1186339E+00
        -11   -1    0    0    0    0  0.00000000000E+00  0.00000000000E+00  0.45593999997E+02  0.45594000000E+02  0.51100000000E-03 0.  1.
         11   -1    0    0    0    0 -0.00000000000E+00 -0.00000000000E+00 -0.45593999997E+02  0.45594000000E+02  0.51100000000E-03 0. -1.
    9900012    2    1    2    0    0  0.24569858119E+00  0.55303386983E+00 -0.10133858368E+01  0.90007675846E+02  0.89999936367E+02 0.  0.
        -12    1    1    2    0    0 -0.24569858119E+00 -0.55303386983E+00  0.10133858368E+01  0.11803241539E+01  0.00000000000E+00 0.  1.
         11    1    3    3    0    0  0.34462193168E+02  0.12795728622E+02 -0.21424198235E+02  0.42548439445E+02  0.51100000000E-03 0. -1.
        -11    1    3    3    0    0  0.12510385754E+01 -0.41396826735E+01  0.78648315260E+01  0.89753910972E+01  0.51100000000E-03 0.  1.
        -12    1    3    3    0    0 -0.35467533162E+02 -0.81030120787E+01  0.12545980873E+02  0.38483845304E+02  0.00000000000E+00 0.  1.
</event>
<event>
 7    1  0.2429906E-015  0.9000774E+02  0.7816164E-02  0.1186339E+00
        -11   -1    0    0    0    0  0.00000000000E+00  0.00000000000E+00  0.45593999997E+02  0.45594000000E+02  0.51100000000E-03 0.  1.
         11   -1    0    0    0    0 -0.00000000000E+00 -0.00000000000E+00 -0.45593999997E+02  0.45594000000E+02  0.51100000000E-03 0. -1.
    9900012    2    1    2    0    0 -0.54425207607E+00  0.90076520510E+00 -0.53425949145E+00  0.90007736690E+02  0.89999998014E+02 0.  0.
        -12    1    1    2    0    0  0.54425207607E+00 -0.90076520510E+00  0.53425949145E+00  0.11802633101E+01  0.00000000000E+00 0.  1.
         11    1    3    3    0    0  0.94724301130E+01  0.79878833084E+01  0.18960589615E+01  0.12535080847E+02  0.51100000000E-03 0. -1.
        -11    1    3    3    0    0 -0.25147486684E+02  0.22815291637E+02 -0.20231855156E+02  0.39525454866E+02  0.51100000000E-03 0.  1.
         12    1    3    3    0    0  0.15130804495E+02 -0.29902409741E+02  0.17801536703E+02  0.37947200977E+02  0.00000000000E+00 0. -1.
</event>
<event>
 7    1  0.2429906E-015  0.9000779E+02  0.7816164E-02  0.1186339E+00
        -11   -1    0    0    0    0  0.00000000000E+00  0.00000000000E+00  0.45593999997E+02  0.45594000000E+02  0.51100000000E-03 0.  1.
         11   -1    0    0    0    0 -0.00000000000E+00 -0.00000000000E+00 -0.45593999997E+02  0.45594000000E+02  0.51100000000E-03 0. -1.
    9900012    2    1    2    0    0 -0.79565219269E+00  0.99271917016E-01 -0.86600817816E+00  0.90007793455E+02  0.90000055528E+02 0.  0.
        -12    1    1    2    0    0  0.79565219269E+00 -0.99271917016E-01  0.86600817816E+00  0.11802065454E+01  0.00000000000E+00 0.  1.
         11    1    3    3    0    0 -0.34928857010E+02  0.71214831199E+01 -0.16999327930E+02  0.39493261756E+02  0.51100000000E-03 0. -1.
        -11    1    3    3    0    0 -0.53946263865E+01 -0.58657199077E+01  0.50926036610E+01  0.94574455428E+01  0.51100000000E-03 0.  1.
        -12    1    3    3    0    0  0.39527831204E+02 -0.11564912952E+01  0.11040716091E+02  0.41057086155E+02  0.00000000000E+00 0.  1.
</event>
<event>
 7    1  0.2429906E-015  0.9000772E+02  0.7816164E-02  0.1186339E+00
        -11   -1    0    0    0    0  0.00000000000E+00  0.00000000000E+00  0.45593999997E+02  0.45594000000E+02  0.51100000000E-03 0.  1.
         11   -1    0    0    0    0 -0.00000000000E+00 -0.00000000000E+00 -0.45593999997E+02  0.45594000000E+02  0.51100000000E-03 0. -1.
    9900012    2    1    2    0    0 -0.96192539007E+00  0.44840611862E+00 -0.51642743654E+00  0.90007717915E+02  0.89999978991E+02 0.  0.
        -12    1    1    2    0    0  0.96192539007E+00 -0.44840611862E+00  0.51642743654E+00  0.11802820851E+01  0.00000000000E+00 0.  1.
         11    1    3    3    0    0 -0.76112481938E+01 -0.34992671168E+00 -0.17052354045E+00  0.76211958582E+01  0.51100000000E-03 0. -1.
        -11    1    3    3    0    0 -0.27201263064E+00 -0.32474797649E+02  0.24168661129E+02  0.40482226400E+02  0.51100000000E-03 0.  1.
         12    1    3    3    0    0  0.69213354344E+01  0.33273130480E+02 -0.24514565025E+02  0.41904295657E+02  0.00000000000E+00 0. -1.
</event>
<event>
 7    1  0.2429906E-015  0.9000778E+02  0.7816164E-02  0.1186339E+00
        -11   -1    0    0    0    0  0.00000000000E+00  0.00000000000E+00  0.45593999997E+02  0.45594000000E+02  0.51100000000E-03 0.  1.
         11   -1    0    0    0    0 -0.00000000000E+00 -0.00000000000E+00 -0.45593999997E+02  0.45594000000E+02  0.51100000000E-03 0. -1.
    9900012    2    1    2    0    0 -0.11128229566E+01  0.34848810609E+00  0.18193523128E+00  0.90007779969E+02  0.90000041865E+02 0.  0.
        -12    1    1    2    0    0  0.11128229566E+01 -0.34848810609E+00 -0.18193523128E+00  0.11802200309E+01  0.00000000000E+00 0.  1.
         11    1    3    3    0    0 -0.73814805800E+01  0.52749782314E+01  0.28075523233E+01  0.94970522376E+01  0.51100000000E-03 0. -1.
        -11    1    3    3    0    0  0.27008004865E+02  0.99590507067E+01  0.28328899428E+02  0.40387393588E+02  0.51100000000E-03 0.  1.
         12    1    3    3    0    0 -0.20739347242E+02 -0.14885540832E+02 -0.30954516520E+02  0.40123334144E+02  0.00000000000E+00 0. -1.
</event>
<event>
 7    1  0.2429906E-015  0.9000774E+02  0.7816164E-02  0.1186339E+00
        -11   -1    0    0    0    0  0.00000000000E+00  0.00000000000E+00  0.45593999997E+02  0.45594000000E+02  0.51100000000E-03 0.  1.
         11   -1    0    0    0    0 -0.00000000000E+00 -0.00000000000E+00 -0.45593999997E+02  0.45594000000E+02  0.51100000000E-03 0. -1.
    9900012    2    1    2    0    0  0.90799527311E+00 -0.10638846543E+00 -0.74649155812E+00  0.90007735806E+02  0.89999997119E+02 0.  0.
        -12    1    1    2    0    0 -0.90799527311E+00  0.10638846543E+00  0.74649155812E+00  0.11802641941E+01  0.00000000000E+00 0.  1.
         11    1    3    3    0    0  0.42184719935E+02 -0.63870531355E+00  0.13233130281E+02  0.44216221884E+02  0.51100000000E-03 0. -1.
        -11    1    3    3    0    0 -0.61177025315E+01 -0.51033197894E+01 -0.32274239710E+01  0.85957211964E+01  0.51100000000E-03 0.  1.
        -12    1    3    3    0    0 -0.35159022130E+02  0.56356366375E+01 -0.10752197868E+02  0.37195792725E+02  0.00000000000E+00 0.  1.
</event>
<event>
 7    1  0.2429906E-015  0.9000776E+02  0.7816164E-02  0.1186339E+00
        -11   -1    0    0    0    0  0.00000000000E+00  0.00000000000E+00  0.45593999997E+02  0.45594000000E+02  0.51100000000E-03 0.  1.
         11   -1    0    0    0    0 -0.00000000000E+00 -0.00000000000E+00 -0.45593999997E+02  0.45594000000E+02  0.51100000000E-03 0. -1.
    9900012    2    1    2    0    0 -0.77976963665E+00 -0.85142121771E+00 -0.24494279881E+00  0.90007764536E+02  0.90000026228E+02 0.  0.
        -12    1    1    2    0    0  0.77976963665E+00  0.85142121771E+00  0.24494279881E+00  0.11802354642E+01  0.00000000000E+00 0.  1.
         11    1    3    3    0    0  0.40325612173E+01 -0.10374916343E+02  0.73077514717E+01  0.13315542457E+02  0.51100000000E-03 0. -1.
        -11    1    3    3    0    0  0.34186367087E+02  0.27863746036E+01  0.60784862175E+01  0.34834172489E+02  0.51100000000E-03 0.  1.
         12    1    3    3    0    0 -0.38998697941E+02  0.67371205212E+01 -0.13631180488E+02  0.41858049590E+02  0.00000000000E+00 0. -1.
</event>
<event>
 7    1  0.2429906E-015  0.9000770E+02  0.7816164E-02  0.1186339E+00
        -11   -1    0    0    0    0  0.00000000000E+00  0.00000000000E+00  0.45593999997E+02  0.45594000000E+02  0.51100000000E-03 0. -1.
         11   -1    0    0    0    0 -0.00000000000E+00 -0.00000000000E+00 -0.45593999997E+02  0.45594000000E+02  0.51100000000E-03 0.  1.
    9900012    2    1    2    0    0  0.11193508367E+01  0.37356581745E+00  0.24644272823E-01  0.90007701285E+02  0.89999962142E+02 0.  0.
        -12    1    1    2    0    0 -0.11193508367E+01 -0.37356581745E+00 -0.24644272823E-01  0.11802987146E+01  0.00000000000E+00 0.  1.
         11    1    3    3    0    0 -0.20716204919E+02 -0.35416979242E+02  0.86190069687E+01  0.41926254856E+02  0.51100000000E-03 0. -1.
        -11    1    3    3    0    0  0.72491895791E+01  0.24563550452E+01  0.51069982187E+01  0.92014053671E+01  0.51100000000E-03 0.  1.
        -12    1    3    3    0    0  0.14586366176E+02  0.33334190014E+02 -0.13701360915E+02  0.38880041063E+02  0.00000000000E+00 0.  1.
</event>
<event>
 7    1  0.2429906E-015  0.9000795E+02  0.7816164E-02  0.1186339E+00
        -11   -1    0    0    0    0  0.00000000000E+00  0.00000000000E+00  0.45593999997E+02  0.45594000000E+02  0.51100000000E-03 0.  1.
         11   -1    0    0    0    0 -0.00000000000E+00 -0.00000000000E+00 -0.45593999997E+02  0.45594000000E+02  0.51100000000E-03 0. -1.
    9900012    2    1    2    0    0  0.97215842809E+00  0.23930686820E+00 -0.62462284328E+00  0.90007951915E+02  0.90000216080E+02 0.  0.
        -12    1    1    2    0    0 -0.97215842809E+00 -0.23930686820E+00  0.62462284328E+00  0.11800480850E+01  0.00000000000E+00 0.  1.
         11    1    3    3    0    0  0.28086508385E+02  0.42084069357E+01 -0.30578250337E+02  0.41732385939E+02  0.51100000000E-03 0. -1.
        -11    1    3    3    0    0 -0.78588189047E+01  0.69628783177E+01 -0.62925981235E+00  0.10518492155E+02  0.51100000000E-03 0.  1.
        -12    1    3    3    0    0 -0.19255531052E+02 -0.10931978385E+02  0.30582887306E+02  0.37757073821E+02  0.00000000000E+00 0.  1.
</event>
<event>
 7    1  0.2429906E-015  0.9000843E+02  0.7816164E-02  0.1186338E+00
        -11   -1    0    0    0    0  0.00000000000E+00  0.00000000000E+00  0.45593999997E+02  0.45594000000E+02  0.51100000000E-03 0.  1.
         11   -1    0    0    0    0 -0.00000000000E+00 -0.00000000000E+00 -0.45593999997E+02  0.45594000000E+02  0.51100000000E-03 0. -1.
    9900012    2    1    2    0    0  0.63623815674E+00 -0.76488300328E-01 -0.99031737485E+00  0.90008433149E+02  0.90000703664E+02 0.  0.
        -12    1    1    2    0    0 -0.63623815674E+00  0.76488300328E-01  0.99031737485E+00  0.11795668506E+01  0.00000000000E+00 0.  1.
         11    1    3    3    0    0 -0.24819715085E+02  0.21054727498E+02  0.20967990253E+02  0.38716616877E+02  0.51100000000E-03 0. -1.
        -11    1    3    3    0    0  0.43983151889E+01  0.87476209243E+01 -0.42261203729E+01  0.10664245965E+02  0.51100000000E-03 0.  1.
        -12    1    3    3    0    0  0.21057638053E+02 -0.29878836723E+02 -0.17732187255E+02  0.40627570307E+02  0.00000000000E+00 0.  1.
</event>
<event>
 7    1  0.2429906E-015  0.9000780E+02  0.7816164E-02  0.1186339E+00
        -11   -1    0    0    0    0  0.00000000000E+00  0.00000000000E+00  0.45593999997E+02  0.45594000000E+02  0.51100000000E-03 0.  1.
         11   -1    0    0    0    0 -0.00000000000E+00 -0.00000000000E+00 -0.45593999997E+02  0.45594000000E+02  0.51100000000E-03 0. -1.
    9900012    2    1    2    0    0  0.11111572727E+01 -0.39150509894E+00 -0.70181241192E-01  0.90007799960E+02  0.90000062120E+02 0.  0.
        -12    1    1    2    0    0 -0.11111572727E+01  0.39150509894E+00  0.70181241192E-01  0.11802000397E+01  0.00000000000E+00 0.  1.
         11    1    3    3    0    0 -0.21655754016E+02  0.27629739784E+02 -0.16593876484E+02  0.38829511194E+02  0.51100000000E-03 0. -1.
        -11    1    3    3    0    0  0.69927463095E+01  0.69595935939E+01  0.15476311462E+01  0.99864711668E+01  0.51100000000E-03 0.  1.
        -12    1    3    3    0    0  0.15774164979E+02 -0.34980838476E+02  0.14976064097E+02  0.41191817599E+02  0.00000000000E+00 0.  1.
</event>
<event>
 7    1  0.2429906E-015  0.9000779E+02  0.7816164E-02  0.1186339E+00
        -11   -1    0    0    0    0  0.00000000000E+00  0.00000000000E+00  0.45593999997E+02  0.45594000000E+02  0.51100000000E-03 0.  1.
         11   -1    0    0    0    0 -0.00000000000E+00 -0.00000000000E+00 -0.45593999997E+02  0.45594000000E+02  0.51100000000E-03 0. -1.
    9900012    2    1    2    0    0  0.22233179195E+00 -0.10182511341E+00 -0.11545929689E+01  0.90007794635E+02  0.90000056724E+02 0.  0.
        -12    1    1    2    0    0 -0.22233179195E+00  0.10182511341E+00  0.11545929689E+01  0.11802053649E+01  0.00000000000E+00 0.  1.
         11    1    3    3    0    0  0.33313208726E+01 -0.12550021173E+02  0.27774006633E+01  0.13278353998E+02  0.51100000000E-03 0. -1.
        -11    1    3    3    0    0  0.11892740370E+02 -0.10837888583E+01  0.32745851133E+02  0.34855453497E+02  0.51100000000E-03 0.  1.
         12    1    3    3    0    0 -0.15001729451E+02  0.13531984918E+02 -0.36677844765E+02  0.41873987140E+02  0.00000000000E+00 0. -1.
</event>
<event>
 7    1  0.2429906E-015  0.9000772E+02  0.7816164E-02  0.1186339E+00
        -11   -1    0    0    0    0  0.00000000000E+00  0.00000000000E+00  0.45593999997E+02  0.45594000000E+02  0.51100000000E-03 0. -1.
         11   -1    0    0    0    0 -0.00000000000E+00 -0.00000000000E+00 -0.45593999997E+02  0.45594000000E+02  0.51100000000E-03 0.  1.
    9900012    2    1    2    0    0 -0.75033428775E+00  0.26301914464E+00  0.87228965109E+00  0.90007716200E+02  0.89999977254E+02 0.  0.
        -12    1    1    2    0    0  0.75033428775E+00 -0.26301914464E+00 -0.87228965109E+00  0.11802838003E+01  0.00000000000E+00 0.  1.
         11    1    3    3    0    0  0.12399545266E+02 -0.25580840668E+02  0.20789104696E+02  0.35218106230E+02  0.51100000000E-03 0. -1.
        -11    1    3    3    0    0  0.10711426426E+01 -0.84601777796E+01  0.51722777335E+01  0.99736859705E+01  0.51100000000E-03 0.  1.
        -12    1    3    3    0    0 -0.14221022197E+02  0.34304037593E+02 -0.25089092778E+02  0.44815923999E+02  0.00000000000E+00 0.  1.
</event>
<event>
 7    1  0.2429906E-015  0.9000868E+02  0.7816164E-02  0.1186337E+00
        -11   -1    0    0    0    0  0.00000000000E+00  0.00000000000E+00  0.45593999997E+02  0.45594000000E+02  0.51100000000E-03 0.  1.
         11   -1    0    0    0    0 -0.00000000000E+00 -0.00000000000E+00 -0.45593999997E+02  0.45594000000E+02  0.51100000000E-03 0. -1.
    9900012    2    1    2    0    0 -0.10710818088E+01  0.46921674401E+00  0.15303632717E+00  0.90008677859E+02  0.90000951602E+02 0.  0.
        -12    1    1    2    0    0  0.10710818088E+01 -0.46921674401E+00 -0.15303632717E+00  0.11793221406E+01  0.00000000000E+00 0.  1.
         11    1    3    3    0    0 -0.40449979120E+01 -0.27815421750E+02 -0.25134329192E+02  0.37706686402E+02  0.51100000000E-03 0. -1.
        -11    1    3    3    0    0  0.71135595333E+01 -0.39340800279E+01 -0.35449762358E+01  0.88682902339E+01  0.51100000000E-03 0.  1.
        -12    1    3    3    0    0 -0.41396434300E+01  0.32218718521E+02  0.28832341755E+02  0.43433701224E+02  0.00000000000E+00 0.  1.
</event>
<event>
 7    1  0.2429906E-015  0.9000779E+02  0.7816164E-02  0.1186339E+00
        -11   -1    0    0    0    0  0.00000000000E+00  0.00000000000E+00  0.45593999997E+02  0.45594000000E+02  0.51100000000E-03 0. -1.
         11   -1    0    0    0    0 -0.00000000000E+00 -0.00000000000E+00 -0.45593999997E+02  0.45594000000E+02  0.51100000000E-03 0.  1.
    9900012    2    1    2    0    0  0.23419620624E+00 -0.70660282362E-01  0.11545822135E+01  0.90007787805E+02  0.90000049804E+02 0.  0.
        -12    1    1    2    0    0 -0.23419620624E+00  0.70660282362E-01 -0.11545822135E+01  0.11802121954E+01  0.00000000000E+00 0.  1.
         11    1    3    3    0    0  0.80189574741E+01  0.24837935074E+02  0.30741538072E+02  0.40327023954E+02  0.51100000000E-03 0. -1.
        -11    1    3    3    0    0 -0.77000566583E+01  0.53123176155E+01 -0.43899745924E+01  0.10333608671E+02  0.51100000000E-03 0.  1.
        -12    1    3    3    0    0 -0.84704609517E-01 -0.30220912972E+02 -0.25196981267E+02  0.39347155179E+02  0.00000000000E+00 0.  1.
</event>
<event>
 7    1  0.2429906E-015  0.9000775E+02  0.7816164E-02  0.1186339E+00
        -11   -1    0    0    0    0  0.00000000000E+00  0.00000000000E+00  0.45593999997E+02  0.45594000000E+02  0.51100000000E-03 0. -1.
         11   -1    0    0    0    0 -0.00000000000E+00 -0.00000000000E+00 -0.45593999997E+02  0.45594000000E+02  0.51100000000E-03 0.  1.
    9900012    2    1    2    0    0  0.10988161210E+00  0.11429668455E+01 -0.27301299568E+00  0.90007752876E+02  0.90000014414E+02 0.  0.
        -12    1    1    2    0    0 -0.10988161210E+00 -0.11429668455E+01  0.27301299568E+00  0.11802471243E+01  0.00000000000E+00 0.  1.
         11    1    3    3    0    0 -0.40922749389E+01 -0.43822230109E+01  0.84489476204E+01  0.10360275520E+02  0.51100000000E-03 0. -1.
        -11    1    3    3    0    0  0.59258491645E+01 -0.36415323926E+02 -0.63583224461E+00  0.36899807424E+02  0.51100000000E-03 0.  1.
         12    1    3    3    0    0 -0.17236926135E+01  0.41940513783E+02 -0.80861283715E+01  0.42747669932E+02  0.00000000000E+00 0. -1.
</event>
<event>
 7    1  0.2429906E-015  0.9000771E+02  0.7816164E-02  0.1186339E+00
        -11   -1    0    0    0    0  0.00000000000E+00  0.00000000000E+00  0.45593999997E+02  0.45594000000E+02  0.51100000000E-03 0. -1.
         11   -1    0    0    0    0 -0.00000000000E+00 -0.00000000000E+00 -0.45593999997E+02  0.45594000000E+02  0.51100000000E-03 0.  1.
    9900012    2    1    2    0    0 -0.89542391350E+00 -0.56116182322E+00  0.52574095939E+00  0.90007707607E+02  0.89999968547E+02 0.  0.
        -12    1    1    2    0    0  0.89542391350E+00  0.56116182322E+00 -0.52574095939E+00  0.11802923930E+01  0.00000000000E+00 0.  1.
         11    1    3    3    0    0 -0.17399677153E+02  0.26005433625E+02  0.16855166650E+02  0.35540511900E+02  0.51100000000E-03 0. -1.
        -11    1    3    3    0    0 -0.12670055973E+02 -0.16279451815E+01 -0.43789919636E-01  0.12774288305E+02  0.51100000000E-03 0.  1.
        -12    1    3    3    0    0  0.29174309213E+02 -0.24938650267E+02 -0.16285635771E+02  0.41692907402E+02  0.00000000000E+00 0.  1.
</event>
<event>
 7    1  0.2429906E-015  0.9000780E+02  0.7816164E-02  0.1186339E+00
        -11   -1    0    0    0    0  0.00000000000E+00  0.00000000000E+00  0.45593999997E+02  0.45594000000E+02  0.51100000000E-03 0.  1.
         11   -1    0    0    0    0 -0.00000000000E+00 -0.00000000000E+00 -0.45593999997E+02  0.45594000000E+02  0.51100000000E-03 0. -1.
    9900012    2    1    2    0    0  0.74111714844E+00 -0.34382234278E+00 -0.85169956710E+00  0.90007804854E+02  0.90000067078E+02 0.  0.
        -12    1    1    2    0    0 -0.74111714844E+00  0.34382234278E+00  0.85169956710E+00  0.11801951465E+01  0.00000000000E+00 0.  1.
         11    1    3    3    0    0 -0.99715934512E+01 -0.20679447129E+01  0.32670019070E+01  0.10694969519E+02  0.51100000000E-03 0. -1.
        -11    1    3    3    0    0 -0.27540357155E+02  0.17795638721E+02 -0.15528315187E+02  0.36280636744E+02  0.51100000000E-03 0.  1.
         12    1    3    3    0    0  0.38253067755E+02 -0.16071516350E+02  0.11409613713E+02  0.43032198591E+02  0.00000000000E+00 0. -1.
</event>
<event>
 7    1  0.2429906E-015  0.9000797E+02  0.7816164E-02  0.1186339E+00
        -11   -1    0    0    0    0  0.00000000000E+00  0.00000000000E+00  0.45593999997E+02  0.45594000000E+02  0.51100000000E-03 0. -1.
         11   -1    0    0    0    0 -0.00000000000E+00 -0.00000000000E+00 -0.45593999997E+02  0.45594000000E+02  0.51100000000E-03 0.  1.
    9900012    2    1    2    0    0  0.23270324448E-01  0.11790177296E+01  0.42913668540E-01  0.90007972078E+02  0.90000236509E+02 0.  0.
        -12    1    1    2    0    0 -0.23270324448E-01 -0.11790177296E+01 -0.42913668540E-01  0.11800279224E+01  0.00000000000E+00 0.  1.
         11    1    3    3    0    0 -0.13017198097E+01 -0.14687257500E+02  0.11103718687E+02  0.18458130356E+02  0.51100000000E-03 0. -1.
        -11    1    3    3    0    0 -0.30638207973E+02 -0.69217599267E+01 -0.58540443214E+01  0.31951218810E+02  0.51100000000E-03 0.  1.
        -12    1    3    3    0    0  0.31963198107E+02  0.22788035156E+02 -0.52067606967E+01  0.39598622911E+02  0.00000000000E+00 0.  1.
</event>
<event>
 7    1  0.2429906E-015  0.9000766E+02  0.7816164E-02  0.1186339E+00
        -11   -1    0    0    0    0  0.00000000000E+00  0.00000000000E+00  0.45593999997E+02  0.45594000000E+02  0.51100000000E-03 0.  1.
         11   -1    0    0    0    0 -0.00000000000E+00 -0.00000000000E+00 -0.45593999997E+02  0.45594000000E+02  0.51100000000E-03 0. -1.
    9900012    2    1    2    0    0  0.37604176481E+00  0.11170613527E+01  0.63013374150E-01  0.90007659303E+02  0.89999919606E+02 0.  0.
        -12    1    1    2    0    0 -0.37604176481E+00 -0.11170613527E+01 -0.63013374150E-01  0.11803406965E+01  0.00000000000E+00 0.  1.
         11    1    3    3    0    0  0.25725949932E+02  0.24664977031E+02 -0.49237489572E+01  0.35978172492E+02  0.51100000000E-03 0. -1.
        -11    1    3    3    0    0  0.27976280085E+01  0.70743449794E+01 -0.74183185819E+01  0.10625654342E+02  0.51100000000E-03 0.  1.
        -12    1    3    3    0    0 -0.28147536176E+02 -0.30622260657E+02  0.12405080913E+02  0.43403832469E+02  0.00000000000E+00 0.  1.
</event>
<event>
 7    1  0.2429906E-015  0.9000775E+02  0.7816164E-02  0.1186339E+00
        -11   -1    0    0    0    0  0.00000000000E+00  0.00000000000E+00  0.45593999997E+02  0.45594000000E+02  0.51100000000E-03 0.  1.
         11   -1    0    0    0    0 -0.00000000000E+00 -0.00000000000E+00 -0.45593999997E+02  0.45594000000E+02  0.51100000000E-03 0. -1.
    9900012    2    1    2    0    0  0.44020668961E+00 -0.52727829240E+00 -0.95978281072E+00  0.90007751140E+02  0.90000012655E+02 0.  0.
        -12    1    1    2    0    0 -0.44020668961E+00  0.52727829240E+00  0.95978281072E+00  0.11802488598E+01  0.00000000000E+00 0.  1.
         11    1    3    3    0    0  0.41107383874E+02 -0.12359698710E+02  0.34967043499E+01  0.43067459906E+02  0.51100000000E-03 0. -1.
        -11    1    3    3    0    0 -0.91464930122E+01  0.68528656736E+01 -0.92081779644E+01  0.14676874465E+02  0.51100000000E-03 0.  1.
        -12    1    3    3    0    0 -0.31520684173E+02  0.49795547440E+01  0.47516908038E+01  0.32263416770E+02  0.00000000000E+00 0.  1.
</event>
<event>
 7    1  0.2429906E-015  0.9000752E+02  0.7816164E-02  0.1186339E+00
        -11   -1    0    0    0    0  0.00000000000E+00  0.00000000000E+00  0.45593999997E+02  0.45594000000E+02  0.51100000000E-03 0.  1.
         11   -1    0    0    0    0 -0.00000000000E+00 -0.00000000000E+00 -0.45593999997E+02  0.45594000000E+02  0.51100000000E-03 0. -1.
    9900012    2    1    2    0    0 -0.52297754281E+00  0.83654089745E+00 -0.64824823117E+00  0.90007520457E+02  0.89999778926E+02 0.  0.
        -12    1    1    2    0    0  0.52297754281E+00 -0.83654089745E+00  0.64824823117E+00  0.11804795435E+01  0.00000000000E+00 0.  1.
         11    1    3    3    0    0  0.79063913857E+01 -0.39141032430E+01 -0.56977834024E+01  0.10502188577E+02  0.51100000000E-03 0. -1.
        -11    1    3    3    0    0  0.12995361340E+02  0.13861912348E+02  0.36041147322E+02  0.40743052547E+02  0.51100000000E-03 0.  1.
         12    1    3    3    0    0 -0.21424730268E+02 -0.91112682073E+01 -0.30991612150E+02  0.38762279333E+02  0.00000000000E+00 0. -1.
</event>
<event>
 7    1  0.2429906E-015  0.9000766E+02  0.7816164E-02  0.1186339E+00
        -11   -1    0    0    0    0  0.00000000000E+00  0.00000000000E+00  0.45593999997E+02  0.45594000000E+02  0.51100000000E-03 0.  1.
         11   -1    0    0    0    0 -0.00000000000E+00 -0.00000000000E+00 -0.45593999997E+02  0.45594000000E+02  0.51100000000E-03 0. -1.
    9900012    2    1    2    0    0 -0.42290751228E+00 -0.41339219378E+00 -0.10214924712E+01  0.90007664989E+02  0.89999925367E+02 0.  0.
        -12    1    1    2    0    0  0.42290751228E+00  0.41339219378E+00  0.10214924712E+01  0.11803350111E+01  0.00000000000E+00 0.  1.
         11    1    3    3    0    0  0.95956845404E+01 -0.26028266736E-01 -0.41644467468E+01  0.10460423330E+02  0.51100000000E-03 0. -1.
        -11    1    3    3    0    0 -0.92855718453E+01  0.56012266472E+01  0.40387081978E+02  0.41817603654E+02  0.51100000000E-03 0.  1.
         12    1    3    3    0    0 -0.73302020745E+00 -0.59885905743E+01 -0.37244127702E+02  0.37729638005E+02  0.00000000000E+00 0. -1.
</event>
<event>
 7    1  0.2429906E-015  0.9000776E+02  0.7816164E-02  0.1186339E+00
        -11   -1    0    0    0    0  0.00000000000E+00  0.00000000000E+00  0.45593999997E+02  0.45594000000E+02  0.51100000000E-03 0. -1.
         11   -1    0    0    0    0 -0.00000000000E+00 -0.00000000000E+00 -0.45593999997E+02  0.45594000000E+02  0.51100000000E-03 0.  1.
    9900012    2    1    2    0    0 -0.20202177348E+00 -0.11622390632E+01  0.36678621705E-01  0.90007763685E+02  0.90000025366E+02 0.  0.
        -12    1    1    2    0    0  0.20202177348E+00  0.11622390632E+01 -0.36678621705E-01  0.11802363146E+01  0.00000000000E+00 0.  1.
         11    1    3    3    0    0 -0.10203393782E+02 -0.28316901277E+01  0.61697337539E+01  0.12255338775E+02  0.51100000000E-03 0. -1.
        -11    1    3    3    0    0  0.61346480652E+01 -0.97135179182E+01 -0.40103966379E+02  0.41717076322E+02  0.51100000000E-03 0.  1.
         12    1    3    3    0    0  0.38667239432E+01  0.11382968983E+02  0.33970911247E+02  0.36035348588E+02  0.00000000000E+00 0. -1.
</event>
<event>
 7    1  0.2429906E-015  0.9000775E+02  0.7816164E-02  0.1186339E+00
        -11   -1    0    0    0    0  0.00000000000E+00  0.00000000000E+00  0.45593999997E+02  0.45594000000E+02  0.51100000000E-03 0.  1.
         11   -1    0    0    0    0 -0.00000000000E+00 -0.00000000000E+00 -0.45593999997E+02  0.45594000000E+02  0.51100000000E-03 0. -1.
    9900012    2    1    2    0    0 -0.10020478979E+01 -0.39309019504E+00 -0.48411423618E+00  0.90007751516E+02  0.90000013036E+02 0.  0.
        -12    1    1    2    0    0  0.10020478979E+01  0.39309019504E+00  0.48411423618E+00  0.11802484843E+01  0.00000000000E+00 0.  1.
         11    1    3    3    0    0 -0.20385977828E+01  0.44449070822E+01 -0.74593906778E+01  0.89193940060E+01  0.51100000000E-03 0. -1.
        -11    1    3    3    0    0  0.33714762270E+02  0.15663308492E+02  0.17518863194E+02  0.41096654313E+02  0.51100000000E-03 0.  1.
         12    1    3    3    0    0 -0.32678212385E+02 -0.20501305770E+02 -0.10543586752E+02  0.39991703197E+02  0.00000000000E+00 0. -1.
</event>
<event>
 7    1  0.2429906E-015  0.9000771E+02  0.7816164E-02  0.1186339E+00
        -11   -1    0    0    0    0  0.00000000000E+00  0.00000000000E+00  0.45593999997E+02  0.45594000000E+02  0.51100000000E-03 0. -1.
         11   -1    0    0    0    0 -0.00000000000E+00 -0.00000000000E+00 -0.45593999997E+02  0.45594000000E+02  0.51100000000E-03 0.  1.
    9900012    2    1    2    0    0  0.80186677499E+00  0.75894614155E+00  0.41726043858E+00  0.90007705188E+02  0.89999966096E+02 0.  0.
        -12    1    1    2    0    0 -0.80186677499E+00 -0.75894614155E+00 -0.41726043858E+00  0.11802948124E+01  0.00000000000E+00 0.  1.
         11    1    3    3    0    0 -0.22071693298E+02 -0.30358273724E+02 -0.80588391515E+01  0.38389182295E+02  0.51100000000E-03 0. -1.
        -11    1    3    3    0    0 -0.45488960619E+01 -0.26296234440E+01  0.61268872631E+01  0.80713148021E+01  0.51100000000E-03 0.  1.
        -12    1    3    3    0    0  0.27422456135E+02  0.33746843310E+02  0.23492123270E+01  0.43547208090E+02  0.00000000000E+00 0.  1.
</event>
<event>
 7    1  0.2429906E-015  0.9000775E+02  0.7816164E-02  0.1186339E+00
        -11   -1    0    0    0    0  0.00000000000E+00  0.00000000000E+00  0.45593999997E+02  0.45594000000E+02  0.51100000000E-03 0. -1.
         11   -1    0    0    0    0 -0.00000000000E+00 -0.00000000000E+00 -0.45593999997E+02  0.45594000000E+02  0.51100000000E-03 0.  1.
    9900012    2    1    2    0    0 -0.31385291661E+00  0.11294141077E+01 -0.13749024388E+00  0.90007752803E+02  0.90000014340E+02 0.  0.
        -12    1    1    2    0    0  0.31385291661E+00 -0.11294141077E+01  0.13749024388E+00  0.11802471975E+01  0.00000000000E+00 0.  1.
         11    1    3    3    0    0  0.98240251677E+00 -0.78707402390E+01  0.32031939749E+02  0.32999376221E+02  0.51100000000E-03 0. -1.
        -11    1    3    3    0    0  0.42601419498E+01 -0.60193691570E+01  0.96976523788E+01  0.12183024107E+02  0.51100000000E-03 0.  1.
        -12    1    3    3    0    0 -0.55563973832E+01  0.15019523504E+02 -0.41867082372E+02  0.44825352474E+02  0.00000000000E+00 0.  1.
</event>
<event>
 7    1  0.2429906E-015  0.9000786E+02  0.7816164E-02  0.1186339E+00
        -11   -1    0    0    0    0  0.00000000000E+00  0.00000000000E+00  0.45593999997E+02  0.45594000000E+02  0.51100000000E-03 0.  1.
         11   -1    0    0    0    0 -0.00000000000E+00 -0.00000000000E+00 -0.45593999997E+02  0.45594000000E+02  0.51100000000E-03 0. -1.
    9900012    2    1    2    0    0 -0.68001478810E+00  0.94758148942E+00  0.17997180495E+00  0.90007864143E+02  0.90000127149E+02 0.  0.
        -12    1    1    2    0    0  0.68001478810E+00 -0.94758148942E+00 -0.17997180495E+00  0.11801358573E+01  0.00000000000E+00 0.  1.
         11    1    3    3    0    0  0.10805121280E+02  0.19838744306E+02 -0.33178068607E+02  0.40138642955E+02  0.51100000000E-03 0. -1.
        -11    1    3    3    0    0 -0.83439976191E+01  0.65762666438E+01  0.14723987498E+02  0.18156689878E+02  0.51100000000E-03 0.  1.
        -12    1    3    3    0    0 -0.31411384486E+01 -0.25467429460E+02  0.18634052914E+02  0.31712531310E+02  0.00000000000E+00 0.  1.
</event>
<event>
 7    1  0.2429906E-015  0.9000735E+02  0.7816164E-02  0.1186340E+00
        -11   -1    0    0    0    0  0.00000000000E+00  0.00000000000E+00  0.45593999997E+02  0.45594000000E+02  0.51100000000E-03 0. -1.
         11   -1    0    0    0    0 -0.00000000000E+00 -0.00000000000E+00 -0.45593999997E+02  0.45594000000E+02  0.51100000000E-03 0.  1.
    9900012    2    1    2    0    0 -0.90828101202E+00 -0.45323833295E+00  0.60293306981E+00  0.90007352860E+02  0.89999609117E+02 0.  0.
        -12    1    1    2    0    0  0.90828101202E+00  0.45323833295E+00 -0.60293306981E+00  0.11806471403E+01  0.00000000000E+00 0.  1.
         11    1    3    3    0    0 -0.31883676401E+02 -0.10309729481E+02 -0.56586251235E+00  0.33513870911E+02  0.51100000000E-03 0. -1.
        -11    1    3    3    0    0  0.46054835360E+01 -0.13376926355E+02 -0.12407488261E+02  0.18817502558E+02  0.51100000000E-03 0.  1.
        -12    1    3    3    0    0  0.26369911853E+02  0.23233417504E+02  0.13576283843E+02  0.37675979390E+02  0.00000000000E+00 0.  1.
</event>
<event>
 7    1  0.2429906E-015  0.9000775E+02  0.7816164E-02  0.1186339E+00
        -11   -1    0    0    0    0  0.00000000000E+00  0.00000000000E+00  0.45593999997E+02  0.45594000000E+02  0.51100000000E-03 0. -1.
         11   -1    0    0    0    0 -0.00000000000E+00 -0.00000000000E+00 -0.45593999997E+02  0.45594000000E+02  0.51100000000E-03 0.  1.
    9900012    2    1    2    0    0 -0.74077690883E-01 -0.97789650688E+00  0.65668209270E+00  0.90007745598E+02  0.90000007040E+02 0.  0.
        -12    1    1    2    0    0  0.74077690883E-01  0.97789650688E+00 -0.65668209270E+00  0.11802544019E+01  0.00000000000E+00 0.  1.
         11    1    3    3    0    0 -0.56265692987E+01  0.11465242709E+02  0.33559541664E+02  0.35907560616E+02  0.51100000000E-03 0. -1.
        -11    1    3    3    0    0 -0.56023298372E+01  0.44007541802E+01  0.66124476636E+01  0.97199383395E+01  0.51100000000E-03 0.  1.
        -12    1    3    3    0    0  0.11154821445E+02 -0.16843893396E+02 -0.39515307235E+02  0.44380246643E+02  0.00000000000E+00 0.  1.
</event>
<event>
 7    1  0.2429906E-015  0.9000773E+02  0.7816164E-02  0.1186339E+00
        -11   -1    0    0    0    0  0.00000000000E+00  0.00000000000E+00  0.45593999997E+02  0.45594000000E+02  0.51100000000E-03 0.  1.
         11   -1    0    0    0    0 -0.00000000000E+00 -0.00000000000E+00 -0.45593999997E+02  0.45594000000E+02  0.51100000000E-03 0. -1.
    9900012    2    1    2    0    0 -0.40528072981E+00  0.93382965898E+00 -0.59728306589E+00  0.90007729962E+02  0.89999991197E+02 0.  0.
        -12    1    1    2    0    0  0.40528072981E+00 -0.93382965898E+00  0.59728306589E+00  0.11802700381E+01  0.00000000000E+00 0.  1.
         11    1    3    3    0    0  0.41997945651E+01  0.31262967793E+01 -0.84933298798E+01  0.99774074112E+01  0.51100000000E-03 0. -1.
        -11    1    3    3    0    0 -0.30165690128E+02 -0.22444529006E+02 -0.14683677077E+02  0.40365035810E+02  0.51100000000E-03 0.  1.
         12    1    3    3    0    0  0.25560614833E+02  0.20252061885E+02  0.22579723891E+02  0.39665286741E+02  0.00000000000E+00 0. -1.
</event>
<event>
 7    1  0.2429906E-015  0.9000772E+02  0.7816164E-02  0.1186339E+00
        -11   -1    0    0    0    0  0.00000000000E+00  0.00000000000E+00  0.45593999997E+02  0.45594000000E+02  0.51100000000E-03 0.  1.
         11   -1    0    0    0    0 -0.00000000000E+00 -0.00000000000E+00 -0.45593999997E+02  0.45594000000E+02  0.51100000000E-03 0. -1.
    9900012    2    1    2    0    0 -0.90880966894E+00 -0.75264902481E+00  0.25417956509E-01  0.90007719677E+02  0.89999980776E+02 0.  0.
        -12    1    1    2    0    0  0.90880966894E+00  0.75264902481E+00 -0.25417956509E-01  0.11802803232E+01  0.00000000000E+00 0.  1.
         11    1    3    3    0    0  0.33994954163E+01 -0.11624925720E+02  0.71651061446E+00  0.12132965622E+02  0.51100000000E-03 0. -1.
        -11    1    3    3    0    0  0.12953390335E+02 -0.29651931529E+02 -0.77303247069E+01  0.33268382662E+02  0.51100000000E-03 0.  1.
         12    1    3    3    0    0 -0.17261695421E+02  0.40524208224E+02  0.70392320490E+01  0.44606371393E+02  0.00000000000E+00 0. -1.
</event>
<event>
 7    1  0.2429906E-015  0.9000779E+02  0.7816164E-02  0.1186339E+00
        -11   -1    0    0    0    0  0.00000000000E+00  0.00000000000E+00  0.45593999997E+02  0.45594000000E+02  0.51100000000E-03 0.  1.
         11   -1    0    0    0    0 -0.00000000000E+00 -0.00000000000E+00 -0.45593999997E+02  0.45594000000E+02  0.51100000000E-03 0. -1.
    9900012    2    1    2    0    0 -0.83565340647E+00  0.62940733239E+00  0.54628017038E+00  0.90007791446E+02  0.90000053493E+02 0.  0.
        -12    1    1    2    0    0  0.83565340647E+00 -0.62940733239E+00 -0.54628017038E+00  0.11802085538E+01  0.00000000000E+00 0.  1.
         11    1    3    3    0    0 -0.22411318384E+01  0.71571421686E+01  0.48165153674E+01  0.89132584661E+01  0.51100000000E-03 0. -1.
        -11    1    3    3    0    0 -0.67948325561E+01  0.33333396571E+02  0.13614569242E+02  0.36642073800E+02  0.51100000000E-03 0.  1.
         12    1    3    3    0    0  0.82003109881E+01 -0.39861131407E+02 -0.17884804439E+02  0.44452459180E+02  0.00000000000E+00 0. -1.
</event>
<event>
 7    1  0.2429906E-015  0.9000777E+02  0.7816164E-02  0.1186339E+00
        -11   -1    0    0    0    0  0.00000000000E+00  0.00000000000E+00  0.45593999997E+02  0.45594000000E+02  0.51100000000E-03 0. -1.
         11   -1    0    0    0    0 -0.00000000000E+00 -0.00000000000E+00 -0.45593999997E+02  0.45594000000E+02  0.51100000000E-03 0.  1.
    9900012    2    1    2    0    0  0.86377868785E+00 -0.72724708328E+00 -0.34342770177E+00  0.90007769290E+02  0.90000031045E+02 0.  0.
        -12    1    1    2    0    0 -0.86377868785E+00  0.72724708328E+00  0.34342770177E+00  0.11802307097E+01  0.00000000000E+00 0.  1.
         11    1    3    3    0    0 -0.12572070907E+00 -0.27701605745E+02  0.23586113519E+02  0.36382681564E+02  0.51100000000E-03 0. -1.
        -11    1    3    3    0    0  0.23505443948E+01 -0.64676942715E+01  0.56914949303E+01  0.89302431627E+01  0.51100000000E-03 0.  1.
        -12    1    3    3    0    0 -0.13610449979E+01  0.33442052934E+02 -0.29621036151E+02  0.44694844564E+02  0.00000000000E+00 0.  1.
</event>
<event>
 7    1  0.2429906E-015  0.9000776E+02  0.7816164E-02  0.1186339E+00
        -11   -1    0    0    0    0  0.00000000000E+00  0.00000000000E+00  0.45593999997E+02  0.45594000000E+02  0.51100000000E-03 0.  1.
         11   -1    0    0    0    0 -0.00000000000E+00 -0.00000000000E+00 -0.45593999997E+02  0.45594000000E+02  0.51100000000E-03 0. -1.
    9900012    2    1    2    0    0 -0.11450912697E+01  0.23012163143E+00  0.16962780011E+00  0.90007761223E+02  0.90000022871E+02 0.  0.
        -12    1    1    2    0    0  0.11450912697E+01 -0.23012163143E+00 -0.16962780011E+00  0.11802387774E+01  0.00000000000E+00 0.  1.
         11    1    3    3    0    0  0.32338455987E+01 -0.70157469741E+01  0.73955497056E+01  0.10694513484E+02  0.51100000000E-03 0. -1.
        -11    1    3    3    0    0  0.28756052351E+02  0.22790384352E+02  0.11163985334E+02  0.38352923415E+02  0.51100000000E-03 0.  1.
         12    1    3    3    0    0 -0.33134989220E+02 -0.15544515746E+02 -0.18389907239E+02  0.40960324323E+02  0.00000000000E+00 0. -1.
</event>
<event>
 8    1  0.2429906E-015  0.9000773E+02  0.7816164E-02  0.1186339E+00
        -11   -1    0    0    0    0  0.00000000000E+00  0.00000000000E+00  0.45593999997E+02  0.45594000000E+02  0.51100000000E-03 0. -1.
         11   -1    0    0    0    0 -0.00000000000E+00 -0.00000000000E+00 -0.45593999997E+02  0.45594000000E+02  0.51100000000E-03 0.  1.
    9900012    2    1    2    0    0  0.11398390481E+01 -0.29850640680E+00  0.68570139750E-01  0.90007728423E+02  0.89999989639E+02 0.  0.
         23    2    3    3    0    0  0.79036216704E+01 -0.23885371285E+02 -0.13136432275E+02  0.62142677931E+02  0.55282622681E+02 0.  0.
        -12    1    1    2    0    0 -0.11398390481E+01  0.29850640680E+00 -0.68570139750E-01  0.11802715766E+01  0.00000000000E+00 0.  1.
         11    1    4    4    0    0 -0.17269896039E+02  0.70025271406E+01 -0.12220976994E+02  0.22285353363E+02  0.51100000000E-03 0. -1.
        -11    1    4    4    0    0  0.25173517710E+02 -0.30887898426E+02 -0.91545528139E+00  0.39857324568E+02  0.51100000000E-03 0.  1.
         12    1    3    3    0    0 -0.67637826223E+01  0.23586864879E+02  0.13205002415E+02  0.27865050493E+02  0.00000000000E+00 0. -1.
</event>
<event>
 7    1  0.2429906E-015  0.9000762E+02  0.7816164E-02  0.1186339E+00
        -11   -1    0    0    0    0  0.00000000000E+00  0.00000000000E+00  0.45593999997E+02  0.45594000000E+02  0.51100000000E-03 0.  1.
         11   -1    0    0    0    0 -0.00000000000E+00 -0.00000000000E+00 -0.45593999997E+02  0.45594000000E+02  0.51100000000E-03 0. -1.
    9900012    2    1    2    0    0  0.30969742410E+00  0.11390191352E+01 -0.29558055067E-02  0.90007624712E+02  0.89999884558E+02 0.  0.
        -12    1    1    2    0    0 -0.30969742410E+00 -0.11390191352E+01  0.29558055067E-02  0.11803752884E+01  0.00000000000E+00 0.  1.
         11    1    3    3    0    0  0.89438668722E+01  0.18971693706E+02 -0.27726461360E+02  0.34765997419E+02  0.51100000000E-03 0. -1.
        -11    1    3    3    0    0  0.75227132140E+01  0.51209321509E+01 -0.63487720778E+01  0.11096038363E+02  0.51100000000E-03 0.  1.
        -12    1    3    3    0    0 -0.16156882662E+02 -0.22953606721E+02  0.34072277633E+02  0.44145588930E+02  0.00000000000E+00 0.  1.
</event>
<event>
 7    1  0.2429906E-015  0.9000775E+02  0.7816164E-02  0.1186339E+00
        -11   -1    0    0    0    0  0.00000000000E+00  0.00000000000E+00  0.45593999997E+02  0.45594000000E+02  0.51100000000E-03 0. -1.
         11   -1    0    0    0    0 -0.00000000000E+00 -0.00000000000E+00 -0.45593999997E+02  0.45594000000E+02  0.51100000000E-03 0.  1.
    9900012    2    1    2    0    0 -0.11507251968E+01  0.10982933632E-01  0.26209934968E+00  0.90007752072E+02  0.90000013599E+02 0.  0.
        -12    1    1    2    0    0  0.11507251968E+01 -0.10982933631E-01 -0.26209934968E+00  0.11802479284E+01  0.00000000000E+00 0.  1.
         11    1    3    3    0    0  0.21491961201E+02 -0.29124296613E+02 -0.39779369549E+00  0.36197890678E+02  0.51100000000E-03 0. -1.
        -11    1    3    3    0    0  0.78383691033E+01 -0.38928964995E+01 -0.11643006894E+01  0.88289449943E+01  0.51100000000E-03 0.  1.
        -12    1    3    3    0    0 -0.30481055501E+02  0.33028176046E+02  0.18241937346E+01  0.44980916399E+02  0.00000000000E+00 0.  1.
</event>
<event>
 7    1  0.2429906E-015  0.9000765E+02  0.7816164E-02  0.1186339E+00
        -11   -1    0    0    0    0  0.00000000000E+00  0.00000000000E+00  0.45593999997E+02  0.45594000000E+02  0.51100000000E-03 0.  1.
         11   -1    0    0    0    0 -0.00000000000E+00 -0.00000000000E+00 -0.45593999997E+02  0.45594000000E+02  0.51100000000E-03 0. -1.
    9900012    2    1    2    0    0 -0.96779007271E+00 -0.17812860883E+00 -0.65183036940E+00  0.90007648249E+02  0.89999908406E+02 0.  0.
        -12    1    1    2    0    0  0.96779007271E+00  0.17812860883E+00  0.65183036940E+00  0.11803517512E+01  0.00000000000E+00 0.  1.
         11    1    3    3    0    0 -0.14432702739E+02  0.62243684603E+01  0.34340140827E+02  0.37766267268E+02  0.51100000000E-03 0. -1.
        -11    1    3    3    0    0  0.66157033490E+00  0.93379920878E+01  0.24309363928E+01  0.96718779741E+01  0.51100000000E-03 0.  1.
        -12    1    3    3    0    0  0.12803342332E+02 -0.15740489157E+02 -0.37422907589E+02  0.42569503006E+02  0.00000000000E+00 0.  1.
</event>
<event>
 7    1  0.2429906E-015  0.9000776E+02  0.7816164E-02  0.1186339E+00
        -11   -1    0    0    0    0  0.00000000000E+00  0.00000000000E+00  0.45593999997E+02  0.45594000000E+02  0.51100000000E-03 0.  1.
         11   -1    0    0    0    0 -0.00000000000E+00 -0.00000000000E+00 -0.45593999997E+02  0.45594000000E+02  0.51100000000E-03 0. -1.
    9900012    2    1    2    0    0  0.54355522239E+00 -0.16708746734E+00 -0.10342149287E+01  0.90007758067E+02  0.90000019674E+02 0.  0.
        -12    1    1    2    0    0 -0.54355522239E+00  0.16708746734E+00  0.10342149287E+01  0.11802419330E+01  0.00000000000E+00 0.  1.
         11    1    3    3    0    0 -0.82100438152E+00  0.48497725947E+01  0.61151166254E+01  0.78478655709E+01  0.51100000000E-03 0. -1.
        -11    1    3    3    0    0 -0.14647848529E+02  0.10303845746E+02  0.32288195188E+02  0.36922300206E+02  0.51100000000E-03 0.  1.
         12    1    3    3    0    0  0.16012408133E+02 -0.15320705808E+02 -0.39437526742E+02  0.45237592291E+02  0.00000000000E+00 0. -1.
</event>
<event>
 7    1  0.2429906E-015  0.9000765E+02  0.7816164E-02  0.1186339E+00
        -11   -1    0    0    0    0  0.00000000000E+00  0.00000000000E+00  0.45593999997E+02  0.45594000000E+02  0.51100000000E-03 0. -1.
         11   -1    0    0    0    0 -0.00000000000E+00 -0.00000000000E+00 -0.45593999997E+02  0.45594000000E+02  0.51100000000E-03 0.  1.
    9900012    2    1    2    0    0  0.11104663209E+01 -0.30699787463E+00 -0.25659233447E+00  0.90007651420E+02  0.89999911618E+02 0.  0.
        -12    1    1    2    0    0 -0.11104663209E+01  0.30699787463E+00  0.25659233447E+00  0.11803485803E+01  0.00000000000E+00 0.  1.
         11    1    3    3    0    0  0.14498605288E+02 -0.89747582028E+01  0.38472739967E+02  0.42082152522E+02  0.51100000000E-03 0. -1.
        -11    1    3    3    0    0 -0.37944321872E+01  0.84776658808E+01 -0.14126966935E+01  0.93949053544E+01  0.51100000000E-03 0.  1.
        -12    1    3    3    0    0 -0.95937067802E+01  0.19009444732E+00 -0.37316635608E+02  0.38530593543E+02  0.00000000000E+00 0.  1.
</event>
<event>
 7    1  0.2429906E-015  0.9000761E+02  0.7816164E-02  0.1186339E+00
        -11   -1    0    0    0    0  0.00000000000E+00  0.00000000000E+00  0.45593999997E+02  0.45594000000E+02  0.51100000000E-03 0.  1.
         11   -1    0    0    0    0 -0.00000000000E+00 -0.00000000000E+00 -0.45593999997E+02  0.45594000000E+02  0.51100000000E-03 0. -1.
    9900012    2    1    2    0    0 -0.45556911222E-01  0.32347404323E+00 -0.11342888113E+01  0.90007609388E+02  0.89999869032E+02 0.  0.
        -12    1    1    2    0    0  0.45556911222E-01 -0.32347404323E+00  0.11342888113E+01  0.11803906117E+01  0.00000000000E+00 0.  1.
         11    1    3    3    0    0 -0.28143805772E+02  0.24268913437E+02  0.28470206514E+01  0.37271429937E+02  0.51100000000E-03 0. -1.
        -11    1    3    3    0    0 -0.68136966659E+01  0.10493095501E-01  0.61738527242E+01  0.91947283854E+01  0.51100000000E-03 0.  1.
        -12    1    3    3    0    0  0.34911945526E+02 -0.23955932489E+02 -0.10155162187E+02  0.43541451066E+02  0.00000000000E+00 0.  1.
</event>
<event>
 7    1  0.2429906E-015  0.9000770E+02  0.7816164E-02  0.1186339E+00
        -11   -1    0    0    0    0  0.00000000000E+00  0.00000000000E+00  0.45593999997E+02  0.45594000000E+02  0.51100000000E-03 0. -1.
         11   -1    0    0    0    0 -0.00000000000E+00 -0.00000000000E+00 -0.45593999997E+02  0.45594000000E+02  0.51100000000E-03 0.  1.
    9900012    2    1    2    0    0 -0.10983425764E+00  0.42216823060E+00 -0.10967338622E+01  0.90007697181E+02  0.89999957984E+02 0.  0.
        -12    1    1    2    0    0  0.10983425764E+00 -0.42216823060E+00  0.10967338622E+01  0.11803028186E+01  0.00000000000E+00 0.  1.
         11    1    3    3    0    0 -0.80413455327E+01 -0.25824929489E+01 -0.35245643518E+01  0.91517791680E+01  0.51100000000E-03 0. -1.
        -11    1    3    3    0    0 -0.35394913893E+02  0.38250136916E+01 -0.75386139756E+01  0.36390402034E+02  0.51100000000E-03 0.  1.
         12    1    3    3    0    0  0.43326425168E+02 -0.82035251206E+00  0.99664444653E+01  0.44465515980E+02  0.00000000000E+00 0. -1.
</event>
<event>
 7    1  0.2429906E-015  0.9000774E+02  0.7816164E-02  0.1186339E+00
        -11   -1    0    0    0    0  0.00000000000E+00  0.00000000000E+00  0.45593999997E+02  0.45594000000E+02  0.51100000000E-03 0.  1.
         11   -1    0    0    0    0 -0.00000000000E+00 -0.00000000000E+00 -0.45593999997E+02  0.45594000000E+02  0.51100000000E-03 0. -1.
    9900012    2    1    2    0    0 -0.31773780599E-01  0.21937883791E+00 -0.11592582825E+01  0.90007738837E+02  0.90000000190E+02 0.  0.
        -12    1    1    2    0    0  0.31773780599E-01 -0.21937883791E+00  0.11592582825E+01  0.11802611631E+01  0.00000000000E+00 0.  1.
         11    1    3    3    0    0 -0.38293668018E+01  0.71321386518E+01  0.56530920734E+01  0.98736468491E+01  0.51100000000E-03 0. -1.
        -11    1    3    3    0    0 -0.65014186517E+01 -0.41123781934E+02 -0.13535298220E+02  0.43779426483E+02  0.51100000000E-03 0.  1.
         12    1    3    3    0    0  0.10299011673E+02  0.34211022120E+02  0.67229478642E+01  0.36354665504E+02  0.00000000000E+00 0. -1.
</event>
<event>
 7    1  0.2429906E-015  0.9000792E+02  0.7816164E-02  0.1186339E+00
        -11   -1    0    0    0    0  0.00000000000E+00  0.00000000000E+00  0.45593999997E+02  0.45594000000E+02  0.51100000000E-03 0.  1.
         11   -1    0    0    0    0 -0.00000000000E+00 -0.00000000000E+00 -0.45593999997E+02  0.45594000000E+02  0.51100000000E-03 0. -1.
    9900012    2    1    2    0    0  0.32804034212E+00 -0.27323759695E+00 -0.11001419089E+01  0.90007923108E+02  0.90000186893E+02 0.  0.
        -12    1    1    2    0    0 -0.32804034212E+00  0.27323759695E+00  0.11001419089E+01  0.11800768917E+01  0.00000000000E+00 0.  1.
         11    1    3    3    0    0  0.71385778251E+00  0.77622627875E+01  0.61022756807E+01  0.98994992429E+01  0.51100000000E-03 0. -1.
        -11    1    3    3    0    0 -0.15564311519E+02  0.11569852695E+02  0.29807283891E+02  0.35560982238E+02  0.51100000000E-03 0.  1.
         12    1    3    3    0    0  0.15178494079E+02 -0.19605353080E+02 -0.37009701481E+02  0.44547441628E+02  0.00000000000E+00 0. -1.
</event>
<event>
 7    1  0.2429906E-015  0.9000780E+02  0.7816164E-02  0.1186339E+00
        -11   -1    0    0    0    0  0.00000000000E+00  0.00000000000E+00  0.45593999997E+02  0.45594000000E+02  0.51100000000E-03 0.  1.
         11   -1    0    0    0    0 -0.00000000000E+00 -0.00000000000E+00 -0.45593999997E+02  0.45594000000E+02  0.51100000000E-03 0. -1.
    9900012    2    1    2    0    0  0.10062414677E+01 -0.40395567893E+00  0.46602058825E+00  0.90007797784E+02  0.90000059915E+02 0.  0.
        -12    1    1    2    0    0 -0.10062414677E+01  0.40395567893E+00 -0.46602058825E+00  0.11802022160E+01  0.00000000000E+00 0.  1.
         11    1    3    3    0    0  0.12899492905E+01 -0.24095110604E+01  0.91305019052E+01  0.95307805569E+01  0.51100000000E-03 0. -1.
        -11    1    3    3    0    0 -0.41714311314E+01 -0.34710895104E+02  0.13427604049E+02  0.37450602496E+02  0.51100000000E-03 0.  1.
         12    1    3    3    0    0  0.38877233087E+01  0.36716450485E+02 -0.22092085366E+02  0.43026414731E+02  0.00000000000E+00 0. -1.
</event>
<event>
 7    1  0.2429906E-015  0.9000777E+02  0.7816164E-02  0.1186339E+00
        -11   -1    0    0    0    0  0.00000000000E+00  0.00000000000E+00  0.45593999997E+02  0.45594000000E+02  0.51100000000E-03 0.  1.
         11   -1    0    0    0    0 -0.00000000000E+00 -0.00000000000E+00 -0.45593999997E+02  0.45594000000E+02  0.51100000000E-03 0. -1.
    9900012    2    1    2    0    0  0.91445006259E+00  0.96545927427E-01 -0.73986774550E+00  0.90007769381E+02  0.90000031137E+02 0.  0.
        -12    1    1    2    0    0 -0.91445006259E+00 -0.96545927427E-01  0.73986774550E+00  0.11802306190E+01  0.00000000000E+00 0.  1.
         11    1    3    3    0    0 -0.34044108546E+02  0.39465512472E+01 -0.16086079930E+02  0.37859458015E+02  0.51100000000E-03 0. -1.
        -11    1    3    3    0    0 -0.36175951894E+01 -0.63809423885E+01 -0.45885907441E+01  0.86520856444E+01  0.51100000000E-03 0.  1.
        -12    1    3    3    0    0  0.38576153798E+02  0.25309370688E+01  0.19934802928E+02  0.43496225722E+02  0.00000000000E+00 0.  1.
</event>
<event>
 7    1  0.2429906E-015  0.9000774E+02  0.7816164E-02  0.1186339E+00
        -11   -1    0    0    0    0  0.00000000000E+00  0.00000000000E+00  0.45593999997E+02  0.45594000000E+02  0.51100000000E-03 0.  1.
         11   -1    0    0    0    0 -0.00000000000E+00 -0.00000000000E+00 -0.45593999997E+02  0.45594000000E+02  0.51100000000E-03 0. -1.
    9900012    2    1    2    0    0 -0.67244769333E+00  0.70830640065E+00 -0.66267124348E+00  0.90007738574E+02  0.89999999923E+02 0.  0.
        -12    1    1    2    0    0  0.67244769333E+00 -0.70830640065E+00  0.66267124348E+00  0.11802614263E+01  0.00000000000E+00 0.  1.
         11    1    3    3    0    0 -0.39718456359E+01  0.24548368434E+02 -0.26113875280E+02  0.36060122475E+02  0.51100000000E-03 0. -1.
        -11    1    3    3    0    0 -0.52779156635E+01  0.50272462890E+01 -0.66964332993E+01  0.98980714381E+01  0.51100000000E-03 0.  1.
        -12    1    3    3    0    0  0.85773136061E+01 -0.28867308322E+02  0.32147637336E+02  0.44049544660E+02  0.00000000000E+00 0.  1.
</event>
<event>
 7    1  0.2429906E-015  0.9000781E+02  0.7816164E-02  0.1186339E+00
        -11   -1    0    0    0    0  0.00000000000E+00  0.00000000000E+00  0.45593999997E+02  0.45594000000E+02  0.51100000000E-03 0. -1.
         11   -1    0    0    0    0 -0.00000000000E+00 -0.00000000000E+00 -0.45593999997E+02  0.45594000000E+02  0.51100000000E-03 0.  1.
    9900012    2    1    2    0    0  0.75540856337E+00 -0.88525949516E+00  0.19626880250E+00  0.90007810221E+02  0.90000072516E+02 0.  0.
        -12    1    1    2    0    0 -0.75540856337E+00  0.88525949516E+00 -0.19626880250E+00  0.11801897789E+01  0.00000000000E+00 0.  1.
         11    1    3    3    0    0  0.37600239025E+02  0.29740313105E+01  0.23840753608E+02  0.44620672001E+02  0.51100000000E-03 0. -1.
        -11    1    3    3    0    0 -0.87063745637E+01 -0.27933215672E+01 -0.89532417698E+00  0.91872307614E+01  0.51100000000E-03 0.  1.
        -12    1    3    3    0    0 -0.28138455898E+02 -0.10659692386E+01 -0.22749160628E+02  0.36199907459E+02  0.00000000000E+00 0.  1.
</event>
<event>
 7    1  0.2429906E-015  0.9000765E+02  0.7816164E-02  0.1186339E+00
        -11   -1    0    0    0    0  0.00000000000E+00  0.00000000000E+00  0.45593999997E+02  0.45594000000E+02  0.51100000000E-03 0.  1.
         11   -1    0    0    0    0 -0.00000000000E+00 -0.00000000000E+00 -0.45593999997E+02  0.45594000000E+02  0.51100000000E-03 0. -1.
    9900012    2    1    2    0    0 -0.78275499786E+00 -0.19401744996E-01 -0.88325514974E+00  0.90007651969E+02  0.89999912175E+02 0.  0.
        -12    1    1    2    0    0  0.78275499786E+00  0.19401744996E-01  0.88325514974E+00  0.11803480308E+01  0.00000000000E+00 0.  1.
         11    1    3    3    0    0  0.53610610967E+01  0.75466231929E+01  0.82452456771E+01  0.12396635601E+02  0.51100000000E-03 0. -1.
        -11    1    3    3    0    0 -0.10532786368E+02 -0.32728313075E+02  0.19271915449E+02  0.39414322152E+02  0.51100000000E-03 0.  1.
         12    1    3    3    0    0  0.43889702736E+01  0.25162288137E+02 -0.28400416275E+02  0.38196694215E+02  0.00000000000E+00 0. -1.
</event>
<event>
 7    1  0.2429906E-015  0.9000800E+02  0.7816164E-02  0.1186339E+00
        -11   -1    0    0    0    0  0.00000000000E+00  0.00000000000E+00  0.45593999997E+02  0.45594000000E+02  0.51100000000E-03 0.  1.
         11   -1    0    0    0    0 -0.00000000000E+00 -0.00000000000E+00 -0.45593999997E+02  0.45594000000E+02  0.51100000000E-03 0. -1.
    9900012    2    1    2    0    0  0.27391902968E+00 -0.92434542474E+00 -0.68040009331E+00  0.90008004074E+02  0.90000268927E+02 0.  0.
        -12    1    1    2    0    0 -0.27391902968E+00  0.92434542474E+00  0.68040009331E+00  0.11799959263E+01  0.00000000000E+00 0.  1.
         11    1    3    3    0    0 -0.28690466610E+02 -0.26191528394E+02  0.65884465244E+01  0.39402368733E+02  0.51100000000E-03 0. -1.
        -11    1    3    3    0    0  0.14423353630E+01 -0.11496429425E+01  0.89605147948E+01  0.91483788643E+01  0.51100000000E-03 0.  1.
        -12    1    3    3    0    0  0.27522050276E+02  0.26416825912E+02 -0.16229361413E+02  0.41457256476E+02  0.00000000000E+00 0.  1.
</event>
<event>
 7    1  0.2429906E-015  0.9000774E+02  0.7816164E-02  0.1186339E+00
        -11   -1    0    0    0    0  0.00000000000E+00  0.00000000000E+00  0.45593999997E+02  0.45594000000E+02  0.51100000000E-03 0.  1.
         11   -1    0    0    0    0 -0.00000000000E+00 -0.00000000000E+00 -0.45593999997E+02  0.45594000000E+02  0.51100000000E-03 0. -1.
    9900012    2    1    2    0    0  0.10512113488E+01  0.50699761413E+00 -0.17586033227E+00  0.90007737852E+02  0.89999999192E+02 0.  0.
        -12    1    1    2    0    0 -0.10512113488E+01 -0.50699761413E+00  0.17586033227E+00  0.11802621476E+01  0.00000000000E+00 0.  1.
         11    1    3    3    0    0  0.91437436825E+01  0.67857318059E+01 -0.21452416378E+02  0.24287041264E+02  0.51100000000E-03 0. -1.
        -11    1    3    3    0    0 -0.28652441159E+02 -0.19208288065E+02  0.17196293087E+01  0.34538063639E+02  0.51100000000E-03 0.  1.
         12    1    3    3    0    0  0.20559908825E+02  0.12929553873E+02  0.19556926737E+02  0.31182632949E+02  0.00000000000E+00 0. -1.
</event>
<event>
 7    1  0.2429906E-015  0.9000714E+02  0.7816164E-02  0.1186340E+00
        -11   -1    0    0    0    0  0.00000000000E+00  0.00000000000E+00  0.45593999997E+02  0.45594000000E+02  0.51100000000E-03 0.  1.
         11   -1    0    0    0    0 -0.00000000000E+00 -0.00000000000E+00 -0.45593999997E+02  0.45594000000E+02  0.51100000000E-03 0. -1.
    9900012    2    1    2    0    0  0.54217422020E-01 -0.18436046100E+00 -0.11651166785E+01  0.90007142183E+02  0.89999395658E+02 0.  0.
        -12    1    1    2    0    0 -0.54217422020E-01  0.18436046100E+00  0.11651166785E+01  0.11808578165E+01  0.00000000000E+00 0.  1.
         11    1    3    3    0    0 -0.15788551937E+01  0.31520610349E+01 -0.81405593705E+01  0.88711318114E+01  0.51100000000E-03 0. -1.
        -11    1    3    3    0    0 -0.33621804742E+02 -0.22655531421E+02  0.15688032992E+01  0.40572897384E+02  0.51100000000E-03 0.  1.
         12    1    3    3    0    0  0.35254877357E+02  0.19319109925E+02  0.54066393928E+01  0.40563112988E+02  0.00000000000E+00 0. -1.
</event>
<event>
 7    1  0.2429906E-015  0.9000753E+02  0.7816164E-02  0.1186339E+00
        -11   -1    0    0    0    0  0.00000000000E+00  0.00000000000E+00  0.45593999997E+02  0.45594000000E+02  0.51100000000E-03 0.  1.
         11   -1    0    0    0    0 -0.00000000000E+00 -0.00000000000E+00 -0.45593999997E+02  0.45594000000E+02  0.51100000000E-03 0. -1.
    9900012    2    1    2    0    0 -0.62466858339E+00 -0.93244504615E+00 -0.36584117881E+00  0.90007532139E+02  0.89999790763E+02 0.  0.
        -12    1    1    2    0    0  0.62466858339E+00  0.93244504615E+00  0.36584117881E+00  0.11804678612E+01  0.00000000000E+00 0.  1.
         11    1    3    3    0    0 -0.13945618297E+02  0.24777750142E+02 -0.22183178988E+02  0.36062592836E+02  0.51100000000E-03 0. -1.
        -11    1    3    3    0    0  0.15965390518E+02 -0.17890037884E+01 -0.60111464640E+01  0.17153078762E+02  0.51100000000E-03 0.  1.
        -12    1    3    3    0    0 -0.26444408048E+01 -0.23921191400E+02  0.27828484273E+02  0.36791860541E+02  0.00000000000E+00 0.  1.
</event>
<event>
 7    1  0.3026621E-015  0.9000742E+02  0.7816164E-02  0.1186340E+00
        -11   -1    0    0    0    0  0.00000000000E+00  0.00000000000E+00  0.45593999997E+02  0.45594000000E+02  0.51100000000E-03 0. -1.
         11   -1    0    0    0    0 -0.00000000000E+00 -0.00000000000E+00 -0.45593999997E+02  0.45594000000E+02  0.51100000000E-03 0.  1.
    9900012    2    1    2    0    0 -0.54797788288E+00 -0.95623771492E+00  0.42319579390E+00  0.90007421749E+02  0.89999678915E+02 0.  0.
        -12    1    1    2    0    0  0.54797788288E+00  0.95623771492E+00 -0.42319579390E+00  0.11805782513E+01  0.00000000000E+00 0.  1.
         11    1    3    3    0    0 -0.77417613847E+01  0.26671225856E+02  0.25011192175E+02  0.37374441699E+02  0.51100000000E-03 0. -1.
        -11    1    3    3    0    0 -0.78320299072E+01  0.25892951149E+01  0.32700147059E+01  0.88734513069E+01  0.51100000000E-03 0.  1.
        -12    1    3    3    0    0  0.15025813409E+02 -0.30216758686E+02 -0.27858011087E+02  0.43759528743E+02  0.00000000000E+00 0.  1.
</event>
<event>
 7    1  0.2429906E-015  0.9000789E+02  0.7816164E-02  0.1186339E+00
        -11   -1    0    0    0    0  0.00000000000E+00  0.00000000000E+00  0.45593999997E+02  0.45594000000E+02  0.51100000000E-03 0.  1.
         11   -1    0    0    0    0 -0.00000000000E+00 -0.00000000000E+00 -0.45593999997E+02  0.45594000000E+02  0.51100000000E-03 0. -1.
    9900012    2    1    2    0    0  0.89462620351E+00  0.42598535087E+00 -0.64096288215E+00  0.90007892810E+02  0.90000156195E+02 0.  0.
        -12    1    1    2    0    0 -0.89462620351E+00 -0.42598535087E+00  0.64096288215E+00  0.11801071898E+01  0.00000000000E+00 0.  1.
         11    1    3    3    0    0  0.23736003725E+02  0.81281541532E+01 -0.33232474061E+02  0.41639669730E+02  0.51100000000E-03 0. -1.
        -11    1    3    3    0    0 -0.88556931519E+01 -0.76259478957E+01 -0.12473095238E+01  0.11753049129E+02  0.51100000000E-03 0.  1.
        -12    1    3    3    0    0 -0.13985684369E+02 -0.76220906633E-01  0.33838820703E+02  0.36615173951E+02  0.00000000000E+00 0.  1.
</event>
<event>
 7    1  0.2429906E-015  0.9000769E+02  0.7816164E-02  0.1186339E+00
        -11   -1    0    0    0    0  0.00000000000E+00  0.00000000000E+00  0.45593999997E+02  0.45594000000E+02  0.51100000000E-03 0. -1.
         11   -1    0    0    0    0 -0.00000000000E+00 -0.00000000000E+00 -0.45593999997E+02  0.45594000000E+02  0.51100000000E-03 0.  1.
    9900012    2    1    2    0    0  0.76439516392E+00  0.23973241677E+00  0.86681590314E+00  0.90007685886E+02  0.89999946539E+02 0.  0.
        -12    1    1    2    0    0 -0.76439516392E+00 -0.23973241677E+00 -0.86681590314E+00  0.11803141142E+01  0.00000000000E+00 0.  1.
         11    1    3    3    0    0  0.21155598729E+02 -0.28989002837E+02 -0.87178222274E+00  0.35898212317E+02  0.51100000000E-03 0. -1.
        -11    1    3    3    0    0  0.91212637344E+01 -0.28047448800E+01 -0.36591275163E+01  0.10220237786E+02  0.51100000000E-03 0.  1.
        -12    1    3    3    0    0 -0.29512467299E+02  0.32033480133E+02  0.53977256422E+01  0.43889235783E+02  0.00000000000E+00 0.  1.
</event>
<event>
 7    1  0.2429906E-015  0.9000775E+02  0.7816164E-02  0.1186339E+00
        -11   -1    0    0    0    0  0.00000000000E+00  0.00000000000E+00  0.45593999997E+02  0.45594000000E+02  0.51100000000E-03 0.  1.
         11   -1    0    0    0    0 -0.00000000000E+00 -0.00000000000E+00 -0.45593999997E+02  0.45594000000E+02  0.51100000000E-03 0. -1.
    9900012    2    1    2    0    0  0.40159222067E+00 -0.84264853962E+00  0.72225085921E+00  0.90007754612E+02  0.90000016173E+02 0.  0.
        -12    1    1    2    0    0 -0.40159222067E+00  0.84264853962E+00 -0.72225085921E+00  0.11802453883E+01  0.00000000000E+00 0.  1.
         11    1    3    3    0    0 -0.86886900420E+01  0.36220502368E+01  0.24659002604E+01  0.97310455204E+01  0.51100000000E-03 0. -1.
        -11    1    3    3    0    0 -0.22640286937E+02  0.24648223143E+02  0.11230342049E+02  0.35302097381E+02  0.51100000000E-03 0.  1.
         12    1    3    3    0    0  0.31730569199E+02 -0.29112921919E+02 -0.12973991451E+02  0.44974611711E+02  0.00000000000E+00 0. -1.
</event>
<event>
 7    1  0.2429906E-015  0.9000777E+02  0.7816164E-02  0.1186339E+00
        -11   -1    0    0    0    0  0.00000000000E+00  0.00000000000E+00  0.45593999997E+02  0.45594000000E+02  0.51100000000E-03 0. -1.
         11   -1    0    0    0    0 -0.00000000000E+00 -0.00000000000E+00 -0.45593999997E+02  0.45594000000E+02  0.51100000000E-03 0.  1.
    9900012    2    1    2    0    0 -0.28819417226E+00 -0.77957521562E+00  0.83793951512E+00  0.90007772891E+02  0.90000034693E+02 0.  0.
        -12    1    1    2    0    0  0.28819417226E+00  0.77957521562E+00 -0.83793951512E+00  0.11802271090E+01  0.00000000000E+00 0.  1.
         11    1    3    3    0    0 -0.10745559713E+02 -0.54480566599E+01  0.20019286235E+01  0.12212947777E+02  0.51100000000E-03 0. -1.
        -11    1    3    3    0    0 -0.11682425110E+02  0.36407091923E+02  0.51657303920E+01  0.38582899962E+02  0.51100000000E-03 0.  1.
         12    1    3    3    0    0  0.22139790651E+02 -0.31738610479E+02 -0.63297195004E+01  0.39211925152E+02  0.00000000000E+00 0. -1.
</event>
<event>
 7    1  0.2429906E-015  0.9000778E+02  0.7816164E-02  0.1186339E+00
        -11   -1    0    0    0    0  0.00000000000E+00  0.00000000000E+00  0.45593999997E+02  0.45594000000E+02  0.51100000000E-03 0. -1.
         11   -1    0    0    0    0 -0.00000000000E+00 -0.00000000000E+00 -0.45593999997E+02  0.45594000000E+02  0.51100000000E-03 0.  1.
    9900012    2    1    2    0    0  0.21477793655E-01 -0.11307183780E+01  0.33754735092E+00  0.90007778173E+02  0.90000040045E+02 0.  0.
        -12    1    1    2    0    0 -0.21477793655E-01  0.11307183780E+01 -0.33754735092E+00  0.11802218267E+01  0.00000000000E+00 0.  1.
         11    1    3    3    0    0 -0.10337953705E+02 -0.31054583312E+01  0.62052168170E+01  0.12450778058E+02  0.51100000000E-03 0. -1.
        -11    1    3    3    0    0  0.40599979772E+02 -0.51900211791E+01  0.10745676683E+02  0.42317422475E+02  0.51100000000E-03 0.  1.
         12    1    3    3    0    0 -0.30240548273E+02  0.71647611323E+01 -0.16613346149E+02  0.35239577640E+02  0.00000000000E+00 0. -1.
</event>
<event>
 7    1  0.2429906E-015  0.9000731E+02  0.7816164E-02  0.1186340E+00
        -11   -1    0    0    0    0  0.00000000000E+00  0.00000000000E+00  0.45593999997E+02  0.45594000000E+02  0.51100000000E-03 0. -1.
         11   -1    0    0    0    0 -0.00000000000E+00 -0.00000000000E+00 -0.45593999997E+02  0.45594000000E+02  0.51100000000E-03 0.  1.
    9900012    2    1    2    0    0  0.10976639026E+01  0.39918404174E+00  0.17267498078E+00  0.90007309274E+02  0.89999564955E+02 0.  0.
        -12    1    1    2    0    0 -0.10976639026E+01 -0.39918404174E+00 -0.17267498078E+00  0.11806907263E+01  0.00000000000E+00 0.  1.
         11    1    3    3    0    0  0.76964130176E+01 -0.13583624711E+02  0.23019363985E+02  0.27814398289E+02  0.51100000000E-03 0. -1.
        -11    1    3    3    0    0 -0.11488077226E+02 -0.90053907490E+01  0.12854497541E+02  0.19450220774E+02  0.51100000000E-03 0.  1.
        -12    1    3    3    0    0  0.48893281105E+01  0.22988199502E+02 -0.35701186545E+02  0.42742690211E+02  0.00000000000E+00 0.  1.
</event>
<event>
 7    1  0.2429906E-015  0.9000776E+02  0.7816164E-02  0.1186339E+00
        -11   -1    0    0    0    0  0.00000000000E+00  0.00000000000E+00  0.45593999997E+02  0.45594000000E+02  0.51100000000E-03 0. -1.
         11   -1    0    0    0    0 -0.00000000000E+00 -0.00000000000E+00 -0.45593999997E+02  0.45594000000E+02  0.51100000000E-03 0.  1.
    9900012    2    1    2    0    0  0.86801326873E+00 -0.59679443273E+00  0.53231615938E+00  0.90007758023E+02  0.90000019629E+02 0.  0.
        -12    1    1    2    0    0 -0.86801326873E+00  0.59679443273E+00 -0.53231615938E+00  0.11802419765E+01  0.00000000000E+00 0.  1.
         11    1    3    3    0    0  0.17205714949E+02  0.13181029088E+01  0.35047456459E+02  0.39065307201E+02  0.51100000000E-03 0. -1.
        -11    1    3    3    0    0 -0.63271818124E+01  0.10929678643E+01  0.61887557653E+01  0.89178756789E+01  0.51100000000E-03 0.  1.
        -12    1    3    3    0    0 -0.10010519868E+02 -0.30078652059E+01 -0.40703896065E+02  0.42024575144E+02  0.00000000000E+00 0.  1.
</event>
<event>
 7    1  0.2429906E-015  0.9000779E+02  0.7816164E-02  0.1186339E+00
        -11   -1    0    0    0    0  0.00000000000E+00  0.00000000000E+00  0.45593999997E+02  0.45594000000E+02  0.51100000000E-03 0. -1.
         11   -1    0    0    0    0 -0.00000000000E+00 -0.00000000000E+00 -0.45593999997E+02  0.45594000000E+02  0.51100000000E-03 0.  1.
    9900012    2    1    2    0    0  0.92183659125E+00  0.37915075428E+00  0.63195147831E+00  0.90007787872E+02  0.90000049872E+02 0.  0.
        -12    1    1    2    0    0 -0.92183659125E+00 -0.37915075428E+00 -0.63195147831E+00  0.11802121277E+01  0.00000000000E+00 0.  1.
         11    1    3    3    0    0  0.88230341953E+01 -0.83193537052E+01 -0.23808743118E+01  0.12358241834E+02  0.51100000000E-03 0. -1.
        -11    1    3    3    0    0 -0.12684466477E+01 -0.15470955546E+02 -0.31429243465E+02  0.35053627023E+02  0.51100000000E-03 0.  1.
         12    1    3    3    0    0 -0.66327509563E+01  0.24169460006E+02  0.34442069255E+02  0.42595919015E+02  0.00000000000E+00 0. -1.
</event>
<event>
 7    1  0.2429906E-015  0.9000769E+02  0.7816164E-02  0.1186339E+00
        -11   -1    0    0    0    0  0.00000000000E+00  0.00000000000E+00  0.45593999997E+02  0.45594000000E+02  0.51100000000E-03 0. -1.
         11   -1    0    0    0    0 -0.00000000000E+00 -0.00000000000E+00 -0.45593999997E+02  0.45594000000E+02  0.51100000000E-03 0.  1.
    9900012    2    1    2    0    0 -0.61043952145E+00  0.11527264111E+00  0.10035918395E+01  0.90007694628E+02  0.89999955397E+02 0.  0.
        -12    1    1    2    0    0  0.61043952145E+00 -0.11527264111E+00 -0.10035918395E+01  0.11803053721E+01  0.00000000000E+00 0.  1.
         11    1    3    3    0    0  0.97032734401E+01 -0.27349779483E+02 -0.17066256560E+02  0.33666319467E+02  0.51100000000E-03 0. -1.
        -11    1    3    3    0    0  0.72697547639E+00 -0.11533413524E+02 -0.89860516634E+00  0.11591186840E+02  0.51100000000E-03 0.  1.
        -12    1    3    3    0    0 -0.11040688438E+02  0.38998465648E+02  0.18968453566E+02  0.44750188321E+02  0.00000000000E+00 0.  1.
</event>
<event>
 7    1  0.2429906E-015  0.9000767E+02  0.7816164E-02  0.1186339E+00
        -11   -1    0    0    0    0  0.00000000000E+00  0.00000000000E+00  0.45593999997E+02  0.45594000000E+02  0.51100000000E-03 0. -1.
         11   -1    0    0    0    0 -0.00000000000E+00 -0.00000000000E+00 -0.45593999997E+02  0.45594000000E+02  0.51100000000E-03 0.  1.
    9900012    2    1    2    0    0  0.11247303784E+00  0.57541880938E+00  0.10244072511E+01  0.90007674957E+02  0.89999935467E+02 0.  0.
        -12    1    1    2    0    0 -0.11247303784E+00 -0.57541880938E+00 -0.10244072511E+01  0.11803250427E+01  0.00000000000E+00 0.  1.
         11    1    3    3    0    0  0.18975647917E+00  0.44690685614E+01 -0.87321084182E+01  0.98111313831E+01  0.51100000000E-03 0. -1.
        -11    1    3    3    0    0  0.17718641070E+01  0.15006536401E+02 -0.31412856472E+02  0.34858330269E+02  0.51100000000E-03 0.  1.
         12    1    3    3    0    0 -0.18491475483E+01 -0.18900186153E+02  0.41169372141E+02  0.45338213305E+02  0.00000000000E+00 0. -1.
</event>
<event>
 7    1  0.2429906E-015  0.9000777E+02  0.7816164E-02  0.1186339E+00
        -11   -1    0    0    0    0  0.00000000000E+00  0.00000000000E+00  0.45593999997E+02  0.45594000000E+02  0.51100000000E-03 0.  1.
         11   -1    0    0    0    0 -0.00000000000E+00 -0.00000000000E+00 -0.45593999997E+02  0.45594000000E+02  0.51100000000E-03 0. -1.
    9900012    2    1    2    0    0 -0.23827915164E+00  0.24061793555E+00 -0.11306010652E+01  0.90007774295E+02  0.90000036116E+02 0.  0.
        -12    1    1    2    0    0  0.23827915164E+00 -0.24061793555E+00  0.11306010652E+01  0.11802257045E+01  0.00000000000E+00 0.  1.
         11    1    3    3    0    0 -0.18580296438E+02  0.12891616248E+02 -0.75281010698E+01  0.23834711897E+02  0.51100000000E-03 0. -1.
        -11    1    3    3    0    0 -0.19818339479E+02 -0.15385033820E+02  0.11457876861E+02  0.27581674854E+02  0.51100000000E-03 0.  1.
         12    1    3    3    0    0  0.38160356766E+02  0.27340355073E+01 -0.50603768560E+01  0.38591387544E+02  0.00000000000E+00 0. -1.
</event>
<event>
 7    1  0.2429906E-015  0.9000740E+02  0.7816164E-02  0.1186340E+00
        -11   -1    0    0    0    0  0.00000000000E+00  0.00000000000E+00  0.45593999997E+02  0.45594000000E+02  0.51100000000E-03 0.  1.
         11   -1    0    0    0    0 -0.00000000000E+00 -0.00000000000E+00 -0.45593999997E+02  0.45594000000E+02  0.51100000000E-03 0. -1.
    9900012    2    1    2    0    0 -0.14256850617E+00 -0.82812213245E+00  0.82927642819E+00  0.90007402084E+02  0.89999658991E+02 0.  0.
        -12    1    1    2    0    0  0.14256850617E+00  0.82812213245E+00 -0.82927642819E+00  0.11805979161E+01  0.00000000000E+00 0.  1.
         11    1    3    3    0    0  0.59269311640E+01 -0.87740928280E+01 -0.68971231008E+00  0.10610792681E+02  0.51100000000E-03 0. -1.
        -11    1    3    3    0    0  0.33004339514E+02  0.16727360428E+02 -0.88141958771E+01  0.38036575330E+02  0.51100000000E-03 0.  1.
         12    1    3    3    0    0 -0.39073839184E+02 -0.87813897322E+01  0.10333184615E+02  0.41360034073E+02  0.00000000000E+00 0. -1.
</event>
<event>
 7    1  0.2429906E-015  0.9000778E+02  0.7816164E-02  0.1186339E+00
        -11   -1    0    0    0    0  0.00000000000E+00  0.00000000000E+00  0.45593999997E+02  0.45594000000E+02  0.51100000000E-03 0.  1.
         11   -1    0    0    0    0 -0.00000000000E+00 -0.00000000000E+00 -0.45593999997E+02  0.45594000000E+02  0.51100000000E-03 0. -1.
    9900012    2    1    2    0    0 -0.12642838687E+00  0.81746435211E+00  0.84183847289E+00  0.90007777937E+02  0.90000039806E+02 0.  0.
        -12    1    1    2    0    0  0.12642838687E+00 -0.81746435211E+00 -0.84183847289E+00  0.11802220632E+01  0.00000000000E+00 0.  1.
         11    1    3    3    0    0  0.85183710077E+01  0.34551073927E+01  0.36583316315E+01  0.98936243261E+01  0.51100000000E-03 0. -1.
        -11    1    3    3    0    0  0.24371228060E+02  0.25138916851E+02  0.73730929189E+01  0.35781061989E+02  0.51100000000E-03 0.  1.
         12    1    3    3    0    0 -0.33016027455E+02 -0.27776559892E+02 -0.10189586077E+02  0.44333091622E+02  0.00000000000E+00 0. -1.
</event>
<event>
 7    1  0.2429906E-015  0.9000772E+02  0.7816164E-02  0.1186339E+00
        -11   -1    0    0    0    0  0.00000000000E+00  0.00000000000E+00  0.45593999997E+02  0.45594000000E+02  0.51100000000E-03 0.  1.
         11   -1    0    0    0    0 -0.00000000000E+00 -0.00000000000E+00 -0.45593999997E+02  0.45594000000E+02  0.51100000000E-03 0. -1.
    9900012    2    1    2    0    0 -0.11934447171E+00 -0.11333923657E+01 -0.30699847473E+00  0.90007716381E+02  0.89999977437E+02 0.  0.
        -12    1    1    2    0    0  0.11934447171E+00  0.11333923657E+01  0.30699847473E+00  0.11802836189E+01  0.00000000000E+00 0.  1.
         11    1    3    3    0    0  0.62647580271E+01  0.10713292598E+02 -0.34441813850E+02  0.36609566687E+02  0.51100000000E-03 0. -1.
        -11    1    3    3    0    0 -0.97737014676E+00  0.11765697601E+01 -0.84252298646E+01  0.85629473510E+01  0.51100000000E-03 0.  1.
        -12    1    3    3    0    0 -0.54067323521E+01 -0.13023254724E+02  0.42560045240E+02  0.44835202343E+02  0.00000000000E+00 0.  1.
</event>
<event>
 7    1  0.2429906E-015  0.9000777E+02  0.7816164E-02  0.1186339E+00
        -11   -1    0    0    0    0  0.00000000000E+00  0.00000000000E+00  0.45593999997E+02  0.45594000000E+02  0.51100000000E-03 0. -1.
         11   -1    0    0    0    0 -0.00000000000E+00 -0.00000000000E+00 -0.45593999997E+02  0.45594000000E+02  0.51100000000E-03 0.  1.
    9900012    2    1    2    0    0  0.88058093326E+00  0.61566760284E+00  0.48833604550E+00  0.90007770586E+02  0.90000032357E+02 0.  0.
        -12    1    1    2    0    0 -0.88058093326E+00 -0.61566760284E+00 -0.48833604550E+00  0.11802294144E+01  0.00000000000E+00 0.  1.
         11    1    3    3    0    0  0.28135466459E+01  0.62989453088E+01 -0.10659224576E+02  0.12696921893E+02  0.51100000000E-03 0. -1.
        -11    1    3    3    0    0 -0.21201320955E+02 -0.31367205262E+02 -0.96307495479E+01  0.39065955937E+02  0.51100000000E-03 0.  1.
         12    1    3    3    0    0  0.19268355242E+02  0.25683927556E+02  0.20778310169E+02  0.38244892756E+02  0.00000000000E+00 0. -1.
</event>
<event>
 7    1  0.2429906E-015  0.9000781E+02  0.7816164E-02  0.1186339E+00
        -11   -1    0    0    0    0  0.00000000000E+00  0.00000000000E+00  0.45593999997E+02  0.45594000000E+02  0.51100000000E-03 0. -1.
         11   -1    0    0    0    0 -0.00000000000E+00 -0.00000000000E+00 -0.45593999997E+02  0.45594000000E+02  0.51100000000E-03 0.  1.
    9900012    2    1    2    0    0  0.69093445709E+00  0.80120146608E+00  0.52300483194E+00  0.90007810071E+02  0.90000072364E+02 0.  0.
        -12    1    1    2    0    0 -0.69093445709E+00 -0.80120146608E+00 -0.52300483194E+00  0.11801899286E+01  0.00000000000E+00 0.  1.
         11    1    3    3    0    0 -0.12100971610E+01 -0.17899593226E+02  0.31007831390E+02  0.35823810246E+02  0.51100000000E-03 0. -1.
        -11    1    3    3    0    0 -0.50624875407E+01 -0.73548328341E+01  0.45093241055E+01  0.10002817117E+02  0.51100000000E-03 0.  1.
        -12    1    3    3    0    0  0.69635191588E+01  0.26055627527E+02 -0.34994150663E+02  0.44181182709E+02  0.00000000000E+00 0.  1.
</event>
<event>
 7    1  0.2429906E-015  0.9000775E+02  0.7816164E-02  0.1186339E+00
        -11   -1    0    0    0    0  0.00000000000E+00  0.00000000000E+00  0.45593999997E+02  0.45594000000E+02  0.51100000000E-03 0.  1.
         11   -1    0    0    0    0 -0.00000000000E+00 -0.00000000000E+00 -0.45593999997E+02  0.45594000000E+02  0.51100000000E-03 0. -1.
    9900012    2    1    2    0    0  0.10049931453E+01 -0.35705861675E+00 -0.50546369735E+00  0.90007747643E+02  0.90000009111E+02 0.  0.
        -12    1    1    2    0    0 -0.10049931453E+01  0.35705861675E+00  0.50546369735E+00  0.11802523575E+01  0.00000000000E+00 0.  1.
         11    1    3    3    0    0  0.20108296731E+01 -0.10461679746E+02 -0.18185409394E+01  0.10807278589E+02  0.51100000000E-03 0. -1.
        -11    1    3    3    0    0  0.26880469897E+02  0.81815614606E+01  0.28631386432E+02  0.40115506965E+02  0.51100000000E-03 0.  1.
         12    1    3    3    0    0 -0.27886306425E+02  0.19230596689E+01 -0.27318309190E+02  0.39084962089E+02  0.00000000000E+00 0. -1.
</event>
<event>
 7    1  0.2429906E-015  0.9000778E+02  0.7816164E-02  0.1186339E+00
        -11   -1    0    0    0    0  0.00000000000E+00  0.00000000000E+00  0.45593999997E+02  0.45594000000E+02  0.51100000000E-03 0.  1.
         11   -1    0    0    0    0 -0.00000000000E+00 -0.00000000000E+00 -0.45593999997E+02  0.45594000000E+02  0.51100000000E-03 0. -1.
    9900012    2    1    2    0    0 -0.39863977205E-01  0.58844883386E+00 -0.10222862072E+01  0.90007775337E+02  0.90000037171E+02 0.  0.
        -12    1    1    2    0    0  0.39863977205E-01 -0.58844883386E+00  0.10222862072E+01  0.11802246634E+01  0.00000000000E+00 0.  1.
         11    1    3    3    0    0  0.14557691908E+02 -0.31536014286E+02 -0.24578335395E+02  0.42550454308E+02  0.51100000000E-03 0. -1.
        -11    1    3    3    0    0 -0.56864676482E+01 -0.19113868743E+01  0.39086759703E+01  0.71601021081E+01  0.51100000000E-03 0.  1.
        -12    1    3    3    0    0 -0.89110882374E+01  0.34035849994E+02  0.19647373217E+02  0.40297218921E+02  0.00000000000E+00 0.  1.
</event>
<event>
 7    1  0.2429906E-015  0.9000775E+02  0.7816164E-02  0.1186339E+00
        -11   -1    0    0    0    0  0.00000000000E+00  0.00000000000E+00  0.45593999997E+02  0.45594000000E+02  0.51100000000E-03 0. -1.
         11   -1    0    0    0    0 -0.00000000000E+00 -0.00000000000E+00 -0.45593999997E+02  0.45594000000E+02  0.51100000000E-03 0.  1.
    9900012    2    1    2    0    0 -0.88846841335E+00 -0.77442040179E+00  0.62425415658E-01  0.90007745785E+02  0.90000007229E+02 0.  0.
        -12    1    1    2    0    0  0.88846841335E+00  0.77442040179E+00 -0.62425415658E-01  0.11802542153E+01  0.00000000000E+00 0.  1.
         11    1    3    3    0    0  0.98956906713E+00  0.46779188299E+01 -0.77230067996E+01  0.90833367110E+01  0.51100000000E-03 0. -1.
        -11    1    3    3    0    0  0.17307259581E+02 -0.13739093528E+02 -0.30288153972E+02  0.37492348505E+02  0.51100000000E-03 0.  1.
         12    1    3    3    0    0 -0.19185297061E+02  0.82867542961E+01  0.38073586187E+02  0.43432060568E+02  0.00000000000E+00 0. -1.
</event>
<event>
 7    1  0.2429906E-015  0.9000776E+02  0.7816164E-02  0.1186339E+00
        -11   -1    0    0    0    0  0.00000000000E+00  0.00000000000E+00  0.45593999997E+02  0.45594000000E+02  0.51100000000E-03 0.  1.
         11   -1    0    0    0    0 -0.00000000000E+00 -0.00000000000E+00 -0.45593999997E+02  0.45594000000E+02  0.51100000000E-03 0. -1.
    9900012    2    1    2    0    0 -0.16033943777E+00 -0.16290927652E+00 -0.11578963284E+01  0.90007757620E+02  0.90000019221E+02 0.  0.
        -12    1    1    2    0    0  0.16033943777E+00  0.16290927652E+00  0.11578963284E+01  0.11802423798E+01  0.00000000000E+00 0.  1.
         11    1    3    3    0    0 -0.15383679843E+02  0.24708428758E+02 -0.28796694178E+02  0.40944030738E+02  0.51100000000E-03 0. -1.
        -11    1    3    3    0    0 -0.76834784658E+00 -0.76416530414E+01 -0.47597136383E+01  0.90354907890E+01  0.51100000000E-03 0.  1.
        -12    1    3    3    0    0  0.15991688252E+02 -0.17229684993E+02  0.32398511488E+02  0.40028236093E+02  0.00000000000E+00 0.  1.
</event>
<event>
 7    1  0.2429906E-015  0.9000777E+02  0.7816164E-02  0.1186339E+00
        -11   -1    0    0    0    0  0.00000000000E+00  0.00000000000E+00  0.45593999997E+02  0.45594000000E+02  0.51100000000E-03 0.  1.
         11   -1    0    0    0    0 -0.00000000000E+00 -0.00000000000E+00 -0.45593999997E+02  0.45594000000E+02  0.51100000000E-03 0. -1.
    9900012    2    1    2    0    0 -0.65137839528E+00 -0.95302929046E+00  0.24571761989E+00  0.90007772992E+02  0.90000034795E+02 0.  0.
        -12    1    1    2    0    0  0.65137839528E+00  0.95302929046E+00 -0.24571761989E+00  0.11802270083E+01  0.00000000000E+00 0.  1.
         11    1    3    3    0    0 -0.94943954111E+01 -0.49274665657E+00 -0.20917670628E+01  0.97345689785E+01  0.51100000000E-03 0. -1.
        -11    1    3    3    0    0 -0.58054642320E+01  0.73684211175E+01  0.38953050312E+02  0.40066659127E+02  0.51100000000E-03 0.  1.
         12    1    3    3    0    0  0.14648481248E+02 -0.78287037514E+01 -0.36615565630E+02  0.40206544886E+02  0.00000000000E+00 0. -1.
</event>
<event>
 7    1  0.2429906E-015  0.9000779E+02  0.7816164E-02  0.1186339E+00
        -11   -1    0    0    0    0  0.00000000000E+00  0.00000000000E+00  0.45593999997E+02  0.45594000000E+02  0.51100000000E-03 0.  1.
         11   -1    0    0    0    0 -0.00000000000E+00 -0.00000000000E+00 -0.45593999997E+02  0.45594000000E+02  0.51100000000E-03 0. -1.
    9900012    2    1    2    0    0 -0.64240327968E+00  0.52389112098E+00 -0.84009143449E+00  0.90007789214E+02  0.90000051232E+02 0.  0.
        -12    1    1    2    0    0  0.64240327968E+00 -0.52389112098E+00  0.84009143449E+00  0.11802107857E+01  0.00000000000E+00 0.  1.
         11    1    3    3    0    0  0.25423336126E+02 -0.16484474013E+02 -0.21392885762E+02  0.37090962036E+02  0.51100000000E-03 0. -1.
        -11    1    3    3    0    0  0.17591941429E+01 -0.54038396190E+01 -0.61038132601E+01  0.83398311275E+01  0.51100000000E-03 0.  1.
        -12    1    3    3    0    0 -0.27824933549E+02  0.22412204753E+02  0.26656607587E+02  0.44576996051E+02  0.00000000000E+00 0.  1.
</event>
<event>
 7    1  0.2429906E-015  0.9000712E+02  0.7816164E-02  0.1186340E+00
        -11   -1    0    0    0    0  0.00000000000E+00  0.00000000000E+00  0.45593999997E+02  0.45594000000E+02  0.51100000000E-03 0.  1.
         11   -1    0    0    0    0 -0.00000000000E+00 -0.00000000000E+00 -0.45593999997E+02  0.45594000000E+02  0.51100000000E-03 0. -1.
    9900012    2    1    2    0    0  0.30069589426E+00 -0.71206470434E+00  0.89276320358E+00  0.90007118845E+02  0.89999372012E+02 0.  0.
        -12    1    1    2    0    0 -0.30069589426E+00  0.71206470434E+00 -0.89276320358E+00  0.11808811548E+01  0.00000000000E+00 0.  1.
         11    1    3    3    0    0  0.15339104824E+01 -0.10466992684E+02  0.11647620920E+01  0.10642719963E+02  0.51100000000E-03 0. -1.
        -11    1    3    3    0    0 -0.14386798970E+02 -0.15296621531E+02  0.30839835808E+02  0.37310348267E+02  0.51100000000E-03 0.  1.
         12    1    3    3    0    0  0.13153584382E+02  0.25051549510E+02 -0.31111834696E+02  0.42054050615E+02  0.00000000000E+00 0. -1.
</event>
<event>
 7    1  0.2429906E-015  0.9000777E+02  0.7816164E-02  0.1186339E+00
        -11   -1    0    0    0    0  0.00000000000E+00  0.00000000000E+00  0.45593999997E+02  0.45594000000E+02  0.51100000000E-03 0.  1.
         11   -1    0    0    0    0 -0.00000000000E+00 -0.00000000000E+00 -0.45593999997E+02  0.45594000000E+02  0.51100000000E-03 0. -1.
    9900012    2    1    2    0    0  0.75687669227E+00 -0.88627607171E+00 -0.18599976679E+00  0.90007769719E+02  0.90000031479E+02 0.  0.
        -12    1    1    2    0    0 -0.75687669227E+00  0.88627607171E+00  0.18599976679E+00  0.11802302808E+01  0.00000000000E+00 0.  1.
         11    1    3    3    0    0 -0.12913512783E+02 -0.33719112647E+01 -0.27339750977E+00  0.13349282544E+02  0.51100000000E-03 0. -1.
        -11    1    3    3    0    0  0.32853540345E+02 -0.20755753836E+02 -0.16546731750E+02  0.42236841293E+02  0.51100000000E-03 0.  1.
         12    1    3    3    0    0 -0.19183150870E+02  0.23241389029E+02  0.16634129493E+02  0.34421645883E+02  0.00000000000E+00 0. -1.
</event>
<event>
 7    1  0.2429906E-015  0.9000772E+02  0.7816164E-02  0.1186339E+00
        -11   -1    0    0    0    0  0.00000000000E+00  0.00000000000E+00  0.45593999997E+02  0.45594000000E+02  0.51100000000E-03 0.  1.
         11   -1    0    0    0    0 -0.00000000000E+00 -0.00000000000E+00 -0.45593999997E+02  0.45594000000E+02  0.51100000000E-03 0. -1.
    9900012    2    1    2    0    0  0.63454921155E+00  0.58370115594E+00 -0.80604504502E+00  0.90007716832E+02  0.89999977895E+02 0.  0.
        -12    1    1    2    0    0 -0.63454921155E+00 -0.58370115594E+00  0.80604504502E+00  0.11802831677E+01  0.00000000000E+00 0.  1.
         11    1    3    3    0    0 -0.19436725239E+02  0.23708323904E+02  0.19147717088E+02  0.36145621869E+02  0.51100000000E-03 0. -1.
        -11    1    3    3    0    0 -0.15208180258E+01  0.11474851854E+01  0.96948986482E+01  0.98803172914E+01  0.51100000000E-03 0.  1.
        -12    1    3    3    0    0  0.21592092477E+02 -0.24272107934E+02 -0.29648660781E+02  0.43981777672E+02  0.00000000000E+00 0.  1.
</event>
<event>
 7    1  0.2429906E-015  0.9000770E+02  0.7816164E-02  0.1186339E+00
        -11   -1    0    0    0    0  0.00000000000E+00  0.00000000000E+00  0.45593999997E+02  0.45594000000E+02  0.51100000000E-03 0.  1.
         11   -1    0    0    0    0 -0.00000000000E+00 -0.00000000000E+00 -0.45593999997E+02  0.45594000000E+02  0.51100000000E-03 0. -1.
    9900012    2    1    2    0    0  0.27447298423E+00 -0.53041535998E+00 -0.10180548880E+01  0.90007698501E+02  0.89999959321E+02 0.  0.
        -12    1    1    2    0    0 -0.27447298423E+00  0.53041535998E+00  0.10180548880E+01  0.11803014988E+01  0.00000000000E+00 0.  1.
         11    1    3    3    0    0  0.48573863387E+01 -0.37670433682E+01  0.10360585547E+02  0.12046848174E+02  0.51100000000E-03 0. -1.
        -11    1    3    3    0    0  0.18063318060E+02  0.32007379101E+02  0.63220379953E+01  0.37292411304E+02  0.51100000000E-03 0.  1.
         12    1    3    3    0    0 -0.22646231414E+02 -0.28770751092E+02 -0.17700678430E+02  0.40668439023E+02  0.00000000000E+00 0. -1.
</event>
<event>
 7    1  0.2429906E-015  0.9000771E+02  0.7816164E-02  0.1186339E+00
        -11   -1    0    0    0    0  0.00000000000E+00  0.00000000000E+00  0.45593999997E+02  0.45594000000E+02  0.51100000000E-03 0.  1.
         11   -1    0    0    0    0 -0.00000000000E+00 -0.00000000000E+00 -0.45593999997E+02  0.45594000000E+02  0.51100000000E-03 0. -1.
    9900012    2    1    2    0    0  0.10513525388E+01  0.53182772529E+00  0.69985792551E-01  0.90007711518E+02  0.89999972510E+02 0.  0.
        -12    1    1    2    0    0 -0.10513525388E+01 -0.53182772529E+00 -0.69985792551E-01  0.11802884823E+01  0.00000000000E+00 0.  1.
         11    1    3    3    0    0  0.14915446984E+02 -0.13163490875E+02  0.29533999012E+02  0.35609059924E+02  0.51100000000E-03 0. -1.
        -11    1    3    3    0    0  0.51786862881E+01 -0.50493849562E+01  0.64115654144E+01  0.96655704141E+01  0.51100000000E-03 0.  1.
        -12    1    3    3    0    0 -0.19042780733E+02  0.18744703556E+02 -0.35875578634E+02  0.44733081180E+02  0.00000000000E+00 0.  1.
</event>
<event>
 7    1  0.2429906E-015  0.9000770E+02  0.7816164E-02  0.1186339E+00
        -11   -1    0    0    0    0  0.00000000000E+00  0.00000000000E+00  0.45593999997E+02  0.45594000000E+02  0.51100000000E-03 0.  1.
         11   -1    0    0    0    0 -0.00000000000E+00 -0.00000000000E+00 -0.45593999997E+02  0.45594000000E+02  0.51100000000E-03 0. -1.
    9900012    2    1    2    0    0 -0.16644891999E+00  0.81291392604E+00 -0.83939525330E+00  0.90007695512E+02  0.89999956292E+02 0.  0.
        -12    1    1    2    0    0  0.16644891999E+00 -0.81291392604E+00  0.83939525330E+00  0.11803044884E+01  0.00000000000E+00 0.  1.
         11    1    3    3    0    0 -0.21374730244E+02 -0.19850043387E+02 -0.18118696169E+02  0.34339342838E+02  0.51100000000E-03 0. -1.
        -11    1    3    3    0    0 -0.74025202723E+01 -0.19659302216E+01 -0.81634157774E+01  0.11193906621E+02  0.51100000000E-03 0.  1.
        -12    1    3    3    0    0  0.28610801596E+02  0.22628887534E+02  0.25442716693E+02  0.44474446053E+02  0.00000000000E+00 0.  1.
</event>
<event>
 7    1  0.2429906E-015  0.9000778E+02  0.7816164E-02  0.1186339E+00
        -11   -1    0    0    0    0  0.00000000000E+00  0.00000000000E+00  0.45593999997E+02  0.45594000000E+02  0.51100000000E-03 0.  1.
         11   -1    0    0    0    0 -0.00000000000E+00 -0.00000000000E+00 -0.45593999997E+02  0.45594000000E+02  0.51100000000E-03 0. -1.
    9900012    2    1    2    0    0 -0.92852161620E+00 -0.68076149144E+00  0.25947279315E+00  0.90007781914E+02  0.90000043835E+02 0.  0.
        -12    1    1    2    0    0  0.92852161620E+00  0.68076149144E+00 -0.25947279315E+00  0.11802180859E+01  0.00000000000E+00 0.  1.
         11    1    3    3    0    0  0.10630787577E+02 -0.78852800583E+01 -0.36843094262E+02  0.39148497815E+02  0.51100000000E-03 0. -1.
        -11    1    3    3    0    0 -0.81750950060E+01  0.83931865161E+00 -0.39926067609E+01  0.91366045753E+01  0.51100000000E-03 0.  1.
        -12    1    3    3    0    0 -0.33842141875E+01  0.63651999153E+01  0.41095173816E+02  0.41722679524E+02  0.00000000000E+00 0.  1.
</event>
<event>
 7    1  0.2429906E-015  0.9000771E+02  0.7816164E-02  0.1186339E+00
        -11   -1    0    0    0    0  0.00000000000E+00  0.00000000000E+00  0.45593999997E+02  0.45594000000E+02  0.51100000000E-03 0. -1.
         11   -1    0    0    0    0 -0.00000000000E+00 -0.00000000000E+00 -0.45593999997E+02  0.45594000000E+02  0.51100000000E-03 0.  1.
    9900012    2    1    2    0    0  0.51831925078E+00  0.52754355869E+00  0.91984842558E+00  0.90007712671E+02  0.89999973679E+02 0.  0.
        -12    1    1    2    0    0 -0.51831925078E+00 -0.52754355869E+00 -0.91984842558E+00  0.11802873286E+01  0.00000000000E+00 0.  1.
         11    1    3    3    0    0  0.11698878909E+01  0.85264678721E+01 -0.22685320937E+01  0.89003106784E+01  0.51100000000E-03 0. -1.
        -11    1    3    3    0    0  0.36535612740E+02  0.98044149192E+01  0.10446564619E+02  0.39244213112E+02  0.51100000000E-03 0.  1.
         12    1    3    3    0    0 -0.37187181380E+02 -0.17803339233E+02 -0.72581840999E+01  0.41863188881E+02  0.00000000000E+00 0. -1.
</event>
<event>
 7    1  0.2429906E-015  0.9000751E+02  0.7816164E-02  0.1186340E+00
        -11   -1    0    0    0    0  0.00000000000E+00  0.00000000000E+00  0.45593999997E+02  0.45594000000E+02  0.51100000000E-03 0. -1.
         11   -1    0    0    0    0 -0.00000000000E+00 -0.00000000000E+00 -0.45593999997E+02  0.45594000000E+02  0.51100000000E-03 0.  1.
    9900012    2    1    2    0    0  0.86290466598E+00  0.71327238529E+00 -0.37442724567E+00  0.90007509542E+02  0.89999767868E+02 0.  0.
        -12    1    1    2    0    0 -0.86290466598E+00 -0.71327238529E+00  0.37442724567E+00  0.11804904576E+01  0.00000000000E+00 0.  1.
         11    1    3    3    0    0  0.23995022901E+01 -0.92913703257E+01 -0.51377851147E+00  0.96099501762E+01  0.51100000000E-03 0. -1.
        -11    1    3    3    0    0  0.12487634001E+02  0.18735819037E+01 -0.37417863121E+02  0.39491110302E+02  0.51100000000E-03 0.  1.
         12    1    3    3    0    0 -0.14024231625E+02  0.81310608073E+01  0.37557214387E+02  0.40906449064E+02  0.00000000000E+00 0. -1.
</event>
<event>
 7    1  0.2429906E-015  0.9000763E+02  0.7816164E-02  0.1186339E+00
        -11   -1    0    0    0    0  0.00000000000E+00  0.00000000000E+00  0.45593999997E+02  0.45594000000E+02  0.51100000000E-03 0.  1.
         11   -1    0    0    0    0 -0.00000000000E+00 -0.00000000000E+00 -0.45593999997E+02  0.45594000000E+02  0.51100000000E-03 0. -1.
    9900012    2    1    2    0    0  0.80348193027E+00 -0.20140121490E+00 -0.84091090496E+00  0.90007628528E+02  0.89999888425E+02 0.  0.
        -12    1    1    2    0    0 -0.80348193027E+00  0.20140121490E+00  0.84091090496E+00  0.11803714719E+01  0.00000000000E+00 0.  1.
         11    1    3    3    0    0 -0.35165137585E+02 -0.10353636411E+02 -0.12755642595E+02  0.38813542825E+02  0.51100000000E-03 0. -1.
        -11    1    3    3    0    0  0.53137547956E+00 -0.28262876099E+01 -0.80153615515E+01  0.85156492774E+01  0.51100000000E-03 0.  1.
        -12    1    3    3    0    0  0.35437244036E+02  0.12978522806E+02  0.19930093242E+02  0.42678436426E+02  0.00000000000E+00 0.  1.
</event>
<event>
 7    1  0.2429906E-015  0.9000772E+02  0.7816164E-02  0.1186339E+00
        -11   -1    0    0    0    0  0.00000000000E+00  0.00000000000E+00  0.45593999997E+02  0.45594000000E+02  0.51100000000E-03 0. -1.
         11   -1    0    0    0    0 -0.00000000000E+00 -0.00000000000E+00 -0.45593999997E+02  0.45594000000E+02  0.51100000000E-03 0.  1.
    9900012    2    1    2    0    0  0.10935383882E+01  0.41307335912E+00 -0.16308860034E+00  0.90007723042E+02  0.89999984186E+02 0.  0.
        -12    1    1    2    0    0 -0.10935383882E+01 -0.41307335912E+00  0.16308860034E+00  0.11802769582E+01  0.00000000000E+00 0.  1.
         11    1    3    3    0    0 -0.59913279643E+01  0.81977184782E+01  0.20904830109E+01  0.10366712039E+02  0.51100000000E-03 0. -1.
        -11    1    3    3    0    0 -0.14707763815E+02 -0.31606460402E+02 -0.22537561253E+02  0.41511785351E+02  0.51100000000E-03 0.  1.
         12    1    3    3    0    0  0.21792630167E+02  0.23821815283E+02  0.20283989642E+02  0.38129225651E+02  0.00000000000E+00 0. -1.
</event>
<event>
 7    1  0.2429906E-015  0.9000767E+02  0.7816164E-02  0.1186339E+00
        -11   -1    0    0    0    0  0.00000000000E+00  0.00000000000E+00  0.45593999997E+02  0.45594000000E+02  0.51100000000E-03 0. -1.
         11   -1    0    0    0    0 -0.00000000000E+00 -0.00000000000E+00 -0.45593999997E+02  0.45594000000E+02  0.51100000000E-03 0.  1.
    9900012    2    1    2    0    0 -0.62267725502E+00  0.98926128684E+00 -0.16377661427E+00  0.90007666303E+02  0.89999926698E+02 0.  0.
        -12    1    1    2    0    0  0.62267725502E+00 -0.98926128684E+00  0.16377661427E+00  0.11803336973E+01  0.00000000000E+00 0.  1.
         11    1    3    3    0    0 -0.21093986458E+02  0.60765223700E+01  0.31873819316E+02  0.38701689199E+02  0.51100000000E-03 0. -1.
        -11    1    3    3    0    0 -0.41017921596E+01 -0.13334790204E+02 -0.88035376240E+01  0.16496775553E+02  0.51100000000E-03 0.  1.
        -12    1    3    3    0    0  0.24573101362E+02  0.82475291207E+01 -0.23234058307E+02  0.34809201550E+02  0.00000000000E+00 0.  1.
</event>
<event>
 7    1  0.2429906E-015  0.9000670E+02  0.7816164E-02  0.1186341E+00
        -11   -1    0    0    0    0  0.00000000000E+00  0.00000000000E+00  0.45593999997E+02  0.45594000000E+02  0.51100000000E-03 0. -1.
         11   -1    0    0    0    0 -0.00000000000E+00 -0.00000000000E+00 -0.45593999997E+02  0.45594000000E+02  0.51100000000E-03 0.  1.
    9900012    2    1    2    0    0  0.35508359215E+00  0.28550178522E+00  0.10898933846E+01  0.90006702740E+02  0.89998950410E+02 0.  0.
        -12    1    1    2    0    0 -0.35508359215E+00 -0.28550178522E+00 -0.10898933846E+01  0.11812972601E+01  0.00000000000E+00 0.  1.
         11    1    3    3    0    0  0.34715212954E+01 -0.57487835026E+01 -0.45467577548E+01  0.81100541432E+01  0.51100000000E-03 0. -1.
        -11    1    3    3    0    0  0.32302324498E+02  0.21375694622E+00  0.25243714814E+02  0.40996719355E+02  0.51100000000E-03 0.  1.
         12    1    3    3    0    0 -0.35418762201E+02  0.58205283416E+01 -0.19607063675E+02  0.40899929242E+02  0.00000000000E+00 0. -1.
</event>
<event>
 7    1  0.2429906E-015  0.9000778E+02  0.7816164E-02  0.1186339E+00
        -11   -1    0    0    0    0  0.00000000000E+00  0.00000000000E+00  0.45593999997E+02  0.45594000000E+02  0.51100000000E-03 0.  1.
         11   -1    0    0    0    0 -0.00000000000E+00 -0.00000000000E+00 -0.45593999997E+02  0.45594000000E+02  0.51100000000E-03 0. -1.
    9900012    2    1    2    0    0  0.55320010194E+00 -0.74333182185E+00 -0.73099013609E+00  0.90007780050E+02  0.90000041947E+02 0.  0.
        -12    1    1    2    0    0 -0.55320010194E+00  0.74333182185E+00  0.73099013609E+00  0.11802199495E+01  0.00000000000E+00 0.  1.
         11    1    3    3    0    0 -0.69735397300E+01 -0.44119589467E+01  0.10690155467E+02  0.13504631142E+02  0.51100000000E-03 0. -1.
        -11    1    3    3    0    0 -0.72377992160E+01  0.91275654092E+01  0.30005063104E+02  0.32186984946E+02  0.51100000000E-03 0.  1.
         12    1    3    3    0    0  0.14764539048E+02 -0.54589382844E+01 -0.41426208707E+02  0.44316163962E+02  0.00000000000E+00 0. -1.
</event>
<event>
 7    1  0.2429906E-015  0.9000848E+02  0.7816164E-02  0.1186338E+00
        -11   -1    0    0    0    0  0.00000000000E+00  0.00000000000E+00  0.45593999997E+02  0.45594000000E+02  0.51100000000E-03 0.  1.
         11   -1    0    0    0    0 -0.00000000000E+00 -0.00000000000E+00 -0.45593999997E+02  0.45594000000E+02  0.51100000000E-03 0. -1.
    9900012    2    1    2    0    0 -0.11054818183E+01 -0.40837538871E-01  0.40927641354E+00  0.90008481057E+02  0.90000752203E+02 0.  0.
        -12    1    1    2    0    0  0.11054818183E+01  0.40837538871E-01 -0.40927641354E+00  0.11795189434E+01  0.00000000000E+00 0.  1.
         11    1    3    3    0    0  0.17140340390E+02 -0.69471459076E+01 -0.31510460589E+02  0.36537148654E+02  0.51100000000E-03 0. -1.
        -11    1    3    3    0    0 -0.67520932384E+01 -0.78608253793E+01 -0.54277527248E+01  0.11698027126E+02  0.51100000000E-03 0.  1.
        -12    1    3    3    0    0 -0.11493728970E+02  0.14767133748E+02  0.37347489728E+02  0.41773305276E+02  0.00000000000E+00 0.  1.
</event>
<event>
 7    1  0.2429906E-015  0.9000766E+02  0.7816164E-02  0.1186339E+00
        -11   -1    0    0    0    0  0.00000000000E+00  0.00000000000E+00  0.45593999997E+02  0.45594000000E+02  0.51100000000E-03 0.  1.
         11   -1    0    0    0    0 -0.00000000000E+00 -0.00000000000E+00 -0.45593999997E+02  0.45594000000E+02  0.51100000000E-03 0. -1.
    9900012    2    1    2    0    0 -0.10536673665E+01 -0.52328163603E+00  0.95715987883E-01  0.90007661006E+02  0.89999921332E+02 0.  0.
        -12    1    1    2    0    0  0.10536673665E+01  0.52328163603E+00 -0.95715987883E-01  0.11803389937E+01  0.00000000000E+00 0.  1.
         11    1    3    3    0    0 -0.22573514230E+01 -0.65251548892E+01  0.65322560849E+01  0.95049277533E+01  0.51100000000E-03 0. -1.
        -11    1    3    3    0    0  0.12110448504E+02 -0.54854297829E+01  0.34304491372E+02  0.36790637823E+02  0.51100000000E-03 0.  1.
         12    1    3    3    0    0 -0.10906764447E+02  0.11487303036E+02 -0.40741031469E+02  0.43712095430E+02  0.00000000000E+00 0. -1.
</event>
<event>
 7    1  0.2429906E-015  0.9000800E+02  0.7816164E-02  0.1186339E+00
        -11   -1    0    0    0    0  0.00000000000E+00  0.00000000000E+00  0.45593999997E+02  0.45594000000E+02  0.51100000000E-03 0.  1.
         11   -1    0    0    0    0 -0.00000000000E+00 -0.00000000000E+00 -0.45593999997E+02  0.45594000000E+02  0.51100000000E-03 0. -1.
    9900012    2    1    2    0    0  0.25863477731E+00  0.33540859054E+00 -0.11013644802E+01  0.90008002293E+02  0.90000267123E+02 0.  0.
        -12    1    1    2    0    0 -0.25863477731E+00 -0.33540859054E+00  0.11013644802E+01  0.11799977071E+01  0.00000000000E+00 0.  1.
         11    1    3    3    0    0 -0.15153237322E+02 -0.11661356247E+02 -0.42935045492E+01  0.19596989882E+02  0.51100000000E-03 0. -1.
        -11    1    3    3    0    0  0.18857957541E+02 -0.25674356924E+02  0.62354576033E+01  0.32460377353E+02  0.51100000000E-03 0.  1.
         12    1    3    3    0    0 -0.34460854421E+01  0.37671121762E+02 -0.30433175343E+01  0.37950635058E+02  0.00000000000E+00 0. -1.
</event>
<event>
 7    1  0.2429906E-015  0.9000777E+02  0.7816164E-02  0.1186339E+00
        -11   -1    0    0    0    0  0.00000000000E+00  0.00000000000E+00  0.45593999997E+02  0.45594000000E+02  0.51100000000E-03 0.  1.
         11   -1    0    0    0    0 -0.00000000000E+00 -0.00000000000E+00 -0.45593999997E+02  0.45594000000E+02  0.51100000000E-03 0. -1.
    9900012    2    1    2    0    0  0.11427245025E+01  0.16464876512E+00 -0.24499597757E+00  0.90007766323E+02  0.90000028038E+02 0.  0.
        -12    1    1    2    0    0 -0.11427245025E+01 -0.16464876512E+00  0.24499597757E+00  0.11802336775E+01  0.00000000000E+00 0.  1.
         11    1    3    3    0    0 -0.18420215388E+01  0.77069608244E+01 -0.72710728129E+01  0.10754477607E+02  0.51100000000E-03 0. -1.
        -11    1    3    3    0    0  0.33623365735E+02  0.89016438290E+00 -0.18595253046E+02  0.38433143927E+02  0.51100000000E-03 0.  1.
         12    1    3    3    0    0 -0.30638619694E+02 -0.84324764422E+01  0.25621329881E+02  0.40820144789E+02  0.00000000000E+00 0. -1.
</event>
<event>
 7    1  0.2429906E-015  0.9000784E+02  0.7816164E-02  0.1186339E+00
        -11   -1    0    0    0    0  0.00000000000E+00  0.00000000000E+00  0.45593999997E+02  0.45594000000E+02  0.51100000000E-03 0. -1.
         11   -1    0    0    0    0 -0.00000000000E+00 -0.00000000000E+00 -0.45593999997E+02  0.45594000000E+02  0.51100000000E-03 0.  1.
    9900012    2    1    2    0    0 -0.40678982765E+00  0.84892202320E+00 -0.71177990122E+00  0.90007840183E+02  0.90000102874E+02 0.  0.
        -12    1    1    2    0    0  0.40678982765E+00 -0.84892202320E+00  0.71177990122E+00  0.11801598168E+01  0.00000000000E+00 0.  1.
         11    1    3    3    0    0 -0.68541413041E+01  0.28956994619E+01 -0.25669010481E+01  0.78710424749E+01  0.51100000000E-03 0. -1.
        -11    1    3    3    0    0  0.33328318670E+02  0.26678213574E+02  0.28218803860E+01  0.42783956269E+02  0.51100000000E-03 0.  1.
         12    1    3    3    0    0 -0.26880967193E+02 -0.28724991013E+02 -0.96675923916E+00  0.39352841439E+02  0.00000000000E+00 0. -1.
</event>
<event>
 7    1  0.2429906E-015  0.9000774E+02  0.7816164E-02  0.1186339E+00
        -11   -1    0    0    0    0  0.00000000000E+00  0.00000000000E+00  0.45593999997E+02  0.45594000000E+02  0.51100000000E-03 0.  1.
         11   -1    0    0    0    0 -0.00000000000E+00 -0.00000000000E+00 -0.45593999997E+02  0.45594000000E+02  0.51100000000E-03 0. -1.
    9900012    2    1    2    0    0  0.65462397020E+00  0.87785649908E+00  0.44027698611E+00  0.90007742232E+02  0.90000003629E+02 0.  0.
        -12    1    1    2    0    0 -0.65462397020E+00 -0.87785649908E+00 -0.44027698611E+00  0.11802577684E+01  0.00000000000E+00 0.  1.
         11    1    3    3    0    0  0.89825893396E+01 -0.35822029177E+01 -0.22743120578E+01  0.99343638238E+01  0.51100000000E-03 0. -1.
        -11    1    3    3    0    0  0.13928865901E+01 -0.26444893950E+02  0.28324723994E+02  0.38775798363E+02  0.51100000000E-03 0.  1.
         12    1    3    3    0    0 -0.97208519595E+01  0.30904953366E+02 -0.25610134950E+02  0.41297580045E+02  0.00000000000E+00 0. -1.
</event>
<event>
 7    1  0.2429906E-015  0.9000782E+02  0.7816164E-02  0.1186339E+00
        -11   -1    0    0    0    0  0.00000000000E+00  0.00000000000E+00  0.45593999997E+02  0.45594000000E+02  0.51100000000E-03 0. -1.
         11   -1    0    0    0    0 -0.00000000000E+00 -0.00000000000E+00 -0.45593999997E+02  0.45594000000E+02  0.51100000000E-03 0.  1.
    9900012    2    1    2    0    0 -0.32830630495E+00 -0.38063597721E+00  0.10677843552E+01  0.90007816876E+02  0.90000079259E+02 0.  0.
        -12    1    1    2    0    0  0.32830630495E+00  0.38063597721E+00 -0.10677843552E+01  0.11801831240E+01  0.00000000000E+00 0.  1.
         11    1    3    3    0    0 -0.13419180616E+01  0.68898816407E+01 -0.62286789184E+01  0.93844368204E+01  0.51100000000E-03 0. -1.
        -11    1    3    3    0    0 -0.34537387828E+02  0.12764422723E+02 -0.68121989300E+01  0.37445529772E+02  0.51100000000E-03 0.  1.
         12    1    3    3    0    0  0.35550999584E+02 -0.20034940340E+02  0.14108662204E+02  0.43177850283E+02  0.00000000000E+00 0. -1.
</event>
<event>
 7    1  0.2429906E-015  0.9000771E+02  0.7816164E-02  0.1186339E+00
        -11   -1    0    0    0    0  0.00000000000E+00  0.00000000000E+00  0.45593999997E+02  0.45594000000E+02  0.51100000000E-03 0.  1.
         11   -1    0    0    0    0 -0.00000000000E+00 -0.00000000000E+00 -0.45593999997E+02  0.45594000000E+02  0.51100000000E-03 0. -1.
    9900012    2    1    2    0    0  0.91788982973E+00 -0.46428658033E+00 -0.57878339349E+00  0.90007714448E+02  0.89999975478E+02 0.  0.
        -12    1    1    2    0    0 -0.91788982973E+00  0.46428658033E+00  0.57878339349E+00  0.11802855522E+01  0.00000000000E+00 0.  1.
         11    1    3    3    0    0 -0.38242931530E+01 -0.11345926772E+02  0.70304964305E+01  0.13884637293E+02  0.51100000000E-03 0. -1.
        -11    1    3    3    0    0 -0.29918163208E+02  0.23381984904E+02 -0.97900661805E+01  0.39212996619E+02  0.51100000000E-03 0.  1.
         12    1    3    3    0    0  0.34660346191E+02 -0.12500344712E+02  0.21807863565E+01  0.36910080535E+02  0.00000000000E+00 0. -1.
</event>
<event>
 7    1  0.2429906E-015  0.9000771E+02  0.7816164E-02  0.1186339E+00
        -11   -1    0    0    0    0  0.00000000000E+00  0.00000000000E+00  0.45593999997E+02  0.45594000000E+02  0.51100000000E-03 0.  1.
         11   -1    0    0    0    0 -0.00000000000E+00 -0.00000000000E+00 -0.45593999997E+02  0.45594000000E+02  0.51100000000E-03 0. -1.
    9900012    2    1    2    0    0 -0.29418256123E+00 -0.11067955172E+01 -0.28554426835E+00  0.90007713922E+02  0.89999974946E+02 0.  0.
        -12    1    1    2    0    0  0.29418256123E+00  0.11067955172E+01  0.28554426835E+00  0.11802860778E+01  0.00000000000E+00 0.  1.
         11    1    3    3    0    0  0.43190157711E+01  0.21166521844E+01  0.70460813903E+01  0.85312002040E+01  0.51100000000E-03 0. -1.
        -11    1    3    3    0    0  0.48909476464E-01  0.29465384482E+02  0.22424079444E+02  0.37027700631E+02  0.51100000000E-03 0.  1.
         12    1    3    3    0    0 -0.46621078088E+01 -0.32688832184E+02 -0.29755705103E+02  0.44448813088E+02  0.00000000000E+00 0. -1.
</event>
<event>
 7    1  0.2429906E-015  0.9000684E+02  0.7816164E-02  0.1186341E+00
        -11   -1    0    0    0    0  0.00000000000E+00  0.00000000000E+00  0.45593999997E+02  0.45594000000E+02  0.51100000000E-03 0.  1.
         11   -1    0    0    0    0 -0.00000000000E+00 -0.00000000000E+00 -0.45593999997E+02  0.45594000000E+02  0.51100000000E-03 0. -1.
    9900012    2    1    2    0    0 -0.65822170082E+00 -0.82570042196E+00 -0.52923787123E+00  0.90006843906E+02  0.89999093441E+02 0.  0.
        -12    1    1    2    0    0  0.65822170082E+00  0.82570042196E+00  0.52923787123E+00  0.11811560941E+01  0.00000000000E+00 0.  1.
         11    1    3    3    0    0 -0.36100691291E+02  0.66953545524E+00  0.26560443241E+01  0.36204457752E+02  0.51100000000E-03 0. -1.
        -11    1    3    3    0    0 -0.36944572030E+01 -0.63281023362E+00 -0.12929151224E+02  0.13461516053E+02  0.51100000000E-03 0.  1.
        -12    1    3    3    0    0  0.39136926793E+02 -0.86242564359E+00  0.97438690285E+01  0.40340870100E+02  0.00000000000E+00 0.  1.
</event>
<event>
 7    1  0.2429906E-015  0.9000776E+02  0.7816164E-02  0.1186339E+00
        -11   -1    0    0    0    0  0.00000000000E+00  0.00000000000E+00  0.45593999997E+02  0.45594000000E+02  0.51100000000E-03 0.  1.
         11   -1    0    0    0    0 -0.00000000000E+00 -0.00000000000E+00 -0.45593999997E+02  0.45594000000E+02  0.51100000000E-03 0. -1.
    9900012    2    1    2    0    0 -0.98971525834E+00  0.22620910598E+00 -0.60188831667E+00  0.90007755789E+02  0.90000017365E+02 0.  0.
        -12    1    1    2    0    0  0.98971525834E+00 -0.22620910598E+00  0.60188831667E+00  0.11802442112E+01  0.00000000000E+00 0.  1.
         11    1    3    3    0    0 -0.81062129492E+01  0.28763534150E+01 -0.22754193038E+01  0.88972822038E+01  0.51100000000E-03 0. -1.
        -11    1    3    3    0    0 -0.28378895329E+02 -0.23747748050E+02  0.11338452989E+02  0.38702425686E+02  0.51100000000E-03 0.  1.
         12    1    3    3    0    0  0.35495393020E+02  0.21097603741E+02 -0.96649220021E+01  0.42408047899E+02  0.00000000000E+00 0. -1.
</event>
<event>
 7    1  0.2429906E-015  0.9000715E+02  0.7816164E-02  0.1186340E+00
        -11   -1    0    0    0    0  0.00000000000E+00  0.00000000000E+00  0.45593999997E+02  0.45594000000E+02  0.51100000000E-03 0. -1.
         11   -1    0    0    0    0 -0.00000000000E+00 -0.00000000000E+00 -0.45593999997E+02  0.45594000000E+02  0.51100000000E-03 0.  1.
    9900012    2    1    2    0    0 -0.39734794222E-01  0.22073739392E+00  0.11593519946E+01  0.90007152466E+02  0.89999406077E+02 0.  0.
        -12    1    1    2    0    0  0.39734794222E-01 -0.22073739392E+00 -0.11593519946E+01  0.11808475339E+01  0.00000000000E+00 0.  1.
         11    1    3    3    0    0  0.83693055738E+01 -0.38054852656E+00  0.70816053697E+01  0.10969923785E+02  0.51100000000E-03 0. -1.
        -11    1    3    3    0    0  0.12246448787E+02 -0.23079581037E+02  0.24123509467E+02  0.35561021892E+02  0.51100000000E-03 0.  1.
         12    1    3    3    0    0 -0.20655489155E+02  0.23680866957E+02 -0.30045762842E+02  0.43476206790E+02  0.00000000000E+00 0. -1.
</event>
<event>
 7    1  0.2429906E-015  0.9000756E+02  0.7816164E-02  0.1186339E+00
        -11   -1    0    0    0    0  0.00000000000E+00  0.00000000000E+00  0.45593999997E+02  0.45594000000E+02  0.51100000000E-03 0.  1.
         11   -1    0    0    0    0 -0.00000000000E+00 -0.00000000000E+00 -0.45593999997E+02  0.45594000000E+02  0.51100000000E-03 0. -1.
    9900012    2    1    2    0    0 -0.94244839070E+00  0.66396193414E+00  0.25372215179E+00  0.90007563916E+02  0.89999822959E+02 0.  0.
        -12    1    1    2    0    0  0.94244839070E+00 -0.66396193414E+00 -0.25372215179E+00  0.11804360844E+01  0.00000000000E+00 0.  1.
         11    1    3    3    0    0 -0.17401774713E+02  0.29959981735E+02  0.72480459294E+01  0.35397124724E+02  0.51100000000E-03 0. -1.
        -11    1    3    3    0    0 -0.10255981310E+02  0.38493138939E+01  0.19046790957E+01  0.11118910594E+02  0.51100000000E-03 0.  1.
        -12    1    3    3    0    0  0.26715307632E+02 -0.33145333694E+02 -0.88990028733E+01  0.43491528597E+02  0.00000000000E+00 0.  1.
</event>
<event>
 7    1  0.2429906E-015  0.9000772E+02  0.7816164E-02  0.1186339E+00
        -11   -1    0    0    0    0  0.00000000000E+00  0.00000000000E+00  0.45593999997E+02  0.45594000000E+02  0.51100000000E-03 0.  1.
         11   -1    0    0    0    0 -0.00000000000E+00 -0.00000000000E+00 -0.45593999997E+02  0.45594000000E+02  0.51100000000E-03 0. -1.
    9900012    2    1    2    0    0 -0.81893621181E+00  0.72724307218E+00 -0.43990144830E+00  0.90007723639E+02  0.89999984791E+02 0.  0.
        -12    1    1    2    0    0  0.81893621181E+00 -0.72724307218E+00  0.43990144830E+00  0.11802763614E+01  0.00000000000E+00 0.  1.
         11    1    3    3    0    0 -0.28918701002E+01 -0.79724328341E+01  0.38221001662E+01  0.93022066152E+01  0.51100000000E-03 0. -1.
        -11    1    3    3    0    0  0.26496551722E+02  0.26399173837E+02  0.19616699091E+02  0.42235038960E+02  0.51100000000E-03 0.  1.
         12    1    3    3    0    0 -0.24423617833E+02 -0.17699497931E+02 -0.23878700706E+02  0.38470478064E+02  0.00000000000E+00 0. -1.
</event>
<event>
 7    1  0.2429906E-015  0.9000780E+02  0.7816164E-02  0.1186339E+00
        -11   -1    0    0    0    0  0.00000000000E+00  0.00000000000E+00  0.45593999997E+02  0.45594000000E+02  0.51100000000E-03 0. -1.
         11   -1    0    0    0    0 -0.00000000000E+00 -0.00000000000E+00 -0.45593999997E+02  0.45594000000E+02  0.51100000000E-03 0.  1.
    9900012    2    1    2    0    0 -0.56803976378E+00 -0.69262045602E+00  0.76843086840E+00  0.90007797361E+02  0.90000059486E+02 0.  0.
        -12    1    1    2    0    0  0.56803976378E+00  0.69262045602E+00 -0.76843086840E+00  0.11802026389E+01  0.00000000000E+00 0.  1.
         11    1    3    3    0    0  0.11567849932E+02 -0.17271863453E+02  0.37553076542E+01  0.21124269337E+02  0.51100000000E-03 0. -1.
        -11    1    3    3    0    0  0.24603917362E+02 -0.62195451985E+01 -0.36537995798E+01  0.25639534778E+02  0.51100000000E-03 0.  1.
         12    1    3    3    0    0 -0.36739807058E+02  0.22798788195E+02  0.66692279392E+00  0.43243993246E+02  0.00000000000E+00 0. -1.
</event>
<event>
 7    1  0.2429906E-015  0.9000771E+02  0.7816164E-02  0.1186339E+00
        -11   -1    0    0    0    0  0.00000000000E+00  0.00000000000E+00  0.45593999997E+02  0.45594000000E+02  0.51100000000E-03 0. -1.
         11   -1    0    0    0    0 -0.00000000000E+00 -0.00000000000E+00 -0.45593999997E+02  0.45594000000E+02  0.51100000000E-03 0.  1.
    9900012    2    1    2    0    0  0.68117534922E+00  0.35574246881E+00  0.89583977775E+00  0.90007711278E+02  0.89999972267E+02 0.  0.
        -12    1    1    2    0    0 -0.68117534922E+00 -0.35574246881E+00 -0.89583977775E+00  0.11802887223E+01  0.00000000000E+00 0.  1.
         11    1    3    3    0    0  0.38811630385E+01 -0.29807536131E+02  0.28739746577E+02  0.41587566295E+02  0.51100000000E-03 0. -1.
        -11    1    3    3    0    0  0.22802686190E+01 -0.38389333280E+01 -0.65528532947E+01  0.79294968715E+01  0.51100000000E-03 0.  1.
        -12    1    3    3    0    0 -0.54802563082E+01  0.34002211928E+02 -0.21291053505E+02  0.40490648112E+02  0.00000000000E+00 0.  1.
</event>
<event>
 7    1  0.2429906E-015  0.9000772E+02  0.7816164E-02  0.1186339E+00
        -11   -1    0    0    0    0  0.00000000000E+00  0.00000000000E+00  0.45593999997E+02  0.45594000000E+02  0.51100000000E-03 0.  1.
         11   -1    0    0    0    0 -0.00000000000E+00 -0.00000000000E+00 -0.45593999997E+02  0.45594000000E+02  0.51100000000E-03 0. -1.
    9900012    2    1    2    0    0 -0.34594736042E+00  0.33620582055E+00 -0.10771941604E+01  0.90007719868E+02  0.89999980971E+02 0.  0.
        -12    1    1    2    0    0  0.34594736042E+00 -0.33620582055E+00  0.10771941604E+01  0.11802801317E+01  0.00000000000E+00 0.  1.
         11    1    3    3    0    0 -0.49238128973E+01  0.20923904072E-01 -0.77578103595E+01  0.91884706612E+01  0.51100000000E-03 0. -1.
        -11    1    3    3    0    0 -0.28575018784E+02 -0.25675555588E+02  0.33313260125E+01  0.38559870157E+02  0.51100000000E-03 0.  1.
         12    1    3    3    0    0  0.33152884321E+02  0.25990837504E+02  0.33492901866E+01  0.42259379050E+02  0.00000000000E+00 0. -1.
</event>
<event>
 7    1  0.2429906E-015  0.9000784E+02  0.7816164E-02  0.1186339E+00
        -11   -1    0    0    0    0  0.00000000000E+00  0.00000000000E+00  0.45593999997E+02  0.45594000000E+02  0.51100000000E-03 0.  1.
         11   -1    0    0    0    0 -0.00000000000E+00 -0.00000000000E+00 -0.45593999997E+02  0.45594000000E+02  0.51100000000E-03 0. -1.
    9900012    2    1    2    0    0  0.10163572242E+01  0.32000037677E+00  0.50735264864E+00  0.90007835199E+02  0.90000097823E+02 0.  0.
        -12    1    1    2    0    0 -0.10163572242E+01 -0.32000037677E+00 -0.50735264864E+00  0.11801648014E+01  0.00000000000E+00 0.  1.
         11    1    3    3    0    0 -0.62033197354E+01  0.18353355880E+01 -0.71839878951E+01  0.96674357923E+01  0.51100000000E-03 0. -1.
        -11    1    3    3    0    0 -0.26000995522E+02 -0.90730760001E+01 -0.21922805712E+02  0.35199174518E+02  0.51100000000E-03 0.  1.
         12    1    3    3    0    0  0.33220672482E+02  0.75577407890E+01  0.29614146255E+02  0.45141224888E+02  0.00000000000E+00 0. -1.
</event>
<event>
 7    1  0.4356813E-015  0.9000753E+02  0.7816164E-02  0.1186339E+00
        -11   -1    0    0    0    0  0.00000000000E+00  0.00000000000E+00  0.45593999997E+02  0.45594000000E+02  0.51100000000E-03 0.  1.
         11   -1    0    0    0    0 -0.00000000000E+00 -0.00000000000E+00 -0.45593999997E+02  0.45594000000E+02  0.51100000000E-03 0. -1.
    9900012    2    1    2    0    0  0.87414833736E+00  0.60771836476E+00 -0.50995845857E+00  0.90007527825E+02  0.89999786392E+02 0.  0.
        -12    1    1    2    0    0 -0.87414833736E+00 -0.60771836476E+00  0.50995845857E+00  0.11804721750E+01  0.00000000000E+00 0.  1.
         11    1    3    3    0    0 -0.37378015128E+02  0.12031263342E+01 -0.94690735964E+01  0.38577543765E+02  0.51100000000E-03 0. -1.
        -11    1    3    3    0    0  0.75928448196E+00  0.26319400428E+01 -0.92337612870E+01  0.96315091797E+01  0.51100000000E-03 0.  1.
        -12    1    3    3    0    0  0.37492878984E+02 -0.32273480123E+01  0.18192876425E+02  0.41798474880E+02  0.00000000000E+00 0.  1.
</event>
<event>
 7    1  0.2429906E-015  0.9000775E+02  0.7816164E-02  0.1186339E+00
        -11   -1    0    0    0    0  0.00000000000E+00  0.00000000000E+00  0.45593999997E+02  0.45594000000E+02  0.51100000000E-03 0. -1.
         11   -1    0    0    0    0 -0.00000000000E+00 -0.00000000000E+00 -0.45593999997E+02  0.45594000000E+02  0.51100000000E-03 0.  1.
    9900012    2    1    2    0    0  0.11328572464E+01  0.15936975654E+00  0.29020723410E+00  0.90007752357E+02  0.90000013888E+02 0.  0.
        -12    1    1    2    0    0 -0.11328572464E+01 -0.15936975654E+00 -0.29020723410E+00  0.11802476429E+01  0.00000000000E+00 0.  1.
         11    1    3    3    0    0 -0.24908396619E+02  0.29657577395E+02  0.21007536815E+01  0.38786766885E+02  0.51100000000E-03 0. -1.
        -11    1    3    3    0    0  0.42422045889E+01  0.37665347311E+01  0.84221402968E+01  0.10154581778E+02  0.51100000000E-03 0.  1.
        -12    1    3    3    0    0  0.21799049277E+02 -0.33264742370E+02 -0.10232686744E+02  0.41066403693E+02  0.00000000000E+00 0.  1.
</event>
<event>
 7    1  0.2429906E-015  0.9000789E+02  0.7816164E-02  0.1186339E+00
        -11   -1    0    0    0    0  0.00000000000E+00  0.00000000000E+00  0.45593999997E+02  0.45594000000E+02  0.51100000000E-03 0. -1.
         11   -1    0    0    0    0 -0.00000000000E+00 -0.00000000000E+00 -0.45593999997E+02  0.45594000000E+02  0.51100000000E-03 0.  1.
    9900012    2    1    2    0    0 -0.44241927588E+00 -0.48460526355E+00  0.98085513928E+00  0.90007892428E+02  0.90000155808E+02 0.  0.
        -12    1    1    2    0    0  0.44241927588E+00  0.48460526355E+00 -0.98085513928E+00  0.11801075720E+01  0.00000000000E+00 0.  1.
         11    1    3    3    0    0  0.10766947785E+02 -0.33049567433E+02  0.17196878417E+02  0.38780584055E+02  0.51100000000E-03 0. -1.
        -11    1    3    3    0    0  0.77810359982E+01 -0.25778890048E+01 -0.54935639770E+01  0.98675872612E+01  0.51100000000E-03 0.  1.
        -12    1    3    3    0    0 -0.18990403059E+02  0.35142851174E+02 -0.10722459301E+02  0.41359721112E+02  0.00000000000E+00 0.  1.
</event>
<event>
 7    1  0.2429906E-015  0.9000770E+02  0.7816164E-02  0.1186339E+00
        -11   -1    0    0    0    0  0.00000000000E+00  0.00000000000E+00  0.45593999997E+02  0.45594000000E+02  0.51100000000E-03 0.  1.
         11   -1    0    0    0    0 -0.00000000000E+00 -0.00000000000E+00 -0.45593999997E+02  0.45594000000E+02  0.51100000000E-03 0. -1.
    9900012    2    1    2    0    0 -0.13189645758E+00 -0.70241880460E+00 -0.93932076101E+00  0.90007698198E+02  0.89999959014E+02 0.  0.
        -12    1    1    2    0    0  0.13189645758E+00  0.70241880460E+00  0.93932076101E+00  0.11803018024E+01  0.00000000000E+00 0.  1.
         11    1    3    3    0    0  0.21968467872E+02  0.34274840104E+01 -0.16633766009E+02  0.27767668234E+02  0.51100000000E-03 0. -1.
        -11    1    3    3    0    0  0.15753270336E+02 -0.43765640284E+01 -0.73466774630E+01  0.17924662032E+02  0.51100000000E-03 0.  1.
        -12    1    3    3    0    0 -0.37853634665E+02  0.24666121341E+00  0.23041122710E+02  0.44315367931E+02  0.00000000000E+00 0.  1.
</event>
<event>
 7    1  0.2429906E-015  0.9000777E+02  0.7816164E-02  0.1186339E+00
        -11   -1    0    0    0    0  0.00000000000E+00  0.00000000000E+00  0.45593999997E+02  0.45594000000E+02  0.51100000000E-03 0.  1.
         11   -1    0    0    0    0 -0.00000000000E+00 -0.00000000000E+00 -0.45593999997E+02  0.45594000000E+02  0.51100000000E-03 0. -1.
    9900012    2    1    2    0    0 -0.41584567868E+00  0.34009815326E+00 -0.10508814020E+01  0.90007768623E+02  0.90000030369E+02 0.  0.
        -12    1    1    2    0    0  0.41584567868E+00 -0.34009815326E+00  0.10508814020E+01  0.11802313771E+01  0.00000000000E+00 0.  1.
         11    1    3    3    0    0  0.86071480626E+01 -0.36914371257E+01 -0.64902204171E+00  0.93878078217E+01  0.51100000000E-03 0. -1.
        -11    1    3    3    0    0  0.10632113194E+02 -0.23769522304E+02  0.26556257755E+02  0.37192295543E+02  0.51100000000E-03 0.  1.
         12    1    3    3    0    0 -0.19655106935E+02  0.27801057583E+02 -0.26958117115E+02  0.43427665258E+02  0.00000000000E+00 0. -1.
</event>
<event>
 7    1  0.2429906E-015  0.9000775E+02  0.7816164E-02  0.1186339E+00
        -11   -1    0    0    0    0  0.00000000000E+00  0.00000000000E+00  0.45593999997E+02  0.45594000000E+02  0.51100000000E-03 0.  1.
         11   -1    0    0    0    0 -0.00000000000E+00 -0.00000000000E+00 -0.45593999997E+02  0.45594000000E+02  0.51100000000E-03 0. -1.
    9900012    2    1    2    0    0  0.53128143814E+00 -0.10536649237E+01  0.22721119271E-01  0.90007751726E+02  0.90000013249E+02 0.  0.
        -12    1    1    2    0    0 -0.53128143814E+00  0.10536649237E+01 -0.22721119271E-01  0.11802482736E+01  0.00000000000E+00 0.  1.
         11    1    3    3    0    0  0.14719921485E+02 -0.19977361269E+02 -0.33407599784E+02  0.41615367058E+02  0.51100000000E-03 0. -1.
        -11    1    3    3    0    0  0.54802947480E+01 -0.23295435774E+00  0.48588537921E+00  0.55067216310E+01  0.51100000000E-03 0.  1.
        -12    1    3    3    0    0 -0.19668934795E+02  0.19156650703E+02  0.32944435524E+02  0.42885663037E+02  0.00000000000E+00 0.  1.
</event>
<event>
 7    1  0.2429906E-015  0.9000777E+02  0.7816164E-02  0.1186339E+00
        -11   -1    0    0    0    0  0.00000000000E+00  0.00000000000E+00  0.45593999997E+02  0.45594000000E+02  0.51100000000E-03 0. -1.
         11   -1    0    0    0    0 -0.00000000000E+00 -0.00000000000E+00 -0.45593999997E+02  0.45594000000E+02  0.51100000000E-03 0.  1.
    9900012    2    1    2    0    0 -0.79818819651E+00 -0.54492039491E+00  0.67742477641E+00  0.90007768259E+02  0.90000030000E+02 0.  0.
        -12    1    1    2    0    0  0.79818819651E+00  0.54492039491E+00 -0.67742477641E+00  0.11802317406E+01  0.00000000000E+00 0.  1.
         11    1    3    3    0    0 -0.31877919589E+02 -0.13204997956E+02  0.25867506403E+02  0.43124257861E+02  0.51100000000E-03 0. -1.
        -11    1    3    3    0    0  0.48143330253E+01  0.73417910568E+01  0.16747722758E+01  0.89378163349E+01  0.51100000000E-03 0.  1.
        -12    1    3    3    0    0  0.26265398367E+02  0.53182865043E+01 -0.26864853902E+02  0.37945694063E+02  0.00000000000E+00 0.  1.
</event>
<event>
 7    1  0.2429906E-015  0.9000773E+02  0.7816164E-02  0.1186339E+00
        -11   -1    0    0    0    0  0.00000000000E+00  0.00000000000E+00  0.45593999997E+02  0.45594000000E+02  0.51100000000E-03 0.  1.
         11   -1    0    0    0    0 -0.00000000000E+00 -0.00000000000E+00 -0.45593999997E+02  0.45594000000E+02  0.51100000000E-03 0. -1.
    9900012    2    1    2    0    0 -0.88399057424E+00  0.12933311369E+00  0.77128173102E+00  0.90007728041E+02  0.89999989251E+02 0.  0.
        -12    1    1    2    0    0  0.88399057424E+00 -0.12933311369E+00 -0.77128173102E+00  0.11802719594E+01  0.00000000000E+00 0.  1.
         11    1    3    3    0    0  0.39281220045E+02 -0.44954256995E+01 -0.38671366089E+01  0.39726286590E+02  0.51100000000E-03 0. -1.
        -11    1    3    3    0    0 -0.24405023981E+01 -0.91894466095E+01  0.33680782352E+01  0.10086918866E+02  0.51100000000E-03 0.  1.
        -12    1    3    3    0    0 -0.37724708221E+02  0.13814205423E+02  0.12703401048E+01  0.40194522585E+02  0.00000000000E+00 0.  1.
</event>
<event>
 7    1  0.2429906E-015  0.9000774E+02  0.7816164E-02  0.1186339E+00
        -11   -1    0    0    0    0  0.00000000000E+00  0.00000000000E+00  0.45593999997E+02  0.45594000000E+02  0.51100000000E-03 0.  1.
         11   -1    0    0    0    0 -0.00000000000E+00 -0.00000000000E+00 -0.45593999997E+02  0.45594000000E+02  0.51100000000E-03 0. -1.
    9900012    2    1    2    0    0 -0.77699799059E+00  0.88819572167E+00  0.20077336701E-01  0.90007737056E+02  0.89999998385E+02 0.  0.
        -12    1    1    2    0    0  0.77699799059E+00 -0.88819572167E+00 -0.20077336701E-01  0.11802629439E+01  0.00000000000E+00 0.  1.
         11    1    3    3    0    0  0.64944710077E+01  0.16535846573E+01  0.65798644292E+01  0.93918641417E+01  0.51100000000E-03 0. -1.
        -11    1    3    3    0    0  0.14283064275E+02 -0.49732350375E+01  0.32476797784E+02  0.35825708456E+02  0.51100000000E-03 0.  1.
         12    1    3    3    0    0 -0.21554533273E+02  0.42078461019E+01 -0.39036584876E+02  0.44790164459E+02  0.00000000000E+00 0. -1.
</event>
<event>
 7    1  0.2429906E-015  0.9000779E+02  0.7816164E-02  0.1186339E+00
        -11   -1    0    0    0    0  0.00000000000E+00  0.00000000000E+00  0.45593999997E+02  0.45594000000E+02  0.51100000000E-03 0.  1.
         11   -1    0    0    0    0 -0.00000000000E+00 -0.00000000000E+00 -0.45593999997E+02  0.45594000000E+02  0.51100000000E-03 0. -1.
    9900012    2    1    2    0    0 -0.22513957580E+00  0.83711609271E+00  0.80090612822E+00  0.90007787389E+02  0.90000049382E+02 0.  0.
        -12    1    1    2    0    0  0.22513957580E+00 -0.83711609271E+00 -0.80090612822E+00  0.11802126111E+01  0.00000000000E+00 0.  1.
         11    1    3    3    0    0 -0.34850947037E+02 -0.18800199059E+02 -0.13005135000E+01  0.39619784573E+02  0.51100000000E-03 0. -1.
        -11    1    3    3    0    0  0.57356945608E+01 -0.54987518659E+01 -0.74805901135E+01  0.10913005676E+02  0.51100000000E-03 0.  1.
        -12    1    3    3    0    0  0.28890112900E+02  0.25136067017E+02  0.95820097418E+01  0.39474997140E+02  0.00000000000E+00 0.  1.
</event>
<event>
 7    1  0.2429906E-015  0.9000778E+02  0.7816164E-02  0.1186339E+00
        -11   -1    0    0    0    0  0.00000000000E+00  0.00000000000E+00  0.45593999997E+02  0.45594000000E+02  0.51100000000E-03 0. -1.
         11   -1    0    0    0    0 -0.00000000000E+00 -0.00000000000E+00 -0.45593999997E+02  0.45594000000E+02  0.51100000000E-03 0.  1.
    9900012    2    1    2    0    0  0.87190276925E+00 -0.76723908205E+00 -0.20985298577E+00  0.90007784544E+02  0.90000046499E+02 0.  0.
        -12    1    1    2    0    0 -0.87190276925E+00  0.76723908205E+00  0.20985298577E+00  0.11802154565E+01  0.00000000000E+00 0.  1.
         11    1    3    3    0    0  0.23789214213E+02 -0.37728912426E+01 -0.36508462352E+02  0.43738189775E+02  0.51100000000E-03 0. -1.
        -11    1    3    3    0    0  0.21337191647E+01  0.29503992995E+01  0.47202955580E+01  0.59614431069E+01  0.51100000000E-03 0.  1.
        -12    1    3    3    0    0 -0.25051030608E+02  0.55252861043E-01  0.31578313808E+02  0.40308151662E+02  0.00000000000E+00 0.  1.
</event>
<event>
 7    1  0.2986565E-015  0.9000777E+02  0.7816164E-02  0.1186339E+00
        -11   -1    0    0    0    0  0.00000000000E+00  0.00000000000E+00  0.45593999997E+02  0.45594000000E+02  0.51100000000E-03 0. -1.
         11   -1    0    0    0    0 -0.00000000000E+00 -0.00000000000E+00 -0.45593999997E+02  0.45594000000E+02  0.51100000000E-03 0.  1.
    9900012    2    1    2    0    0  0.50409474014E+00 -0.27109638626E-02  0.10671603400E+01  0.90007766952E+02  0.90000028676E+02 0.  0.
        -12    1    1    2    0    0 -0.50409474014E+00  0.27109638626E-02 -0.10671603400E+01  0.11802330480E+01  0.00000000000E+00 0.  1.
         11    1    3    3    0    0  0.23324668698E+02 -0.27845097731E+02  0.11304010887E+02  0.38041691602E+02  0.51100000000E-03 0. -1.
        -11    1    3    3    0    0  0.37337604475E+01  0.11810842757E+01  0.89195525059E+01  0.97413728146E+01  0.51100000000E-03 0.  1.
        -12    1    3    3    0    0 -0.26554334406E+02  0.26661302492E+02 -0.19156403053E+02  0.42224702535E+02  0.00000000000E+00 0.  1.
</event>
<event>
 7    1  0.3033756E-015  0.9000766E+02  0.7816164E-02  0.1186339E+00
        -11   -1    0    0    0    0  0.00000000000E+00  0.00000000000E+00  0.45593999997E+02  0.45594000000E+02  0.51100000000E-03 0. -1.
         11   -1    0    0    0    0 -0.00000000000E+00 -0.00000000000E+00 -0.45593999997E+02  0.45594000000E+02  0.51100000000E-03 0.  1.
    9900012    2    1    2    0    0  0.49546340436E+00 -0.53897374213E+00  0.92586921199E+00  0.90007656627E+02  0.89999916895E+02 0.  0.
        -12    1    1    2    0    0 -0.49546340436E+00  0.53897374213E+00 -0.92586921199E+00  0.11803433727E+01  0.00000000000E+00 0.  1.
         11    1    3    3    0    0 -0.78070498085E+01  0.15906782633E+02  0.37160608648E+02  0.41169000423E+02  0.51100000000E-03 0. -1.
        -11    1    3    3    0    0  0.96265177135E+01  0.19073871409E+01 -0.20638365940E+01  0.10028329409E+02  0.51100000000E-03 0.  1.
        -12    1    3    3    0    0 -0.13240045007E+01 -0.18353143516E+02 -0.34170902842E+02  0.38810326795E+02  0.00000000000E+00 0.  1.
</event>
<event>
 7    1  0.2429906E-015  0.9000776E+02  0.7816164E-02  0.1186339E+00
        -11   -1    0    0    0    0  0.00000000000E+00  0.00000000000E+00  0.45593999997E+02  0.45594000000E+02  0.51100000000E-03 0.  1.
         11   -1    0    0    0    0 -0.00000000000E+00 -0.00000000000E+00 -0.45593999997E+02  0.45594000000E+02  0.51100000000E-03 0. -1.
    9900012    2    1    2    0    0  0.90487121051E-01  0.82093183885E+00 -0.84312093298E+00  0.90007758537E+02  0.90000020150E+02 0.  0.
        -12    1    1    2    0    0 -0.90487121051E-01 -0.82093183885E+00  0.84312093298E+00  0.11802414629E+01  0.00000000000E+00 0.  1.
         11    1    3    3    0    0 -0.68350526159E+01  0.81166249875E+00 -0.54244204888E+01  0.87636224345E+01  0.51100000000E-03 0. -1.
        -11    1    3    3    0    0 -0.23981721476E+02  0.18304835128E+02 -0.21337387349E+02  0.36952321350E+02  0.51100000000E-03 0.  1.
         12    1    3    3    0    0  0.30907261213E+02 -0.18295565788E+02  0.25918686905E+02  0.44291814752E+02  0.00000000000E+00 0. -1.
</event>
<event>
 7    1  0.2429906E-015  0.9000772E+02  0.7816164E-02  0.1186339E+00
        -11   -1    0    0    0    0  0.00000000000E+00  0.00000000000E+00  0.45593999997E+02  0.45594000000E+02  0.51100000000E-03 0.  1.
         11   -1    0    0    0    0 -0.00000000000E+00 -0.00000000000E+00 -0.45593999997E+02  0.45594000000E+02  0.51100000000E-03 0. -1.
    9900012    2    1    2    0    0  0.93687424118E+00  0.50449341945E+00 -0.51070478347E+00  0.90007717691E+02  0.89999978764E+02 0.  0.
        -12    1    1    2    0    0 -0.93687424118E+00 -0.50449341945E+00  0.51070478347E+00  0.11802823094E+01  0.00000000000E+00 0.  1.
         11    1    3    3    0    0  0.19820198529E+01  0.26401375320E+01  0.90332546535E+01  0.96176098268E+01  0.51100000000E-03 0. -1.
        -11    1    3    3    0    0  0.10882319356E+01  0.11502449032E+02  0.33368470437E+02  0.35312114097E+02  0.51100000000E-03 0.  1.
         12    1    3    3    0    0 -0.21333775474E+01 -0.13638093144E+02 -0.42912429873E+02  0.45077993767E+02  0.00000000000E+00 0. -1.
</event>
<event>
 7    1  0.2429906E-015  0.9000770E+02  0.7816164E-02  0.1186339E+00
        -11   -1    0    0    0    0  0.00000000000E+00  0.00000000000E+00  0.45593999997E+02  0.45594000000E+02  0.51100000000E-03 0. -1.
         11   -1    0    0    0    0 -0.00000000000E+00 -0.00000000000E+00 -0.45593999997E+02  0.45594000000E+02  0.51100000000E-03 0.  1.
    9900012    2    1    2    0    0  0.16761393045E+00  0.10365501699E+01 -0.53904270953E+00  0.90007704390E+02  0.89999965288E+02 0.  0.
        -12    1    1    2    0    0 -0.16761393045E+00 -0.10365501699E+01  0.53904270953E+00  0.11802956100E+01  0.00000000000E+00 0.  1.
         11    1    3    3    0    0 -0.24566707283E+02  0.28493928705E+02 -0.12631197808E+02  0.39685945095E+02  0.51100000000E-03 0. -1.
        -11    1    3    3    0    0 -0.18984390477E+00 -0.68171767542E+01 -0.92975863744E+01  0.11530613698E+02  0.51100000000E-03 0.  1.
        -12    1    3    3    0    0  0.24924165119E+02 -0.20640201781E+02  0.21389741473E+02  0.38791145597E+02  0.00000000000E+00 0.  1.
</event>
<event>
 7    1  0.2429906E-015  0.9000775E+02  0.7816164E-02  0.1186339E+00
        -11   -1    0    0    0    0  0.00000000000E+00  0.00000000000E+00  0.45593999997E+02  0.45594000000E+02  0.51100000000E-03 0. -1.
         11   -1    0    0    0    0 -0.00000000000E+00 -0.00000000000E+00 -0.45593999997E+02  0.45594000000E+02  0.51100000000E-03 0.  1.
    9900012    2    1    2    0    0  0.35461979697E+00  0.11164771501E+01 -0.14390651793E+00  0.90007751927E+02  0.90000013453E+02 0.  0.
        -12    1    1    2    0    0 -0.35461979697E+00 -0.11164771501E+01  0.14390651793E+00  0.11802480727E+01  0.00000000000E+00 0.  1.
         11    1    3    3    0    0 -0.51420028087E+01  0.20922772595E+00  0.85611591157E+01  0.99888645397E+01  0.51100000000E-03 0. -1.
        -11    1    3    3    0    0 -0.32858218461E+02 -0.17236055643E+02 -0.34331308768E+01  0.37262991325E+02  0.51100000000E-03 0.  1.
         12    1    3    3    0    0  0.38354841067E+02  0.18143305068E+02 -0.52719347569E+01  0.42755896063E+02  0.00000000000E+00 0. -1.
</event>
<event>
 7    1  0.2429906E-015  0.9000776E+02  0.7816164E-02  0.1186339E+00
        -11   -1    0    0    0    0  0.00000000000E+00  0.00000000000E+00  0.45593999997E+02  0.45594000000E+02  0.51100000000E-03 0.  1.
         11   -1    0    0    0    0 -0.00000000000E+00 -0.00000000000E+00 -0.45593999997E+02  0.45594000000E+02  0.51100000000E-03 0. -1.
    9900012    2    1    2    0    0  0.95183508728E+00  0.69277100319E+00 -0.83960493482E-01  0.90007758050E+02  0.90000019656E+02 0.  0.
        -12    1    1    2    0    0 -0.95183508728E+00 -0.69277100319E+00  0.83960493482E-01  0.11802419501E+01  0.00000000000E+00 0.  1.
         11    1    3    3    0    0 -0.30680165232E+01 -0.18605081198E+02  0.25072765483E+02  0.31372047128E+02  0.51100000000E-03 0.  1.
        -11    1    3    3    0    0  0.25765069247E+02  0.61120148163E+01 -0.70036453875E+01  0.27390629189E+02  0.51100000000E-03 0. -1.
         12    1    3    3    0    0 -0.21745217636E+02  0.13185837385E+02 -0.18153080589E+02  0.31245081733E+02  0.00000000000E+00 0. -1.
</event>
<event>
 7    1  0.2429906E-015  0.9000777E+02  0.7816164E-02  0.1186339E+00
        -11   -1    0    0    0    0  0.00000000000E+00  0.00000000000E+00  0.45593999997E+02  0.45594000000E+02  0.51100000000E-03 0.  1.
         11   -1    0    0    0    0 -0.00000000000E+00 -0.00000000000E+00 -0.45593999997E+02  0.45594000000E+02  0.51100000000E-03 0. -1.
    9900012    2    1    2    0    0 -0.82840240638E+00 -0.19840198136E+00 -0.81690385504E+00  0.90007768751E+02  0.90000030498E+02 0.  0.
        -12    1    1    2    0    0  0.82840240638E+00  0.19840198136E+00  0.81690385504E+00  0.11802312492E+01  0.00000000000E+00 0.  1.
         11    1    3    3    0    0  0.18414120037E+02  0.14578059115E+02 -0.28812154530E+02  0.37171761772E+02  0.51100000000E-03 0. -1.
        -11    1    3    3    0    0  0.22961504546E+01  0.33288964825E+01 -0.69072921125E+01  0.80040329391E+01  0.51100000000E-03 0.  1.
        -12    1    3    3    0    0 -0.21538672898E+02 -0.18105357579E+02  0.34902542787E+02  0.44831974040E+02  0.00000000000E+00 0.  1.
</event>
<event>
 7    1  0.2429906E-015  0.9000771E+02  0.7816164E-02  0.1186339E+00
        -11   -1    0    0    0    0  0.00000000000E+00  0.00000000000E+00  0.45593999997E+02  0.45594000000E+02  0.51100000000E-03 0.  1.
         11   -1    0    0    0    0 -0.00000000000E+00 -0.00000000000E+00 -0.45593999997E+02  0.45594000000E+02  0.51100000000E-03 0. -1.
    9900012    2    1    2    0    0 -0.86364401491E+00  0.36567019904E+00 -0.71658515047E+00  0.90007707682E+02  0.89999968623E+02 0.  0.
        -12    1    1    2    0    0  0.86364401491E+00 -0.36567019904E+00  0.71658515047E+00  0.11802923184E+01  0.00000000000E+00 0.  1.
         11    1    3    3    0    0  0.31314112416E+01  0.25495149669E+02 -0.24957827299E+02  0.35814822864E+02  0.51100000000E-03 0. -1.
        -11    1    3    3    0    0 -0.99216615444E+00  0.64517856096E+01 -0.70678214229E+01  0.96210202763E+01  0.51100000000E-03 0.  1.
        -12    1    3    3    0    0 -0.30028891020E+01 -0.31581265080E+02  0.31309063571E+02  0.44571864542E+02  0.00000000000E+00 0.  1.
</event>
<event>
 7    1  0.2429906E-015  0.9000750E+02  0.7816164E-02  0.1186340E+00
        -11   -1    0    0    0    0  0.00000000000E+00  0.00000000000E+00  0.45593999997E+02  0.45594000000E+02  0.51100000000E-03 0.  1.
         11   -1    0    0    0    0 -0.00000000000E+00 -0.00000000000E+00 -0.45593999997E+02  0.45594000000E+02  0.51100000000E-03 0. -1.
    9900012    2    1    2    0    0  0.72436629014E+00  0.75446106021E+00 -0.54741138176E+00  0.90007501277E+02  0.89999759494E+02 0.  0.
        -12    1    1    2    0    0 -0.72436629014E+00 -0.75446106021E+00  0.54741138176E+00  0.11804987228E+01  0.00000000000E+00 0.  1.
         11    1    3    3    0    0 -0.12922364002E+02  0.11834139342E+01 -0.35952075165E+02  0.38222240501E+02  0.51100000000E-03 0. -1.
        -11    1    3    3    0    0 -0.10796174304E+02 -0.40814880595E+01  0.49350925672E+01  0.12552731308E+02  0.51100000000E-03 0.  1.
        -12    1    3    3    0    0  0.24442904596E+02  0.36525351855E+01  0.30469571216E+02  0.39232529468E+02  0.00000000000E+00 0.  1.
</event>
<event>
 7    1  0.2429906E-015  0.9000776E+02  0.7816164E-02  0.1186339E+00
        -11   -1    0    0    0    0  0.00000000000E+00  0.00000000000E+00  0.45593999997E+02  0.45594000000E+02  0.51100000000E-03 0. -1.
         11   -1    0    0    0    0 -0.00000000000E+00 -0.00000000000E+00 -0.45593999997E+02  0.45594000000E+02  0.51100000000E-03 0.  1.
    9900012    2    1    2    0    0  0.10327604772E+01  0.56446019879E+00 -0.88071582548E-01  0.90007760142E+02  0.90000021776E+02 0.  0.
        -12    1    1    2    0    0 -0.10327604772E+01 -0.56446019879E+00  0.88071582548E-01  0.11802398582E+01  0.00000000000E+00 0.  1.
         11    1    3    3    0    0  0.32275316494E+01  0.87617517797E+01 -0.10465572871E+01  0.93957723054E+01  0.51100000000E-03 0. -1.
        -11    1    3    3    0    0  0.97596910273E+01  0.76738053843E+01 -0.36312049069E+02  0.38375822674E+02  0.51100000000E-03 0.  1.
         12    1    3    3    0    0 -0.11954462200E+02 -0.15871096965E+02  0.37270534774E+02  0.42236165163E+02  0.00000000000E+00 0. -1.
</event>
<event>
 7    1  0.2429906E-015  0.9000808E+02  0.7816164E-02  0.1186338E+00
        -11   -1    0    0    0    0  0.00000000000E+00  0.00000000000E+00  0.45593999997E+02  0.45594000000E+02  0.51100000000E-03 0.  1.
         11   -1    0    0    0    0 -0.00000000000E+00 -0.00000000000E+00 -0.45593999997E+02  0.45594000000E+02  0.51100000000E-03 0. -1.
    9900012    2    1    2    0    0 -0.78854780023E+00  0.41089114145E+00 -0.77561299070E+00  0.90008078530E+02  0.90000344366E+02 0.  0.
        -12    1    1    2    0    0  0.78854780023E+00 -0.41089114145E+00  0.77561299070E+00  0.11799214697E+01  0.00000000000E+00 0.  1.
         11    1    3    3    0    0 -0.53723729285E+01  0.12048410020E+01 -0.65477633443E+01  0.85549539915E+01  0.51100000000E-03 0. -1.
        -11    1    3    3    0    0  0.28877493522E+02  0.30847228011E+01 -0.27552065603E+02  0.40031755721E+02  0.51100000000E-03 0.  1.
         12    1    3    3    0    0 -0.24293668393E+02 -0.38786726617E+01  0.33324215957E+02  0.41421368818E+02  0.00000000000E+00 0. -1.
</event>
<event>
 7    1  0.2429906E-015  0.9000768E+02  0.7816164E-02  0.1186339E+00
        -11   -1    0    0    0    0  0.00000000000E+00  0.00000000000E+00  0.45593999997E+02  0.45594000000E+02  0.51100000000E-03 0.  1.
         11   -1    0    0    0    0 -0.00000000000E+00 -0.00000000000E+00 -0.45593999997E+02  0.45594000000E+02  0.51100000000E-03 0. -1.
    9900012    2    1    2    0    0  0.46125012535E-01  0.74016569671E+00 -0.91824406495E+00  0.90007684390E+02  0.89999945024E+02 0.  0.
        -12    1    1    2    0    0 -0.46125012535E-01 -0.74016569671E+00  0.91824406495E+00  0.11803156096E+01  0.00000000000E+00 0.  1.
         11    1    3    3    0    0 -0.51800171904E+01  0.45645597521E+01 -0.55257268476E+01  0.88431578793E+01  0.51100000000E-03 0. -1.
        -11    1    3    3    0    0 -0.14810689653E+02 -0.38227339206E+02 -0.68411983804E+00  0.41001878140E+02  0.51100000000E-03 0.  1.
         12    1    3    3    0    0  0.20036831856E+02  0.34402945151E+02  0.52916026207E+01  0.40162648371E+02  0.00000000000E+00 0. -1.
</event>
<event>
 7    1  0.2429906E-015  0.9000766E+02  0.7816164E-02  0.1186339E+00
        -11   -1    0    0    0    0  0.00000000000E+00  0.00000000000E+00  0.45593999997E+02  0.45594000000E+02  0.51100000000E-03 0.  1.
         11   -1    0    0    0    0 -0.00000000000E+00 -0.00000000000E+00 -0.45593999997E+02  0.45594000000E+02  0.51100000000E-03 0. -1.
    9900012    2    1    2    0    0  0.16007929453E+00  0.93634352019E+00  0.70060289194E+00  0.90007657261E+02  0.89999917537E+02 0.  0.
        -12    1    1    2    0    0 -0.16007929453E+00 -0.93634352019E+00 -0.70060289194E+00  0.11803427386E+01  0.00000000000E+00 0.  1.
         11    1    3    3    0    0  0.89987667053E+01  0.28101358848E+02  0.12755787504E+02  0.32146139526E+02  0.51100000000E-03 0. -1.
        -11    1    3    3    0    0 -0.69719879825E+01  0.82833066079E+01  0.11079149772E+02  0.15490943958E+02  0.51100000000E-03 0.  1.
        -12    1    3    3    0    0 -0.18666994283E+01 -0.35448321936E+02 -0.23134334384E+02  0.42370573777E+02  0.00000000000E+00 0.  1.
</event>
<event>
 7    1  0.2429906E-015  0.9000778E+02  0.7816164E-02  0.1186339E+00
        -11   -1    0    0    0    0  0.00000000000E+00  0.00000000000E+00  0.45593999997E+02  0.45594000000E+02  0.51100000000E-03 0. -1.
         11   -1    0    0    0    0 -0.00000000000E+00 -0.00000000000E+00 -0.45593999997E+02  0.45594000000E+02  0.51100000000E-03 0.  1.
    9900012    2    1    2    0    0  0.53018114547E+00 -0.26484012073E+00  0.10206323877E+01  0.90007778492E+02  0.90000040368E+02 0.  0.
        -12    1    1    2    0    0 -0.53018114547E+00  0.26484012073E+00 -0.10206323877E+01  0.11802215078E+01  0.00000000000E+00 0.  1.
         11    1    3    3    0    0  0.85778121420E+01  0.98552261980E+01  0.45024623180E-01  0.13065464861E+02  0.51100000000E-03 0. -1.
        -11    1    3    3    0    0  0.31356204961E+02  0.32308007302E+01  0.12280017029E+02  0.33829698216E+02  0.51100000000E-03 0.  1.
         12    1    3    3    0    0 -0.39403835957E+02 -0.13350867049E+02 -0.11304409264E+02  0.43112615415E+02  0.00000000000E+00 0. -1.
</event>
<event>
 7    1  0.2429906E-015  0.9000749E+02  0.7816164E-02  0.1186340E+00
        -11   -1    0    0    0    0  0.00000000000E+00  0.00000000000E+00  0.45593999997E+02  0.45594000000E+02  0.51100000000E-03 0.  1.
         11   -1    0    0    0    0 -0.00000000000E+00 -0.00000000000E+00 -0.45593999997E+02  0.45594000000E+02  0.51100000000E-03 0. -1.
    9900012    2    1    2    0    0 -0.90469007165E+00  0.11488177999E-01 -0.75829249121E+00  0.90007490108E+02  0.89999748177E+02 0.  0.
        -12    1    1    2    0    0  0.90469007165E+00 -0.11488177999E-01  0.75829249121E+00  0.11805098925E+01  0.00000000000E+00 0.  1.
         11    1    3    3    0    0 -0.72529968875E+01  0.62168921147E+01 -0.14613461192E+01  0.96639145359E+01  0.51100000000E-03 0. -1.
        -11    1    3    3    0    0  0.13122017459E+02  0.21848532443E+02  0.29901513360E+02  0.39289263338E+02  0.51100000000E-03 0.  1.
         12    1    3    3    0    0 -0.67737106428E+01 -0.28053936380E+02 -0.29198459732E+02  0.41054312234E+02  0.00000000000E+00 0. -1.
</event>
<event>
 7    1  0.2429906E-015  0.9000769E+02  0.7816164E-02  0.1186339E+00
        -11   -1    0    0    0    0  0.00000000000E+00  0.00000000000E+00  0.45593999997E+02  0.45594000000E+02  0.51100000000E-03 0. -1.
         11   -1    0    0    0    0 -0.00000000000E+00 -0.00000000000E+00 -0.45593999997E+02  0.45594000000E+02  0.51100000000E-03 0.  1.
    9900012    2    1    2    0    0  0.87214101150E+00  0.59964242846E+00  0.52241650802E+00  0.90007694957E+02  0.89999955731E+02 0.  0.
        -12    1    1    2    0    0 -0.87214101150E+00 -0.59964242846E+00 -0.52241650802E+00  0.11803050427E+01  0.00000000000E+00 0.  1.
         11    1    3    3    0    0 -0.80421513394E+00  0.65951492234E+00 -0.71667443906E+01  0.72418193388E+01  0.51100000000E-03 0. -1.
        -11    1    3    3    0    0 -0.92279168644E+01  0.88985750250E+01 -0.35280913390E+02  0.37537740169E+02  0.51100000000E-03 0.  1.
         12    1    3    3    0    0  0.10904273010E+02 -0.89584475188E+01  0.42970074289E+02  0.45228135449E+02  0.00000000000E+00 0. -1.
</event>
<event>
 7    1  0.2429906E-015  0.9000783E+02  0.7816164E-02  0.1186339E+00
        -11   -1    0    0    0    0  0.00000000000E+00  0.00000000000E+00  0.45593999997E+02  0.45594000000E+02  0.51100000000E-03 0.  1.
         11   -1    0    0    0    0 -0.00000000000E+00 -0.00000000000E+00 -0.45593999997E+02  0.45594000000E+02  0.51100000000E-03 0. -1.
    9900012    2    1    2    0    0 -0.45914115441E+00 -0.10860060667E+01 -0.50811438624E-01  0.90007829852E+02  0.90000092406E+02 0.  0.
        -12    1    1    2    0    0  0.45914115441E+00  0.10860060667E+01  0.50811438624E-01  0.11801701482E+01  0.00000000000E+00 0.  1.
         11    1    3    3    0    0 -0.13894058425E+02 -0.25533537578E+02 -0.30305461875E+02  0.41993183024E+02  0.51100000000E-03 0. -1.
        -11    1    3    3    0    0  0.85495733189E+01  0.13278387217E+01 -0.11334249656E+01  0.87259963339E+01  0.51100000000E-03 0.  1.
        -12    1    3    3    0    0  0.48853439513E+01  0.23119692789E+02  0.31388075402E+02  0.39288650494E+02  0.00000000000E+00 0.  1.
</event>
<event>
 7    1  0.2429906E-015  0.9000784E+02  0.7816164E-02  0.1186339E+00
        -11   -1    0    0    0    0  0.00000000000E+00  0.00000000000E+00  0.45593999997E+02  0.45594000000E+02  0.51100000000E-03 0. -1.
         11   -1    0    0    0    0 -0.00000000000E+00 -0.00000000000E+00 -0.45593999997E+02  0.45594000000E+02  0.51100000000E-03 0.  1.
    9900012    2    1    2    0    0  0.56857347514E+00 -0.45391999805E+00  0.92923021665E+00  0.90007835623E+02  0.90000098253E+02 0.  0.
        -12    1    1    2    0    0 -0.56857347514E+00  0.45391999805E+00 -0.92923021665E+00  0.11801643770E+01  0.00000000000E+00 0.  1.
         11    1    3    3    0    0 -0.18502660138E+02 -0.31110497484E+02  0.15568171639E+02  0.39402784855E+02  0.51100000000E-03 0. -1.
        -11    1    3    3    0    0 -0.79183435479E+01  0.20837236849E+01  0.11097721097E+01  0.82627878669E+01  0.51100000000E-03 0.  1.
        -12    1    3    3    0    0  0.26989577161E+02  0.28572853801E+02 -0.15748713532E+02  0.42342262901E+02  0.00000000000E+00 0.  1.
</event>
<event>
 7    1  0.2429906E-015  0.9000775E+02  0.7816164E-02  0.1186339E+00
        -11   -1    0    0    0    0  0.00000000000E+00  0.00000000000E+00  0.45593999997E+02  0.45594000000E+02  0.51100000000E-03 0.  1.
         11   -1    0    0    0    0 -0.00000000000E+00 -0.00000000000E+00 -0.45593999997E+02  0.45594000000E+02  0.51100000000E-03 0. -1.
    9900012    2    1    2    0    0  0.32914305764E+00 -0.95516816111E+00 -0.61017238569E+00  0.90007749303E+02  0.90000010793E+02 0.  0.
        -12    1    1    2    0    0 -0.32914305764E+00  0.95516816111E+00  0.61017238569E+00  0.11802506974E+01  0.00000000000E+00 0.  1.
         11    1    3    3    0    0  0.26719667395E+02  0.29756385912E+01 -0.23274477296E+02  0.35559757373E+02  0.51100000000E-03 0. -1.
        -11    1    3    3    0    0  0.80805239398E+01  0.53361436708E+01 -0.33856821483E+01  0.10258271798E+02  0.51100000000E-03 0.  1.
        -12    1    3    3    0    0 -0.34471048278E+02 -0.92669504231E+01  0.26049987059E+02  0.44189720131E+02  0.00000000000E+00 0.  1.
</event>
<event>
 7    1  0.2429906E-015  0.9000786E+02  0.7816164E-02  0.1186339E+00
        -11   -1    0    0    0    0  0.00000000000E+00  0.00000000000E+00  0.45593999997E+02  0.45594000000E+02  0.51100000000E-03 0.  1.
         11   -1    0    0    0    0 -0.00000000000E+00 -0.00000000000E+00 -0.45593999997E+02  0.45594000000E+02  0.51100000000E-03 0. -1.
    9900012    2    1    2    0    0 -0.66988876332E+00 -0.22135301333E+00 -0.94603518829E+00  0.90007859886E+02  0.90000122836E+02 0.  0.
        -12    1    1    2    0    0  0.66988876332E+00  0.22135301333E+00  0.94603518829E+00  0.11801401142E+01  0.00000000000E+00 0.  1.
         11    1    3    3    0    0 -0.57302706121E+01  0.84313752152E+01  0.14503558035E+01  0.10296971473E+02  0.51100000000E-03 0. -1.
        -11    1    3    3    0    0 -0.24777281427E+02 -0.17589033731E+02  0.24128049614E+02  0.38800136094E+02  0.51100000000E-03 0.  1.
         12    1    3    3    0    0  0.29837663275E+02  0.89363055026E+01 -0.26524440606E+02  0.40910752318E+02  0.00000000000E+00 0. -1.
</event>
<event>
 7    1  0.2429906E-015  0.9000772E+02  0.7816164E-02  0.1186339E+00
        -11   -1    0    0    0    0  0.00000000000E+00  0.00000000000E+00  0.45593999997E+02  0.45594000000E+02  0.51100000000E-03 0.  1.
         11   -1    0    0    0    0 -0.00000000000E+00 -0.00000000000E+00 -0.45593999997E+02  0.45594000000E+02  0.51100000000E-03 0. -1.
    9900012    2    1    2    0    0  0.14539538716E+00 -0.32053189046E+00 -0.11265796718E+01  0.90007719411E+02  0.89999980507E+02 0.  0.
        -12    1    1    2    0    0 -0.14539538716E+00  0.32053189046E+00  0.11265796718E+01  0.11802805888E+01  0.00000000000E+00 0.  1.
         11    1    3    3    0    0 -0.33107418038E+01 -0.31268736270E+01  0.65727940425E+01  0.79962473547E+01  0.51100000000E-03 0. -1.
        -11    1    3    3    0    0 -0.55268505331E+01 -0.23114542127E+02  0.28168602831E+02  0.36855098972E+02  0.51100000000E-03 0.  1.
         12    1    3    3    0    0  0.89829877240E+01  0.25920883863E+02 -0.35867976545E+02  0.45156373084E+02  0.00000000000E+00 0. -1.
</event>
<event>
 7    1  0.2429906E-015  0.9000777E+02  0.7816164E-02  0.1186339E+00
        -11   -1    0    0    0    0  0.00000000000E+00  0.00000000000E+00  0.45593999997E+02  0.45594000000E+02  0.51100000000E-03 0.  1.
         11   -1    0    0    0    0 -0.00000000000E+00 -0.00000000000E+00 -0.45593999997E+02  0.45594000000E+02  0.51100000000E-03 0. -1.
    9900012    2    1    2    0    0  0.96834620535E+00  0.26411772135E+00  0.62087358815E+00  0.90007772667E+02  0.90000034467E+02 0.  0.
        -12    1    1    2    0    0 -0.96834620535E+00 -0.26411772135E+00 -0.62087358815E+00  0.11802273326E+01  0.00000000000E+00 0.  1.
         11    1    3    3    0    0 -0.33068024590E+02  0.69891140677E+01 -0.17495099287E+02  0.38058119568E+02  0.51100000000E-03 0. -1.
        -11    1    3    3    0    0  0.33235531707E+01  0.87261220858E+01 -0.49304818714E+01  0.10559396956E+02  0.51100000000E-03 0.  1.
        -12    1    3    3    0    0  0.30712817624E+02 -0.15451118432E+02  0.23046454746E+02  0.41390256143E+02  0.00000000000E+00 0.  1.
</event>
<event>
 7    1  0.2429906E-015  0.9000775E+02  0.7816164E-02  0.1186339E+00
        -11   -1    0    0    0    0  0.00000000000E+00  0.00000000000E+00  0.45593999997E+02  0.45594000000E+02  0.51100000000E-03 0.  1.
         11   -1    0    0    0    0 -0.00000000000E+00 -0.00000000000E+00 -0.45593999997E+02  0.45594000000E+02  0.51100000000E-03 0. -1.
    9900012    2    1    2    0    0 -0.29161472900E+00 -0.95545957237E+00 -0.62853481276E+00  0.90007746572E+02  0.90000008026E+02 0.  0.
        -12    1    1    2    0    0  0.29161472900E+00  0.95545957237E+00  0.62853481276E+00  0.11802534285E+01  0.00000000000E+00 0.  1.
         11    1    3    3    0    0 -0.19503720988E+02  0.35189377420E+01 -0.28244739122E+02  0.34504251094E+02  0.51100000000E-03 0. -1.
        -11    1    3    3    0    0 -0.37310160346E+01  0.53983410211E+01 -0.90252668542E+01  0.11158763752E+02  0.51100000000E-03 0.  1.
        -12    1    3    3    0    0  0.22943122293E+02 -0.98727383355E+01  0.36641471163E+02  0.44344731726E+02  0.00000000000E+00 0.  1.
</event>
<event>
 7    1  0.2429906E-015  0.9000826E+02  0.7816164E-02  0.1186338E+00
        -11   -1    0    0    0    0  0.00000000000E+00  0.00000000000E+00  0.45593999997E+02  0.45594000000E+02  0.51100000000E-03 0. -1.
         11   -1    0    0    0    0 -0.00000000000E+00 -0.00000000000E+00 -0.45593999997E+02  0.45594000000E+02  0.51100000000E-03 0.  1.
    9900012    2    1    2    0    0 -0.10529341624E+01  0.51719536062E+00  0.12498409843E+00  0.90008261717E+02  0.90000529970E+02 0.  0.
        -12    1    1    2    0    0  0.10529341624E+01 -0.51719536062E+00 -0.12498409843E+00  0.11797382829E+01  0.00000000000E+00 0.  1.
         11    1    3    3    0    0  0.29914514821E+01 -0.20691074353E+02  0.17001392403E+02  0.26946552354E+02  0.51100000000E-03 0. -1.
        -11    1    3    3    0    0 -0.17836978792E+02 -0.11554456658E+01  0.13865063471E+02  0.22621513045E+02  0.51100000000E-03 0.  1.
        -12    1    3    3    0    0  0.13792593148E+02  0.22363715380E+02 -0.30741471775E+02  0.40440196318E+02  0.00000000000E+00 0.  1.
</event>
<event>
 7    1  0.2429906E-015  0.9000658E+02  0.7816164E-02  0.1186341E+00
        -11   -1    0    0    0    0  0.00000000000E+00  0.00000000000E+00  0.45593999997E+02  0.45594000000E+02  0.51100000000E-03 0.  1.
         11   -1    0    0    0    0 -0.00000000000E+00 -0.00000000000E+00 -0.45593999997E+02  0.45594000000E+02  0.51100000000E-03 0. -1.
    9900012    2    1    2    0    0  0.10222671506E+01  0.23051003681E+00 -0.54551753194E+00  0.90006579507E+02  0.89998825549E+02 0.  0.
        -12    1    1    2    0    0 -0.10222671506E+01 -0.23051003681E+00  0.54551753194E+00  0.11814204933E+01  0.00000000000E+00 0.  1.
         11    1    3    3    0    0 -0.18033308379E+02  0.26363270355E+02 -0.17064998894E+02  0.36213760125E+02  0.51100000000E-03 0. -1.
        -11    1    3    3    0    0 -0.17125890550E+01  0.93180442442E+01  0.65394800105E+01  0.11511894235E+02  0.51100000000E-03 0.  1.
        -12    1    3    3    0    0  0.20768164585E+02 -0.35450804562E+02  0.99800013511E+01  0.42280925147E+02  0.00000000000E+00 0.  1.
</event>
<event>
 7    1  0.2429906E-015  0.9000777E+02  0.7816164E-02  0.1186339E+00
        -11   -1    0    0    0    0  0.00000000000E+00  0.00000000000E+00  0.45593999997E+02  0.45594000000E+02  0.51100000000E-03 0. -1.
         11   -1    0    0    0    0 -0.00000000000E+00 -0.00000000000E+00 -0.45593999997E+02  0.45594000000E+02  0.51100000000E-03 0.  1.
    9900012    2    1    2    0    0  0.92772531405E+00  0.11188811567E+00  0.72093877887E+00  0.90007768696E+02  0.90000030442E+02 0.  0.
        -12    1    1    2    0    0 -0.92772531405E+00 -0.11188811567E+00 -0.72093877887E+00  0.11802313043E+01  0.00000000000E+00 0.  1.
         11    1    3    3    0    0 -0.35259658043E+01 -0.38439962312E+00  0.91621256174E+01  0.98247007085E+01  0.51100000000E-03 0. -1.
        -11    1    3    3    0    0 -0.20730036921E+02  0.21391700398E+02 -0.28970627401E+02  0.41552816137E+02  0.51100000000E-03 0.  1.
         12    1    3    3    0    0  0.25183728039E+02 -0.20895412659E+02  0.20529440562E+02  0.38630251850E+02  0.00000000000E+00 0. -1.
</event>
<event>
 7    1  0.2429906E-015  0.9000776E+02  0.7816164E-02  0.1186339E+00
        -11   -1    0    0    0    0  0.00000000000E+00  0.00000000000E+00  0.45593999997E+02  0.45594000000E+02  0.51100000000E-03 0. -1.
         11   -1    0    0    0    0 -0.00000000000E+00 -0.00000000000E+00 -0.45593999997E+02  0.45594000000E+02  0.51100000000E-03 0.  1.
    9900012    2    1    2    0    0 -0.35770095339E+00  0.10833850200E+01  0.30216050982E+00  0.90007756785E+02  0.90000018374E+02 0.  0.
        -12    1    1    2    0    0  0.35770095339E+00 -0.10833850200E+01 -0.30216050982E+00  0.11802432153E+01  0.00000000000E+00 0.  1.
         11    1    3    3    0    0 -0.57309249718E+01 -0.29162350565E+00  0.59494191887E+01  0.82658414118E+01  0.51100000000E-03 0. -1.
        -11    1    3    3    0    0  0.59495234999E+01  0.37389359904E+02  0.14416671933E+02  0.40511745134E+02  0.51100000000E-03 0.  1.
         12    1    3    3    0    0 -0.57629948148E+00 -0.36014351378E+02 -0.20063930612E+02  0.41230170239E+02  0.00000000000E+00 0. -1.
</event>
<event>
 7    1  0.2429906E-015  0.9000775E+02  0.7816164E-02  0.1186339E+00
        -11   -1    0    0    0    0  0.00000000000E+00  0.00000000000E+00  0.45593999997E+02  0.45594000000E+02  0.51100000000E-03 0.  1.
         11   -1    0    0    0    0 -0.00000000000E+00 -0.00000000000E+00 -0.45593999997E+02  0.45594000000E+02  0.51100000000E-03 0. -1.
    9900012    2    1    2    0    0 -0.31677950162E+00  0.60164896830E+00 -0.96470720111E+00  0.90007749722E+02  0.90000011219E+02 0.  0.
        -12    1    1    2    0    0  0.31677950162E+00 -0.60164896830E+00  0.96470720111E+00  0.11802502775E+01  0.00000000000E+00 0.  1.
         11    1    3    3    0    0  0.49296749259E+01 -0.31660094930E+02 -0.19521235757E+02  0.37519887414E+02  0.51100000000E-03 0. -1.
        -11    1    3    3    0    0  0.79362354382E+01 -0.47677737726E+01  0.60945694053E+00  0.92783046782E+01  0.51100000000E-03 0.  1.
        -12    1    3    3    0    0 -0.13182689866E+02  0.37029517671E+02  0.17947071615E+02  0.43209557630E+02  0.00000000000E+00 0.  1.
</event>
<event>
 7    1  0.2429906E-015  0.9000767E+02  0.7816164E-02  0.1186339E+00
        -11   -1    0    0    0    0  0.00000000000E+00  0.00000000000E+00  0.45593999997E+02  0.45594000000E+02  0.51100000000E-03 0. -1.
         11   -1    0    0    0    0 -0.00000000000E+00 -0.00000000000E+00 -0.45593999997E+02  0.45594000000E+02  0.51100000000E-03 0.  1.
    9900012    2    1    2    0    0 -0.11394678143E+01 -0.28882671037E+00  0.10658245368E+00  0.90007674796E+02  0.89999935303E+02 0.  0.
        -12    1    1    2    0    0  0.11394678143E+01  0.28882671037E+00 -0.10658245368E+00  0.11803252043E+01  0.00000000000E+00 0.  1.
         11    1    3    3    0    0  0.11380982459E+01 -0.82585404245E+01 -0.56040429530E+01  0.10045101057E+02  0.51100000000E-03 0. -1.
        -11    1    3    3    0    0  0.16566098696E+02  0.12774665995E+02 -0.31594838606E+02  0.37892763743E+02  0.51100000000E-03 0.  1.
         12    1    3    3    0    0 -0.18843664756E+02 -0.48049522811E+01  0.37305464013E+02  0.42069809996E+02  0.00000000000E+00 0. -1.
</event>
<event>
 7    1  0.2429906E-015  0.9000773E+02  0.7816164E-02  0.1186339E+00
        -11   -1    0    0    0    0  0.00000000000E+00  0.00000000000E+00  0.45593999997E+02  0.45594000000E+02  0.51100000000E-03 0. -1.
         11   -1    0    0    0    0 -0.00000000000E+00 -0.00000000000E+00 -0.45593999997E+02  0.45594000000E+02  0.51100000000E-03 0.  1.
    9900012    2    1    2    0    0 -0.10406866244E+01  0.44509859598E+00  0.33450610737E+00  0.90007730647E+02  0.89999991891E+02 0.  0.
        -12    1    1    2    0    0  0.10406866244E+01 -0.44509859598E+00 -0.33450610737E+00  0.11802693533E+01  0.00000000000E+00 0.  1.
         11    1    3    3    0    0  0.58603498293E+01  0.10015415956E+02 -0.23783150733E+01  0.11845194795E+02  0.51100000000E-03 0. -1.
        -11    1    3    3    0    0 -0.32158477301E+02  0.20397417862E+02  0.70586764318E+01  0.38730443207E+02  0.51100000000E-03 0.  1.
         12    1    3    3    0    0  0.25257440848E+02 -0.29967735221E+02 -0.43458552511E+01  0.39432092645E+02  0.00000000000E+00 0. -1.
</event>
<event>
 7    1  0.2824398E-015  0.9000773E+02  0.7816164E-02  0.1186339E+00
        -11   -1    0    0    0    0  0.00000000000E+00  0.00000000000E+00  0.45593999997E+02  0.45594000000E+02  0.51100000000E-03 0. -1.
         11   -1    0    0    0    0 -0.00000000000E+00 -0.00000000000E+00 -0.45593999997E+02  0.45594000000E+02  0.51100000000E-03 0.  1.
    9900012    2    1    2    0    0 -0.25193448540E+00 -0.11524310059E+01  0.38228641635E-01  0.90007733235E+02  0.89999994513E+02 0.  0.
        -12    1    1    2    0    0  0.25193448540E+00  0.11524310059E+01 -0.38228641635E-01  0.11802667653E+01  0.00000000000E+00 0.  1.
         11    1    3    3    0    0 -0.84672416265E+01 -0.29648078668E+02  0.25318616938E+02  0.39896555157E+02  0.51100000000E-03 0. -1.
        -11    1    3    3    0    0 -0.49776516732E+01  0.65732057869E+01  0.56308209218E+01  0.99844977345E+01  0.51100000000E-03 0.  1.
        -12    1    3    3    0    0  0.13192958814E+02  0.21922441876E+02 -0.30911209218E+02  0.40126680343E+02  0.00000000000E+00 0.  1.
</event>
<event>
 7    1  0.5285045E-015  0.9000766E+02  0.7816164E-02  0.1186339E+00
        -11   -1    0    0    0    0  0.00000000000E+00  0.00000000000E+00  0.45593999997E+02  0.45594000000E+02  0.51100000000E-03 0.  1.
         11   -1    0    0    0    0 -0.00000000000E+00 -0.00000000000E+00 -0.45593999997E+02  0.45594000000E+02  0.51100000000E-03 0. -1.
    9900012    2    1    2    0    0  0.10756771503E+01 -0.81508381627E-01  0.47904067734E+00  0.90007658982E+02  0.89999919281E+02 0.  0.
        -12    1    1    2    0    0 -0.10756771503E+01  0.81508381627E-01 -0.47904067734E+00  0.11803410179E+01  0.00000000000E+00 0.  1.
         11    1    3    3    0    0  0.22302939664E+02 -0.22421994659E+02  0.26248423192E+02  0.41099229707E+02  0.51100000000E-03 0. -1.
        -11    1    3    3    0    0  0.19020658262E+01 -0.41276780870E+01 -0.87385663720E+01  0.98497778298E+01  0.51100000000E-03 0.  1.
        -12    1    3    3    0    0 -0.23129328340E+02  0.26468164365E+02 -0.17030816142E+02  0.39058651446E+02  0.00000000000E+00 0.  1.
</event>
<event>
 7    1  0.2429906E-015  0.9000783E+02  0.7816164E-02  0.1186339E+00
        -11   -1    0    0    0    0  0.00000000000E+00  0.00000000000E+00  0.45593999997E+02  0.45594000000E+02  0.51100000000E-03 0. -1.
         11   -1    0    0    0    0 -0.00000000000E+00 -0.00000000000E+00 -0.45593999997E+02  0.45594000000E+02  0.51100000000E-03 0.  1.
    9900012    2    1    2    0    0  0.11790476075E+01  0.41270828783E-01  0.30859198414E-01  0.90007826779E+02  0.90000089292E+02 0.  0.
        -12    1    1    2    0    0 -0.11790476075E+01 -0.41270828783E-01 -0.30859198414E-01  0.11801732212E+01  0.00000000000E+00 0.  1.
         11    1    3    3    0    0  0.63462224037E+01 -0.27758261995E-01 -0.61920104729E+01  0.88665835177E+01  0.51100000000E-03 0. -1.
        -11    1    3    3    0    0  0.15783800965E+02  0.34944650362E+02 -0.56534705985E+01  0.38758466068E+02  0.51100000000E-03 0.  1.
         12    1    3    3    0    0 -0.20950975762E+02 -0.34875621271E+02  0.11876340270E+02  0.42382777193E+02  0.00000000000E+00 0. -1.
</event>
<event>
 7    1  0.2429906E-015  0.9000770E+02  0.7816164E-02  0.1186339E+00
        -11   -1    0    0    0    0  0.00000000000E+00  0.00000000000E+00  0.45593999997E+02  0.45594000000E+02  0.51100000000E-03 0.  1.
         11   -1    0    0    0    0 -0.00000000000E+00 -0.00000000000E+00 -0.45593999997E+02  0.45594000000E+02  0.51100000000E-03 0. -1.
    9900012    2    1    2    0    0 -0.93713779754E+00 -0.86518305243E-01 -0.71231995300E+00  0.90007698181E+02  0.89999958997E+02 0.  0.
        -12    1    1    2    0    0  0.93713779754E+00  0.86518305243E-01  0.71231995300E+00  0.11803018191E+01  0.00000000000E+00 0.  1.
         11    1    3    3    0    0 -0.96595046984E+01 -0.11756262445E+02  0.93551447733E+01  0.17861536095E+02  0.51100000000E-03 0. -1.
        -11    1    3    3    0    0  0.11276317017E+01  0.64310154590E+01  0.30167985883E+02  0.30866436231E+02  0.51100000000E-03 0.  1.
         12    1    3    3    0    0  0.75947351992E+01  0.52387286805E+01 -0.40235450609E+02  0.41279725855E+02  0.00000000000E+00 0. -1.
</event>
<event>
 7    1  0.2429906E-015  0.9000786E+02  0.7816164E-02  0.1186339E+00
        -11   -1    0    0    0    0  0.00000000000E+00  0.00000000000E+00  0.45593999997E+02  0.45594000000E+02  0.51100000000E-03 0.  1.
         11   -1    0    0    0    0 -0.00000000000E+00 -0.00000000000E+00 -0.45593999997E+02  0.45594000000E+02  0.51100000000E-03 0. -1.
    9900012    2    1    2    0    0  0.60243253130E+00  0.76118384636E+00 -0.67112067539E+00  0.90007860702E+02  0.90000123663E+02 0.  0.
        -12    1    1    2    0    0 -0.60243253130E+00 -0.76118384636E+00  0.67112067539E+00  0.11801392984E+01  0.00000000000E+00 0.  1.
         11    1    3    3    0    0 -0.28234425747E+01 -0.40800727428E+02 -0.76752380246E+01  0.41612263405E+02  0.51100000000E-03 0. -1.
        -11    1    3    3    0    0 -0.79874413190E+01  0.68026647183E+01 -0.20884709560E+01  0.10697531364E+02  0.51100000000E-03 0.  1.
        -12    1    3    3    0    0  0.11413316425E+02  0.34759246556E+02  0.90925883052E+01  0.37698065933E+02  0.00000000000E+00 0.  1.
</event>
<event>
 7    1  0.2429906E-015  0.9000769E+02  0.7816164E-02  0.1186339E+00
        -11   -1    0    0    0    0  0.00000000000E+00  0.00000000000E+00  0.45593999997E+02  0.45594000000E+02  0.51100000000E-03 0.  1.
         11   -1    0    0    0    0 -0.00000000000E+00 -0.00000000000E+00 -0.45593999997E+02  0.45594000000E+02  0.51100000000E-03 0. -1.
    9900012    2    1    2    0    0 -0.38839086330E+00  0.10808767439E+01  0.27201309749E+00  0.90007689395E+02  0.89999950095E+02 0.  0.
        -12    1    1    2    0    0  0.38839086330E+00 -0.10808767439E+01 -0.27201309749E+00  0.11803106046E+01  0.00000000000E+00 0.  1.
         11    1    3    3    0    0  0.19648011213E+02 -0.19143558604E+02  0.20402125602E+02  0.34187233144E+02  0.51100000000E-03 0. -1.
        -11    1    3    3    0    0  0.76079727510E+00 -0.81552396548E+01  0.74831859627E+01  0.11094359771E+02  0.51100000000E-03 0.  1.
        -12    1    3    3    0    0 -0.20797199352E+02  0.28379675003E+02 -0.27613298467E+02  0.44726096481E+02  0.00000000000E+00 0.  1.
</event>
<event>
 7    1  0.2429906E-015  0.9000761E+02  0.7816164E-02  0.1186339E+00
        -11   -1    0    0    0    0  0.00000000000E+00  0.00000000000E+00  0.45593999997E+02  0.45594000000E+02  0.51100000000E-03 0. -1.
         11   -1    0    0    0    0 -0.00000000000E+00 -0.00000000000E+00 -0.45593999997E+02  0.45594000000E+02  0.51100000000E-03 0.  1.
    9900012    2    1    2    0    0  0.55958890284E+00 -0.83843708950E+00  0.61416691201E+00  0.90007611297E+02  0.89999870967E+02 0.  0.
        -12    1    1    2    0    0 -0.55958890284E+00  0.83843708950E+00 -0.61416691201E+00  0.11803887025E+01  0.00000000000E+00 0.  1.
         11    1    3    3    0    0  0.27769641127E+02  0.24512713008E+02 -0.14339660567E+02  0.39719666826E+02  0.51100000000E-03 0. -1.
        -11    1    3    3    0    0  0.51957238430E+01 -0.79664153959E+01 -0.21180391825E+01  0.97439935731E+01  0.51100000000E-03 0.  1.
        -12    1    3    3    0    0 -0.32405776067E+02 -0.17384734702E+02  0.17071866661E+02  0.40543950898E+02  0.00000000000E+00 0.  1.
</event>
<event>
 7    1  0.2429906E-015  0.9000778E+02  0.7816164E-02  0.1186339E+00
        -11   -1    0    0    0    0  0.00000000000E+00  0.00000000000E+00  0.45593999997E+02  0.45594000000E+02  0.51100000000E-03 0.  1.
         11   -1    0    0    0    0 -0.00000000000E+00 -0.00000000000E+00 -0.45593999997E+02  0.45594000000E+02  0.51100000000E-03 0. -1.
    9900012    2    1    2    0    0 -0.44136008018E+00 -0.91648935928E+00 -0.59847210987E+00  0.90007779541E+02  0.90000041431E+02 0.  0.
        -12    1    1    2    0    0  0.44136008018E+00  0.91648935928E+00  0.59847210987E+00  0.11802204592E+01  0.00000000000E+00 0.  1.
         11    1    3    3    0    0 -0.54356620254E+01 -0.62839953999E+01  0.38391724299E+01  0.91528282540E+01  0.51100000000E-03 0. -1.
        -11    1    3    3    0    0 -0.52927951356E+01 -0.32464186000E+02  0.16071553440E+02  0.36609177582E+02  0.51100000000E-03 0.  1.
         12    1    3    3    0    0  0.10287097081E+02  0.37831692040E+02 -0.20509197980E+02  0.44245773705E+02  0.00000000000E+00 0. -1.
</event>
<event>
 7    1  0.2429906E-015  0.9000669E+02  0.7816164E-02  0.1186341E+00
        -11   -1    0    0    0    0  0.00000000000E+00  0.00000000000E+00  0.45593999997E+02  0.45594000000E+02  0.51100000000E-03 0. -1.
         11   -1    0    0    0    0 -0.00000000000E+00 -0.00000000000E+00 -0.45593999997E+02  0.45594000000E+02  0.51100000000E-03 0.  1.
    9900012    2    1    2    0    0  0.71836133358E+00 -0.92054366938E+00  0.17900440938E+00  0.90006692999E+02  0.89998940540E+02 0.  0.
        -12    1    1    2    0    0 -0.71836133358E+00  0.92054366938E+00 -0.17900440938E+00  0.11813070013E+01  0.00000000000E+00 0.  1.
         11    1    3    3    0    0 -0.32912537808E+02  0.39967869888E+01 -0.23383672472E+00  0.33155152406E+02  0.51100000000E-03 0. -1.
        -11    1    3    3    0    0 -0.51104100647E+01 -0.12640585069E+02 -0.88777993136E+01  0.16270095354E+02  0.51100000000E-03 0.  1.
        -12    1    3    3    0    0  0.38741309207E+02  0.77232544104E+01  0.92906404477E+01  0.40581445239E+02  0.00000000000E+00 0.  1.
</event>
<event>
 7    1  0.2429906E-015  0.9000761E+02  0.7816164E-02  0.1186339E+00
        -11   -1    0    0    0    0  0.00000000000E+00  0.00000000000E+00  0.45593999997E+02  0.45594000000E+02  0.51100000000E-03 0. -1.
         11   -1    0    0    0    0 -0.00000000000E+00 -0.00000000000E+00 -0.45593999997E+02  0.45594000000E+02  0.51100000000E-03 0.  1.
    9900012    2    1    2    0    0 -0.23687884990E+00 -0.69572947760E+00  0.92367449598E+00  0.90007607832E+02  0.89999867455E+02 0.  0.
        -12    1    1    2    0    0  0.23687884990E+00  0.69572947760E+00 -0.92367449598E+00  0.11803921679E+01  0.00000000000E+00 0.  1.
         11    1    3    3    0    0 -0.30793437138E+02  0.14679725604E+02  0.10066204177E+02  0.35567662017E+02  0.51100000000E-03 0. -1.
        -11    1    3    3    0    0 -0.96034623262E+01 -0.34685376155E+01  0.33208707925E+01  0.10737105053E+02  0.51100000000E-03 0.  1.
        -12    1    3    3    0    0  0.40160020614E+02 -0.11906917466E+02 -0.12463400474E+02  0.43702840762E+02  0.00000000000E+00 0.  1.
</event>
<event>
 7    1  0.2429906E-015  0.9000793E+02  0.7816164E-02  0.1186339E+00
        -11   -1    0    0    0    0  0.00000000000E+00  0.00000000000E+00  0.45593999997E+02  0.45594000000E+02  0.51100000000E-03 0.  1.
         11   -1    0    0    0    0 -0.00000000000E+00 -0.00000000000E+00 -0.45593999997E+02  0.45594000000E+02  0.51100000000E-03 0. -1.
    9900012    2    1    2    0    0  0.29022437480E+00  0.11397720521E+01 -0.96261200184E-01  0.90007925114E+02  0.90000188925E+02 0.  0.
        -12    1    1    2    0    0 -0.29022437480E+00 -0.11397720521E+01  0.96261200184E-01  0.11800748862E+01  0.00000000000E+00 0.  1.
         11    1    3    3    0    0  0.21565375098E+02  0.16315316195E+02 -0.23919429650E+02  0.36102549227E+02  0.51100000000E-03 0. -1.
        -11    1    3    3    0    0  0.33030666010E+01  0.27625473333E+01 -0.84906671170E+01  0.95201546780E+01  0.51100000000E-03 0.  1.
        -12    1    3    3    0    0 -0.24578217325E+02 -0.17938091476E+02  0.32313835567E+02  0.44385221208E+02  0.00000000000E+00 0.  1.
</event>
<event>
 7    1  0.2429906E-015  0.9000771E+02  0.7816164E-02  0.1186339E+00
        -11   -1    0    0    0    0  0.00000000000E+00  0.00000000000E+00  0.45593999997E+02  0.45594000000E+02  0.51100000000E-03 0.  1.
         11   -1    0    0    0    0 -0.00000000000E+00 -0.00000000000E+00 -0.45593999997E+02  0.45594000000E+02  0.51100000000E-03 0. -1.
    9900012    2    1    2    0    0 -0.89762712308E+00 -0.45707856338E+00  0.61517371400E+00  0.90007705984E+02  0.89999966903E+02 0.  0.
        -12    1    1    2    0    0  0.89762712308E+00  0.45707856338E+00 -0.61517371400E+00  0.11802940157E+01  0.00000000000E+00 0.  1.
         11    1    3    3    0    0  0.28923785710E+02 -0.20303581999E+02 -0.10955136311E+02  0.36997781469E+02  0.51100000000E-03 0. -1.
        -11    1    3    3    0    0  0.32171901050E+00 -0.94505885419E+01  0.41434781109E+01  0.10324027219E+02  0.51100000000E-03 0.  1.
        -12    1    3    3    0    0 -0.30143131844E+02  0.29297091977E+02  0.74268319142E+01  0.42685897296E+02  0.00000000000E+00 0.  1.
</event>
<event>
 7    1  0.2429906E-015  0.9000775E+02  0.7816164E-02  0.1186339E+00
        -11   -1    0    0    0    0  0.00000000000E+00  0.00000000000E+00  0.45593999997E+02  0.45594000000E+02  0.51100000000E-03 0.  1.
         11   -1    0    0    0    0 -0.00000000000E+00 -0.00000000000E+00 -0.45593999997E+02  0.45594000000E+02  0.51100000000E-03 0. -1.
    9900012    2    1    2    0    0  0.10867810998E+01  0.28106541800E+00 -0.36456110243E+00  0.90007747601E+02  0.90000009069E+02 0.  0.
        -12    1    1    2    0    0 -0.10867810998E+01 -0.28106541800E+00  0.36456110243E+00  0.11802523991E+01  0.00000000000E+00 0.  1.
         11    1    3    3    0    0 -0.21314518836E+02  0.20815247789E+02 -0.21279674958E+02  0.36611580412E+02  0.51100000000E-03 0. -1.
        -11    1    3    3    0    0  0.48724048315E+00  0.31086201135E+01 -0.89281196724E+01  0.94663743558E+01  0.51100000000E-03 0.  1.
        -12    1    3    3    0    0  0.21914059452E+02 -0.23642802484E+02  0.29843233528E+02  0.43929792833E+02  0.00000000000E+00 0.  1.
</event>
<event>
 7    1  0.2429906E-015  0.9000770E+02  0.7816164E-02  0.1186339E+00
        -11   -1    0    0    0    0  0.00000000000E+00  0.00000000000E+00  0.45593999997E+02  0.45594000000E+02  0.51100000000E-03 0.  1.
         11   -1    0    0    0    0 -0.00000000000E+00 -0.00000000000E+00 -0.45593999997E+02  0.45594000000E+02  0.51100000000E-03 0. -1.
    9900012    2    1    2    0    0  0.98156216280E+00 -0.62058338575E+00  0.21102074442E+00  0.90007695898E+02  0.89999956684E+02 0.  0.
        -12    1    1    2    0    0 -0.98156216280E+00  0.62058338575E+00 -0.21102074442E+00  0.11803041018E+01  0.00000000000E+00 0.  1.
         11    1    3    3    0    0 -0.36586590400E+01 -0.23859572823E+02 -0.23359258887E+02  0.33590474502E+02  0.51100000000E-03 0. -1.
        -11    1    3    3    0    0  0.15538249539E+02  0.16972495404E+02 -0.64275485053E+01  0.23891759647E+02  0.51100000000E-03 0.  1.
        -12    1    3    3    0    0 -0.10898028336E+02  0.62664940337E+01  0.29997828136E+02  0.32525461749E+02  0.00000000000E+00 0.  1.
</event>
<event>
 7    1  0.2429906E-015  0.9000771E+02  0.7816164E-02  0.1186339E+00
        -11   -1    0    0    0    0  0.00000000000E+00  0.00000000000E+00  0.45593999997E+02  0.45594000000E+02  0.51100000000E-03 0. -1.
         11   -1    0    0    0    0 -0.00000000000E+00 -0.00000000000E+00 -0.45593999997E+02  0.45594000000E+02  0.51100000000E-03 0.  1.
    9900012    2    1    2    0    0 -0.14122237986E+00 -0.78808690227E+00  0.86721468755E+00  0.90007709341E+02  0.89999970304E+02 0.  0.
        -12    1    1    2    0    0  0.14122237986E+00  0.78808690227E+00 -0.86721468755E+00  0.11802906593E+01  0.00000000000E+00 0.  1.
         11    1    3    3    0    0 -0.22489330419E+00  0.80464854261E+01  0.37332101991E+01  0.88731822568E+01  0.51100000000E-03 0. -1.
        -11    1    3    3    0    0  0.38040529829E+02 -0.17869077837E+02 -0.27312983862E+01  0.42117049321E+02  0.51100000000E-03 0.  1.
         12    1    3    3    0    0 -0.37956858904E+02  0.90345055086E+01 -0.13469712540E+00  0.39017477763E+02  0.00000000000E+00 0. -1.
</event>
<event>
 7    1  0.2429906E-015  0.9000771E+02  0.7816164E-02  0.1186339E+00
        -11   -1    0    0    0    0  0.00000000000E+00  0.00000000000E+00  0.45593999997E+02  0.45594000000E+02  0.51100000000E-03 0.  1.
         11   -1    0    0    0    0 -0.00000000000E+00 -0.00000000000E+00 -0.45593999997E+02  0.45594000000E+02  0.51100000000E-03 0. -1.
    9900012    2    1    2    0    0  0.56389024531E-01 -0.11279075747E+01  0.34312047169E+00  0.90007708986E+02  0.89999969945E+02 0.  0.
        -12    1    1    2    0    0 -0.56389024531E-01  0.11279075747E+01 -0.34312047169E+00  0.11802910138E+01  0.00000000000E+00 0.  1.
         11    1    3    3    0    0  0.11461503196E+01  0.82380849473E+01 -0.11976858079E+02  0.14581660875E+02  0.51100000000E-03 0. -1.
        -11    1    3    3    0    0 -0.29113871906E+02  0.85160238252E+01  0.25536694754E+02  0.39651771440E+02  0.51100000000E-03 0.  1.
         12    1    3    3    0    0  0.28024110610E+02 -0.17882016347E+02 -0.13216716203E+02  0.35774276671E+02  0.00000000000E+00 0. -1.
</event>
<event>
 7    1  0.2429906E-015  0.9000845E+02  0.7816164E-02  0.1186338E+00
        -11   -1    0    0    0    0  0.00000000000E+00  0.00000000000E+00  0.45593999997E+02  0.45594000000E+02  0.51100000000E-03 0.  1.
         11   -1    0    0    0    0 -0.00000000000E+00 -0.00000000000E+00 -0.45593999997E+02  0.45594000000E+02  0.51100000000E-03 0. -1.
    9900012    2    1    2    0    0  0.27590521334E+00 -0.10573816058E+01 -0.44403128564E+00  0.90008447827E+02  0.90000718535E+02 0.  0.
        -12    1    1    2    0    0 -0.27590521334E+00  0.10573816058E+01  0.44403128564E+00  0.11795521734E+01  0.00000000000E+00 0.  1.
         11    1    3    3    0    0 -0.96986628871E+01  0.27612807674E+02 -0.16967386368E+02  0.33829327659E+02  0.51100000000E-03 0. -1.
        -11    1    3    3    0    0 -0.31094622025E+01  0.11247852474E+02  0.41759859591E+01  0.12394426144E+02  0.51100000000E-03 0.  1.
        -12    1    3    3    0    0  0.13084030303E+02 -0.39918041754E+02  0.12347369123E+02  0.43784694023E+02  0.00000000000E+00 0.  1.
</event>
<event>
 7    1  0.2429906E-015  0.9000779E+02  0.7816164E-02  0.1186339E+00
        -11   -1    0    0    0    0  0.00000000000E+00  0.00000000000E+00  0.45593999997E+02  0.45594000000E+02  0.51100000000E-03 0.  1.
         11   -1    0    0    0    0 -0.00000000000E+00 -0.00000000000E+00 -0.45593999997E+02  0.45594000000E+02  0.51100000000E-03 0. -1.
    9900012    2    1    2    0    0  0.10489712220E+00 -0.28686076421E-01 -0.11751882772E+01  0.90007790788E+02  0.90000052826E+02 0.  0.
        -12    1    1    2    0    0 -0.10489712220E+00  0.28686076421E-01  0.11751882772E+01  0.11802092120E+01  0.00000000000E+00 0.  1.
         11    1    3    3    0    0 -0.18615054643E+02  0.10999860799E+02 -0.33488798573E+02  0.39862473921E+02  0.51100000000E-03 0. -1.
        -11    1    3    3    0    0 -0.63486153007E+01  0.51990049661E+01  0.46137067427E+01  0.94138652552E+01  0.51100000000E-03 0.  1.
        -12    1    3    3    0    0  0.25068567066E+02 -0.16227551842E+02  0.27699903554E+02  0.40731451612E+02  0.00000000000E+00 0.  1.
</event>
<event>
 7    1  0.2429906E-015  0.9000804E+02  0.7816164E-02  0.1186338E+00
        -11   -1    0    0    0    0  0.00000000000E+00  0.00000000000E+00  0.45593999997E+02  0.45594000000E+02  0.51100000000E-03 0.  1.
         11   -1    0    0    0    0 -0.00000000000E+00 -0.00000000000E+00 -0.45593999997E+02  0.45594000000E+02  0.51100000000E-03 0. -1.
    9900012    2    1    2    0    0  0.88006094251E+00  0.25970033301E+00 -0.74186217212E+00  0.90008037709E+02  0.90000303006E+02 0.  0.
        -12    1    1    2    0    0 -0.88006094251E+00 -0.25970033301E+00  0.74186217212E+00  0.11799622909E+01  0.00000000000E+00 0.  1.
         11    1    3    3    0    0  0.37795786383E+01  0.13997095270E+02 -0.36052458457E+02  0.38858508100E+02  0.51100000000E-03 0. -1.
        -11    1    3    3    0    0  0.10733365235E+02 -0.25801605804E+01 -0.69952954358E+00  0.11061270259E+02  0.51100000000E-03 0.  1.
        -12    1    3    3    0    0 -0.13632882931E+02 -0.11157234357E+02  0.36010125829E+02  0.40088259350E+02  0.00000000000E+00 0.  1.
</event>
<event>
 7    1  0.2429906E-015  0.9000766E+02  0.7816164E-02  0.1186339E+00
        -11   -1    0    0    0    0  0.00000000000E+00  0.00000000000E+00  0.45593999997E+02  0.45594000000E+02  0.51100000000E-03 0. -1.
         11   -1    0    0    0    0 -0.00000000000E+00 -0.00000000000E+00 -0.45593999997E+02  0.45594000000E+02  0.51100000000E-03 0.  1.
    9900012    2    1    2    0    0  0.10290752033E+01  0.46798291177E+00  0.33941758259E+00  0.90007657645E+02  0.89999917926E+02 0.  0.
        -12    1    1    2    0    0 -0.10290752033E+01 -0.46798291177E+00 -0.33941758259E+00  0.11803423551E+01  0.00000000000E+00 0.  1.
         11    1    3    3    0    0  0.13648782200E+01 -0.13257770723E+01  0.85137755470E+01  0.87238152047E+01  0.51100000000E-03 0. -1.
        -11    1    3    3    0    0  0.99952665741E+01  0.37730825635E+02  0.91230277033E+01  0.40084288590E+02  0.51100000000E-03 0.  1.
         12    1    3    3    0    0 -0.10331069591E+02 -0.35937065651E+02 -0.17297385668E+02  0.41199553850E+02  0.00000000000E+00 0. -1.
</event>
<event>
 7    1  0.2429906E-015  0.9000769E+02  0.7816164E-02  0.1186339E+00
        -11   -1    0    0    0    0  0.00000000000E+00  0.00000000000E+00  0.45593999997E+02  0.45594000000E+02  0.51100000000E-03 0.  1.
         11   -1    0    0    0    0 -0.00000000000E+00 -0.00000000000E+00 -0.45593999997E+02  0.45594000000E+02  0.51100000000E-03 0. -1.
    9900012    2    1    2    0    0 -0.75192183748E+00 -0.68715301137E+00 -0.59629870234E+00  0.90007687392E+02  0.89999948065E+02 0.  0.
        -12    1    1    2    0    0  0.75192183748E+00  0.68715301137E+00  0.59629870234E+00  0.11803126082E+01  0.00000000000E+00 0.  1.
         11    1    3    3    0    0 -0.75248069272E+01  0.51876985670E+01 -0.94564930646E+01  0.13151433270E+02  0.51100000000E-03 0. -1.
        -11    1    3    3    0    0 -0.10001086766E+02  0.29932810827E+02 -0.99193396130E+01  0.33081538645E+02  0.51100000000E-03 0.  1.
         12    1    3    3    0    0  0.16773971856E+02 -0.35807662405E+02  0.18779533975E+02  0.43774715477E+02  0.00000000000E+00 0. -1.
</event>
<event>
 7    1  0.2429906E-015  0.9000794E+02  0.7816164E-02  0.1186339E+00
        -11   -1    0    0    0    0  0.00000000000E+00  0.00000000000E+00  0.45593999997E+02  0.45594000000E+02  0.51100000000E-03 0.  1.
         11   -1    0    0    0    0 -0.00000000000E+00 -0.00000000000E+00 -0.45593999997E+02  0.45594000000E+02  0.51100000000E-03 0. -1.
    9900012    2    1    2    0    0 -0.53165115549E+00  0.35659857322E+00 -0.99132637827E+00  0.90007939204E+02  0.90000203201E+02 0.  0.
        -12    1    1    2    0    0  0.53165115549E+00 -0.35659857322E+00  0.99132637827E+00  0.11800607958E+01  0.00000000000E+00 0.  1.
         11    1    3    3    0    0  0.69776663212E+01  0.10377615334E+01 -0.65624579125E+01  0.96348653547E+01  0.51100000000E-03 0. -1.
        -11    1    3    3    0    0 -0.30880870179E+02  0.24365627578E+02 -0.12971232698E+02  0.41419377449E+02  0.51100000000E-03 0.  1.
         12    1    3    3    0    0  0.23371552702E+02 -0.25046790538E+02  0.18542364232E+02  0.38953696401E+02  0.00000000000E+00 0. -1.
</event>
<event>
 7    1  0.2429906E-015  0.9000775E+02  0.7816164E-02  0.1186339E+00
        -11   -1    0    0    0    0  0.00000000000E+00  0.00000000000E+00  0.45593999997E+02  0.45594000000E+02  0.51100000000E-03 0. -1.
         11   -1    0    0    0    0 -0.00000000000E+00 -0.00000000000E+00 -0.45593999997E+02  0.45594000000E+02  0.51100000000E-03 0.  1.
    9900012    2    1    2    0    0 -0.15918994856E+00 -0.57926504498E+00  0.10159237622E+01  0.90007749805E+02  0.90000011302E+02 0.  0.
        -12    1    1    2    0    0  0.15918994856E+00  0.57926504498E+00 -0.10159237622E+01  0.11802501950E+01  0.00000000000E+00 0.  1.
         11    1    3    3    0    0  0.14464835590E+02  0.29832843983E+02  0.95825409659E+00  0.33168483533E+02  0.51100000000E-03 0. -1.
        -11    1    3    3    0    0 -0.86887254452E+01  0.20161984143E+01  0.17426596032E+02  0.19576650772E+02  0.51100000000E-03 0.  1.
        -12    1    3    3    0    0 -0.59353000929E+01 -0.32428307442E+02 -0.17368926367E+02  0.37262615500E+02  0.00000000000E+00 0.  1.
</event>
<event>
 7    1  0.2429906E-015  0.9000784E+02  0.7816164E-02  0.1186339E+00
        -11   -1    0    0    0    0  0.00000000000E+00  0.00000000000E+00  0.45593999997E+02  0.45594000000E+02  0.51100000000E-03 0. -1.
         11   -1    0    0    0    0 -0.00000000000E+00 -0.00000000000E+00 -0.45593999997E+02  0.45594000000E+02  0.51100000000E-03 0.  1.
    9900012    2    1    2    0    0  0.60185145476E+00 -0.90369546467E-01  0.10111298710E+01  0.90007840924E+02  0.90000103624E+02 0.  0.
        -12    1    1    2    0    0 -0.60185145476E+00  0.90369546467E-01 -0.10111298710E+01  0.11801590759E+01  0.00000000000E+00 0.  1.
         11    1    3    3    0    0 -0.96680939686E+01 -0.96027624628E+01  0.40009657149E+02  0.42266508649E+02  0.51100000000E-03 0. -1.
        -11    1    3    3    0    0 -0.89424223148E+00 -0.73007041353E+01 -0.10570735758E+02  0.12877903742E+02  0.51100000000E-03 0.  1.
        -12    1    3    3    0    0  0.11164187655E+02  0.16813097052E+02 -0.28427791520E+02  0.34863428534E+02  0.00000000000E+00 0.  1.
</event>
<event>
 7    1  0.2429906E-015  0.9000774E+02  0.7816164E-02  0.1186339E+00
        -11   -1    0    0    0    0  0.00000000000E+00  0.00000000000E+00  0.45593999997E+02  0.45594000000E+02  0.51100000000E-03 0.  1.
         11   -1    0    0    0    0 -0.00000000000E+00 -0.00000000000E+00 -0.45593999997E+02  0.45594000000E+02  0.51100000000E-03 0. -1.
    9900012    2    1    2    0    0 -0.68028077437E+00 -0.38662572375E+00 -0.88360708818E+00  0.90007736102E+02  0.89999997419E+02 0.  0.
        -12    1    1    2    0    0  0.68028077437E+00  0.38662572375E+00  0.88360708818E+00  0.11802638978E+01  0.00000000000E+00 0.  1.
         11    1    3    3    0    0 -0.13818186443E+02 -0.26203839825E+02 -0.25839515768E+02  0.39309847030E+02  0.51100000000E-03 0. -1.
        -11    1    3    3    0    0  0.10799792106E+01  0.14524376055E+01 -0.78706484091E+01  0.80760780540E+01  0.51100000000E-03 0.  1.
        -12    1    3    3    0    0  0.12057926458E+02  0.24364776495E+02  0.32826557089E+02  0.42621811018E+02  0.00000000000E+00 0.  1.
</event>
<event>
 7    1  0.2429906E-015  0.9000740E+02  0.7816164E-02  0.1186340E+00
        -11   -1    0    0    0    0  0.00000000000E+00  0.00000000000E+00  0.45593999997E+02  0.45594000000E+02  0.51100000000E-03 0. -1.
         11   -1    0    0    0    0 -0.00000000000E+00 -0.00000000000E+00 -0.45593999997E+02  0.45594000000E+02  0.51100000000E-03 0.  1.
    9900012    2    1    2    0    0  0.11707668791E+01  0.14550536795E+00 -0.44243071123E-01  0.90007396618E+02  0.89999653452E+02 0.  0.
        -12    1    1    2    0    0 -0.11707668791E+01 -0.14550536795E+00  0.44243071123E-01  0.11806033824E+01  0.00000000000E+00 0.  1.
         11    1    3    3    0    0  0.18224403657E+01  0.71010956945E+01 -0.49513278591E+01  0.88466093379E+01  0.51100000000E-03 0. -1.
        -11    1    3    3    0    0 -0.27564860838E+02 -0.10161556172E+01 -0.27273984814E+02  0.38790776909E+02  0.51100000000E-03 0.  1.
         12    1    3    3    0    0  0.26913187352E+02 -0.59394347094E+01  0.32181069602E+02  0.42370010371E+02  0.00000000000E+00 0. -1.
</event>
<event>
 7    1  0.2429906E-015  0.9000757E+02  0.7816164E-02  0.1186339E+00
        -11   -1    0    0    0    0  0.00000000000E+00  0.00000000000E+00  0.45593999997E+02  0.45594000000E+02  0.51100000000E-03 0.  1.
         11   -1    0    0    0    0 -0.00000000000E+00 -0.00000000000E+00 -0.45593999997E+02  0.45594000000E+02  0.51100000000E-03 0. -1.
    9900012    2    1    2    0    0  0.10006195348E+01 -0.36020009877E-02 -0.62622118159E+00  0.90007574062E+02  0.89999833239E+02 0.  0.
        -12    1    1    2    0    0 -0.10006195348E+01  0.36020009877E-02  0.62622118159E+00  0.11804259384E+01  0.00000000000E+00 0.  1.
         11    1    3    3    0    0 -0.34324906650E+00  0.27007283329E+01 -0.12780175953E+02  0.13066929674E+02  0.51100000000E-03 0. -1.
        -11    1    3    3    0    0  0.54448152269E+00 -0.38431500570E+02 -0.20386368437E+01  0.38489384726E+02  0.51100000000E-03 0.  1.
         12    1    3    3    0    0  0.79938707859E+00  0.35727170236E+02  0.14192591615E+02  0.38451259661E+02  0.00000000000E+00 0. -1.
</event>
<event>
 7    1  0.2429906E-015  0.9000797E+02  0.7816164E-02  0.1186339E+00
        -11   -1    0    0    0    0  0.00000000000E+00  0.00000000000E+00  0.45593999997E+02  0.45594000000E+02  0.51100000000E-03 0.  1.
         11   -1    0    0    0    0 -0.00000000000E+00 -0.00000000000E+00 -0.45593999997E+02  0.45594000000E+02  0.51100000000E-03 0. -1.
    9900012    2    1    2    0    0 -0.13284869746E+00  0.10490931087E+01 -0.52366532441E+00  0.90007970128E+02  0.90000234533E+02 0.  0.
        -12    1    1    2    0    0  0.13284869746E+00 -0.10490931087E+01  0.52366532441E+00  0.11800298721E+01  0.00000000000E+00 0.  1.
         11    1    3    3    0    0  0.53071143202E+01 -0.59539953911E+01  0.10495169759E+00  0.79766245145E+01  0.51100000000E-03 0. -1.
        -11    1    3    3    0    0 -0.24504064810E+02 -0.63940678291E+01  0.32703540704E+02  0.41362481435E+02  0.51100000000E-03 0.  1.
         12    1    3    3    0    0  0.19064101792E+02  0.13397156329E+02 -0.33332157726E+02  0.40668864178E+02  0.00000000000E+00 0. -1.
</event>
<event>
 7    1  0.2429906E-015  0.9000772E+02  0.7816164E-02  0.1186339E+00
        -11   -1    0    0    0    0  0.00000000000E+00  0.00000000000E+00  0.45593999997E+02  0.45594000000E+02  0.51100000000E-03 0.  1.
         11   -1    0    0    0    0 -0.00000000000E+00 -0.00000000000E+00 -0.45593999997E+02  0.45594000000E+02  0.51100000000E-03 0. -1.
    9900012    2    1    2    0    0  0.39004162638E+00 -0.45602097556E+00 -0.10163567134E+01  0.90007716742E+02  0.89999977803E+02 0.  0.
        -12    1    1    2    0    0 -0.39004162638E+00  0.45602097556E+00  0.10163567134E+01  0.11802832581E+01  0.00000000000E+00 0.  1.
         11    1    3    3    0    0 -0.21630744020E+02  0.86275165020E+01 -0.31607029137E+02  0.39259742982E+02  0.51100000000E-03 0. -1.
        -11    1    3    3    0    0  0.30990687749E+01  0.88129606984E+01 -0.14537145331E+01  0.94544058379E+01  0.51100000000E-03 0.  1.
        -12    1    3    3    0    0  0.18921716871E+02 -0.17896498176E+02  0.32044386957E+02  0.41293567922E+02  0.00000000000E+00 0.  1.
</event>
<event>
 7    1  0.2429906E-015  0.9000784E+02  0.7816164E-02  0.1186339E+00
        -11   -1    0    0    0    0  0.00000000000E+00  0.00000000000E+00  0.45593999997E+02  0.45594000000E+02  0.51100000000E-03 0.  1.
         11   -1    0    0    0    0 -0.00000000000E+00 -0.00000000000E+00 -0.45593999997E+02  0.45594000000E+02  0.51100000000E-03 0. -1.
    9900012    2    1    2    0    0 -0.87382929356E+00  0.79300189152E+00 -0.18726689004E-01  0.90007838857E+02  0.90000101530E+02 0.  0.
        -12    1    1    2    0    0  0.87382929356E+00 -0.79300189152E+00  0.18726689004E-01  0.11801611429E+01  0.00000000000E+00 0.  1.
         11    1    3    3    0    0  0.92338748063E+01  0.43284185736E+00 -0.97770254663E+01  0.13455185738E+02  0.51100000000E-03 0. -1.
        -11    1    3    3    0    0  0.18805385703E+02 -0.26396626229E+02  0.16844738584E+02  0.36526286781E+02  0.51100000000E-03 0.  1.
         12    1    3    3    0    0 -0.28913089803E+02  0.26756786264E+02 -0.70864398071E+01  0.40026366339E+02  0.00000000000E+00 0. -1.
</event>
<event>
 7    1  0.2429906E-015  0.9000770E+02  0.7816164E-02  0.1186339E+00
        -11   -1    0    0    0    0  0.00000000000E+00  0.00000000000E+00  0.45593999997E+02  0.45594000000E+02  0.51100000000E-03 0.  1.
         11   -1    0    0    0    0 -0.00000000000E+00 -0.00000000000E+00 -0.45593999997E+02  0.45594000000E+02  0.51100000000E-03 0. -1.
    9900012    2    1    2    0    0  0.23489567620E+00  0.63054349776E+00 -0.96971739170E+00  0.90007697962E+02  0.89999958775E+02 0.  0.
        -12    1    1    2    0    0 -0.23489567620E+00 -0.63054349776E+00  0.96971739170E+00  0.11803020381E+01  0.00000000000E+00 0.  1.
         11    1    3    3    0    0 -0.15674481776E+02  0.29676439012E+02  0.95661103026E+01  0.34898293339E+02  0.51100000000E-03 0. -1.
        -11    1    3    3    0    0 -0.29179448087E+01  0.99757909496E+01 -0.46452253631E+01  0.11384591601E+02  0.51100000000E-03 0.  1.
        -12    1    3    3    0    0  0.18827322261E+02 -0.39021686464E+02 -0.58906023312E+01  0.43724813022E+02  0.00000000000E+00 0.  1.
</event>
<event>
 7    1  0.2429906E-015  0.9000769E+02  0.7816164E-02  0.1186339E+00
        -11   -1    0    0    0    0  0.00000000000E+00  0.00000000000E+00  0.45593999997E+02  0.45594000000E+02  0.51100000000E-03 0. -1.
         11   -1    0    0    0    0 -0.00000000000E+00 -0.00000000000E+00 -0.45593999997E+02  0.45594000000E+02  0.51100000000E-03 0.  1.
    9900012    2    1    2    0    0 -0.53090414596E+00  0.55868556794E+00  0.89395029268E+00  0.90007688218E+02  0.89999948903E+02 0.  0.
        -12    1    1    2    0    0  0.53090414596E+00 -0.55868556794E+00 -0.89395029268E+00  0.11803117816E+01  0.00000000000E+00 0.  1.
         11    1    3    3    0    0 -0.79068875748E+01  0.15620503012E+01 -0.43569650607E+01  0.91619876154E+01  0.51100000000E-03 0. -1.
        -11    1    3    3    0    0 -0.33443573528E+02 -0.13524552025E+02  0.11114665302E+02  0.37748137740E+02  0.51100000000E-03 0.  1.
         12    1    3    3    0    0  0.40819556956E+02  0.12521187291E+02 -0.58637499490E+01  0.43097562863E+02  0.00000000000E+00 0. -1.
</event>
<event>
 7    1  0.2429906E-015  0.9000783E+02  0.7816164E-02  0.1186339E+00
        -11   -1    0    0    0    0  0.00000000000E+00  0.00000000000E+00  0.45593999997E+02  0.45594000000E+02  0.51100000000E-03 0. -1.
         11   -1    0    0    0    0 -0.00000000000E+00 -0.00000000000E+00 -0.45593999997E+02  0.45594000000E+02  0.51100000000E-03 0.  1.
    9900012    2    1    2    0    0  0.10824751046E+01 -0.27415500945E+00 -0.38196720269E+00  0.90007825324E+02  0.90000087818E+02 0.  0.
        -12    1    1    2    0    0 -0.10824751046E+01  0.27415500945E+00  0.38196720269E+00  0.11801746758E+01  0.00000000000E+00 0.  1.
         11    1    3    3    0    0 -0.25870098599E+01  0.88314389987E+01  0.46805425355E+01  0.10324457055E+02  0.51100000000E-03 0. -1.
        -11    1    3    3    0    0  0.59775837268E+01  0.14864329185E+02 -0.36629488061E+02  0.39979984808E+02  0.51100000000E-03 0.  1.
         12    1    3    3    0    0 -0.23080987622E+01 -0.23969923193E+02  0.31566978323E+02  0.39703383461E+02  0.00000000000E+00 0. -1.
</event>
<event>
 7    1  0.2429906E-015  0.9000722E+02  0.7816164E-02  0.1186340E+00
        -11   -1    0    0    0    0  0.00000000000E+00  0.00000000000E+00  0.45593999997E+02  0.45594000000E+02  0.51100000000E-03 0.  1.
         11   -1    0    0    0    0 -0.00000000000E+00 -0.00000000000E+00 -0.45593999997E+02  0.45594000000E+02  0.51100000000E-03 0. -1.
    9900012    2    1    2    0    0  0.77294180083E+00  0.74171833446E+00 -0.49663594696E+00  0.90007223824E+02  0.89999478376E+02 0.  0.
        -12    1    1    2    0    0 -0.77294180083E+00 -0.74171833446E+00  0.49663594696E+00  0.11807761765E+01  0.00000000000E+00 0.  1.
         11    1    3    3    0    0  0.40497813091E+02 -0.12119654314E+02 -0.44725465773E+01  0.42508382221E+02  0.51100000000E-03 0. -1.
        -11    1    3    3    0    0 -0.63378624596E+01 -0.60756313948E+01 -0.81505382345E+00  0.88173754824E+01  0.51100000000E-03 0.  1.
        -12    1    3    3    0    0 -0.33387008831E+02  0.18937004043E+02  0.47909644538E+01  0.38681466120E+02  0.00000000000E+00 0.  1.
</event>
<event>
 7    1  0.2429906E-015  0.9000773E+02  0.7816164E-02  0.1186339E+00
        -11   -1    0    0    0    0  0.00000000000E+00  0.00000000000E+00  0.45593999997E+02  0.45594000000E+02  0.51100000000E-03 0.  1.
         11   -1    0    0    0    0 -0.00000000000E+00 -0.00000000000E+00 -0.45593999997E+02  0.45594000000E+02  0.51100000000E-03 0. -1.
    9900012    2    1    2    0    0  0.67379663106E-02 -0.28104503565E+00 -0.11463004850E+01  0.90007730321E+02  0.89999991562E+02 0.  0.
        -12    1    1    2    0    0 -0.67379663106E-02  0.28104503565E+00  0.11463004850E+01  0.11802696786E+01  0.00000000000E+00 0.  1.
         11    1    3    3    0    0  0.19762072370E+01 -0.78451557842E+01 -0.64445447226E+01  0.10343308043E+02  0.51100000000E-03 0. -1.
        -11    1    3    3    0    0  0.11426975725E+02 -0.33856333823E+02  0.53528967449E+01  0.36131435316E+02  0.51100000000E-03 0.  1.
         12    1    3    3    0    0 -0.13396444996E+02  0.41420444572E+02 -0.54652507341E-01  0.43532986963E+02  0.00000000000E+00 0. -1.
</event>
<event>
 7    1  0.2429906E-015  0.9000736E+02  0.7816164E-02  0.1186340E+00
        -11   -1    0    0    0    0  0.00000000000E+00  0.00000000000E+00  0.45593999997E+02  0.45594000000E+02  0.51100000000E-03 0.  1.
         11   -1    0    0    0    0 -0.00000000000E+00 -0.00000000000E+00 -0.45593999997E+02  0.45594000000E+02  0.51100000000E-03 0. -1.
    9900012    2    1    2    0    0 -0.46808111091E+00  0.63853338430E+00 -0.87583563674E+00  0.90007359127E+02  0.89999615466E+02 0.  0.
        -12    1    1    2    0    0  0.46808111091E+00 -0.63853338430E+00  0.87583563674E+00  0.11806408734E+01  0.00000000000E+00 0.  1.
         11    1    3    3    0    0 -0.41998397464E+02  0.10592376262E+02 -0.69826663873E+00  0.43319180521E+02  0.51100000000E-03 0. -1.
        -11    1    3    3    0    0  0.69415700858E+01  0.31166304949E+01 -0.54204917781E+01  0.93424039880E+01  0.51100000000E-03 0.  1.
        -12    1    3    3    0    0  0.34588746267E+02 -0.13070473372E+02  0.52429227801E+01  0.37345774618E+02  0.00000000000E+00 0.  1.
</event>
<event>
 7    1  0.2429906E-015  0.9000779E+02  0.7816164E-02  0.1186339E+00
        -11   -1    0    0    0    0  0.00000000000E+00  0.00000000000E+00  0.45593999997E+02  0.45594000000E+02  0.51100000000E-03 0.  1.
         11   -1    0    0    0    0 -0.00000000000E+00 -0.00000000000E+00 -0.45593999997E+02  0.45594000000E+02  0.51100000000E-03 0. -1.
    9900012    2    1    2    0    0  0.17740352709E+00 -0.11388095550E+01  0.25404937566E+00  0.90007788028E+02  0.90000050030E+02 0.  0.
        -12    1    1    2    0    0 -0.17740352709E+00  0.11388095550E+01 -0.25404937566E+00  0.11802119722E+01  0.00000000000E+00 0.  1.
         11    1    3    3    0    0  0.24482305956E+02  0.29891448310E+02  0.13544475832E+02  0.40943067945E+02  0.51100000000E-03 0. -1.
        -11    1    3    3    0    0  0.42180596566E+01  0.90266024945E+00 -0.31469853378E+00  0.43250269618E+01  0.51100000000E-03 0.  1.
        -12    1    3    3    0    0 -0.28522962086E+02 -0.31932918114E+02 -0.12975727922E+02  0.44739693121E+02  0.00000000000E+00 0.  1.
</event>
<event>
 7    1  0.2429906E-015  0.9000803E+02  0.7816164E-02  0.1186338E+00
        -11   -1    0    0    0    0  0.00000000000E+00  0.00000000000E+00  0.45593999997E+02  0.45594000000E+02  0.51100000000E-03 0. -1.
         11   -1    0    0    0    0 -0.00000000000E+00 -0.00000000000E+00 -0.45593999997E+02  0.45594000000E+02  0.51100000000E-03 0.  1.
    9900012    2    1    2    0    0 -0.97503798700E+00 -0.14036137261E+00 -0.64955205968E+00  0.90008034632E+02  0.90000299889E+02 0.  0.
        -12    1    1    2    0    0  0.97503798700E+00  0.14036137261E+00  0.64955205968E+00  0.11799653678E+01  0.00000000000E+00 0.  1.
         11    1    3    3    0    0  0.35926815149E+02  0.53243697553E+01  0.16176623708E+02  0.39758874668E+02  0.51100000000E-03 0. -1.
        -11    1    3    3    0    0 -0.84727685360E+01  0.31763076488E+01 -0.18389106835E+02  0.20494779516E+02  0.51100000000E-03 0.  1.
        -12    1    3    3    0    0 -0.28429084600E+02 -0.86410387767E+01  0.15629310669E+01  0.29754380448E+02  0.00000000000E+00 0.  1.
</event>
<event>
 7    1  0.2429906E-015  0.9000814E+02  0.7816164E-02  0.1186338E+00
        -11   -1    0    0    0    0  0.00000000000E+00  0.00000000000E+00  0.45593999997E+02  0.45594000000E+02  0.51100000000E-03 0. -1.
         11   -1    0    0    0    0 -0.00000000000E+00 -0.00000000000E+00 -0.45593999997E+02  0.45594000000E+02  0.51100000000E-03 0.  1.
    9900012    2    1    2    0    0 -0.11681003471E+01  0.13684098239E+00  0.94317658613E-01  0.90008135730E+02  0.90000402321E+02 0.  0.
        -12    1    1    2    0    0  0.11681003471E+01 -0.13684098239E+00 -0.94317658613E-01  0.11798642702E+01  0.00000000000E+00 0.  1.
         11    1    3    3    0    0  0.78415550864E+01 -0.29429686463E+02  0.12456549756E+01  0.30481930517E+02  0.51100000000E-03 0. -1.
        -11    1    3    3    0    0  0.33732596848E+01 -0.72319244613E+00 -0.20981636292E+02  0.21263371086E+02  0.51100000000E-03 0.  1.
        -12    1    3    3    0    0 -0.12382915118E+02  0.30289719892E+02  0.19830298975E+02  0.38262834126E+02  0.00000000000E+00 0.  1.
</event>
<event>
 7    1  0.2429906E-015  0.9000777E+02  0.7816164E-02  0.1186339E+00
        -11   -1    0    0    0    0  0.00000000000E+00  0.00000000000E+00  0.45593999997E+02  0.45594000000E+02  0.51100000000E-03 0. -1.
         11   -1    0    0    0    0 -0.00000000000E+00 -0.00000000000E+00 -0.45593999997E+02  0.45594000000E+02  0.51100000000E-03 0.  1.
    9900012    2    1    2    0    0 -0.19045439685E+00  0.11542332523E+01 -0.15626378872E+00  0.90007768815E+02  0.90000030564E+02 0.  0.
        -12    1    1    2    0    0  0.19045439685E+00 -0.11542332523E+01  0.15626378872E+00  0.11802311848E+01  0.00000000000E+00 0.  1.
         11    1    3    3    0    0 -0.31145792589E+02 -0.93776764735E+01  0.23118092799E+02  0.39905481164E+02  0.51100000000E-03 0. -1.
        -11    1    3    3    0    0  0.70673269305E+01 -0.24760728373E+01  0.63979488575E+01  0.98494566593E+01  0.51100000000E-03 0.  1.
        -12    1    3    3    0    0  0.23888011262E+02  0.13007982563E+02 -0.29672305445E+02  0.40252830992E+02  0.00000000000E+00 0.  1.
</event>
<event>
 7    1  0.2429906E-015  0.9000793E+02  0.7816164E-02  0.1186339E+00
        -11   -1    0    0    0    0  0.00000000000E+00  0.00000000000E+00  0.45593999997E+02  0.45594000000E+02  0.51100000000E-03 0. -1.
         11   -1    0    0    0    0 -0.00000000000E+00 -0.00000000000E+00 -0.45593999997E+02  0.45594000000E+02  0.51100000000E-03 0.  1.
    9900012    2    1    2    0    0 -0.82258117203E+00  0.84565759777E+00 -0.27998871560E-01  0.90007931996E+02  0.90000195898E+02 0.  0.
        -12    1    1    2    0    0  0.82258117203E+00 -0.84565759777E+00  0.27998871560E-01  0.11800680040E+01  0.00000000000E+00 0.  1.
         11    1    3    3    0    0 -0.28240078500E+00 -0.75981136412E+01 -0.42631385700E+01  0.87169623055E+01  0.51100000000E-03 0. -1.
        -11    1    3    3    0    0  0.84859036413E+01  0.25876961085E+01 -0.37322851804E+02  0.38362768394E+02  0.51100000000E-03 0.  1.
         12    1    3    3    0    0 -0.90260840283E+01  0.58560751304E+01  0.41557991503E+02  0.42928201297E+02  0.00000000000E+00 0. -1.
</event>
<event>
 7    1  0.2429906E-015  0.9000775E+02  0.7816164E-02  0.1186339E+00
        -11   -1    0    0    0    0  0.00000000000E+00  0.00000000000E+00  0.45593999997E+02  0.45594000000E+02  0.51100000000E-03 0.  1.
         11   -1    0    0    0    0 -0.00000000000E+00 -0.00000000000E+00 -0.45593999997E+02  0.45594000000E+02  0.51100000000E-03 0. -1.
    9900012    2    1    2    0    0  0.30832154298E+00  0.10997058377E+01 -0.29759884801E+00  0.90007754188E+02  0.90000015743E+02 0.  0.
        -12    1    1    2    0    0 -0.30832154298E+00 -0.10997058377E+01  0.29759884801E+00  0.11802458124E+01  0.00000000000E+00 0.  1.
         11    1    3    3    0    0  0.40389358573E+01 -0.10025525212E+02 -0.36136590417E+01  0.11396608731E+02  0.51100000000E-03 0. -1.
        -11    1    3    3    0    0 -0.11879115632E+02  0.13143429179E+02  0.38531375177E+02  0.42409079123E+02  0.51100000000E-03 0.  1.
         12    1    3    3    0    0  0.81485013178E+01 -0.20181981284E+01 -0.35215314983E+02  0.36202066333E+02  0.00000000000E+00 0. -1.
</event>
<event>
 7    1  0.2429906E-015  0.9000768E+02  0.7816164E-02  0.1186339E+00
        -11   -1    0    0    0    0  0.00000000000E+00  0.00000000000E+00  0.45593999997E+02  0.45594000000E+02  0.51100000000E-03 0.  1.
         11   -1    0    0    0    0 -0.00000000000E+00 -0.00000000000E+00 -0.45593999997E+02  0.45594000000E+02  0.51100000000E-03 0. -1.
    9900012    2    1    2    0    0 -0.10100478459E+01 -0.54942220755E+00  0.26663578044E+00  0.90007679682E+02  0.89999940254E+02 0.  0.
        -12    1    1    2    0    0  0.10100478459E+01  0.54942220755E+00 -0.26663578044E+00  0.11803203177E+01  0.00000000000E+00 0.  1.
         11    1    3    3    0    0  0.18251395441E+02 -0.10071918550E+02 -0.29409911377E+02  0.36048576481E+02  0.51100000000E-03 0. -1.
        -11    1    3    3    0    0  0.22039743768E+01 -0.11427828515E+00 -0.86824874132E+01  0.89585797157E+01  0.51100000000E-03 0.  1.
        -12    1    3    3    0    0 -0.21465417664E+02  0.96367746279E+01  0.38359034571E+02  0.45000523485E+02  0.00000000000E+00 0.  1.
</event>
<event>
 7    1  0.2429906E-015  0.9000773E+02  0.7816164E-02  0.1186339E+00
        -11   -1    0    0    0    0  0.00000000000E+00  0.00000000000E+00  0.45593999997E+02  0.45594000000E+02  0.51100000000E-03 0.  1.
         11   -1    0    0    0    0 -0.00000000000E+00 -0.00000000000E+00 -0.45593999997E+02  0.45594000000E+02  0.51100000000E-03 0. -1.
    9900012    2    1    2    0    0 -0.81224098151E+00  0.67331484881E+00  0.52910991834E+00  0.90007726471E+02  0.89999987660E+02 0.  0.
        -12    1    1    2    0    0  0.81224098151E+00 -0.67331484881E+00 -0.52910991834E+00  0.11802735290E+01  0.00000000000E+00 0.  1.
         11    1    3    3    0    0 -0.65779291730E+00 -0.17398589721E+01  0.10232628751E+02  0.10400312120E+02  0.51100000000E-03 0. -1.
        -11    1    3    3    0    0 -0.34291033447E+02  0.20611942188E+02 -0.85113617445E+01  0.40904405809E+02  0.51100000000E-03 0.  1.
         12    1    3    3    0    0  0.34136585383E+02 -0.18198768367E+02 -0.11921570885E+01  0.38703008542E+02  0.00000000000E+00 0. -1.
</event>
<event>
 7    1  0.2429906E-015  0.9000769E+02  0.7816164E-02  0.1186339E+00
        -11   -1    0    0    0    0  0.00000000000E+00  0.00000000000E+00  0.45593999997E+02  0.45594000000E+02  0.51100000000E-03 0. -1.
         11   -1    0    0    0    0 -0.00000000000E+00 -0.00000000000E+00 -0.45593999997E+02  0.45594000000E+02  0.51100000000E-03 0.  1.
    9900012    2    1    2    0    0  0.25316967774E-02 -0.41336763009E+00  0.11055533467E+01  0.90007691816E+02  0.89999952548E+02 0.  0.
        -12    1    1    2    0    0 -0.25316967774E-02  0.41336763009E+00 -0.11055533467E+01  0.11803081841E+01  0.00000000000E+00 0.  1.
         11    1    3    3    0    0 -0.18563222173E+02 -0.65934887750E+01  0.31590290976E+02  0.37229206221E+02  0.51100000000E-03 0. -1.
        -11    1    3    3    0    0 -0.56150915152E+01 -0.32171521146E+01  0.54480398972E+01  0.84593415486E+01  0.51100000000E-03 0.  1.
        -12    1    3    3    0    0  0.24180845385E+02  0.93972732595E+01 -0.35932777526E+02  0.44319144046E+02  0.00000000000E+00 0.  1.
</event>
<event>
 7    1  0.2429906E-015  0.9000760E+02  0.7816164E-02  0.1186339E+00
        -11   -1    0    0    0    0  0.00000000000E+00  0.00000000000E+00  0.45593999997E+02  0.45594000000E+02  0.51100000000E-03 0. -1.
         11   -1    0    0    0    0 -0.00000000000E+00 -0.00000000000E+00 -0.45593999997E+02  0.45594000000E+02  0.51100000000E-03 0.  1.
    9900012    2    1    2    0    0  0.10468360511E+01 -0.29102410630E+00 -0.46129360574E+00  0.90007596451E+02  0.89999855924E+02 0.  0.
        -12    1    1    2    0    0 -0.10468360511E+01  0.29102410630E+00  0.46129360574E+00  0.11804035492E+01  0.00000000000E+00 0.  1.
         11    1    3    3    0    0  0.12379759691E+02 -0.10503950125E+02  0.21198945128E+02  0.26701810670E+02  0.51100000000E-03 0. -1.
        -11    1    3    3    0    0 -0.95161657683E+01  0.14887732113E+02  0.16882498340E+02  0.24438099944E+02  0.51100000000E-03 0.  1.
        -12    1    3    3    0    0 -0.18167578715E+01 -0.46748060942E+01 -0.38542737074E+02  0.38867685837E+02  0.00000000000E+00 0.  1.
</event>
<event>
 7    1  0.2429906E-015  0.9000765E+02  0.7816164E-02  0.1186339E+00
        -11   -1    0    0    0    0  0.00000000000E+00  0.00000000000E+00  0.45593999997E+02  0.45594000000E+02  0.51100000000E-03 0.  1.
         11   -1    0    0    0    0 -0.00000000000E+00 -0.00000000000E+00 -0.45593999997E+02  0.45594000000E+02  0.51100000000E-03 0. -1.
    9900012    2    1    2    0    0 -0.66692796659E+00 -0.55557454839E+00 -0.79985554495E+00  0.90007650525E+02  0.89999910711E+02 0.  0.
        -12    1    1    2    0    0  0.66692796659E+00  0.55557454839E+00  0.79985554495E+00  0.11803494755E+01  0.00000000000E+00 0.  1.
         11    1    3    3    0    0  0.19618783902E+02  0.24346140355E+02 -0.30438670138E+02  0.43636497018E+02  0.51100000000E-03 0. -1.
        -11    1    3    3    0    0 -0.52991575623E+01  0.10266151958E+01  0.69460452813E+01  0.87967354707E+01  0.51100000000E-03 0.  1.
        -12    1    3    3    0    0 -0.14986554307E+02 -0.25928330099E+02  0.22692769312E+02  0.37574418036E+02  0.00000000000E+00 0.  1.
</event>
<event>
 7    1  0.2429906E-015  0.9000775E+02  0.7816164E-02  0.1186339E+00
        -11   -1    0    0    0    0  0.00000000000E+00  0.00000000000E+00  0.45593999997E+02  0.45594000000E+02  0.51100000000E-03 0. -1.
         11   -1    0    0    0    0 -0.00000000000E+00 -0.00000000000E+00 -0.45593999997E+02  0.45594000000E+02  0.51100000000E-03 0.  1.
    9900012    2    1    2    0    0  0.15181729279E+00 -0.26620804842E+00  0.11397656131E+01  0.90007753895E+02  0.90000015446E+02 0.  0.
        -12    1    1    2    0    0 -0.15181729279E+00  0.26620804842E+00 -0.11397656131E+01  0.11802461049E+01  0.00000000000E+00 0.  1.
         11    1    3    3    0    0  0.94215055836E+01  0.33113345817E+02  0.11680511060E+02  0.36355092869E+02  0.51100000000E-03 0. -1.
        -11    1    3    3    0    0  0.11039971689E+01  0.87631709310E+01  0.57479639438E+00  0.88511222832E+01  0.51100000000E-03 0.  1.
        -12    1    3    3    0    0 -0.10373685460E+02 -0.42142724796E+02 -0.11115541842E+02  0.44801538743E+02  0.00000000000E+00 0.  1.
</event>
<event>
 7    1  0.2429906E-015  0.9000768E+02  0.7816164E-02  0.1186339E+00
        -11   -1    0    0    0    0  0.00000000000E+00  0.00000000000E+00  0.45593999997E+02  0.45594000000E+02  0.51100000000E-03 0. -1.
         11   -1    0    0    0    0 -0.00000000000E+00 -0.00000000000E+00 -0.45593999997E+02  0.45594000000E+02  0.51100000000E-03 0.  1.
    9900012    2    1    2    0    0 -0.54561164874E+00 -0.47157483499E+00  0.93438766260E+00  0.90007680043E+02  0.89999940620E+02 0.  0.
        -12    1    1    2    0    0  0.54561164874E+00  0.47157483499E+00 -0.93438766260E+00  0.11803199567E+01  0.00000000000E+00 0.  1.
         11    1    3    3    0    0 -0.28572502946E+02  0.45622097838E+01  0.25999494276E+02  0.38899555082E+02  0.51100000000E-03 0. -1.
        -11    1    3    3    0    0  0.58441420597E+00 -0.10623757199E+02  0.34057270692E+01  0.11171603919E+02  0.51100000000E-03 0.  1.
        -12    1    3    3    0    0  0.27442477091E+02  0.55899725806E+01 -0.28470833683E+02  0.39936521042E+02  0.00000000000E+00 0.  1.
</event>
<event>
 7    1  0.2429906E-015  0.9000769E+02  0.7816164E-02  0.1186339E+00
        -11   -1    0    0    0    0  0.00000000000E+00  0.00000000000E+00  0.45593999997E+02  0.45594000000E+02  0.51100000000E-03 0. -1.
         11   -1    0    0    0    0 -0.00000000000E+00 -0.00000000000E+00 -0.45593999997E+02  0.45594000000E+02  0.51100000000E-03 0.  1.
    9900012    2    1    2    0    0  0.33429152272E+00 -0.10137496190E+01  0.50367313243E+00  0.90007692525E+02  0.89999953266E+02 0.  0.
        -12    1    1    2    0    0 -0.33429152272E+00  0.10137496190E+01 -0.50367313243E+00  0.11803074754E+01  0.00000000000E+00 0.  1.
         11    1    3    3    0    0 -0.18598179994E+01  0.33642781400E+02  0.10004290624E+02  0.35147994174E+02  0.51100000000E-03 0. -1.
        -11    1    3    3    0    0 -0.81071880925E+01  0.46506580986E+01  0.62888632662E+01  0.11265208429E+02  0.51100000000E-03 0.  1.
        -12    1    3    3    0    0  0.10301297615E+02 -0.39307189118E+02 -0.15789480758E+02  0.43594489921E+02  0.00000000000E+00 0.  1.
</event>
<event>
 7    1  0.2429906E-015  0.9000783E+02  0.7816164E-02  0.1186339E+00
        -11   -1    0    0    0    0  0.00000000000E+00  0.00000000000E+00  0.45593999997E+02  0.45594000000E+02  0.51100000000E-03 0.  1.
         11   -1    0    0    0    0 -0.00000000000E+00 -0.00000000000E+00 -0.45593999997E+02  0.45594000000E+02  0.51100000000E-03 0. -1.
    9900012    2    1    2    0    0 -0.82908153223E+00  0.71682719407E+00 -0.43769587486E+00  0.90007832600E+02  0.90000095190E+02 0.  0.
        -12    1    1    2    0    0  0.82908153223E+00 -0.71682719407E+00  0.43769587486E+00  0.11801674000E+01  0.00000000000E+00 0.  1.
         11    1    3    3    0    0 -0.16397244751E+01 -0.35321097013E+02 -0.10915305909E+02  0.37005573822E+02  0.51100000000E-03 0. -1.
        -11    1    3    3    0    0  0.50967626555E+01 -0.70223251101E+01  0.20586962728E+01  0.89178624189E+01  0.51100000000E-03 0.  1.
        -12    1    3    3    0    0 -0.42861197126E+01  0.43060249317E+02  0.84189137618E+01  0.44084396359E+02  0.00000000000E+00 0.  1.
</event>
<event>
 7    1  0.2429906E-015  0.9000769E+02  0.7816164E-02  0.1186339E+00
        -11   -1    0    0    0    0  0.00000000000E+00  0.00000000000E+00  0.45593999997E+02  0.45594000000E+02  0.51100000000E-03 0. -1.
         11   -1    0    0    0    0 -0.00000000000E+00 -0.00000000000E+00 -0.45593999997E+02  0.45594000000E+02  0.51100000000E-03 0.  1.
    9900012    2    1    2    0    0  0.24982851791E+00 -0.37104186631E-01  0.11529708555E+01  0.90007689531E+02  0.89999950233E+02 0.  0.
        -12    1    1    2    0    0 -0.24982851791E+00  0.37104186631E-01 -0.11529708555E+01  0.11803104688E+01  0.00000000000E+00 0.  1.
         11    1    3    3    0    0  0.13351509025E+01 -0.49139832185E+01  0.47165384569E+01  0.69408640875E+01  0.51100000000E-03 0. -1.
        -11    1    3    3    0    0  0.60782366191E+01 -0.38177934853E+02  0.36397412364E+01  0.38829722979E+02  0.51100000000E-03 0.  1.
         12    1    3    3    0    0 -0.71635590037E+01  0.43054813885E+02 -0.72033088379E+01  0.44237102465E+02  0.00000000000E+00 0. -1.
</event>
<event>
 7    1  0.2429906E-015  0.9000778E+02  0.7816164E-02  0.1186339E+00
        -11   -1    0    0    0    0  0.00000000000E+00  0.00000000000E+00  0.45593999997E+02  0.45594000000E+02  0.51100000000E-03 0.  1.
         11   -1    0    0    0    0 -0.00000000000E+00 -0.00000000000E+00 -0.45593999997E+02  0.45594000000E+02  0.51100000000E-03 0. -1.
    9900012    2    1    2    0    0 -0.39471999782E+00 -0.91162382932E+00  0.63722392174E+00  0.90007781288E+02  0.90000043200E+02 0.  0.
        -12    1    1    2    0    0  0.39471999782E+00  0.91162382932E+00 -0.63722392174E+00  0.11802187125E+01  0.00000000000E+00 0.  1.
         11    1    3    3    0    0 -0.86249455018E+01  0.41046096128E+01 -0.11755621703E+01  0.96239000234E+01  0.51100000000E-03 0. -1.
        -11    1    3    3    0    0 -0.28688667659E+02  0.15588317776E+02  0.15228531984E+02  0.36026982802E+02  0.51100000000E-03 0.  1.
         12    1    3    3    0    0  0.36918893163E+02 -0.20604551218E+02 -0.13415745892E+02  0.44356898462E+02  0.00000000000E+00 0. -1.
</event>
<event>
 7    1  0.2429906E-015  0.9000779E+02  0.7816164E-02  0.1186339E+00
        -11   -1    0    0    0    0  0.00000000000E+00  0.00000000000E+00  0.45593999997E+02  0.45594000000E+02  0.51100000000E-03 0. -1.
         11   -1    0    0    0    0 -0.00000000000E+00 -0.00000000000E+00 -0.45593999997E+02  0.45594000000E+02  0.51100000000E-03 0.  1.
    9900012    2    1    2    0    0 -0.94467769552E+00  0.52002848868E+00  0.47963388683E+00  0.90007790594E+02  0.90000052629E+02 0.  0.
        -12    1    1    2    0    0  0.94467769552E+00 -0.52002848868E+00 -0.47963388683E+00  0.11802094064E+01  0.00000000000E+00 0.  1.
         11    1    3    3    0    0  0.27168301132E+01 -0.13266233653E+02 -0.38677382389E+00  0.13547092509E+02  0.51100000000E-03 0. -1.
        -11    1    3    3    0    0 -0.37559305668E+02 -0.46859445857E+01  0.22249209289E+00  0.37851142941E+02  0.51100000000E-03 0.  1.
         12    1    3    3    0    0  0.33897797859E+02  0.18472206727E+02  0.64391561783E+00  0.38609555144E+02  0.00000000000E+00 0. -1.
</event>
<event>
 7    1  0.2429906E-015  0.9000771E+02  0.7816164E-02  0.1186339E+00
        -11   -1    0    0    0    0  0.00000000000E+00  0.00000000000E+00  0.45593999997E+02  0.45594000000E+02  0.51100000000E-03 0. -1.
         11   -1    0    0    0    0 -0.00000000000E+00 -0.00000000000E+00 -0.45593999997E+02  0.45594000000E+02  0.51100000000E-03 0.  1.
    9900012    2    1    2    0    0  0.11418920448E+01 -0.25251863187E+00  0.15941483049E+00  0.90007705041E+02  0.89999965948E+02 0.  0.
        -12    1    1    2    0    0 -0.11418920448E+01  0.25251863187E+00 -0.15941483049E+00  0.11802949587E+01  0.00000000000E+00 0.  1.
         11    1    3    3    0    0 -0.25391307358E+02  0.12722040534E+02  0.29405384676E+02  0.40880869033E+02  0.51100000000E-03 0. -1.
        -11    1    3    3    0    0  0.79502999744E+00 -0.13376288377E+02 -0.70705441250E+01  0.15150899575E+02  0.51100000000E-03 0.  1.
        -12    1    3    3    0    0  0.25738169405E+02  0.40172921138E+00 -0.22175425720E+02  0.33975936434E+02  0.00000000000E+00 0.  1.
</event>
<event>
 7    1  0.2429906E-015  0.9000784E+02  0.7816164E-02  0.1186339E+00
        -11   -1    0    0    0    0  0.00000000000E+00  0.00000000000E+00  0.45593999997E+02  0.45594000000E+02  0.51100000000E-03 0. -1.
         11   -1    0    0    0    0 -0.00000000000E+00 -0.00000000000E+00 -0.45593999997E+02  0.45594000000E+02  0.51100000000E-03 0.  1.
    9900012    2    1    2    0    0  0.18321075703E+00  0.11539311269E+01 -0.16631883270E+00  0.90007836799E+02  0.90000099445E+02 0.  0.
        -12    1    1    2    0    0 -0.18321075703E+00 -0.11539311269E+01  0.16631883270E+00  0.11801632011E+01  0.00000000000E+00 0.  1.
         11    1    3    3    0    0  0.98684986643E+01 -0.32309521286E+01  0.51858720103E+01  0.11606876682E+02  0.51100000000E-03 0. -1.
        -11    1    3    3    0    0 -0.51422520690E+01 -0.36391232260E+02  0.16006489500E+01  0.36787587839E+02  0.51100000000E-03 0.  1.
         12    1    3    3    0    0 -0.45430358383E+01  0.40776115515E+02 -0.69528397930E+01  0.41613372278E+02  0.00000000000E+00 0. -1.
</event>
<event>
 7    1  0.2429906E-015  0.9000774E+02  0.7816164E-02  0.1186339E+00
        -11   -1    0    0    0    0  0.00000000000E+00  0.00000000000E+00  0.45593999997E+02  0.45594000000E+02  0.51100000000E-03 0.  1.
         11   -1    0    0    0    0 -0.00000000000E+00 -0.00000000000E+00 -0.45593999997E+02  0.45594000000E+02  0.51100000000E-03 0. -1.
    9900012    2    1    2    0    0 -0.77074169408E+00 -0.88782853781E-01 -0.88943353463E+00  0.90007738518E+02  0.89999999866E+02 0.  0.
        -12    1    1    2    0    0  0.77074169408E+00  0.88782853781E-01  0.88943353463E+00  0.11802614823E+01  0.00000000000E+00 0.  1.
         11    1    3    3    0    0 -0.35314411795E+02 -0.13178984635E+02 -0.12326210421E+02  0.39657644661E+02  0.51100000000E-03 0. -1.
        -11    1    3    3    0    0 -0.45095822724E+01  0.85979018237E+01  0.27542138499E+01  0.10091875060E+02  0.51100000000E-03 0.  1.
        -12    1    3    3    0    0  0.39053252373E+02  0.44922999580E+01  0.86825630362E+01  0.40258218797E+02  0.00000000000E+00 0.  1.
</event>
<event>
 7    1  0.2429906E-015  0.9000755E+02  0.7816164E-02  0.1186339E+00
        -11   -1    0    0    0    0  0.00000000000E+00  0.00000000000E+00  0.45593999997E+02  0.45594000000E+02  0.51100000000E-03 0.  1.
         11   -1    0    0    0    0 -0.00000000000E+00 -0.00000000000E+00 -0.45593999997E+02  0.45594000000E+02  0.51100000000E-03 0. -1.
    9900012    2    1    2    0    0 -0.95274285278E+00 -0.68924419520E+00 -0.10341456760E+00  0.90007546241E+02  0.89999805051E+02 0.  0.
        -12    1    1    2    0    0  0.95274285278E+00  0.68924419520E+00  0.10341456760E+00  0.11804537589E+01  0.00000000000E+00 0.  1.
         11    1    3    3    0    0  0.70888780847E+01 -0.82147835728E+01  0.92049224519E+01  0.14229035781E+02  0.51100000000E-03 0. -1.
        -11    1    3    3    0    0  0.22758580755E+02 -0.21490696220E+02 -0.11647201021E+02  0.33398507660E+02  0.51100000000E-03 0.  1.
         12    1    3    3    0    0 -0.30800201693E+02  0.29016235598E+02  0.23388640017E+01  0.42380002801E+02  0.00000000000E+00 0. -1.
</event>
<event>
 7    1  0.2429906E-015  0.9000773E+02  0.7816164E-02  0.1186339E+00
        -11   -1    0    0    0    0  0.00000000000E+00  0.00000000000E+00  0.45593999997E+02  0.45594000000E+02  0.51100000000E-03 0.  1.
         11   -1    0    0    0    0 -0.00000000000E+00 -0.00000000000E+00 -0.45593999997E+02  0.45594000000E+02  0.51100000000E-03 0. -1.
    9900012    2    1    2    0    0 -0.72944778842E+00  0.82849595538E+00  0.41778102399E+00  0.90007728587E+02  0.89999989804E+02 0.  0.
        -12    1    1    2    0    0  0.72944778842E+00 -0.82849595538E+00 -0.41778102399E+00  0.11802714129E+01  0.00000000000E+00 0.  1.
         11    1    3    3    0    0  0.20885715668E+02  0.76467695337E+01 -0.36462449957E+02  0.42710612971E+02  0.51100000000E-03 0. -1.
        -11    1    3    3    0    0 -0.56273290134E+01  0.57665102847E+01  0.50167176159E+01  0.94914134135E+01  0.51100000000E-03 0.  1.
        -12    1    3    3    0    0 -0.15987834443E+02 -0.12584783863E+02  0.31863513365E+02  0.37805702202E+02  0.00000000000E+00 0.  1.
</event>
<event>
 7    1  0.2429906E-015  0.9000771E+02  0.7816164E-02  0.1186339E+00
        -11   -1    0    0    0    0  0.00000000000E+00  0.00000000000E+00  0.45593999997E+02  0.45594000000E+02  0.51100000000E-03 0. -1.
         11   -1    0    0    0    0 -0.00000000000E+00 -0.00000000000E+00 -0.45593999997E+02  0.45594000000E+02  0.51100000000E-03 0.  1.
    9900012    2    1    2    0    0  0.11005400949E+01  0.33437727018E+00 -0.26476215989E+00  0.90007705265E+02  0.89999966175E+02 0.  0.
        -12    1    1    2    0    0 -0.11005400949E+01 -0.33437727018E+00  0.26476215989E+00  0.11802947346E+01  0.00000000000E+00 0.  1.
         11    1    3    3    0    0  0.87650902630E+01 -0.12959300482E+02  0.26772034382E+02  0.31008258602E+02  0.51100000000E-03 0. -1.
        -11    1    3    3    0    0  0.48970899290E+01 -0.15413240370E+02  0.19794611168E+01  0.16293180630E+02  0.51100000000E-03 0.  1.
        -12    1    3    3    0    0 -0.12561640097E+02  0.28706918122E+02 -0.29016257659E+02  0.42706266033E+02  0.00000000000E+00 0.  1.
</event>
<event>
 7    1  0.2429906E-015  0.9000765E+02  0.7816164E-02  0.1186339E+00
        -11   -1    0    0    0    0  0.00000000000E+00  0.00000000000E+00  0.45593999997E+02  0.45594000000E+02  0.51100000000E-03 0. -1.
         11   -1    0    0    0    0 -0.00000000000E+00 -0.00000000000E+00 -0.45593999997E+02  0.45594000000E+02  0.51100000000E-03 0.  1.
    9900012    2    1    2    0    0  0.70318459796E+00 -0.86469000684E+00  0.38867893193E+00  0.90007648909E+02  0.89999909074E+02 0.  0.
        -12    1    1    2    0    0 -0.70318459796E+00  0.86469000684E+00 -0.38867893193E+00  0.11803510913E+01  0.00000000000E+00 0.  1.
         11    1    3    3    0    0  0.24547593247E+02 -0.77474630239E+00 -0.29144283771E+02  0.38112646757E+02  0.51100000000E-03 0. -1.
        -11    1    3    3    0    0 -0.26086509405E+01  0.37331706150E+01 -0.76510959741E+01  0.89039818304E+01  0.51100000000E-03 0.  1.
        -12    1    3    3    0    0 -0.21235757708E+02 -0.38231143195E+01  0.37184058677E+02  0.42991020321E+02  0.00000000000E+00 0.  1.
</event>
<event>
 7    1  0.2429906E-015  0.9000774E+02  0.7816164E-02  0.1186339E+00
        -11   -1    0    0    0    0  0.00000000000E+00  0.00000000000E+00  0.45593999997E+02  0.45594000000E+02  0.51100000000E-03 0.  1.
         11   -1    0    0    0    0 -0.00000000000E+00 -0.00000000000E+00 -0.45593999997E+02  0.45594000000E+02  0.51100000000E-03 0. -1.
    9900012    2    1    2    0    0  0.63222148566E+00  0.96526154516E+00 -0.24814891502E+00  0.90007740816E+02  0.90000002195E+02 0.  0.
        -12    1    1    2    0    0 -0.63222148566E+00 -0.96526154516E+00  0.24814891502E+00  0.11802591840E+01  0.00000000000E+00 0.  1.
         11    1    3    3    0    0  0.16427758569E+02  0.37001371689E+02 -0.18993179569E+02  0.44718157708E+02  0.51100000000E-03 0. -1.
        -11    1    3    3    0    0 -0.12923530162E+01 -0.53534364520E+01  0.79599576621E+01  0.96793793400E+01  0.51100000000E-03 0.  1.
        -12    1    3    3    0    0 -0.14503184067E+02 -0.30682673691E+02  0.10785072992E+02  0.35610203768E+02  0.00000000000E+00 0.  1.
</event>
<event>
 7    1  0.2429906E-015  0.9000786E+02  0.7816164E-02  0.1186339E+00
        -11   -1    0    0    0    0  0.00000000000E+00  0.00000000000E+00  0.45593999997E+02  0.45594000000E+02  0.51100000000E-03 0.  1.
         11   -1    0    0    0    0 -0.00000000000E+00 -0.00000000000E+00 -0.45593999997E+02  0.45594000000E+02  0.51100000000E-03 0. -1.
    9900012    2    1    2    0    0  0.71114007164E+00 -0.73636104906E+00 -0.58718963549E+00  0.90007856168E+02  0.90000119069E+02 0.  0.
        -12    1    1    2    0    0 -0.71114007164E+00  0.73636104906E+00  0.58718963549E+00  0.11801438320E+01  0.00000000000E+00 0.  1.
         11    1    3    3    0    0 -0.53302227196E+01  0.46454901595E+01 -0.51741981662E+01  0.87615169912E+01  0.51100000000E-03 0. -1.
        -11    1    3    3    0    0 -0.33247598603E+02  0.86738901015E+01 -0.11924507650E+02  0.36370772130E+02  0.51100000000E-03 0.  1.
         12    1    3    3    0    0  0.39288961394E+02 -0.14055741310E+02  0.16511516181E+02  0.44875567047E+02  0.00000000000E+00 0. -1.
</event>
<event>
 7    1  0.2429906E-015  0.9000777E+02  0.7816164E-02  0.1186339E+00
        -11   -1    0    0    0    0  0.00000000000E+00  0.00000000000E+00  0.45593999997E+02  0.45594000000E+02  0.51100000000E-03 0. -1.
         11   -1    0    0    0    0 -0.00000000000E+00 -0.00000000000E+00 -0.45593999997E+02  0.45594000000E+02  0.51100000000E-03 0.  1.
    9900012    2    1    2    0    0  0.81432710525E-01  0.38560963630E+00  0.11124837697E+01  0.90007768575E+02  0.90000030321E+02 0.  0.
        -12    1    1    2    0    0 -0.81432710525E-01 -0.38560963630E+00 -0.11124837697E+01  0.11802314247E+01  0.00000000000E+00 0.  1.
         11    1    3    3    0    0  0.30485350192E+02 -0.11744614884E+02 -0.29223945931E+02  0.43832996375E+02  0.51100000000E-03 0. -1.
        -11    1    3    3    0    0 -0.18752226250E+01  0.29599126758E+01  0.82049303695E+01  0.89217949748E+01  0.51100000000E-03 0.  1.
        -12    1    3    3    0    0 -0.28528694857E+02  0.91703118441E+01  0.22131499332E+02  0.37252977226E+02  0.00000000000E+00 0.  1.
</event>
<event>
 7    1  0.2429906E-015  0.9000797E+02  0.7816164E-02  0.1186339E+00
        -11   -1    0    0    0    0  0.00000000000E+00  0.00000000000E+00  0.45593999997E+02  0.45594000000E+02  0.51100000000E-03 0.  1.
         11   -1    0    0    0    0 -0.00000000000E+00 -0.00000000000E+00 -0.45593999997E+02  0.45594000000E+02  0.51100000000E-03 0. -1.
    9900012    2    1    2    0    0 -0.10982912006E+01  0.22972250437E+00 -0.36530351040E+00  0.90007973456E+02  0.90000237905E+02 0.  0.
        -12    1    1    2    0    0  0.10982912006E+01 -0.22972250437E+00  0.36530351040E+00  0.11800265442E+01  0.00000000000E+00 0.  1.
         11    1    3    3    0    0  0.26670416340E+02  0.86726071363E+01 -0.21055326654E+02  0.35069245829E+02  0.51100000000E-03 0. -1.
        -11    1    3    3    0    0  0.52490448363E+01 -0.40205163645E+00 -0.85946087591E+01  0.10078760697E+02  0.51100000000E-03 0.  1.
        -12    1    3    3    0    0 -0.33017752376E+02 -0.80408329955E+01  0.29284631902E+02  0.44859966929E+02  0.00000000000E+00 0.  1.
</event>
<event>
 7    1  0.2429906E-015  0.9000770E+02  0.7816164E-02  0.1186339E+00
        -11   -1    0    0    0    0  0.00000000000E+00  0.00000000000E+00  0.45593999997E+02  0.45594000000E+02  0.51100000000E-03 0.  1.
         11   -1    0    0    0    0 -0.00000000000E+00 -0.00000000000E+00 -0.45593999997E+02  0.45594000000E+02  0.51100000000E-03 0. -1.
    9900012    2    1    2    0    0 -0.11433365703E+01 -0.29078997432E+00  0.36595909664E-01  0.90007696402E+02  0.89999957195E+02 0.  0.
        -12    1    1    2    0    0  0.11433365703E+01  0.29078997432E+00 -0.36595909664E-01  0.11803035977E+01  0.00000000000E+00 0.  1.
         11    1    3    3    0    0 -0.88900139416E+01  0.78868955941E+00  0.29015450498E+01  0.93847399026E+01  0.51100000000E-03 0. -1.
        -11    1    3    3    0    0  0.17596883035E+02  0.17856800058E+02  0.31444722528E+02  0.40215496714E+02  0.51100000000E-03 0.  1.
         12    1    3    3    0    0 -0.98502056632E+01 -0.18936279592E+02 -0.34309671668E+02  0.40407459786E+02  0.00000000000E+00 0. -1.
</event>
<event>
 7    1  0.2429906E-015  0.9000779E+02  0.7816164E-02  0.1186339E+00
        -11   -1    0    0    0    0  0.00000000000E+00  0.00000000000E+00  0.45593999997E+02  0.45594000000E+02  0.51100000000E-03 0.  1.
         11   -1    0    0    0    0 -0.00000000000E+00 -0.00000000000E+00 -0.45593999997E+02  0.45594000000E+02  0.51100000000E-03 0. -1.
    9900012    2    1    2    0    0  0.40979081314E+00  0.41483177415E+00 -0.10260956507E+01  0.90007794003E+02  0.90000056084E+02 0.  0.
        -12    1    1    2    0    0 -0.40979081314E+00 -0.41483177415E+00  0.10260956507E+01  0.11802059972E+01  0.00000000000E+00 0.  1.
         11    1    3    3    0    0  0.25138411242E+02 -0.47170736804E+01 -0.25012366249E+02  0.35774417809E+02  0.51100000000E-03 0. -1.
        -11    1    3    3    0    0  0.63279575076E+01 -0.51907869434E+01 -0.57595727642E+01  0.10007996503E+02  0.51100000000E-03 0.  1.
        -12    1    3    3    0    0 -0.31056577937E+02  0.10322692398E+02  0.29745843363E+02  0.44225379692E+02  0.00000000000E+00 0.  1.
</event>
<event>
 7    1  0.2429906E-015  0.9000776E+02  0.7816164E-02  0.1186339E+00
        -11   -1    0    0    0    0  0.00000000000E+00  0.00000000000E+00  0.45593999997E+02  0.45594000000E+02  0.51100000000E-03 0.  1.
         11   -1    0    0    0    0 -0.00000000000E+00 -0.00000000000E+00 -0.45593999997E+02  0.45594000000E+02  0.51100000000E-03 0. -1.
    9900012    2    1    2    0    0  0.11166236661E+01  0.34121502892E+00 -0.17230128024E+00  0.90007761109E+02  0.90000022756E+02 0.  0.
        -12    1    1    2    0    0 -0.11166236661E+01 -0.34121502892E+00  0.17230128024E+00  0.11802388906E+01  0.00000000000E+00 0.  1.
         11    1    3    3    0    0  0.19506842430E+02  0.31211675893E+02 -0.14393494048E+02  0.39520352792E+02  0.51100000000E-03 0. -1.
        -11    1    3    3    0    0 -0.42154663782E+01  0.68898138924E+01  0.30729427045E+01  0.86419135256E+01  0.51100000000E-03 0.  1.
        -12    1    3    3    0    0 -0.14174752386E+02 -0.37760274757E+02  0.11148250063E+02  0.41845494792E+02  0.00000000000E+00 0.  1.
</event>
<event>
 7    1  0.2429906E-015  0.9000762E+02  0.7816164E-02  0.1186339E+00
        -11   -1    0    0    0    0  0.00000000000E+00  0.00000000000E+00  0.45593999997E+02  0.45594000000E+02  0.51100000000E-03 0. -1.
         11   -1    0    0    0    0 -0.00000000000E+00 -0.00000000000E+00 -0.45593999997E+02  0.45594000000E+02  0.51100000000E-03 0.  1.
    9900012    2    1    2    0    0 -0.99425730038E+00 -0.59326997513E+00  0.22974624011E+00  0.90007618630E+02  0.89999878396E+02 0.  0.
        -12    1    1    2    0    0  0.99425730038E+00  0.59326997513E+00 -0.22974624011E+00  0.11803813696E+01  0.00000000000E+00 0.  1.
         11    1    3    3    0    0  0.39494534249E+02  0.10332104422E+02 -0.14685073865E+00  0.40823916798E+02  0.51100000000E-03 0. -1.
        -11    1    3    3    0    0 -0.46942755101E+01  0.73597258474E+01  0.20036211525E+01  0.89563544535E+01  0.51100000000E-03 0.  1.
        -12    1    3    3    0    0 -0.35794516040E+02 -0.18285100244E+02 -0.16270241738E+01  0.40227347379E+02  0.00000000000E+00 0.  1.
</event>
<event>
 7    1  0.2429906E-015  0.9000771E+02  0.7816164E-02  0.1186339E+00
        -11   -1    0    0    0    0  0.00000000000E+00  0.00000000000E+00  0.45593999997E+02  0.45594000000E+02  0.51100000000E-03 0. -1.
         11   -1    0    0    0    0 -0.00000000000E+00 -0.00000000000E+00 -0.45593999997E+02  0.45594000000E+02  0.51100000000E-03 0.  1.
    9900012    2    1    2    0    0 -0.19474175719E+00 -0.11232468805E+01  0.30572879830E+00  0.90007712745E+02  0.89999973753E+02 0.  0.
        -12    1    1    2    0    0  0.19474175719E+00  0.11232468805E+01 -0.30572879830E+00  0.11802872551E+01  0.00000000000E+00 0.  1.
         11    1    3    3    0    0 -0.15014403061E+02 -0.25988999056E+02  0.99778610982E+01  0.31629386392E+02  0.51100000000E-03 0. -1.
        -11    1    3    3    0    0 -0.57303809604E+01 -0.12287125185E+02  0.33560996417E+01  0.13966893582E+02  0.51100000000E-03 0.  1.
        -12    1    3    3    0    0  0.20550042264E+02  0.37152877361E+02 -0.13028231942E+02  0.44411432771E+02  0.00000000000E+00 0.  1.
</event>
<event>
 7    1  0.2429906E-015  0.9000742E+02  0.7816164E-02  0.1186340E+00
        -11   -1    0    0    0    0  0.00000000000E+00  0.00000000000E+00  0.45593999997E+02  0.45594000000E+02  0.51100000000E-03 0.  1.
         11   -1    0    0    0    0 -0.00000000000E+00 -0.00000000000E+00 -0.45593999997E+02  0.45594000000E+02  0.51100000000E-03 0. -1.
    9900012    2    1    2    0    0 -0.10707463378E-01  0.81864081371E+00 -0.85057377521E+00  0.90007422523E+02  0.89999679700E+02 0.  0.
        -12    1    1    2    0    0  0.10707463378E-01 -0.81864081371E+00  0.85057377521E+00  0.11805774768E+01  0.00000000000E+00 0.  1.
         11    1    3    3    0    0  0.17080760765E+02  0.17082888568E+02 -0.27946956002E+02  0.36940625606E+02  0.51100000000E-03 0. -1.
        -11    1    3    3    0    0  0.10873162713E+02  0.13060829455E+01  0.10424221243E+01  0.11000825614E+02  0.51100000000E-03 0.  1.
        -12    1    3    3    0    0 -0.27964630942E+02 -0.17570330700E+02  0.26053960102E+02  0.42065971303E+02  0.00000000000E+00 0.  1.
</event>
<event>
 7    1  0.2429906E-015  0.9000763E+02  0.7816164E-02  0.1186339E+00
        -11   -1    0    0    0    0  0.00000000000E+00  0.00000000000E+00  0.45593999997E+02  0.45594000000E+02  0.51100000000E-03 0. -1.
         11   -1    0    0    0    0 -0.00000000000E+00 -0.00000000000E+00 -0.45593999997E+02  0.45594000000E+02  0.51100000000E-03 0.  1.
    9900012    2    1    2    0    0  0.10509643043E+01  0.45388649557E+00  0.28762039518E+00  0.90007633781E+02  0.89999893747E+02 0.  0.
        -12    1    1    2    0    0 -0.10509643043E+01 -0.45388649557E+00 -0.28762039518E+00  0.11803662192E+01  0.00000000000E+00 0.  1.
         11    1    3    3    0    0  0.33986817307E+01  0.12199895466E+01 -0.86460922344E+01  0.93698624957E+01  0.51100000000E-03 0. -1.
        -11    1    3    3    0    0 -0.17696883095E+02  0.22051314042E+02 -0.24454509456E+02  0.37382658483E+02  0.51100000000E-03 0.  1.
         12    1    3    3    0    0  0.15349165668E+02 -0.22817417093E+02  0.33388222085E+02  0.43255112802E+02  0.00000000000E+00 0. -1.
</event>
<event>
 7    1  0.2429906E-015  0.9000770E+02  0.7816164E-02  0.1186339E+00
        -11   -1    0    0    0    0  0.00000000000E+00  0.00000000000E+00  0.45593999997E+02  0.45594000000E+02  0.51100000000E-03 0. -1.
         11   -1    0    0    0    0 -0.00000000000E+00 -0.00000000000E+00 -0.45593999997E+02  0.45594000000E+02  0.51100000000E-03 0.  1.
    9900012    2    1    2    0    0  0.38456851189E+00 -0.83155950169E+00  0.74412412965E+00  0.90007701366E+02  0.89999962224E+02 0.  0.
        -12    1    1    2    0    0 -0.38456851189E+00  0.83155950169E+00 -0.74412412965E+00  0.11802986340E+01  0.00000000000E+00 0.  1.
         11    1    3    3    0    0 -0.36843757072E+02 -0.14627485489E+02  0.12035127760E+02  0.41427889970E+02  0.51100000000E-03 0. -1.
        -11    1    3    3    0    0  0.56152763970E+01 -0.27573219724E+01  0.62274257433E+01  0.88269465345E+01  0.51100000000E-03 0.  1.
        -12    1    3    3    0    0  0.31613049187E+02  0.16553247960E+02 -0.17518429374E+02  0.39752864861E+02  0.00000000000E+00 0.  1.
</event>
<event>
 7    1  0.2429906E-015  0.9000724E+02  0.7816164E-02  0.1186340E+00
        -11   -1    0    0    0    0  0.00000000000E+00  0.00000000000E+00  0.45593999997E+02  0.45594000000E+02  0.51100000000E-03 0.  1.
         11   -1    0    0    0    0 -0.00000000000E+00 -0.00000000000E+00 -0.45593999997E+02  0.45594000000E+02  0.51100000000E-03 0. -1.
    9900012    2    1    2    0    0  0.46458902809E+00  0.88909004317E+00 -0.62278665677E+00  0.90007242917E+02  0.89999497722E+02 0.  0.
        -12    1    1    2    0    0 -0.46458902809E+00 -0.88909004317E+00  0.62278665677E+00  0.11807570833E+01  0.00000000000E+00 0.  1.
         11    1    3    3    0    0  0.13082707842E+00  0.74744490118E+01  0.47119372387E+01  0.88366767825E+01  0.51100000000E-03 0. -1.
        -11    1    3    3    0    0 -0.12722913400E+02  0.34957464280E+02 -0.56226861105E+01  0.37623283132E+02  0.51100000000E-03 0.  1.
         12    1    3    3    0    0  0.13056675349E+02 -0.41542823249E+02  0.28796221498E+00  0.43547283002E+02  0.00000000000E+00 0. -1.
</event>
<event>
 7    1  0.4202608E-015  0.9000769E+02  0.7816164E-02  0.1186339E+00
        -11   -1    0    0    0    0  0.00000000000E+00  0.00000000000E+00  0.45593999997E+02  0.45594000000E+02  0.51100000000E-03 0.  1.
         11   -1    0    0    0    0 -0.00000000000E+00 -0.00000000000E+00 -0.45593999997E+02  0.45594000000E+02  0.51100000000E-03 0. -1.
    9900012    2    1    2    0    0  0.53162082540E+00  0.44182295956E+00 -0.95672065586E+00  0.90007685363E+02  0.89999946010E+02 0.  0.
        -12    1    1    2    0    0 -0.53162082540E+00 -0.44182295956E+00  0.95672065586E+00  0.11803146373E+01  0.00000000000E+00 0.  1.
         11    1    3    3    0    0  0.25854727564E+02  0.91395825854E+01 -0.24516260444E+02  0.36783772695E+02  0.51100000000E-03 0. -1.
        -11    1    3    3    0    0  0.22050500310E+01  0.26099239960E+01 -0.86921609711E+01  0.93395723410E+01  0.51100000000E-03 0.  1.
        -12    1    3    3    0    0 -0.27528156770E+02 -0.11307683622E+02  0.32251700759E+02  0.43884340327E+02  0.00000000000E+00 0.  1.
</event>
<event>
 7    1  0.2429906E-015  0.9000775E+02  0.7816164E-02  0.1186339E+00
        -11   -1    0    0    0    0  0.00000000000E+00  0.00000000000E+00  0.45593999997E+02  0.45594000000E+02  0.51100000000E-03 0. -1.
         11   -1    0    0    0    0 -0.00000000000E+00 -0.00000000000E+00 -0.45593999997E+02  0.45594000000E+02  0.51100000000E-03 0.  1.
    9900012    2    1    2    0    0 -0.62706336188E-01 -0.11782290764E+01  0.29031151794E-01  0.90007746363E+02  0.90000007814E+02 0.  0.
        -12    1    1    2    0    0  0.62706336188E-01  0.11782290764E+01 -0.29031151794E-01  0.11802536375E+01  0.00000000000E+00 0.  1.
         11    1    3    3    0    0 -0.15139966463E+01  0.45219691939E+01  0.19862921808E+01  0.51658250187E+01  0.51100000000E-03 0. -1.
        -11    1    3    3    0    0 -0.15193046882E+02  0.36184527260E+02  0.36946918197E+01  0.39418262703E+02  0.51100000000E-03 0.  1.
         12    1    3    3    0    0  0.16644337192E+02 -0.41884725530E+02 -0.56519528487E+01  0.45423658641E+02  0.00000000000E+00 0. -1.
</event>
<event>
 7    1  0.2429906E-015  0.9000775E+02  0.7816164E-02  0.1186339E+00
        -11   -1    0    0    0    0  0.00000000000E+00  0.00000000000E+00  0.45593999997E+02  0.45594000000E+02  0.51100000000E-03 0.  1.
         11   -1    0    0    0    0 -0.00000000000E+00 -0.00000000000E+00 -0.45593999997E+02  0.45594000000E+02  0.51100000000E-03 0. -1.
    9900012    2    1    2    0    0  0.10172641822E+01  0.36411470035E-01 -0.59735950448E+00  0.90007749777E+02  0.90000011274E+02 0.  0.
        -12    1    1    2    0    0 -0.10172641822E+01 -0.36411470035E-01  0.59735950448E+00  0.11802502231E+01  0.00000000000E+00 0.  1.
         11    1    3    3    0    0  0.41567949946E+02 -0.73923777215E+01  0.82344475046E+01  0.43015669669E+02  0.51100000000E-03 0. -1.
        -11    1    3    3    0    0 -0.63007868967E+01 -0.14382121632E+01  0.58218046870E+01  0.86983779993E+01  0.51100000000E-03 0.  1.
        -12    1    3    3    0    0 -0.34249898867E+02  0.88670013547E+01 -0.14653611696E+02  0.38293702109E+02  0.00000000000E+00 0.  1.
</event>
<event>
 7    1  0.2429906E-015  0.9000784E+02  0.7816164E-02  0.1186339E+00
        -11   -1    0    0    0    0  0.00000000000E+00  0.00000000000E+00  0.45593999997E+02  0.45594000000E+02  0.51100000000E-03 0.  1.
         11   -1    0    0    0    0 -0.00000000000E+00 -0.00000000000E+00 -0.45593999997E+02  0.45594000000E+02  0.51100000000E-03 0. -1.
    9900012    2    1    2    0    0 -0.51685424770E+00  0.34538667414E+00 -0.10031660202E+01  0.90007842243E+02  0.90000104960E+02 0.  0.
        -12    1    1    2    0    0  0.51685424770E+00 -0.34538667414E+00  0.10031660202E+01  0.11801577573E+01  0.00000000000E+00 0.  1.
         11    1    3    3    0    0 -0.83041985040E+01 -0.19957168128E+02 -0.31723893406E+02  0.38388197217E+02  0.51100000000E-03 0. -1.
        -11    1    3    3    0    0 -0.97257862843E+01 -0.40442948694E+01  0.34504587522E+01  0.11083902999E+02  0.51100000000E-03 0.  1.
        -12    1    3    3    0    0  0.17513130541E+02  0.24346849671E+02  0.27270268634E+02  0.40535742026E+02  0.00000000000E+00 0.  1.
</event>
<event>
 7    1  0.2429906E-015  0.9000766E+02  0.7816164E-02  0.1186339E+00
        -11   -1    0    0    0    0  0.00000000000E+00  0.00000000000E+00  0.45593999997E+02  0.45594000000E+02  0.51100000000E-03 0.  1.
         11   -1    0    0    0    0 -0.00000000000E+00 -0.00000000000E+00 -0.45593999997E+02  0.45594000000E+02  0.51100000000E-03 0. -1.
    9900012    2    1    2    0    0 -0.18912950171E-02  0.11251118216E+01 -0.35683824879E+00  0.90007655252E+02  0.89999915501E+02 0.  0.
        -12    1    1    2    0    0  0.18912950171E-02 -0.11251118216E+01  0.35683824879E+00  0.11803447479E+01  0.00000000000E+00 0.  1.
         11    1    3    3    0    0 -0.87339239549E+01  0.17116944094E+02 -0.39897335800E+02  0.44283954283E+02  0.51100000000E-03 0. -1.
        -11    1    3    3    0    0 -0.19740507201E+01  0.14654298629E+01  0.36259161415E+01  0.43808251568E+01  0.51100000000E-03 0.  1.
        -12    1    3    3    0    0  0.10706083380E+02 -0.17457262135E+02  0.35914581410E+02  0.41342875812E+02  0.00000000000E+00 0.  1.
</event>
<event>
 7    1  0.2429906E-015  0.9000767E+02  0.7816164E-02  0.1186339E+00
        -11   -1    0    0    0    0  0.00000000000E+00  0.00000000000E+00  0.45593999997E+02  0.45594000000E+02  0.51100000000E-03 0.  1.
         11   -1    0    0    0    0 -0.00000000000E+00 -0.00000000000E+00 -0.45593999997E+02  0.45594000000E+02  0.51100000000E-03 0. -1.
    9900012    2    1    2    0    0 -0.11511265388E+01 -0.12023436937E+00 -0.23156995629E+00  0.90007672394E+02  0.89999932870E+02 0.  0.
        -12    1    1    2    0    0  0.11511265388E+01  0.12023436937E+00  0.23156995629E+00  0.11803276056E+01  0.00000000000E+00 0.  1.
         11    1    3    3    0    0 -0.34645556900E+01  0.10138758976E+02 -0.98708142341E+00  0.10759735577E+02  0.51100000000E-03 0. -1.
        -11    1    3    3    0    0  0.77377913826E+01  0.32111335671E+02  0.11888570408E+02  0.35104834435E+02  0.51100000000E-03 0.  1.
         12    1    3    3    0    0 -0.54243622313E+01 -0.42370329016E+02 -0.11133058941E+02  0.44143102382E+02  0.00000000000E+00 0. -1.
</event>
<event>
 7    1  0.2429906E-015  0.9000768E+02  0.7816164E-02  0.1186339E+00
        -11   -1    0    0    0    0  0.00000000000E+00  0.00000000000E+00  0.45593999997E+02  0.45594000000E+02  0.51100000000E-03 0. -1.
         11   -1    0    0    0    0 -0.00000000000E+00 -0.00000000000E+00 -0.45593999997E+02  0.45594000000E+02  0.51100000000E-03 0.  1.
    9900012    2    1    2    0    0 -0.81872432338E+00 -0.92330773579E-01  0.84517119787E+00  0.90007682736E+02  0.89999943348E+02 0.  0.
        -12    1    1    2    0    0  0.81872432338E+00  0.92330773579E-01 -0.84517119787E+00  0.11803172638E+01  0.00000000000E+00 0.  1.
         11    1    3    3    0    0  0.33432092912E+00  0.20645462209E+01 -0.12298313219E+02  0.12474879954E+02  0.51100000000E-03 0. -1.
        -11    1    3    3    0    0 -0.77259965920E+01  0.28449795579E+02 -0.17036986604E+02  0.34049094036E+02  0.51100000000E-03 0.  1.
         12    1    3    3    0    0  0.65729513395E+01 -0.30606672573E+02  0.30180471021E+02  0.43483708747E+02  0.00000000000E+00 0. -1.
</event>
<event>
 8    1  0.2429906E-015  0.9000786E+02  0.7816164E-02  0.1186339E+00
        -11   -1    0    0    0    0  0.00000000000E+00  0.00000000000E+00  0.45593999997E+02  0.45594000000E+02  0.51100000000E-03 0. -1.
         11   -1    0    0    0    0 -0.00000000000E+00 -0.00000000000E+00 -0.45593999997E+02  0.45594000000E+02  0.51100000000E-03 0.  1.
    9900012    2    1    2    0    0  0.51329522234E+00  0.96102272690E+00  0.45353813766E+00  0.90007858691E+02  0.90000121626E+02 0.  0.
         23    2    3    3    0    0  0.11230206654E+02  0.20438735184E+02  0.83194102291E+01  0.66425971215E+02  0.61638767248E+02 0.  0.
        -12    1    1    2    0    0 -0.51329522234E+00 -0.96102272690E+00 -0.45353813766E+00  0.11801413090E+01  0.00000000000E+00 0.  1.
         11    1    4    4    0    0  0.32601040699E+02  0.27616958819E+02  0.10510273076E+01  0.42739079631E+02  0.51100000000E-03 0. -1.
        -11    1    4    4    0    0 -0.21370834045E+02 -0.71782236358E+01  0.72683829214E+01  0.23686891583E+02  0.51100000000E-03 0.  1.
        -12    1    3    3    0    0 -0.10716911432E+02 -0.19477712457E+02 -0.78658720914E+01  0.23581887476E+02  0.00000000000E+00 0.  1.
</event>
<event>
 7    1  0.2429906E-015  0.9000778E+02  0.7816164E-02  0.1186339E+00
        -11   -1    0    0    0    0  0.00000000000E+00  0.00000000000E+00  0.45593999997E+02  0.45594000000E+02  0.51100000000E-03 0.  1.
         11   -1    0    0    0    0 -0.00000000000E+00 -0.00000000000E+00 -0.45593999997E+02  0.45594000000E+02  0.51100000000E-03 0. -1.
    9900012    2    1    2    0    0 -0.47839504277E+00 -0.67354488879E+00 -0.84285436702E+00  0.90007776285E+02  0.90000038132E+02 0.  0.
        -12    1    1    2    0    0  0.47839504277E+00  0.67354488879E+00  0.84285436702E+00  0.11802237153E+01  0.00000000000E+00 0.  1.
         11    1    3    3    0    0 -0.32503240361E+02  0.24485905864E+02  0.48871510532E+00  0.40697162833E+02  0.51100000000E-03 0. -1.
        -11    1    3    3    0    0  0.75939931325E+01  0.58152371815E+01  0.18145702314E+01  0.97354188693E+01  0.51100000000E-03 0.  1.
        -12    1    3    3    0    0  0.24430852186E+02 -0.30974687935E+02 -0.31461397038E+01  0.39575194582E+02  0.00000000000E+00 0.  1.
</event>
<event>
 7    1  0.2429906E-015  0.9000770E+02  0.7816164E-02  0.1186339E+00
        -11   -1    0    0    0    0  0.00000000000E+00  0.00000000000E+00  0.45593999997E+02  0.45594000000E+02  0.51100000000E-03 0.  1.
         11   -1    0    0    0    0 -0.00000000000E+00 -0.00000000000E+00 -0.45593999997E+02  0.45594000000E+02  0.51100000000E-03 0. -1.
    9900012    2    1    2    0    0  0.96278967334E+00 -0.44941985036E+00 -0.51396442756E+00  0.90007702754E+02  0.89999963630E+02 0.  0.
        -12    1    1    2    0    0 -0.96278967334E+00  0.44941985036E+00  0.51396442756E+00  0.11802972464E+01  0.00000000000E+00 0.  1.
         11    1    3    3    0    0 -0.46836309915E+01 -0.70199312110E+01  0.16389690739E+01  0.85966303490E+01  0.51100000000E-03 0. -1.
        -11    1    3    3    0    0 -0.74904958258E+01  0.20246128401E+02  0.34180482675E+02  0.40426707003E+02  0.51100000000E-03 0.  1.
         12    1    3    3    0    0  0.13136916491E+02 -0.13675617040E+02 -0.36333416177E+02  0.40984365402E+02  0.00000000000E+00 0. -1.
</event>
<event>
 7    1  0.2429906E-015  0.9000782E+02  0.7816164E-02  0.1186339E+00
        -11   -1    0    0    0    0  0.00000000000E+00  0.00000000000E+00  0.45593999997E+02  0.45594000000E+02  0.51100000000E-03 0.  1.
         11   -1    0    0    0    0 -0.00000000000E+00 -0.00000000000E+00 -0.45593999997E+02  0.45594000000E+02  0.51100000000E-03 0. -1.
    9900012    2    1    2    0    0 -0.11871500652E+00 -0.30642572914E+00 -0.11335031567E+01  0.90007822307E+02  0.90000084762E+02 0.  0.
        -12    1    1    2    0    0  0.11871500652E+00  0.30642572914E+00  0.11335031567E+01  0.11801776928E+01  0.00000000000E+00 0.  1.
         11    1    3    3    0    0 -0.73059124410E+00  0.97912674556E+01  0.76044103149E+00  0.98478907781E+01  0.51100000000E-03 0. -1.
        -11    1    3    3    0    0  0.30929965481E+02 -0.30270339083E+02  0.31698026144E+01  0.43393592174E+02  0.51100000000E-03 0.  1.
         12    1    3    3    0    0 -0.30318089244E+02  0.20172645898E+02 -0.50637468026E+01  0.36766339355E+02  0.00000000000E+00 0. -1.
</event>
<event>
 7    1  0.2429906E-015  0.9000773E+02  0.7816164E-02  0.1186339E+00
        -11   -1    0    0    0    0  0.00000000000E+00  0.00000000000E+00  0.45593999997E+02  0.45594000000E+02  0.51100000000E-03 0.  1.
         11   -1    0    0    0    0 -0.00000000000E+00 -0.00000000000E+00 -0.45593999997E+02  0.45594000000E+02  0.51100000000E-03 0. -1.
    9900012    2    1    2    0    0 -0.29263928053E+00 -0.54847747147E+00 -0.10032785449E+01  0.90007731758E+02  0.89999993017E+02 0.  0.
        -12    1    1    2    0    0  0.29263928053E+00  0.54847747147E+00  0.10032785449E+01  0.11802682424E+01  0.00000000000E+00 0.  1.
         11    1    3    3    0    0  0.12426779445E+02  0.96121445991E+00 -0.17302325205E+02  0.21324146838E+02  0.51100000000E-03 0. -1.
        -11    1    3    3    0    0  0.73554998572E+01 -0.25526018382E+02 -0.94053005431E+01  0.28180501612E+02  0.51100000000E-03 0.  1.
        -12    1    3    3    0    0 -0.20074918582E+02  0.24016326450E+02  0.25704347203E+02  0.40503083307E+02  0.00000000000E+00 0.  1.
</event>
<event>
 7    1  0.2429906E-015  0.9000773E+02  0.7816164E-02  0.1186339E+00
        -11   -1    0    0    0    0  0.00000000000E+00  0.00000000000E+00  0.45593999997E+02  0.45594000000E+02  0.51100000000E-03 0. -1.
         11   -1    0    0    0    0 -0.00000000000E+00 -0.00000000000E+00 -0.45593999997E+02  0.45594000000E+02  0.51100000000E-03 0.  1.
    9900012    2    1    2    0    0 -0.74554411629E+00  0.81000758455E+00  0.42553908194E+00  0.90007732307E+02  0.89999993574E+02 0.  0.
        -12    1    1    2    0    0  0.74554411629E+00 -0.81000758455E+00 -0.42553908194E+00  0.11802676928E+01  0.00000000000E+00 0.  1.
         11    1    3    3    0    0  0.31426957758E+01  0.18210452192E+01 -0.89985775307E+01  0.97039754878E+01  0.51100000000E-03 0. -1.
        -11    1    3    3    0    0 -0.23462066226E+02 -0.96897242010E+01 -0.27622404651E+02  0.37514751040E+02  0.51100000000E-03 0.  1.
         12    1    3    3    0    0  0.19573826334E+02  0.86786865664E+01  0.37046521263E+02  0.42789005779E+02  0.00000000000E+00 0. -1.
</event>
<event>
 7    1  0.2429906E-015  0.9000780E+02  0.7816164E-02  0.1186339E+00
        -11   -1    0    0    0    0  0.00000000000E+00  0.00000000000E+00  0.45593999997E+02  0.45594000000E+02  0.51100000000E-03 0.  1.
         11   -1    0    0    0    0 -0.00000000000E+00 -0.00000000000E+00 -0.45593999997E+02  0.45594000000E+02  0.51100000000E-03 0. -1.
    9900012    2    1    2    0    0  0.31583190245E+00 -0.61635490465E+00 -0.95562465910E+00  0.90007804403E+02  0.90000066621E+02 0.  0.
        -12    1    1    2    0    0 -0.31583190245E+00  0.61635490465E+00  0.95562465910E+00  0.11801955974E+01  0.00000000000E+00 0.  1.
         11    1    3    3    0    0  0.61876143699E+00 -0.75018479915E+01 -0.29683125513E+00  0.75331731733E+01  0.51100000000E-03 0. -1.
        -11    1    3    3    0    0 -0.87173562038E+01  0.15595364122E+02 -0.38660847883E+02  0.42589539098E+02  0.51100000000E-03 0.  1.
         12    1    3    3    0    0  0.84144266692E+01 -0.87098710355E+01  0.38002054479E+02  0.39885092131E+02  0.00000000000E+00 0. -1.
</event>
<event>
 7    1  0.2429906E-015  0.9000769E+02  0.7816164E-02  0.1186339E+00
        -11   -1    0    0    0    0  0.00000000000E+00  0.00000000000E+00  0.45593999997E+02  0.45594000000E+02  0.51100000000E-03 0.  1.
         11   -1    0    0    0    0 -0.00000000000E+00 -0.00000000000E+00 -0.45593999997E+02  0.45594000000E+02  0.51100000000E-03 0. -1.
    9900012    2    1    2    0    0  0.15812367964E+00 -0.49835712651E-01 -0.11686127176E+01  0.90007685474E+02  0.89999946122E+02 0.  0.
        -12    1    1    2    0    0 -0.15812367964E+00  0.49835712651E-01  0.11686127176E+01  0.11803145259E+01  0.00000000000E+00 0.  1.
         11    1    3    3    0    0  0.54809764761E+01 -0.72037960877E+01 -0.20524454530E+01  0.92816115951E+01  0.51100000000E-03 0. -1.
        -11    1    3    3    0    0 -0.39357915356E+02 -0.94744224694E+01 -0.92260293305E+01  0.41520233619E+02  0.51100000000E-03 0.  1.
         12    1    3    3    0    0  0.34035062560E+02  0.16628382844E+02  0.10109862066E+02  0.39205840260E+02  0.00000000000E+00 0. -1.
</event>
<event>
 7    1  0.2429906E-015  0.9000776E+02  0.7816164E-02  0.1186339E+00
        -11   -1    0    0    0    0  0.00000000000E+00  0.00000000000E+00  0.45593999997E+02  0.45594000000E+02  0.51100000000E-03 0.  1.
         11   -1    0    0    0    0 -0.00000000000E+00 -0.00000000000E+00 -0.45593999997E+02  0.45594000000E+02  0.51100000000E-03 0. -1.
    9900012    2    1    2    0    0  0.14534838810E-01 -0.11109810043E+01 -0.39809732374E+00  0.90007757850E+02  0.90000019454E+02 0.  0.
        -12    1    1    2    0    0 -0.14534838810E-01  0.11109810043E+01  0.39809732374E+00  0.11802421500E+01  0.00000000000E+00 0.  1.
         11    1    3    3    0    0 -0.50831326450E-01 -0.63524862939E+01 -0.37866744704E+01  0.73956453230E+01  0.51100000000E-03 0. -1.
        -11    1    3    3    0    0  0.17388521186E+00  0.35115508454E+01  0.42909449291E+02  0.43053246848E+02  0.51100000000E-03 0.  1.
         12    1    3    3    0    0 -0.10851904660E+00  0.17299544441E+01 -0.39520872144E+02  0.39558865679E+02  0.00000000000E+00 0. -1.
</event>
<event>
 7    1  0.2429906E-015  0.9000770E+02  0.7816164E-02  0.1186339E+00
        -11   -1    0    0    0    0  0.00000000000E+00  0.00000000000E+00  0.45593999997E+02  0.45594000000E+02  0.51100000000E-03 0.  1.
         11   -1    0    0    0    0 -0.00000000000E+00 -0.00000000000E+00 -0.45593999997E+02  0.45594000000E+02  0.51100000000E-03 0. -1.
    9900012    2    1    2    0    0 -0.11040159001E+01 -0.40800571776E+00  0.88256129880E-01  0.90007699649E+02  0.89999960485E+02 0.  0.
        -12    1    1    2    0    0  0.11040159001E+01  0.40800571776E+00 -0.88256129880E-01  0.11803003507E+01  0.00000000000E+00 0.  1.
         11    1    3    3    0    0 -0.29512605527E+02  0.24833900265E+02  0.49998065606E+01  0.38893631269E+02  0.51100000000E-03 0. -1.
        -11    1    3    3    0    0 -0.57319885618E+01 -0.15789205870E+01 -0.74091813301E+01  0.94997184872E+01  0.51100000000E-03 0.  1.
        -12    1    3    3    0    0  0.34140578189E+02 -0.23662985396E+02  0.24976308994E+01  0.41614349893E+02  0.00000000000E+00 0.  1.
</event>
<event>
 7    1  0.2429906E-015  0.9000771E+02  0.7816164E-02  0.1186339E+00
        -11   -1    0    0    0    0  0.00000000000E+00  0.00000000000E+00  0.45593999997E+02  0.45594000000E+02  0.51100000000E-03 0.  1.
         11   -1    0    0    0    0 -0.00000000000E+00 -0.00000000000E+00 -0.45593999997E+02  0.45594000000E+02  0.51100000000E-03 0. -1.
    9900012    2    1    2    0    0  0.63387435889E+00 -0.88654691679E+00 -0.45311985931E+00  0.90007712007E+02  0.89999973006E+02 0.  0.
        -12    1    1    2    0    0 -0.63387435889E+00  0.88654691679E+00  0.45311985931E+00  0.11802879926E+01  0.00000000000E+00 0.  1.
         11    1    3    3    0    0 -0.27414057570E+02  0.16164559437E+02 -0.17556870489E+02  0.36346488632E+02  0.51100000000E-03 0. -1.
        -11    1    3    3    0    0  0.57245781530E+01  0.93611327101E+01 -0.55730732832E+01  0.12306938967E+02  0.51100000000E-03 0.  1.
        -12    1    3    3    0    0  0.22323353776E+02 -0.26412239064E+02  0.22676823913E+02  0.41354284409E+02  0.00000000000E+00 0.  1.
</event>
<event>
 7    1  0.2429906E-015  0.9000777E+02  0.7816164E-02  0.1186339E+00
        -11   -1    0    0    0    0  0.00000000000E+00  0.00000000000E+00  0.45593999997E+02  0.45594000000E+02  0.51100000000E-03 0.  1.
         11   -1    0    0    0    0 -0.00000000000E+00 -0.00000000000E+00 -0.45593999997E+02  0.45594000000E+02  0.51100000000E-03 0. -1.
    9900012    2    1    2    0    0 -0.17147395692E-02 -0.57200383830E+00  0.10323474993E+01  0.90007774305E+02  0.90000036126E+02 0.  0.
        -12    1    1    2    0    0  0.17147395692E-02  0.57200383830E+00 -0.10323474993E+01  0.11802256948E+01  0.00000000000E+00 0.  1.
         11    1    3    3    0    0 -0.98863518632E+01 -0.50735049896E+01 -0.38602109029E+02  0.40169680454E+02  0.51100000000E-03 0. -1.
        -11    1    3    3    0    0  0.35268070801E+01  0.57027195481E+01 -0.25400362287E+01  0.71701577897E+01  0.51100000000E-03 0.  1.
        -12    1    3    3    0    0  0.63578300435E+01 -0.12012183967E+01  0.42174492757E+02  0.42667936062E+02  0.00000000000E+00 0.  1.
</event>
<event>
 7    1  0.2429906E-015  0.9000771E+02  0.7816164E-02  0.1186339E+00
        -11   -1    0    0    0    0  0.00000000000E+00  0.00000000000E+00  0.45593999997E+02  0.45594000000E+02  0.51100000000E-03 0.  1.
         11   -1    0    0    0    0 -0.00000000000E+00 -0.00000000000E+00 -0.45593999997E+02  0.45594000000E+02  0.51100000000E-03 0. -1.
    9900012    2    1    2    0    0 -0.15190845601E+00 -0.61027604275E+00 -0.99878079817E+00  0.90007713547E+02  0.89999974566E+02 0.  0.
        -12    1    1    2    0    0  0.15190845601E+00  0.61027604275E+00  0.99878079817E+00  0.11802864526E+01  0.00000000000E+00 0.  1.
         11    1    3    3    0    0  0.38001442306E+02 -0.14872195676E+02 -0.12532905637E+01  0.40827228158E+02  0.51100000000E-03 0. -1.
        -11    1    3    3    0    0  0.23631442274E+01  0.18715082638E+01  0.57150504957E+01  0.64613308421E+01  0.51100000000E-03 0.  1.
        -12    1    3    3    0    0 -0.40516494990E+02  0.12390411369E+02 -0.54605407302E+01  0.42719154547E+02  0.00000000000E+00 0.  1.
</event>
<event>
 7    1  0.2429906E-015  0.9000769E+02  0.7816164E-02  0.1186339E+00
        -11   -1    0    0    0    0  0.00000000000E+00  0.00000000000E+00  0.45593999997E+02  0.45594000000E+02  0.51100000000E-03 0.  1.
         11   -1    0    0    0    0 -0.00000000000E+00 -0.00000000000E+00 -0.45593999997E+02  0.45594000000E+02  0.51100000000E-03 0. -1.
    9900012    2    1    2    0    0 -0.59599111356E+00  0.10022731775E+01  0.18267292500E+00  0.90007692274E+02  0.89999953012E+02 0.  0.
        -12    1    1    2    0    0  0.59599111356E+00 -0.10022731775E+01 -0.18267292500E+00  0.11803077257E+01  0.00000000000E+00 0.  1.
         11    1    3    3    0    0  0.25120566914E+02 -0.20491455071E+02 -0.15536218103E+02  0.35948806465E+02  0.51100000000E-03 0. -1.
        -11    1    3    3    0    0  0.32170209376E+00 -0.74502630854E+01 -0.59159846724E+01  0.95188648054E+01  0.51100000000E-03 0.  1.
        -12    1    3    3    0    0 -0.26038260122E+02  0.28943991334E+02  0.21634875700E+02  0.44540021004E+02  0.00000000000E+00 0.  1.
</event>
<event>
 7    1  0.2429906E-015  0.9000777E+02  0.7816164E-02  0.1186339E+00
        -11   -1    0    0    0    0  0.00000000000E+00  0.00000000000E+00  0.45593999997E+02  0.45594000000E+02  0.51100000000E-03 0.  1.
         11   -1    0    0    0    0 -0.00000000000E+00 -0.00000000000E+00 -0.45593999997E+02  0.45594000000E+02  0.51100000000E-03 0. -1.
    9900012    2    1    2    0    0 -0.72697795656E+00  0.12350317283E-01 -0.92967615879E+00  0.90007768141E+02  0.90000029881E+02 0.  0.
        -12    1    1    2    0    0  0.72697795656E+00 -0.12350317283E-01  0.92967615879E+00  0.11802318585E+01  0.00000000000E+00 0.  1.
         11    1    3    3    0    0  0.24230526868E+02  0.21189345641E+02  0.13188121063E+02  0.34785533465E+02  0.51100000000E-03 0. -1.
        -11    1    3    3    0    0 -0.17689101919E+01  0.79248595903E+01  0.84369915771E+01  0.11709622963E+02  0.51100000000E-03 0.  1.
        -12    1    3    3    0    0 -0.23188594633E+02 -0.29101854914E+02 -0.22554788798E+02  0.43512611714E+02  0.00000000000E+00 0.  1.
</event>
<event>
 7    1  0.2429906E-015  0.9000780E+02  0.7816164E-02  0.1186339E+00
        -11   -1    0    0    0    0  0.00000000000E+00  0.00000000000E+00  0.45593999997E+02  0.45594000000E+02  0.51100000000E-03 0.  1.
         11   -1    0    0    0    0 -0.00000000000E+00 -0.00000000000E+00 -0.45593999997E+02  0.45594000000E+02  0.51100000000E-03 0. -1.
    9900012    2    1    2    0    0 -0.67639699680E+00  0.50486817114E+00 -0.82490576471E+00  0.90007799048E+02  0.90000061195E+02 0.  0.
        -12    1    1    2    0    0  0.67639699680E+00 -0.50486817114E+00  0.82490576471E+00  0.11802009524E+01  0.00000000000E+00 0.  1.
         11    1    3    3    0    0  0.55340996107E+01 -0.35903453405E+02 -0.72171673111E+01  0.37037436860E+02  0.51100000000E-03 0. -1.
        -11    1    3    3    0    0 -0.18539502760E+02  0.80394397216E+01  0.85958182912E+01  0.21959823451E+02  0.51100000000E-03 0.  1.
        -12    1    3    3    0    0  0.12329006153E+02  0.28368881855E+02 -0.22035567447E+01  0.31010538736E+02  0.00000000000E+00 0.  1.
</event>
<event>
 7    1  0.2429906E-015  0.9000777E+02  0.7816164E-02  0.1186339E+00
        -11   -1    0    0    0    0  0.00000000000E+00  0.00000000000E+00  0.45593999997E+02  0.45594000000E+02  0.51100000000E-03 0.  1.
         11   -1    0    0    0    0 -0.00000000000E+00 -0.00000000000E+00 -0.45593999997E+02  0.45594000000E+02  0.51100000000E-03 0. -1.
    9900012    2    1    2    0    0  0.50211066372E+00 -0.20793277475E+00 -0.10476628930E+01  0.90007767525E+02  0.90000029256E+02 0.  0.
        -12    1    1    2    0    0 -0.50211066372E+00  0.20793277475E+00  0.10476628930E+01  0.11802324749E+01  0.00000000000E+00 0.  1.
         11    1    3    3    0    0  0.18451589616E+02 -0.21157980094E+02 -0.15624458880E+02  0.32128569787E+02  0.51100000000E-03 0. -1.
        -11    1    3    3    0    0  0.70307661776E+01 -0.11115543908E+02  0.10870265697E+02  0.17063108333E+02  0.51100000000E-03 0.  1.
        -12    1    3    3    0    0 -0.24980245130E+02  0.32065591227E+02  0.37065302902E+01  0.40816089404E+02  0.00000000000E+00 0.  1.
</event>
<event>
 7    1  0.2429906E-015  0.9000778E+02  0.7816164E-02  0.1186339E+00
        -11   -1    0    0    0    0  0.00000000000E+00  0.00000000000E+00  0.45593999997E+02  0.45594000000E+02  0.51100000000E-03 0. -1.
         11   -1    0    0    0    0 -0.00000000000E+00 -0.00000000000E+00 -0.45593999997E+02  0.45594000000E+02  0.51100000000E-03 0.  1.
    9900012    2    1    2    0    0  0.89440653340E+00 -0.29926216644E+00 -0.70950409832E+00  0.90007780971E+02  0.90000042880E+02 0.  0.
        -12    1    1    2    0    0 -0.89440653340E+00  0.29926216644E+00  0.70950409832E+00  0.11802190292E+01  0.00000000000E+00 0.  1.
         11    1    3    3    0    0 -0.98417007588E+01 -0.16815247781E+02  0.32150315063E+02  0.37593275871E+02  0.51100000000E-03 0. -1.
        -11    1    3    3    0    0  0.59230910298E+01 -0.75111861575E+01  0.20305406038E+01  0.97787535118E+01  0.51100000000E-03 0.  1.
        -12    1    3    3    0    0  0.48130162624E+01  0.24027171773E+02 -0.34890359765E+02  0.42635751588E+02  0.00000000000E+00 0.  1.
</event>
<event>
 7    1  0.2429906E-015  0.9000773E+02  0.7816164E-02  0.1186339E+00
        -11   -1    0    0    0    0  0.00000000000E+00  0.00000000000E+00  0.45593999997E+02  0.45594000000E+02  0.51100000000E-03 0. -1.
         11   -1    0    0    0    0 -0.00000000000E+00 -0.00000000000E+00 -0.45593999997E+02  0.45594000000E+02  0.51100000000E-03 0.  1.
    9900012    2    1    2    0    0  0.71434607877E+00  0.66296887899E+00  0.66575142426E+00  0.90007727568E+02  0.89999988772E+02 0.  0.
        -12    1    1    2    0    0 -0.71434607877E+00 -0.66296887899E+00 -0.66575142426E+00  0.11802724320E+01  0.00000000000E+00 0.  1.
         11    1    3    3    0    0 -0.39661768152E+01  0.98529542543E+00 -0.77526176532E+01  0.87638146000E+01  0.51100000000E-03 0. -1.
        -11    1    3    3    0    0  0.94748601022E+01  0.37321245256E+02 -0.89169346120E+01  0.39524170384E+02  0.51100000000E-03 0.  1.
         12    1    3    3    0    0 -0.47943372083E+01 -0.37643571802E+02  0.17335303690E+02  0.41719742584E+02  0.00000000000E+00 0. -1.
</event>
<event>
 7    1  0.2429906E-015  0.9000777E+02  0.7816164E-02  0.1186339E+00
        -11   -1    0    0    0    0  0.00000000000E+00  0.00000000000E+00  0.45593999997E+02  0.45594000000E+02  0.51100000000E-03 0. -1.
         11   -1    0    0    0    0 -0.00000000000E+00 -0.00000000000E+00 -0.45593999997E+02  0.45594000000E+02  0.51100000000E-03 0.  1.
    9900012    2    1    2    0    0  0.52765993969E+00 -0.43350703084E+00  0.96259024183E+00  0.90007774034E+02  0.90000035851E+02 0.  0.
        -12    1    1    2    0    0 -0.52765993969E+00  0.43350703084E+00 -0.96259024183E+00  0.11802259663E+01  0.00000000000E+00 0.  1.
         11    1    3    3    0    0  0.53661052526E+01 -0.53295840301E+01 -0.56051796395E+01  0.94136916546E+01  0.51100000000E-03 0. -1.
        -11    1    3    3    0    0 -0.20679724204E+02 -0.11630145563E+02 -0.29510825735E+02  0.37865553142E+02  0.51100000000E-03 0.  1.
         12    1    3    3    0    0  0.15841278891E+02  0.16526222562E+02  0.36078595617E+02  0.42728529237E+02  0.00000000000E+00 0. -1.
</event>
<event>
 7    1  0.2429906E-015  0.9000811E+02  0.7816164E-02  0.1186338E+00
        -11   -1    0    0    0    0  0.00000000000E+00  0.00000000000E+00  0.45593999997E+02  0.45594000000E+02  0.51100000000E-03 0. -1.
         11   -1    0    0    0    0 -0.00000000000E+00 -0.00000000000E+00 -0.45593999997E+02  0.45594000000E+02  0.51100000000E-03 0.  1.
    9900012    2    1    2    0    0 -0.44062551781E+00 -0.21970277135E+00  0.10722512887E+01  0.90008108911E+02  0.90000375148E+02 0.  0.
        -12    1    1    2    0    0  0.44062551781E+00  0.21970277135E+00 -0.10722512887E+01  0.11798910886E+01  0.00000000000E+00 0.  1.
         11    1    3    3    0    0 -0.10957185363E+02 -0.49134771357E+01  0.34258603790E+02  0.36302260295E+02  0.51100000000E-03 0. -1.
        -11    1    3    3    0    0 -0.37420940032E+01 -0.13149345514E+01  0.84243717292E+01  0.93114101884E+01  0.51100000000E-03 0.  1.
        -12    1    3    3    0    0  0.14258653849E+02  0.60087089158E+01 -0.41610724230E+02  0.44394438428E+02  0.00000000000E+00 0.  1.
</event>
<event>
 7    1  0.2429906E-015  0.9000773E+02  0.7816164E-02  0.1186339E+00
        -11   -1    0    0    0    0  0.00000000000E+00  0.00000000000E+00  0.45593999997E+02  0.45594000000E+02  0.51100000000E-03 0.  1.
         11   -1    0    0    0    0 -0.00000000000E+00 -0.00000000000E+00 -0.45593999997E+02  0.45594000000E+02  0.51100000000E-03 0. -1.
    9900012    2    1    2    0    0  0.27340574170E+00 -0.58346451726E+00 -0.98886675205E+00  0.90007729270E+02  0.89999990496E+02 0.  0.
        -12    1    1    2    0    0 -0.27340574170E+00  0.58346451726E+00  0.98886675205E+00  0.11802707299E+01  0.00000000000E+00 0.  1.
         11    1    3    3    0    0 -0.30637923344E+02 -0.92821773537E+01 -0.14493113381E+02  0.35141023022E+02  0.51100000000E-03 0. -1.
        -11    1    3    3    0    0 -0.83817945246E+01  0.14326071414E+00 -0.58653760421E+01  0.10231209091E+02  0.51100000000E-03 0.  1.
        -12    1    3    3    0    0  0.39293123611E+02  0.85554521223E+01  0.19369622671E+02  0.44635497158E+02  0.00000000000E+00 0.  1.
</event>
<event>
 7    1  0.2429906E-015  0.9000762E+02  0.7816164E-02  0.1186339E+00
        -11   -1    0    0    0    0  0.00000000000E+00  0.00000000000E+00  0.45593999997E+02  0.45594000000E+02  0.51100000000E-03 0.  1.
         11   -1    0    0    0    0 -0.00000000000E+00 -0.00000000000E+00 -0.45593999997E+02  0.45594000000E+02  0.51100000000E-03 0. -1.
    9900012    2    1    2    0    0  0.10258902847E+01 -0.53233223882E+00  0.23971921172E+00  0.90007621336E+02  0.89999881138E+02 0.  0.
        -12    1    1    2    0    0 -0.10258902847E+01  0.53233223882E+00 -0.23971921172E+00  0.11803786635E+01  0.00000000000E+00 0.  1.
         11    1    3    3    0    0 -0.58118634692E+01 -0.99209747721E+01  0.97300820259E+01  0.15062469715E+02  0.51100000000E-03 0. -1.
        -11    1    3    3    0    0  0.13919057986E+02 -0.18332938104E+02  0.22387835119E+02  0.32109997763E+02  0.51100000000E-03 0.  1.
         12    1    3    3    0    0 -0.70813042323E+01  0.27721580637E+02 -0.31878197933E+02  0.42835153859E+02  0.00000000000E+00 0. -1.
</event>
<event>
 7    1  0.2429906E-015  0.9000781E+02  0.7816164E-02  0.1186339E+00
        -11   -1    0    0    0    0  0.00000000000E+00  0.00000000000E+00  0.45593999997E+02  0.45594000000E+02  0.51100000000E-03 0. -1.
         11   -1    0    0    0    0 -0.00000000000E+00 -0.00000000000E+00 -0.45593999997E+02  0.45594000000E+02  0.51100000000E-03 0.  1.
    9900012    2    1    2    0    0 -0.18883444094E+00 -0.11649852312E+01  0.12794453485E-02  0.90007809053E+02  0.90000071332E+02 0.  0.
        -12    1    1    2    0    0  0.18883444094E+00  0.11649852312E+01 -0.12794453485E-02  0.11801909473E+01  0.00000000000E+00 0.  1.
         11    1    3    3    0    0  0.10657489758E+01  0.42217301439E+01 -0.84962563644E+01  0.95469994636E+01  0.51100000000E-03 0. -1.
        -11    1    3    3    0    0  0.30821443584E+01 -0.10704210141E+02 -0.34843110890E+02  0.36580351356E+02  0.51100000000E-03 0.  1.
         12    1    3    3    0    0 -0.43367277752E+01  0.53174947663E+01  0.43340646700E+02  0.43880458233E+02  0.00000000000E+00 0. -1.
</event>
<event>
 7    1  0.2429906E-015  0.9000774E+02  0.7816164E-02  0.1186339E+00
        -11   -1    0    0    0    0  0.00000000000E+00  0.00000000000E+00  0.45593999997E+02  0.45594000000E+02  0.51100000000E-03 0. -1.
         11   -1    0    0    0    0 -0.00000000000E+00 -0.00000000000E+00 -0.45593999997E+02  0.45594000000E+02  0.51100000000E-03 0.  1.
    9900012    2    1    2    0    0  0.67458913625E+00 -0.26331241508E+00 -0.93198863596E+00  0.90007742931E+02  0.90000004338E+02 0.  0.
        -12    1    1    2    0    0 -0.67458913625E+00  0.26331241508E+00  0.93198863596E+00  0.11802570687E+01  0.00000000000E+00 0.  1.
         11    1    3    3    0    0 -0.36043698109E+02 -0.13680660949E+02 -0.81860467430E-01  0.38552760715E+02  0.51100000000E-03 0. -1.
        -11    1    3    3    0    0  0.29963466297E+01 -0.92373489495E+01  0.40766983561E+01  0.10532149756E+02  0.51100000000E-03 0.  1.
        -12    1    3    3    0    0  0.33721940616E+02  0.22654697483E+02 -0.49268265246E+01  0.40922832460E+02  0.00000000000E+00 0.  1.
</event>
<event>
 7    1  0.2429906E-015  0.9000772E+02  0.7816164E-02  0.1186339E+00
        -11   -1    0    0    0    0  0.00000000000E+00  0.00000000000E+00  0.45593999997E+02  0.45594000000E+02  0.51100000000E-03 0.  1.
         11   -1    0    0    0    0 -0.00000000000E+00 -0.00000000000E+00 -0.45593999997E+02  0.45594000000E+02  0.51100000000E-03 0. -1.
    9900012    2    1    2    0    0 -0.97699217983E+00  0.22221285980E+00 -0.62383904587E+00  0.90007717225E+02  0.89999978292E+02 0.  0.
        -12    1    1    2    0    0  0.97699217983E+00 -0.22221285980E+00  0.62383904587E+00  0.11802827753E+01  0.00000000000E+00 0.  1.
         11    1    3    3    0    0  0.26474856774E+02 -0.18444777753E+02  0.13230957796E+02  0.34873860010E+02  0.51100000000E-03 0. -1.
        -11    1    3    3    0    0  0.66509934498E+00 -0.57398075068E+01  0.95457813086E+01  0.11158390942E+02  0.51100000000E-03 0.  1.
        -12    1    3    3    0    0 -0.28116948299E+02  0.24406798120E+02 -0.23400578151E+02  0.43975466273E+02  0.00000000000E+00 0.  1.
</event>
<event>
 7    1  0.2429906E-015  0.9000777E+02  0.7816164E-02  0.1186339E+00
        -11   -1    0    0    0    0  0.00000000000E+00  0.00000000000E+00  0.45593999997E+02  0.45594000000E+02  0.51100000000E-03 0.  1.
         11   -1    0    0    0    0 -0.00000000000E+00 -0.00000000000E+00 -0.45593999997E+02  0.45594000000E+02  0.51100000000E-03 0. -1.
    9900012    2    1    2    0    0 -0.93421198248E+00 -0.27987964994E+00 -0.66472727583E+00  0.90007768244E+02  0.90000029985E+02 0.  0.
        -12    1    1    2    0    0  0.93421198248E+00  0.27987964994E+00  0.66472727583E+00  0.11802317560E+01  0.00000000000E+00 0.  1.
         11    1    3    3    0    0 -0.21219113568E+02  0.23044266831E+01 -0.36649217303E+02  0.42411393423E+02  0.51100000000E-03 0. -1.
        -11    1    3    3    0    0 -0.39517282419E+01 -0.53689311377E+01  0.62893936632E+01  0.91650450392E+01  0.51100000000E-03 0.  1.
        -12    1    3    3    0    0  0.24236629828E+02  0.27846248047E+01  0.29695096364E+02  0.38431329781E+02  0.00000000000E+00 0.  1.
</event>
<event>
 7    1  0.2429906E-015  0.9000770E+02  0.7816164E-02  0.1186339E+00
        -11   -1    0    0    0    0  0.00000000000E+00  0.00000000000E+00  0.45593999997E+02  0.45594000000E+02  0.51100000000E-03 0. -1.
         11   -1    0    0    0    0 -0.00000000000E+00 -0.00000000000E+00 -0.45593999997E+02  0.45594000000E+02  0.51100000000E-03 0.  1.
    9900012    2    1    2    0    0 -0.51454871875E+00  0.13545947343E+00  0.10535678468E+01  0.90007697132E+02  0.89999957934E+02 0.  0.
        -12    1    1    2    0    0  0.51454871875E+00 -0.13545947343E+00 -0.10535678468E+01  0.11803028682E+01  0.00000000000E+00 0.  1.
         11    1    3    3    0    0 -0.23970585028E+02 -0.57526600547E+01  0.32037499914E+02  0.40423798007E+02  0.51100000000E-03 0. -1.
        -11    1    3    3    0    0 -0.64675960472E+01  0.59039749963E+01 -0.62041820420E+01  0.10732129074E+02  0.51100000000E-03 0.  1.
        -12    1    3    3    0    0  0.29923632356E+02 -0.15855468150E-01 -0.24779750025E+02  0.38851770051E+02  0.00000000000E+00 0.  1.
</event>
<event>
 7    1  0.2429906E-015  0.9000774E+02  0.7816164E-02  0.1186339E+00
        -11   -1    0    0    0    0  0.00000000000E+00  0.00000000000E+00  0.45593999997E+02  0.45594000000E+02  0.51100000000E-03 0.  1.
         11   -1    0    0    0    0 -0.00000000000E+00 -0.00000000000E+00 -0.45593999997E+02  0.45594000000E+02  0.51100000000E-03 0. -1.
    9900012    2    1    2    0    0 -0.94578710085E+00  0.69707501461E+00 -0.11220699352E+00  0.90007738493E+02  0.89999999841E+02 0.  0.
        -12    1    1    2    0    0  0.94578710085E+00 -0.69707501461E+00  0.11220699352E+00  0.11802615073E+01  0.00000000000E+00 0.  1.
         11    1    3    3    0    0 -0.23579623429E+02  0.10821381826E+02 -0.29329728586E+02  0.39157807969E+02  0.51100000000E-03 0. -1.
        -11    1    3    3    0    0  0.25421613532E+01 -0.10316199173E+02 -0.45489065555E+01  0.11557642529E+02  0.51100000000E-03 0.  1.
        -12    1    3    3    0    0  0.20091674975E+02  0.19189236094E+00  0.33766428148E+02  0.39292287995E+02  0.00000000000E+00 0.  1.
</event>
<event>
 7    1  0.2429906E-015  0.9000775E+02  0.7816164E-02  0.1186339E+00
        -11   -1    0    0    0    0  0.00000000000E+00  0.00000000000E+00  0.45593999997E+02  0.45594000000E+02  0.51100000000E-03 0. -1.
         11   -1    0    0    0    0 -0.00000000000E+00 -0.00000000000E+00 -0.45593999997E+02  0.45594000000E+02  0.51100000000E-03 0.  1.
    9900012    2    1    2    0    0 -0.48651591861E+00  0.21362407562E+00  0.10538826605E+01  0.90007745092E+02  0.90000006528E+02 0.  0.
        -12    1    1    2    0    0  0.48651591861E+00 -0.21362407562E+00 -0.10538826605E+01  0.11802549076E+01  0.00000000000E+00 0.  1.
         11    1    3    3    0    0  0.56516118821E+01  0.77314349063E+01 -0.20155674534E+01  0.97866396172E+01  0.51100000000E-03 0. -1.
        -11    1    3    3    0    0 -0.24360670677E+02  0.29342994338E+02 -0.45308711234E+01  0.38405499423E+02  0.51100000000E-03 0.  1.
         12    1    3    3    0    0  0.18222542876E+02 -0.36860805169E+02  0.76003212372E+01  0.41815606052E+02  0.00000000000E+00 0. -1.
</event>
<event>
 7    1  0.2429906E-015  0.9000763E+02  0.7816164E-02  0.1186339E+00
        -11   -1    0    0    0    0  0.00000000000E+00  0.00000000000E+00  0.45593999997E+02  0.45594000000E+02  0.51100000000E-03 0.  1.
         11   -1    0    0    0    0 -0.00000000000E+00 -0.00000000000E+00 -0.45593999997E+02  0.45594000000E+02  0.51100000000E-03 0. -1.
    9900012    2    1    2    0    0 -0.49391391050E+00 -0.60700622642E+00 -0.88366091820E+00  0.90007633901E+02  0.89999893868E+02 0.  0.
        -12    1    1    2    0    0  0.49391391050E+00  0.60700622642E+00  0.88366091820E+00  0.11803660993E+01  0.00000000000E+00 0.  1.
         11    1    3    3    0    0 -0.27773570963E+02 -0.13086376112E+02 -0.23160789204E+02  0.38458375428E+02  0.51100000000E-03 0. -1.
        -11    1    3    3    0    0  0.11867307565E+01 -0.81049062503E+01 -0.40616997321E+01  0.91430432674E+01  0.51100000000E-03 0.  1.
        -12    1    3    3    0    0  0.26092926296E+02  0.20584276136E+02  0.26338828017E+02  0.42406215205E+02  0.00000000000E+00 0.  1.
</event>
<event>
 7    1  0.2429906E-015  0.9000777E+02  0.7816164E-02  0.1186339E+00
        -11   -1    0    0    0    0  0.00000000000E+00  0.00000000000E+00  0.45593999997E+02  0.45594000000E+02  0.51100000000E-03 0. -1.
         11   -1    0    0    0    0 -0.00000000000E+00 -0.00000000000E+00 -0.45593999997E+02  0.45594000000E+02  0.51100000000E-03 0.  1.
    9900012    2    1    2    0    0  0.39622762255E+00 -0.70048658153E-01  0.11095252691E+01  0.90007767198E+02  0.90000028925E+02 0.  0.
        -12    1    1    2    0    0 -0.39622762255E+00  0.70048658153E-01 -0.11095252691E+01  0.11802328017E+01  0.00000000000E+00 0.  1.
         11    1    3    3    0    0 -0.32430220474E+02 -0.78003682940E+01 -0.16162884885E+02  0.37064859282E+02  0.51100000000E-03 0. -1.
        -11    1    3    3    0    0  0.13786552239E+01 -0.99619566781E+01 -0.42617977510E+01  0.10922645807E+02  0.51100000000E-03 0.  1.
        -12    1    3    3    0    0  0.31447792872E+02  0.17692276314E+02  0.21534207905E+02  0.42020262110E+02  0.00000000000E+00 0.  1.
</event>
<event>
 7    1  0.2429906E-015  0.9000773E+02  0.7816164E-02  0.1186339E+00
        -11   -1    0    0    0    0  0.00000000000E+00  0.00000000000E+00  0.45593999997E+02  0.45594000000E+02  0.51100000000E-03 0. -1.
         11   -1    0    0    0    0 -0.00000000000E+00 -0.00000000000E+00 -0.45593999997E+02  0.45594000000E+02  0.51100000000E-03 0.  1.
    9900012    2    1    2    0    0  0.36481930417E+00  0.79323077698E+00  0.79418856282E+00  0.90007727293E+02  0.89999988493E+02 0.  0.
        -12    1    1    2    0    0 -0.36481930417E+00 -0.79323077698E+00 -0.79418856282E+00  0.11802727073E+01  0.00000000000E+00 0.  1.
         11    1    3    3    0    0 -0.52168636474E+01 -0.68885472468E+01 -0.13693385641E+00  0.86421351892E+01  0.51100000000E-03 0. -1.
        -11    1    3    3    0    0 -0.73526611747E+01 -0.34701816642E+02  0.83343649015E+01  0.36438157790E+02  0.51100000000E-03 0.  1.
         12    1    3    3    0    0  0.12934344126E+02  0.42383594665E+02 -0.74032424822E+01  0.44927434313E+02  0.00000000000E+00 0. -1.
</event>
<event>
 7    1  0.2429906E-015  0.9000771E+02  0.7816164E-02  0.1186339E+00
        -11   -1    0    0    0    0  0.00000000000E+00  0.00000000000E+00  0.45593999997E+02  0.45594000000E+02  0.51100000000E-03 0.  1.
         11   -1    0    0    0    0 -0.00000000000E+00 -0.00000000000E+00 -0.45593999997E+02  0.45594000000E+02  0.51100000000E-03 0. -1.
    9900012    2    1    2    0    0  0.61761490553E+00 -0.59519889464E+00  0.81078691446E+00  0.90007709647E+02  0.89999970615E+02 0.  0.
        -12    1    1    2    0    0 -0.61761490553E+00  0.59519889464E+00 -0.81078691446E+00  0.11802903526E+01  0.00000000000E+00 0.  1.
         11    1    3    3    0    0 -0.23211075103E+02  0.20182097208E+02 -0.19592651297E+02  0.36468384119E+02  0.51100000000E-03 0. -1.
        -11    1    3    3    0    0  0.28885035321E+01  0.10745260724E+02  0.80381608165E+01  0.13726474794E+02  0.51100000000E-03 0.  1.
        -12    1    3    3    0    0  0.20940186476E+02 -0.31522556827E+02  0.12365277395E+02  0.39812850735E+02  0.00000000000E+00 0.  1.
</event>
<event>
 7    1  0.2429906E-015  0.9000779E+02  0.7816164E-02  0.1186339E+00
        -11   -1    0    0    0    0  0.00000000000E+00  0.00000000000E+00  0.45593999997E+02  0.45594000000E+02  0.51100000000E-03 0. -1.
         11   -1    0    0    0    0 -0.00000000000E+00 -0.00000000000E+00 -0.45593999997E+02  0.45594000000E+02  0.51100000000E-03 0.  1.
    9900012    2    1    2    0    0 -0.22891203480E+00 -0.44955728306E+00  0.10669501625E+01  0.90007794459E+02  0.90000056546E+02 0.  0.
        -12    1    1    2    0    0  0.22891203480E+00  0.44955728306E+00 -0.10669501625E+01  0.11802055413E+01  0.00000000000E+00 0.  1.
         11    1    3    3    0    0 -0.32376386738E+02 -0.30948006836E+01  0.21982807065E+02  0.39256235380E+02  0.51100000000E-03 0. -1.
        -11    1    3    3    0    0 -0.13964095357E+01  0.10035045395E+02  0.71965755206E+00  0.10157263555E+02  0.51100000000E-03 0.  1.
        -12    1    3    3    0    0  0.33543884239E+02 -0.73898019945E+01 -0.21635514454E+02  0.40594295524E+02  0.00000000000E+00 0.  1.
</event>
<event>
 7    1  0.2429906E-015  0.9000780E+02  0.7816164E-02  0.1186339E+00
        -11   -1    0    0    0    0  0.00000000000E+00  0.00000000000E+00  0.45593999997E+02  0.45594000000E+02  0.51100000000E-03 0. -1.
         11   -1    0    0    0    0 -0.00000000000E+00 -0.00000000000E+00 -0.45593999997E+02  0.45594000000E+02  0.51100000000E-03 0.  1.
    9900012    2    1    2    0    0 -0.24130675875E-01 -0.10732109353E+01  0.49042357064E+00  0.90007796933E+02  0.90000059052E+02 0.  0.
        -12    1    1    2    0    0  0.24130675875E-01  0.10732109353E+01 -0.49042357064E+00  0.11802030672E+01  0.00000000000E+00 0.  1.
         11    1    3    3    0    0  0.22449981409E+02 -0.27881677928E+02  0.77413971270E+01  0.36624020247E+02  0.51100000000E-03 0. -1.
        -11    1    3    3    0    0 -0.30412370450E+01 -0.49974299034E+01  0.10561550060E+02  0.12073515161E+02  0.51100000000E-03 0.  1.
        -12    1    3    3    0    0 -0.19432875040E+02  0.31805896896E+02 -0.17812523617E+02  0.41310261525E+02  0.00000000000E+00 0.  1.
</event>
<event>
 7    1  0.2429906E-015  0.9000767E+02  0.7816164E-02  0.1186339E+00
        -11   -1    0    0    0    0  0.00000000000E+00  0.00000000000E+00  0.45593999997E+02  0.45594000000E+02  0.51100000000E-03 0. -1.
         11   -1    0    0    0    0 -0.00000000000E+00 -0.00000000000E+00 -0.45593999997E+02  0.45594000000E+02  0.51100000000E-03 0.  1.
    9900012    2    1    2    0    0  0.27604831289E+00  0.10977911634E+01 -0.33439601834E+00  0.90007674279E+02  0.89999934780E+02 0.  0.
        -12    1    1    2    0    0 -0.27604831289E+00 -0.10977911634E+01  0.33439601834E+00  0.11803257205E+01  0.00000000000E+00 0.  1.
         11    1    3    3    0    0  0.27244709266E+02 -0.18380262205E+02  0.24176829033E+02  0.40799844167E+02  0.51100000000E-03 0. -1.
        -11    1    3    3    0    0 -0.10421217702E+02 -0.57601814727E+01 -0.34187103099E+01  0.12388262567E+02  0.51100000000E-03 0.  1.
        -12    1    3    3    0    0 -0.16547443251E+02  0.25238234841E+02 -0.21092514742E+02  0.36819567545E+02  0.00000000000E+00 0.  1.
</event>
<event>
 7    1  0.2429906E-015  0.9000777E+02  0.7816164E-02  0.1186339E+00
        -11   -1    0    0    0    0  0.00000000000E+00  0.00000000000E+00  0.45593999997E+02  0.45594000000E+02  0.51100000000E-03 0.  1.
         11   -1    0    0    0    0 -0.00000000000E+00 -0.00000000000E+00 -0.45593999997E+02  0.45594000000E+02  0.51100000000E-03 0. -1.
    9900012    2    1    2    0    0 -0.53383068498E+00 -0.67831195554E+00 -0.80490088014E+00  0.90007767931E+02  0.90000029668E+02 0.  0.
        -12    1    1    2    0    0  0.53383068498E+00  0.67831195554E+00  0.80490088014E+00  0.11802320687E+01  0.00000000000E+00 0.  1.
         11    1    3    3    0    0  0.25738709040E+02 -0.24569496630E+02 -0.74580251555E+01  0.36356064792E+02  0.51100000000E-03 0. -1.
        -11    1    3    3    0    0  0.66947329197E+01 -0.39978071968E+00 -0.77442133424E+01  0.10244613904E+02  0.51100000000E-03 0.  1.
        -12    1    3    3    0    0 -0.32967272644E+02  0.24290965394E+02  0.14397337618E+02  0.43407089235E+02  0.00000000000E+00 0.  1.
</event>
<event>
 7    1  0.2429906E-015  0.9000779E+02  0.7816164E-02  0.1186339E+00
        -11   -1    0    0    0    0  0.00000000000E+00  0.00000000000E+00  0.45593999997E+02  0.45594000000E+02  0.51100000000E-03 0.  1.
         11   -1    0    0    0    0 -0.00000000000E+00 -0.00000000000E+00 -0.45593999997E+02  0.45594000000E+02  0.51100000000E-03 0. -1.
    9900012    2    1    2    0    0 -0.65994532114E+00 -0.73069721317E-01 -0.97571836414E+00  0.90007790977E+02  0.90000053018E+02 0.  0.
        -12    1    1    2    0    0  0.65994532114E+00  0.73069721317E-01  0.97571836414E+00  0.11802090227E+01  0.00000000000E+00 0.  1.
         11    1    3    3    0    0  0.10613837020E+02 -0.11838938041E+01 -0.62212463704E-01  0.10679841360E+02  0.51100000000E-03 0. -1.
        -11    1    3    3    0    0 -0.26483155713E+02  0.28703030432E+02 -0.18534160874E+02  0.43228886315E+02  0.51100000000E-03 0.  1.
         12    1    3    3    0    0  0.15209373372E+02 -0.27592206349E+02  0.17620654973E+02  0.36099063302E+02  0.00000000000E+00 0. -1.
</event>
<event>
 7    1  0.2429906E-015  0.9000786E+02  0.7816164E-02  0.1186339E+00
        -11   -1    0    0    0    0  0.00000000000E+00  0.00000000000E+00  0.45593999997E+02  0.45594000000E+02  0.51100000000E-03 0. -1.
         11   -1    0    0    0    0 -0.00000000000E+00 -0.00000000000E+00 -0.45593999997E+02  0.45594000000E+02  0.51100000000E-03 0.  1.
    9900012    2    1    2    0    0  0.79969643310E-01 -0.86417751900E-01  0.11742533310E+01  0.90007858459E+02  0.90000121390E+02 0.  0.
        -12    1    1    2    0    0 -0.79969643310E-01  0.86417751900E-01 -0.11742533310E+01  0.11801415411E+01  0.00000000000E+00 0.  1.
         11    1    3    3    0    0 -0.28484336158E+02 -0.33794307608E+02 -0.48590818881E+01  0.44463730277E+02  0.51100000000E-03 0. -1.
        -11    1    3    3    0    0  0.88463893050E+01  0.85960085641E+01 -0.22975526805E+01  0.12547060036E+02  0.51100000000E-03 0.  1.
        -12    1    3    3    0    0  0.19717916497E+02  0.25111881292E+02  0.83308878996E+01  0.32997068146E+02  0.00000000000E+00 0.  1.
</event>
<event>
 7    1  0.2429906E-015  0.9000776E+02  0.7816164E-02  0.1186339E+00
        -11   -1    0    0    0    0  0.00000000000E+00  0.00000000000E+00  0.45593999997E+02  0.45594000000E+02  0.51100000000E-03 0.  1.
         11   -1    0    0    0    0 -0.00000000000E+00 -0.00000000000E+00 -0.45593999997E+02  0.45594000000E+02  0.51100000000E-03 0. -1.
    9900012    2    1    2    0    0 -0.72048518330E+00 -0.40579056640E+00 -0.84213914509E+00  0.90007761370E+02  0.90000023020E+02 0.  0.
        -12    1    1    2    0    0  0.72048518330E+00  0.40579056640E+00  0.84213914509E+00  0.11802386296E+01  0.00000000000E+00 0.  1.
         11    1    3    3    0    0  0.69698059074E+01  0.10021382543E+02 -0.34686314358E+02  0.36771547513E+02  0.51100000000E-03 0. -1.
        -11    1    3    3    0    0 -0.24547969386E+01  0.97874830263E+01 -0.33069870648E+01  0.10618710642E+02  0.51100000000E-03 0.  1.
        -12    1    3    3    0    0 -0.52354941521E+01 -0.20214656136E+02  0.37151162278E+02  0.42617503215E+02  0.00000000000E+00 0.  1.
</event>
<event>
 7    1  0.2429906E-015  0.9000769E+02  0.7816164E-02  0.1186339E+00
        -11   -1    0    0    0    0  0.00000000000E+00  0.00000000000E+00  0.45593999997E+02  0.45594000000E+02  0.51100000000E-03 0.  1.
         11   -1    0    0    0    0 -0.00000000000E+00 -0.00000000000E+00 -0.45593999997E+02  0.45594000000E+02  0.51100000000E-03 0. -1.
    9900012    2    1    2    0    0 -0.41142842521E+00 -0.63387525268E+00 -0.90667642010E+00  0.90007689314E+02  0.89999950013E+02 0.  0.
        -12    1    1    2    0    0  0.41142842521E+00  0.63387525268E+00  0.90667642010E+00  0.11803106861E+01  0.00000000000E+00 0.  1.
         11    1    3    3    0    0 -0.89541604552E+00 -0.40235805057E+02 -0.17021494313E+02  0.43697288787E+02  0.51100000000E-03 0. -1.
        -11    1    3    3    0    0 -0.21316824544E+01  0.53073389121E+01  0.97918216800E+01  0.11339827533E+02  0.51100000000E-03 0.  1.
        -12    1    3    3    0    0  0.26156700747E+01  0.34294590892E+02  0.63229962124E+01  0.34970572993E+02  0.00000000000E+00 0.  1.
</event>
<event>
 7    1  0.2429906E-015  0.9000772E+02  0.7816164E-02  0.1186339E+00
        -11   -1    0    0    0    0  0.00000000000E+00  0.00000000000E+00  0.45593999997E+02  0.45594000000E+02  0.51100000000E-03 0.  1.
         11   -1    0    0    0    0 -0.00000000000E+00 -0.00000000000E+00 -0.45593999997E+02  0.45594000000E+02  0.51100000000E-03 0. -1.
    9900012    2    1    2    0    0 -0.52482800964E+00 -0.78491951424E-01 -0.10542514818E+01  0.90007723925E+02  0.89999985081E+02 0.  0.
        -12    1    1    2    0    0  0.52482800964E+00  0.78491951424E-01  0.10542514818E+01  0.11802760749E+01  0.00000000000E+00 0.  1.
         11    1    3    3    0    0  0.12607510334E+02  0.31122856342E+02 -0.18930645200E+02  0.38548032786E+02  0.51100000000E-03 0. -1.
        -11    1    3    3    0    0  0.30769709859E+01  0.45046119481E+01  0.10105832289E+02  0.11484212022E+02  0.51100000000E-03 0.  1.
        -12    1    3    3    0    0 -0.16209309329E+02 -0.35705960242E+02  0.77705614286E+01  0.39975479117E+02  0.00000000000E+00 0.  1.
</event>
<event>
 7    1  0.2429906E-015  0.9000784E+02  0.7816164E-02  0.1186339E+00
        -11   -1    0    0    0    0  0.00000000000E+00  0.00000000000E+00  0.45593999997E+02  0.45594000000E+02  0.51100000000E-03 0.  1.
         11   -1    0    0    0    0 -0.00000000000E+00 -0.00000000000E+00 -0.45593999997E+02  0.45594000000E+02  0.51100000000E-03 0. -1.
    9900012    2    1    2    0    0  0.39571223738E+00 -0.14063197430E+00 -0.11029127510E+01  0.90007838120E+02  0.90000100783E+02 0.  0.
        -12    1    1    2    0    0 -0.39571223738E+00  0.14063197430E+00  0.11029127510E+01  0.11801618801E+01  0.00000000000E+00 0.  1.
         11    1    3    3    0    0  0.60624062062E+01 -0.43650283497E+01  0.56579313964E+01  0.93711487796E+01  0.51100000000E-03 0. -1.
        -11    1    3    3    0    0  0.12816363128E+02  0.30787508145E+02  0.19789336034E+02  0.38778185137E+02  0.51100000000E-03 0.  1.
         12    1    3    3    0    0 -0.18483057096E+02 -0.26563111769E+02 -0.26550180181E+02  0.41858504203E+02  0.00000000000E+00 0. -1.
</event>
<event>
 7    1  0.2429906E-015  0.9000774E+02  0.7816164E-02  0.1186339E+00
        -11   -1    0    0    0    0  0.00000000000E+00  0.00000000000E+00  0.45593999997E+02  0.45594000000E+02  0.51100000000E-03 0. -1.
         11   -1    0    0    0    0 -0.00000000000E+00 -0.00000000000E+00 -0.45593999997E+02  0.45594000000E+02  0.51100000000E-03 0.  1.
    9900012    2    1    2    0    0 -0.19949050587E+00 -0.53399471314E+00  0.10334788693E+01  0.90007735034E+02  0.89999996337E+02 0.  0.
        -12    1    1    2    0    0  0.19949050587E+00  0.53399471314E+00 -0.10334788693E+01  0.11802649656E+01  0.00000000000E+00 0.  1.
         11    1    3    3    0    0  0.13508862871E+01  0.56960249673E-01 -0.91650915715E+01  0.92642885321E+01  0.51100000000E-03 0. -1.
        -11    1    3    3    0    0 -0.10447286290E+02  0.99950615349E+01 -0.32655725847E+02  0.35713351519E+02  0.51100000000E-03 0.  1.
         12    1    3    3    0    0  0.88969094973E+01 -0.10586016498E+02  0.42854296287E+02  0.45030094983E+02  0.00000000000E+00 0. -1.
</event>
<event>
 7    1  0.2429906E-015  0.9000772E+02  0.7816164E-02  0.1186339E+00
        -11   -1    0    0    0    0  0.00000000000E+00  0.00000000000E+00  0.45593999997E+02  0.45594000000E+02  0.51100000000E-03 0.  1.
         11   -1    0    0    0    0 -0.00000000000E+00 -0.00000000000E+00 -0.45593999997E+02  0.45594000000E+02  0.51100000000E-03 0. -1.
    9900012    2    1    2    0    0  0.84006397830E+00 -0.47286959624E+00 -0.68098498504E+00  0.90007723044E+02  0.89999984188E+02 0.  0.
        -12    1    1    2    0    0 -0.84006397830E+00  0.47286959624E+00  0.68098498504E+00  0.11802769559E+01  0.00000000000E+00 0.  1.
         11    1    3    3    0    0 -0.21594499092E+00 -0.10887527119E+02  0.16835902841E+01  0.11019045127E+02  0.51100000000E-03 0. -1.
        -11    1    3    3    0    0 -0.11316566145E+02 -0.27521186283E+02 -0.19484518444E+02  0.35568621325E+02  0.51100000000E-03 0.  1.
         12    1    3    3    0    0  0.12372575114E+02  0.37935843805E+02  0.17119943175E+02  0.43420056592E+02  0.00000000000E+00 0. -1.
</event>
<event>
 7    1  0.2429906E-015  0.9000773E+02  0.7816164E-02  0.1186339E+00
        -11   -1    0    0    0    0  0.00000000000E+00  0.00000000000E+00  0.45593999997E+02  0.45594000000E+02  0.51100000000E-03 0.  1.
         11   -1    0    0    0    0 -0.00000000000E+00 -0.00000000000E+00 -0.45593999997E+02  0.45594000000E+02  0.51100000000E-03 0. -1.
    9900012    2    1    2    0    0 -0.10992979076E+01 -0.38323777798E+00 -0.19416727114E+00  0.90007733923E+02  0.89999995210E+02 0.  0.
        -12    1    1    2    0    0  0.10992979076E+01  0.38323777798E+00  0.19416727114E+00  0.11802660773E+01  0.00000000000E+00 0.  1.
         11    1    3    3    0    0  0.68839960725E+01 -0.64162195819E+01  0.44633787792E+01  0.10415326497E+02  0.51100000000E-03 0. -1.
        -11    1    3    3    0    0 -0.13185308602E+02 -0.15158503840E+02  0.31499584369E+02  0.37361161883E+02  0.51100000000E-03 0.  1.
         12    1    3    3    0    0  0.52020146215E+01  0.21191485644E+02 -0.36157130419E+02  0.42231245543E+02  0.00000000000E+00 0. -1.
</event>
<event>
 7    1  0.2429906E-015  0.9000769E+02  0.7816164E-02  0.1186339E+00
        -11   -1    0    0    0    0  0.00000000000E+00  0.00000000000E+00  0.45593999997E+02  0.45594000000E+02  0.51100000000E-03 0.  1.
         11   -1    0    0    0    0 -0.00000000000E+00 -0.00000000000E+00 -0.45593999997E+02  0.45594000000E+02  0.51100000000E-03 0. -1.
    9900012    2    1    2    0    0 -0.25054592506E-01  0.81418564966E+00 -0.85416602047E+00  0.90007692584E+02  0.89999953327E+02 0.  0.
        -12    1    1    2    0    0  0.25054592506E-01 -0.81418564966E+00  0.85416602047E+00  0.11803074156E+01  0.00000000000E+00 0.  1.
         11    1    3    3    0    0 -0.14064237450E+02 -0.17377912313E+02 -0.26555122725E+02  0.34712665622E+02  0.51100000000E-03 0. -1.
        -11    1    3    3    0    0 -0.25240449362E+01 -0.34943137159E+01 -0.96899404725E+01  0.10605469240E+02  0.51100000000E-03 0.  1.
        -12    1    3    3    0    0  0.16563227793E+02  0.21686411679E+02  0.35390897177E+02  0.44689557722E+02  0.00000000000E+00 0.  1.
</event>
<event>
 7    1  0.2429906E-015  0.9000773E+02  0.7816164E-02  0.1186339E+00
        -11   -1    0    0    0    0  0.00000000000E+00  0.00000000000E+00  0.45593999997E+02  0.45594000000E+02  0.51100000000E-03 0.  1.
         11   -1    0    0    0    0 -0.00000000000E+00 -0.00000000000E+00 -0.45593999997E+02  0.45594000000E+02  0.51100000000E-03 0. -1.
    9900012    2    1    2    0    0  0.36378611801E+00 -0.86466137580E+00  0.71627618453E+00  0.90007732570E+02  0.89999993840E+02 0.  0.
        -12    1    1    2    0    0 -0.36378611801E+00  0.86466137580E+00 -0.71627618453E+00  0.11802674303E+01  0.00000000000E+00 0.  1.
         11    1    3    3    0    0 -0.11495111664E+02  0.61091541814E+01  0.89371295107E+01  0.15790238793E+02  0.51100000000E-03 0. -1.
        -11    1    3    3    0    0 -0.18699424907E+01 -0.68360226003E+01  0.31449670640E+02  0.32238326159E+02  0.51100000000E-03 0.  1.
         12    1    3    3    0    0  0.13728840273E+02 -0.13779295691E+00 -0.39670523966E+02  0.41979167618E+02  0.00000000000E+00 0. -1.
</event>
<event>
 7    1  0.2429906E-015  0.9000779E+02  0.7816164E-02  0.1186339E+00
        -11   -1    0    0    0    0  0.00000000000E+00  0.00000000000E+00  0.45593999997E+02  0.45594000000E+02  0.51100000000E-03 0.  1.
         11   -1    0    0    0    0 -0.00000000000E+00 -0.00000000000E+00 -0.45593999997E+02  0.45594000000E+02  0.51100000000E-03 0. -1.
    9900012    2    1    2    0    0  0.10411855683E+01 -0.71185188624E-01 -0.55114808271E+00  0.90007788609E+02  0.90000050618E+02 0.  0.
        -12    1    1    2    0    0 -0.10411855683E+01  0.71185188624E-01  0.55114808271E+00  0.11802113912E+01  0.00000000000E+00 0.  1.
         11    1    3    3    0    0 -0.34617166225E+02 -0.46418052054E+01  0.22189664744E+02  0.41379654116E+02  0.51100000000E-03 0. -1.
        -11    1    3    3    0    0 -0.32663790125E+01 -0.10807216097E+01 -0.32421703786E+01  0.47274580988E+01  0.51100000000E-03 0.  1.
        -12    1    3    3    0    0  0.38924730806E+02  0.56513416264E+01 -0.19498642449E+02  0.43900676394E+02  0.00000000000E+00 0.  1.
</event>
<event>
 7    1  0.2429906E-015  0.9000671E+02  0.7816164E-02  0.1186341E+00
        -11   -1    0    0    0    0  0.00000000000E+00  0.00000000000E+00  0.45593999997E+02  0.45594000000E+02  0.51100000000E-03 0. -1.
         11   -1    0    0    0    0 -0.00000000000E+00 -0.00000000000E+00 -0.45593999997E+02  0.45594000000E+02  0.51100000000E-03 0.  1.
    9900012    2    1    2    0    0 -0.12123492359E+00 -0.11737997626E+01  0.54168728603E-01  0.90006713396E+02  0.89998961207E+02 0.  0.
        -12    1    1    2    0    0  0.12123492359E+00  0.11737997626E+01 -0.54168728603E-01  0.11812866039E+01  0.00000000000E+00 0.  1.
         11    1    3    3    0    0  0.66187247861E+00 -0.82425821425E+01  0.40613618767E+02  0.41446884867E+02  0.51100000000E-03 0. -1.
        -11    1    3    3    0    0 -0.23453195878E+01 -0.85417103014E+01 -0.62717198957E+01  0.10853377795E+02  0.51100000000E-03 0.  1.
        -12    1    3    3    0    0  0.15622121856E+01  0.15610492681E+02 -0.34287730143E+02  0.37706450735E+02  0.00000000000E+00 0.  1.
</event>
<event>
 7    1  0.2429906E-015  0.9000779E+02  0.7816164E-02  0.1186339E+00
        -11   -1    0    0    0    0  0.00000000000E+00  0.00000000000E+00  0.45593999997E+02  0.45594000000E+02  0.51100000000E-03 0.  1.
         11   -1    0    0    0    0 -0.00000000000E+00 -0.00000000000E+00 -0.45593999997E+02  0.45594000000E+02  0.51100000000E-03 0. -1.
    9900012    2    1    2    0    0  0.10132212834E+01  0.59691903410E+00  0.99840192773E-01  0.90007789101E+02  0.90000051117E+02 0.  0.
        -12    1    1    2    0    0 -0.10132212834E+01 -0.59691903410E+00 -0.99840192773E-01  0.11802108992E+01  0.00000000000E+00 0.  1.
         11    1    3    3    0    0  0.18306990698E+00 -0.22403247801E+01  0.99276940328E+01  0.10178982208E+02  0.51100000000E-03 0. -1.
        -11    1    3    3    0    0  0.28549830550E+02 -0.23994348298E+02 -0.16318935638E+02  0.40707852256E+02  0.51100000000E-03 0.  1.
         12    1    3    3    0    0 -0.27719679174E+02  0.26831592113E+02  0.64910817981E+01  0.39120954637E+02  0.00000000000E+00 0. -1.
</event>
<event>
 7    1  0.2429906E-015  0.9000771E+02  0.7816164E-02  0.1186339E+00
        -11   -1    0    0    0    0  0.00000000000E+00  0.00000000000E+00  0.45593999997E+02  0.45594000000E+02  0.51100000000E-03 0.  1.
         11   -1    0    0    0    0 -0.00000000000E+00 -0.00000000000E+00 -0.45593999997E+02  0.45594000000E+02  0.51100000000E-03 0. -1.
    9900012    2    1    2    0    0  0.11192345984E+01 -0.37155005677E+00  0.48509963993E-01  0.90007708194E+02  0.89999969142E+02 0.  0.
        -12    1    1    2    0    0 -0.11192345984E+01  0.37155005677E+00 -0.48509963993E-01  0.11802918061E+01  0.00000000000E+00 0.  1.
         11    1    3    3    0    0  0.39345803125E+02 -0.54982246446E+01  0.10386417269E+02  0.41063370072E+02  0.51100000000E-03 0. -1.
        -11    1    3    3    0    0 -0.11887131543E+01 -0.34315423364E+01 -0.10309647288E+02  0.10930569483E+02  0.51100000000E-03 0.  1.
        -12    1    3    3    0    0 -0.37037855372E+02  0.85582169243E+01 -0.28260017511E-01  0.38013768638E+02  0.00000000000E+00 0.  1.
</event>
<event>
 7    1  0.2429906E-015  0.9000769E+02  0.7816164E-02  0.1186339E+00
        -11   -1    0    0    0    0  0.00000000000E+00  0.00000000000E+00  0.45593999997E+02  0.45594000000E+02  0.51100000000E-03 0.  1.
         11   -1    0    0    0    0 -0.00000000000E+00 -0.00000000000E+00 -0.45593999997E+02  0.45594000000E+02  0.51100000000E-03 0. -1.
    9900012    2    1    2    0    0  0.79389763513E+00 -0.86718048602E+00  0.10422842082E+00  0.90007686900E+02  0.89999947567E+02 0.  0.
        -12    1    1    2    0    0 -0.79389763513E+00  0.86718048602E+00 -0.10422842082E+00  0.11803131000E+01  0.00000000000E+00 0.  1.
         11    1    3    3    0    0  0.20563652196E+02 -0.25840057213E+02  0.13549855195E+02  0.35695530875E+02  0.51100000000E-03 0. -1.
        -11    1    3    3    0    0 -0.93003829021E+01 -0.81504633153E+01  0.67918020571E+01  0.14108711841E+02  0.51100000000E-03 0.  1.
        -12    1    3    3    0    0 -0.10469371658E+02  0.33123340043E+02 -0.20237428831E+02  0.40203444183E+02  0.00000000000E+00 0.  1.
</event>
<event>
 7    1  0.2429906E-015  0.9000781E+02  0.7816164E-02  0.1186339E+00
        -11   -1    0    0    0    0  0.00000000000E+00  0.00000000000E+00  0.45593999997E+02  0.45594000000E+02  0.51100000000E-03 0.  1.
         11   -1    0    0    0    0 -0.00000000000E+00 -0.00000000000E+00 -0.45593999997E+02  0.45594000000E+02  0.51100000000E-03 0. -1.
    9900012    2    1    2    0    0 -0.28261380393E+00 -0.10511810731E+01  0.45605411296E+00  0.90007814606E+02  0.90000076959E+02 0.  0.
        -12    1    1    2    0    0  0.28261380393E+00  0.10511810731E+01 -0.45605411296E+00  0.11801853941E+01  0.00000000000E+00 0.  1.
         11    1    3    3    0    0 -0.43852788987E+01  0.54259269002E+01  0.63558649807E+01  0.94376042331E+01  0.51100000000E-03 0. -1.
        -11    1    3    3    0    0  0.29583822980E+01  0.32501161855E+02 -0.20939364303E+02  0.38775437141E+02  0.51100000000E-03 0.  1.
         12    1    3    3    0    0  0.11442827968E+01 -0.38978269829E+02  0.15039553436E+02  0.41794773232E+02  0.00000000000E+00 0. -1.
</event>
<event>
 7    1  0.2429906E-015  0.9000762E+02  0.7816164E-02  0.1186339E+00
        -11   -1    0    0    0    0  0.00000000000E+00  0.00000000000E+00  0.45593999997E+02  0.45594000000E+02  0.51100000000E-03 0. -1.
         11   -1    0    0    0    0 -0.00000000000E+00 -0.00000000000E+00 -0.45593999997E+02  0.45594000000E+02  0.51100000000E-03 0.  1.
    9900012    2    1    2    0    0 -0.84725313452E+00  0.40342659011E+00 -0.71602676231E+00  0.90007624970E+02  0.89999884819E+02 0.  0.
        -12    1    1    2    0    0  0.84725313452E+00 -0.40342659011E+00  0.71602676231E+00  0.11803750302E+01  0.00000000000E+00 0.  1.
         11    1    3    3    0    0 -0.57122290581E+01 -0.66401720324E+01 -0.12843896690E+01  0.88527454789E+01  0.51100000000E-03 0. -1.
        -11    1    3    3    0    0 -0.83679375310E+01 -0.32774248921E+02 -0.14182244542E+02  0.36678465499E+02  0.51100000000E-03 0.  1.
         12    1    3    3    0    0  0.13232913455E+02  0.39817847543E+02  0.14750607449E+02  0.44476413992E+02  0.00000000000E+00 0. -1.
</event>
<event>
 7    1  0.2429906E-015  0.9000775E+02  0.7816164E-02  0.1186339E+00
        -11   -1    0    0    0    0  0.00000000000E+00  0.00000000000E+00  0.45593999997E+02  0.45594000000E+02  0.51100000000E-03 0. -1.
         11   -1    0    0    0    0 -0.00000000000E+00 -0.00000000000E+00 -0.45593999997E+02  0.45594000000E+02  0.51100000000E-03 0.  1.
    9900012    2    1    2    0    0 -0.55391697646E+00  0.95560464230E+00  0.41590620024E+00  0.90007753324E+02  0.90000014868E+02 0.  0.
        -12    1    1    2    0    0  0.55391697646E+00 -0.95560464230E+00 -0.41590620024E+00  0.11802466762E+01  0.00000000000E+00 0.  1.
         11    1    3    3    0    0  0.31912180556E+01  0.75300970933E+01 -0.35721977187E+01  0.89245073655E+01  0.51100000000E-03 0. -1.
        -11    1    3    3    0    0 -0.83127402089E+01 -0.80161652358E+01 -0.37541917281E+02  0.39277934114E+02  0.51100000000E-03 0.  1.
         12    1    3    3    0    0  0.45676051768E+01  0.14416727848E+01  0.41530021200E+02  0.41805311844E+02  0.00000000000E+00 0. -1.
</event>
<event>
 7    1  0.2429906E-015  0.9000772E+02  0.7816164E-02  0.1186339E+00
        -11   -1    0    0    0    0  0.00000000000E+00  0.00000000000E+00  0.45593999997E+02  0.45594000000E+02  0.51100000000E-03 0. -1.
         11   -1    0    0    0    0 -0.00000000000E+00 -0.00000000000E+00 -0.45593999997E+02  0.45594000000E+02  0.51100000000E-03 0.  1.
    9900012    2    1    2    0    0 -0.57942330671E+00 -0.10278395797E+01 -0.29597757636E-01  0.90007719695E+02  0.89999980795E+02 0.  0.
        -12    1    1    2    0    0  0.57942330671E+00  0.10278395797E+01  0.29597757636E-01  0.11802803045E+01  0.00000000000E+00 0.  1.
         11    1    3    3    0    0  0.41593449509E+01 -0.72374125869E+00  0.82065411063E+01  0.92288281499E+01  0.51100000000E-03 0. -1.
        -11    1    3    3    0    0 -0.38830140761E+02  0.16457239346E+02 -0.15221522119E+01  0.42201155268E+02  0.51100000000E-03 0.  1.
         12    1    3    3    0    0  0.34091372503E+02 -0.16761337667E+02 -0.67139866520E+01  0.38577736277E+02  0.00000000000E+00 0. -1.
</event>
<event>
 7    1  0.3231078E-015  0.9000773E+02  0.7816164E-02  0.1186339E+00
        -11   -1    0    0    0    0  0.00000000000E+00  0.00000000000E+00  0.45593999997E+02  0.45594000000E+02  0.51100000000E-03 0. -1.
         11   -1    0    0    0    0 -0.00000000000E+00 -0.00000000000E+00 -0.45593999997E+02  0.45594000000E+02  0.51100000000E-03 0.  1.
    9900012    2    1    2    0    0  0.56688323301E+00 -0.44060968476E+00  0.93676989260E+00  0.90007732519E+02  0.89999993789E+02 0.  0.
        -12    1    1    2    0    0 -0.56688323301E+00  0.44060968476E+00 -0.93676989260E+00  0.11802674806E+01  0.00000000000E+00 0.  1.
         11    1    3    3    0    0 -0.92075681676E+01 -0.10959413898E+02  0.39769837422E+02  0.42267340032E+02  0.51100000000E-03 0. -1.
        -11    1    3    3    0    0 -0.71528227078E+01  0.17129332037E+01 -0.49868128550E+01  0.88862430510E+01  0.51100000000E-03 0.  1.
        -12    1    3    3    0    0  0.16927274108E+02  0.88058710091E+01 -0.33846254674E+02  0.38854149437E+02  0.00000000000E+00 0.  1.
</event>
<event>
 7    1  0.2429906E-015  0.9000774E+02  0.7816164E-02  0.1186339E+00
        -11   -1    0    0    0    0  0.00000000000E+00  0.00000000000E+00  0.45593999997E+02  0.45594000000E+02  0.51100000000E-03 0.  1.
         11   -1    0    0    0    0 -0.00000000000E+00 -0.00000000000E+00 -0.45593999997E+02  0.45594000000E+02  0.51100000000E-03 0. -1.
    9900012    2    1    2    0    0  0.90581851278E+00 -0.72872675386E+00  0.20362862940E+00  0.90007739656E+02  0.90000001020E+02 0.  0.
        -12    1    1    2    0    0 -0.90581851278E+00  0.72872675386E+00 -0.20362862940E+00  0.11802603436E+01  0.00000000000E+00 0.  1.
         11    1    3    3    0    0 -0.81975248004E+01  0.51666194632E+01  0.23680333626E+01  0.99750163808E+01  0.51100000000E-03 0. -1.
        -11    1    3    3    0    0 -0.13067433564E+02  0.21089864552E+02  0.25425722342E+02  0.35524745793E+02  0.51100000000E-03 0.  1.
         12    1    3    3    0    0  0.22170776877E+02 -0.26985210769E+02 -0.27590127076E+02  0.44507977483E+02  0.00000000000E+00 0. -1.
</event>
<event>
 7    1  0.2429906E-015  0.9000780E+02  0.7816164E-02  0.1186339E+00
        -11   -1    0    0    0    0  0.00000000000E+00  0.00000000000E+00  0.45593999997E+02  0.45594000000E+02  0.51100000000E-03 0.  1.
         11   -1    0    0    0    0 -0.00000000000E+00 -0.00000000000E+00 -0.45593999997E+02  0.45594000000E+02  0.51100000000E-03 0. -1.
    9900012    2    1    2    0    0 -0.51527521365E+00 -0.67477962070E+00 -0.81977231209E+00  0.90007803946E+02  0.90000066158E+02 0.  0.
        -12    1    1    2    0    0  0.51527521365E+00  0.67477962070E+00  0.81977231209E+00  0.11801960540E+01  0.00000000000E+00 0.  1.
         11    1    3    3    0    0  0.91761704226E+01  0.50288480425E+00  0.29492789057E+01  0.96515927740E+01  0.51100000000E-03 0. -1.
        -11    1    3    3    0    0  0.10121373186E+02  0.28451809295E+00  0.35193457036E+02  0.36621067217E+02  0.51100000000E-03 0.  1.
         12    1    3    3    0    0 -0.19812818822E+02 -0.14621825179E+01 -0.38962508253E+02  0.43735143955E+02  0.00000000000E+00 0. -1.
</event>
<event>
 7    1  0.2429906E-015  0.9000766E+02  0.7816164E-02  0.1186339E+00
        -11   -1    0    0    0    0  0.00000000000E+00  0.00000000000E+00  0.45593999997E+02  0.45594000000E+02  0.51100000000E-03 0. -1.
         11   -1    0    0    0    0 -0.00000000000E+00 -0.00000000000E+00 -0.45593999997E+02  0.45594000000E+02  0.51100000000E-03 0.  1.
    9900012    2    1    2    0    0  0.57956680749E+00  0.65585600796E+00  0.79193731932E+00  0.90007657039E+02  0.89999917312E+02 0.  0.
        -12    1    1    2    0    0 -0.57956680749E+00 -0.65585600796E+00 -0.79193731932E+00  0.11803429609E+01  0.00000000000E+00 0.  1.
         11    1    3    3    0    0 -0.47067700148E+01 -0.15388344775E+01  0.70027338898E+01  0.85767113577E+01  0.51100000000E-03 0. -1.
        -11    1    3    3    0    0 -0.21500038316E+02 -0.28424042651E+02 -0.16789311792E+02  0.39396177974E+02  0.51100000000E-03 0.  1.
         12    1    3    3    0    0  0.26786375138E+02  0.30618733137E+02  0.10578515222E+02  0.42034767708E+02  0.00000000000E+00 0. -1.
</event>
<event>
 7    1  0.2429906E-015  0.9000777E+02  0.7816164E-02  0.1186339E+00
        -11   -1    0    0    0    0  0.00000000000E+00  0.00000000000E+00  0.45593999997E+02  0.45594000000E+02  0.51100000000E-03 0.  1.
         11   -1    0    0    0    0 -0.00000000000E+00 -0.00000000000E+00 -0.45593999997E+02  0.45594000000E+02  0.51100000000E-03 0. -1.
    9900012    2    1    2    0    0 -0.93222447495E+00  0.71474968336E+00  0.11419913843E+00  0.90007766538E+02  0.90000028256E+02 0.  0.
        -12    1    1    2    0    0  0.93222447495E+00 -0.71474968336E+00 -0.11419913843E+00  0.11802334620E+01  0.00000000000E+00 0.  1.
         11    1    3    3    0    0 -0.74997267380E+01 -0.72835869466E+01 -0.62327115100E+01  0.12171410476E+02  0.51100000000E-03 0. -1.
        -11    1    3    3    0    0 -0.22800003285E+02  0.14357146347E+02  0.29463034095E+02  0.39925407692E+02  0.51100000000E-03 0.  1.
         12    1    3    3    0    0  0.29367505548E+02 -0.63588097172E+01 -0.23116123446E+02  0.37910948370E+02  0.00000000000E+00 0. -1.
</event>
<event>
 7    1  0.2429906E-015  0.9000762E+02  0.7816164E-02  0.1186339E+00
        -11   -1    0    0    0    0  0.00000000000E+00  0.00000000000E+00  0.45593999997E+02  0.45594000000E+02  0.51100000000E-03 0.  1.
         11   -1    0    0    0    0 -0.00000000000E+00 -0.00000000000E+00 -0.45593999997E+02  0.45594000000E+02  0.51100000000E-03 0. -1.
    9900012    2    1    2    0    0  0.59107134025E+00  0.68010718109E+00  0.76248469826E+00  0.90007621238E+02  0.89999881038E+02 0.  0.
        -12    1    1    2    0    0 -0.59107134025E+00 -0.68010718109E+00 -0.76248469826E+00  0.11803787621E+01  0.00000000000E+00 0.  1.
         11    1    3    3    0    0 -0.16031685435E+02  0.28450861703E+02 -0.24797319791E+02  0.41004555096E+02  0.51100000000E-03 0. -1.
        -11    1    3    3    0    0 -0.44020614884E+01  0.19567165635E+01  0.59218432269E+01  0.76338137600E+01  0.51100000000E-03 0.  1.
        -12    1    3    3    0    0  0.21024818264E+02 -0.29727471085E+02  0.19637961262E+02  0.41369252382E+02  0.00000000000E+00 0.  1.
</event>
<event>
 7    1  0.2429906E-015  0.9000780E+02  0.7816164E-02  0.1186339E+00
        -11   -1    0    0    0    0  0.00000000000E+00  0.00000000000E+00  0.45593999997E+02  0.45594000000E+02  0.51100000000E-03 0.  1.
         11   -1    0    0    0    0 -0.00000000000E+00 -0.00000000000E+00 -0.45593999997E+02  0.45594000000E+02  0.51100000000E-03 0. -1.
    9900012    2    1    2    0    0 -0.89192242088E+00 -0.77268726717E+00 -0.17366856244E-01  0.90007799667E+02  0.90000061823E+02 0.  0.
        -12    1    1    2    0    0  0.89192242088E+00  0.77268726717E+00  0.17366856244E-01  0.11802003327E+01  0.00000000000E+00 0.  1.
         11    1    3    3    0    0  0.16569008139E+02 -0.19913147274E+02 -0.30095438994E+02  0.39708952562E+02  0.51100000000E-03 0. -1.
        -11    1    3    3    0    0  0.77322279962E+01  0.33122217962E+01  0.62742863032E+00  0.84351544123E+01  0.51100000000E-03 0.  1.
        -12    1    3    3    0    0 -0.25193158556E+02  0.15828238210E+02  0.29450643508E+02  0.41863692693E+02  0.00000000000E+00 0.  1.
</event>
<event>
 7    1  0.2429906E-015  0.9000764E+02  0.7816164E-02  0.1186339E+00
        -11   -1    0    0    0    0  0.00000000000E+00  0.00000000000E+00  0.45593999997E+02  0.45594000000E+02  0.51100000000E-03 0. -1.
         11   -1    0    0    0    0 -0.00000000000E+00 -0.00000000000E+00 -0.45593999997E+02  0.45594000000E+02  0.51100000000E-03 0.  1.
    9900012    2    1    2    0    0  0.11590407529E+01 -0.21029666181E+00  0.75105042835E-01  0.90007643732E+02  0.89999903829E+02 0.  0.
        -12    1    1    2    0    0 -0.11590407529E+01  0.21029666181E+00 -0.75105042835E-01  0.11803562684E+01  0.00000000000E+00 0.  1.
         11    1    3    3    0    0 -0.30964657361E+01 -0.55337985680E+01 -0.61485597445E+01  0.88326561033E+01  0.51100000000E-03 0. -1.
        -11    1    3    3    0    0 -0.74104546645E+01 -0.36594849320E+02  0.47508730906E+01  0.37638658723E+02  0.51100000000E-03 0.  1.
         12    1    3    3    0    0  0.11665961153E+02  0.41918351226E+02  0.14727916967E+01  0.43536328905E+02  0.00000000000E+00 0. -1.
</event>
<event>
 7    1  0.2429906E-015  0.9000761E+02  0.7816164E-02  0.1186339E+00
        -11   -1    0    0    0    0  0.00000000000E+00  0.00000000000E+00  0.45593999997E+02  0.45594000000E+02  0.51100000000E-03 0. -1.
         11   -1    0    0    0    0 -0.00000000000E+00 -0.00000000000E+00 -0.45593999997E+02  0.45594000000E+02  0.51100000000E-03 0.  1.
    9900012    2    1    2    0    0  0.70346132566E+00 -0.68809833238E+00  0.65191256894E+00  0.90007607206E+02  0.89999866821E+02 0.  0.
        -12    1    1    2    0    0 -0.70346132566E+00  0.68809833238E+00 -0.65191256894E+00  0.11803927945E+01  0.00000000000E+00 0.  1.
         11    1    3    3    0    0  0.24052355445E+02  0.21074597443E+02  0.10015119906E+02  0.33510551873E+02  0.51100000000E-03 0. -1.
        -11    1    3    3    0    0  0.90708113674E+01  0.64221712600E+01  0.35033101312E+01  0.11653200620E+02  0.51100000000E-03 0.  1.
        -12    1    3    3    0    0 -0.32419705487E+02 -0.28184867036E+02 -0.12866517468E+02  0.44843854712E+02  0.00000000000E+00 0.  1.
</event>
<event>
 7    1  0.2429906E-015  0.9000768E+02  0.7816164E-02  0.1186339E+00
        -11   -1    0    0    0    0  0.00000000000E+00  0.00000000000E+00  0.45593999997E+02  0.45594000000E+02  0.51100000000E-03 0. -1.
         11   -1    0    0    0    0 -0.00000000000E+00 -0.00000000000E+00 -0.45593999997E+02  0.45594000000E+02  0.51100000000E-03 0.  1.
    9900012    2    1    2    0    0 -0.49618143432E+00  0.47243801759E+00  0.96112409166E+00  0.90007680884E+02  0.89999941472E+02 0.  0.
        -12    1    1    2    0    0  0.49618143432E+00 -0.47243801759E+00 -0.96112409166E+00  0.11803191161E+01  0.00000000000E+00 0.  1.
         11    1    3    3    0    0  0.25037285033E+02 -0.32796127117E+02  0.36275042130E+01  0.41419927363E+02  0.51100000000E-03 0. -1.
        -11    1    3    3    0    0  0.12621811340E+01  0.69141216511E+01  0.68534854107E+01  0.98167429404E+01  0.51100000000E-03 0.  1.
        -12    1    3    3    0    0 -0.26795647601E+02  0.26354443483E+02 -0.95198655321E+01  0.38771010581E+02  0.00000000000E+00 0.  1.
</event>
<event>
 7    1  0.2429906E-015  0.9000760E+02  0.7816164E-02  0.1186339E+00
        -11   -1    0    0    0    0  0.00000000000E+00  0.00000000000E+00  0.45593999997E+02  0.45594000000E+02  0.51100000000E-03 0.  1.
         11   -1    0    0    0    0 -0.00000000000E+00 -0.00000000000E+00 -0.45593999997E+02  0.45594000000E+02  0.51100000000E-03 0. -1.
    9900012    2    1    2    0    0  0.77512372681E+00 -0.51711054444E+00 -0.72465494627E+00  0.90007599687E+02  0.89999859203E+02 0.  0.
        -12    1    1    2    0    0 -0.77512372681E+00  0.51711054444E+00  0.72465494627E+00  0.11804003127E+01  0.00000000000E+00 0.  1.
         11    1    3    3    0    0  0.21788811114E+01  0.69765193303E+01  0.60798000045E+01  0.95070138960E+01  0.51100000000E-03 0. -1.
        -11    1    3    3    0    0  0.20940043526E+02 -0.31121252983E+02  0.16002117599E+02  0.40780946262E+02  0.51100000000E-03 0.  1.
         12    1    3    3    0    0 -0.22343800911E+02  0.23627623108E+02 -0.22806572550E+02  0.39719639529E+02  0.00000000000E+00 0. -1.
</event>
<event>
 7    1  0.2429906E-015  0.9000794E+02  0.7816164E-02  0.1186339E+00
        -11   -1    0    0    0    0  0.00000000000E+00  0.00000000000E+00  0.45593999997E+02  0.45594000000E+02  0.51100000000E-03 0.  1.
         11   -1    0    0    0    0 -0.00000000000E+00 -0.00000000000E+00 -0.45593999997E+02  0.45594000000E+02  0.51100000000E-03 0. -1.
    9900012    2    1    2    0    0  0.10001652797E+00 -0.10461657691E+01 -0.53673698925E+00  0.90007935291E+02  0.90000199236E+02 0.  0.
        -12    1    1    2    0    0 -0.10001652797E+00  0.10461657691E+01  0.53673698925E+00  0.11800647092E+01  0.00000000000E+00 0.  1.
         11    1    3    3    0    0  0.34675913859E+02  0.87711138298E+01  0.10975090767E+01  0.35784856661E+02  0.51100000000E-03 0. -1.
        -11    1    3    3    0    0  0.83489022001E+01  0.25161848257E+01  0.32269305999E+01  0.92977650745E+01  0.51100000000E-03 0.  1.
        -12    1    3    3    0    0 -0.42924799531E+02 -0.12333464425E+02 -0.48611766659E+01  0.44925313556E+02  0.00000000000E+00 0.  1.
</event>
<event>
 7    1  0.2429906E-015  0.9000738E+02  0.7816164E-02  0.1186340E+00
        -11   -1    0    0    0    0  0.00000000000E+00  0.00000000000E+00  0.45593999997E+02  0.45594000000E+02  0.51100000000E-03 0. -1.
         11   -1    0    0    0    0 -0.00000000000E+00 -0.00000000000E+00 -0.45593999997E+02  0.45594000000E+02  0.51100000000E-03 0.  1.
    9900012    2    1    2    0    0 -0.87339196001E-01  0.95539039662E+00  0.68809238807E+00  0.90007377249E+02  0.89999633828E+02 0.  0.
        -12    1    1    2    0    0  0.87339196001E-01 -0.95539039662E+00 -0.68809238807E+00  0.11806227508E+01  0.00000000000E+00 0.  1.
         11    1    3    3    0    0 -0.71352960618E+01 -0.16941976975E+01  0.75563010389E+01  0.10529978223E+02  0.51100000000E-03 0. -1.
        -11    1    3    3    0    0  0.46617385933E+01 -0.15037640237E+02 -0.39368118368E+02  0.42399424226E+02  0.51100000000E-03 0.  1.
         12    1    3    3    0    0  0.23862182725E+01  0.17687228331E+02  0.32499909717E+02  0.37077974800E+02  0.00000000000E+00 0. -1.
</event>
<event>
 7    1  0.2429906E-015  0.9000778E+02  0.7816164E-02  0.1186339E+00
        -11   -1    0    0    0    0  0.00000000000E+00  0.00000000000E+00  0.45593999997E+02  0.45594000000E+02  0.51100000000E-03 0.  1.
         11   -1    0    0    0    0 -0.00000000000E+00 -0.00000000000E+00 -0.45593999997E+02  0.45594000000E+02  0.51100000000E-03 0. -1.
    9900012    2    1    2    0    0 -0.41457574541E+00 -0.46133253222E+00 -0.10040952483E+01  0.90007784756E+02  0.90000046715E+02 0.  0.
        -12    1    1    2    0    0  0.41457574541E+00  0.46133253222E+00  0.10040952483E+01  0.11802152438E+01  0.00000000000E+00 0.  1.
         11    1    3    3    0    0  0.82537717172E+01 -0.12799664170E+02 -0.61396219740E+01  0.16421056869E+02  0.51100000000E-03 0. -1.
        -11    1    3    3    0    0 -0.28472194700E+02 -0.17542413809E+02  0.14630758878E+02  0.36502893842E+02  0.51100000000E-03 0.  1.
         12    1    3    3    0    0  0.19803847237E+02  0.29880745448E+02 -0.94952321520E+01  0.37083834045E+02  0.00000000000E+00 0. -1.
</event>
<event>
 7    1  0.2429906E-015  0.9000779E+02  0.7816164E-02  0.1186339E+00
        -11   -1    0    0    0    0  0.00000000000E+00  0.00000000000E+00  0.45593999997E+02  0.45594000000E+02  0.51100000000E-03 0.  1.
         11   -1    0    0    0    0 -0.00000000000E+00 -0.00000000000E+00 -0.45593999997E+02  0.45594000000E+02  0.51100000000E-03 0. -1.
    9900012    2    1    2    0    0  0.53319256983E+00  0.34434953399E+00 -0.99499536643E+00  0.90007793790E+02  0.90000055868E+02 0.  0.
        -12    1    1    2    0    0 -0.53319256983E+00 -0.34434953399E+00  0.99499536643E+00  0.11802062097E+01  0.00000000000E+00 0.  1.
         11    1    3    3    0    0 -0.15100466517E+02 -0.15235515560E+02 -0.29005068741E+02  0.36075463079E+02  0.51100000000E-03 0. -1.
        -11    1    3    3    0    0 -0.47803013091E+01 -0.67327979887E+01 -0.46045234583E+01  0.94542839973E+01  0.51100000000E-03 0.  1.
        -12    1    3    3    0    0  0.20413960396E+02  0.22312663083E+02  0.32614596833E+02  0.44478046714E+02  0.00000000000E+00 0.  1.
</event>
<event>
 7    1  0.2429906E-015  0.9000771E+02  0.7816164E-02  0.1186339E+00
        -11   -1    0    0    0    0  0.00000000000E+00  0.00000000000E+00  0.45593999997E+02  0.45594000000E+02  0.51100000000E-03 0. -1.
         11   -1    0    0    0    0 -0.00000000000E+00 -0.00000000000E+00 -0.45593999997E+02  0.45594000000E+02  0.51100000000E-03 0.  1.
    9900012    2    1    2    0    0  0.19375859970E+00  0.35484322780E+00  0.11088844062E+01  0.90007711587E+02  0.89999972580E+02 0.  0.
        -12    1    1    2    0    0 -0.19375859970E+00 -0.35484322780E+00 -0.11088844062E+01  0.11802884129E+01  0.00000000000E+00 0.  1.
         11    1    3    3    0    0  0.58708802792E+00  0.90360603247E+01  0.13865212143E+01  0.91606495339E+01  0.51100000000E-03 0. -1.
        -11    1    3    3    0    0 -0.18354022615E+02  0.31696304028E+02  0.92882396924E+00  0.36638621009E+02  0.51100000000E-03 0.  1.
         12    1    3    3    0    0  0.17960693186E+02 -0.40377521125E+02 -0.12064607774E+01  0.44208441044E+02  0.00000000000E+00 0. -1.
</event>
<event>
 7    1  0.2429906E-015  0.9000773E+02  0.7816164E-02  0.1186339E+00
        -11   -1    0    0    0    0  0.00000000000E+00  0.00000000000E+00  0.45593999997E+02  0.45594000000E+02  0.51100000000E-03 0. -1.
         11   -1    0    0    0    0 -0.00000000000E+00 -0.00000000000E+00 -0.45593999997E+02  0.45594000000E+02  0.51100000000E-03 0.  1.
    9900012    2    1    2    0    0 -0.12206231270E+00 -0.97969431187E+00  0.64679413106E+00  0.90007727658E+02  0.89999988863E+02 0.  0.
        -12    1    1    2    0    0  0.12206231270E+00  0.97969431187E+00 -0.64679413106E+00  0.11802723418E+01  0.00000000000E+00 0.  1.
         11    1    3    3    0    0  0.52338852759E+00 -0.47896733928E+01  0.87323463068E+01  0.99734035838E+01  0.51100000000E-03 0. -1.
        -11    1    3    3    0    0 -0.27492632454E+02 -0.25280645839E+02 -0.14242553116E+02  0.39972568254E+02  0.51100000000E-03 0.  1.
         12    1    3    3    0    0  0.26847181614E+02  0.29090624920E+02  0.61570009405E+01  0.40061755820E+02  0.00000000000E+00 0. -1.
</event>
<event>
 7    1  0.2429906E-015  0.9000772E+02  0.7816164E-02  0.1186339E+00
        -11   -1    0    0    0    0  0.00000000000E+00  0.00000000000E+00  0.45593999997E+02  0.45594000000E+02  0.51100000000E-03 0. -1.
         11   -1    0    0    0    0 -0.00000000000E+00 -0.00000000000E+00 -0.45593999997E+02  0.45594000000E+02  0.51100000000E-03 0.  1.
    9900012    2    1    2    0    0  0.45840848077E+00  0.10738730970E+01 -0.17239961994E+00  0.90007718935E+02  0.89999980025E+02 0.  0.
        -12    1    1    2    0    0 -0.45840848077E+00 -0.10738730970E+01  0.17239961994E+00  0.11802810651E+01  0.00000000000E+00 0.  1.
         11    1    3    3    0    0  0.52791342968E+01 -0.81300368306E+01  0.11329090610E-01  0.96936518609E+01  0.51100000000E-03 0. -1.
        -11    1    3    3    0    0  0.15718804956E+02  0.31579341993E+02 -0.23186734850E+02  0.42213272122E+02  0.51100000000E-03 0.  1.
         12    1    3    3    0    0 -0.20539530772E+02 -0.22375432066E+02  0.23003006140E+02  0.38100794952E+02  0.00000000000E+00 0. -1.
</event>
<event>
 7    1  0.2429906E-015  0.9000776E+02  0.7816164E-02  0.1186339E+00
        -11   -1    0    0    0    0  0.00000000000E+00  0.00000000000E+00  0.45593999997E+02  0.45594000000E+02  0.51100000000E-03 0.  1.
         11   -1    0    0    0    0 -0.00000000000E+00 -0.00000000000E+00 -0.45593999997E+02  0.45594000000E+02  0.51100000000E-03 0. -1.
    9900012    2    1    2    0    0 -0.99927315127E+00  0.54490243208E+00  0.31224584804E+00  0.90007761481E+02  0.90000023133E+02 0.  0.
        -12    1    1    2    0    0  0.99927315127E+00 -0.54490243208E+00 -0.31224584804E+00  0.11802385187E+01  0.00000000000E+00 0.  1.
         11    1    3    3    0    0 -0.11711086088E+02  0.75693501704E+01 -0.61066802337E+01  0.15222882220E+02  0.51100000000E-03 0. -1.
        -11    1    3    3    0    0 -0.13346685022E+02  0.14617345989E+02  0.29152636320E+02  0.35237437612E+02  0.51100000000E-03 0.  1.
         12    1    3    3    0    0  0.24058497959E+02 -0.21641793727E+02 -0.22733710238E+02  0.39547441649E+02  0.00000000000E+00 0. -1.
</event>
<event>
 7    1  0.2429906E-015  0.9000767E+02  0.7816164E-02  0.1186339E+00
        -11   -1    0    0    0    0  0.00000000000E+00  0.00000000000E+00  0.45593999997E+02  0.45594000000E+02  0.51100000000E-03 0.  1.
         11   -1    0    0    0    0 -0.00000000000E+00 -0.00000000000E+00 -0.45593999997E+02  0.45594000000E+02  0.51100000000E-03 0. -1.
    9900012    2    1    2    0    0 -0.55186316132E-02 -0.54175067440E+00 -0.10486392514E+01  0.90007674397E+02  0.89999934899E+02 0.  0.
        -12    1    1    2    0    0  0.55186316132E-02  0.54175067440E+00  0.10486392514E+01  0.11803256025E+01  0.00000000000E+00 0.  1.
         11    1    3    3    0    0 -0.29973346654E+02 -0.12374708767E+02 -0.24228393417E+02  0.40479006590E+02  0.51100000000E-03 0. -1.
        -11    1    3    3    0    0  0.25081872307E+01  0.60175895288E+01 -0.61284367702E+01  0.89476323365E+01  0.51100000000E-03 0.  1.
        -12    1    3    3    0    0  0.27459640792E+02  0.58153685636E+01  0.29308190936E+02  0.40581035471E+02  0.00000000000E+00 0.  1.
</event>
<event>
 7    1  0.2429906E-015  0.9000774E+02  0.7816164E-02  0.1186339E+00
        -11   -1    0    0    0    0  0.00000000000E+00  0.00000000000E+00  0.45593999997E+02  0.45594000000E+02  0.51100000000E-03 0. -1.
         11   -1    0    0    0    0 -0.00000000000E+00 -0.00000000000E+00 -0.45593999997E+02  0.45594000000E+02  0.51100000000E-03 0.  1.
    9900012    2    1    2    0    0 -0.70554379500E+00  0.70986513885E+00  0.62555248789E+00  0.90007738810E+02  0.90000000162E+02 0.  0.
        -12    1    1    2    0    0  0.70554379500E+00 -0.70986513885E+00 -0.62555248789E+00  0.11802611902E+01  0.00000000000E+00 0.  1.
         11    1    3    3    0    0 -0.24157399523E+02  0.13878331486E+02  0.24085434037E+02  0.36827926491E+02  0.51100000000E-03 0. -1.
        -11    1    3    3    0    0 -0.33700179780E+01  0.40010361497E+01  0.72487880235E+01  0.89392527380E+01  0.51100000000E-03 0.  1.
        -12    1    3    3    0    0  0.26821873706E+02 -0.17169502497E+02 -0.30708669573E+02  0.44240559581E+02  0.00000000000E+00 0.  1.
</event>
<event>
 7    1  0.2429906E-015  0.9000770E+02  0.7816164E-02  0.1186339E+00
        -11   -1    0    0    0    0  0.00000000000E+00  0.00000000000E+00  0.45593999997E+02  0.45594000000E+02  0.51100000000E-03 0.  1.
         11   -1    0    0    0    0 -0.00000000000E+00 -0.00000000000E+00 -0.45593999997E+02  0.45594000000E+02  0.51100000000E-03 0. -1.
    9900012    2    1    2    0    0  0.83771370065E+00 -0.70006571626E+00 -0.44860252586E+00  0.90007703225E+02  0.89999964107E+02 0.  0.
        -12    1    1    2    0    0 -0.83771370065E+00  0.70006571626E+00  0.44860252586E+00  0.11802967752E+01  0.00000000000E+00 0.  1.
         11    1    3    3    0    0 -0.21774249018E+02 -0.27528801564E+02 -0.67273771308E+01  0.35738081079E+02  0.51100000000E-03 0. -1.
        -11    1    3    3    0    0 -0.84304341579E+01 -0.30082588952E+01  0.67491399559E+01  0.11210385010E+02  0.51100000000E-03 0.  1.
        -12    1    3    3    0    0  0.31042396876E+02  0.29836994743E+02 -0.47036535098E+00  0.43059237136E+02  0.00000000000E+00 0.  1.
</event>
<event>
 7    1  0.2429906E-015  0.9000772E+02  0.7816164E-02  0.1186339E+00
        -11   -1    0    0    0    0  0.00000000000E+00  0.00000000000E+00  0.45593999997E+02  0.45594000000E+02  0.51100000000E-03 0.  1.
         11   -1    0    0    0    0 -0.00000000000E+00 -0.00000000000E+00 -0.45593999997E+02  0.45594000000E+02  0.51100000000E-03 0. -1.
    9900012    2    1    2    0    0  0.90422911223E-01  0.11399016885E+01 -0.29240293325E+00  0.90007723915E+02  0.89999985070E+02 0.  0.
        -12    1    1    2    0    0 -0.90422911223E-01 -0.11399016885E+01  0.29240293325E+00  0.11802760854E+01  0.00000000000E+00 0.  1.
         11    1    3    3    0    0  0.14479132880E+02  0.29877752046E+02 -0.16302109432E+02  0.36987621287E+02  0.51100000000E-03 0. -1.
        -11    1    3    3    0    0  0.69222211138E+01  0.20405197257E+01 -0.61804538324E+01  0.95015196539E+01  0.51100000000E-03 0.  1.
        -12    1    3    3    0    0 -0.21310931082E+02 -0.30778370083E+02  0.22190160331E+02  0.43518582974E+02  0.00000000000E+00 0.  1.
</event>
<event>
 7    1  0.2429906E-015  0.9000780E+02  0.7816164E-02  0.1186339E+00
        -11   -1    0    0    0    0  0.00000000000E+00  0.00000000000E+00  0.45593999997E+02  0.45594000000E+02  0.51100000000E-03 0.  1.
         11   -1    0    0    0    0 -0.00000000000E+00 -0.00000000000E+00 -0.45593999997E+02  0.45594000000E+02  0.51100000000E-03 0. -1.
    9900012    2    1    2    0    0 -0.12237783692E+00  0.74045060124E+00 -0.91083668156E+00  0.90007802183E+02  0.90000064371E+02 0.  0.
        -12    1    1    2    0    0  0.12237783692E+00 -0.74045060124E+00  0.91083668156E+00  0.11801978175E+01  0.00000000000E+00 0.  1.
         11    1    3    3    0    0  0.74016010514E+01 -0.45628355554E+01 -0.22021221698E+01  0.89695322476E+01  0.51100000000E-03 0. -1.
        -11    1    3    3    0    0  0.30051162789E+02  0.19072038813E+02  0.15157807580E+02  0.38685581039E+02  0.51100000000E-03 0.  1.
         12    1    3    3    0    0 -0.37575141678E+02 -0.13768752656E+02 -0.13866522091E+02  0.42352688896E+02  0.00000000000E+00 0. -1.
</event>
<event>
 7    1  0.2429906E-015  0.9000774E+02  0.7816164E-02  0.1186339E+00
        -11   -1    0    0    0    0  0.00000000000E+00  0.00000000000E+00  0.45593999997E+02  0.45594000000E+02  0.51100000000E-03 0.  1.
         11   -1    0    0    0    0 -0.00000000000E+00 -0.00000000000E+00 -0.45593999997E+02  0.45594000000E+02  0.51100000000E-03 0. -1.
    9900012    2    1    2    0    0 -0.55481046757E-01 -0.10128710716E+00 -0.11745918659E+01  0.90007744402E+02  0.90000005828E+02 0.  0.
        -12    1    1    2    0    0  0.55481046757E-01  0.10128710716E+00  0.11745918659E+01  0.11802555978E+01  0.00000000000E+00 0.  1.
         11    1    3    3    0    0 -0.18691491963E+02 -0.32083384125E+02  0.28206963047E+01  0.37238041525E+02  0.51100000000E-03 0. -1.
        -11    1    3    3    0    0  0.11240216099E+01 -0.80252114989E+01  0.27967200257E+01  0.85725776371E+01  0.51100000000E-03 0.  1.
        -12    1    3    3    0    0  0.17511989306E+02  0.40007308517E+02 -0.67920081963E+01  0.44197125240E+02  0.00000000000E+00 0.  1.
</event>
<event>
 7    1  0.2429906E-015  0.9000776E+02  0.7816164E-02  0.1186339E+00
        -11   -1    0    0    0    0  0.00000000000E+00  0.00000000000E+00  0.45593999997E+02  0.45594000000E+02  0.51100000000E-03 0.  1.
         11   -1    0    0    0    0 -0.00000000000E+00 -0.00000000000E+00 -0.45593999997E+02  0.45594000000E+02  0.51100000000E-03 0. -1.
    9900012    2    1    2    0    0  0.47948313196E+00  0.10435835952E+01 -0.27201177211E+00  0.90007762228E+02  0.90000023890E+02 0.  0.
        -12    1    1    2    0    0 -0.47948313196E+00 -0.10435835952E+01  0.27201177211E+00  0.11802377719E+01  0.00000000000E+00 0.  1.
         11    1    3    3    0    0  0.77096685420E+01 -0.30575183613E+01 -0.42561799648E+01  0.93221497366E+01  0.51100000000E-03 0. -1.
        -11    1    3    3    0    0  0.31010436351E+02  0.77030168697E+01 -0.17750994358E+02  0.36552447696E+02  0.51100000000E-03 0.  1.
         12    1    3    3    0    0 -0.38240621761E+02 -0.36019149132E+01  0.21735162551E+02  0.44133164795E+02  0.00000000000E+00 0. -1.
</event>
<event>
 7    1  0.2429906E-015  0.9000793E+02  0.7816164E-02  0.1186339E+00
        -11   -1    0    0    0    0  0.00000000000E+00  0.00000000000E+00  0.45593999997E+02  0.45594000000E+02  0.51100000000E-03 0. -1.
         11   -1    0    0    0    0 -0.00000000000E+00 -0.00000000000E+00 -0.45593999997E+02  0.45594000000E+02  0.51100000000E-03 0.  1.
    9900012    2    1    2    0    0  0.90450002545E+00 -0.50523606988E+00  0.56495557669E+00  0.90007932804E+02  0.90000196717E+02 0.  0.
        -12    1    1    2    0    0 -0.90450002545E+00  0.50523606988E+00 -0.56495557669E+00  0.11800671955E+01  0.00000000000E+00 0.  1.
         11    1    3    3    0    0 -0.27553817633E+02 -0.31806808356E+02 -0.46784519528E+01  0.42341160079E+02  0.51100000000E-03 0. -1.
        -11    1    3    3    0    0 -0.20583062061E+01  0.83907824190E+01 -0.18953098894E+01  0.88450016325E+01  0.51100000000E-03 0.  1.
        -12    1    3    3    0    0  0.30516623864E+02  0.22910789867E+02  0.71387174190E+01  0.38821771093E+02  0.00000000000E+00 0.  1.
</event>
<event>
 7    1  0.2429906E-015  0.9000771E+02  0.7816164E-02  0.1186339E+00
        -11   -1    0    0    0    0  0.00000000000E+00  0.00000000000E+00  0.45593999997E+02  0.45594000000E+02  0.51100000000E-03 0.  1.
         11   -1    0    0    0    0 -0.00000000000E+00 -0.00000000000E+00 -0.45593999997E+02  0.45594000000E+02  0.51100000000E-03 0. -1.
    9900012    2    1    2    0    0 -0.67722078451E+00 -0.88435728614E+00 -0.39035872998E+00  0.90007705232E+02  0.89999966141E+02 0.  0.
        -12    1    1    2    0    0  0.67722078451E+00  0.88435728614E+00  0.39035872998E+00  0.11802947677E+01  0.00000000000E+00 0.  1.
         11    1    3    3    0    0  0.24418166741E+01  0.71053773323E+01  0.72304728706E+01  0.10427300413E+02  0.51100000000E-03 0. -1.
        -11    1    3    3    0    0  0.20576345632E+02 -0.43545207847E+01  0.28992124350E+02  0.35817469556E+02  0.51100000000E-03 0.  1.
         12    1    3    3    0    0 -0.23695383091E+02 -0.36352138337E+01 -0.36612955950E+02  0.43762935263E+02  0.00000000000E+00 0. -1.
</event>
<event>
 7    1  0.2429906E-015  0.9000773E+02  0.7816164E-02  0.1186339E+00
        -11   -1    0    0    0    0  0.00000000000E+00  0.00000000000E+00  0.45593999997E+02  0.45594000000E+02  0.51100000000E-03 0.  1.
         11   -1    0    0    0    0 -0.00000000000E+00 -0.00000000000E+00 -0.45593999997E+02  0.45594000000E+02  0.51100000000E-03 0. -1.
    9900012    2    1    2    0    0  0.25070598322E+00 -0.98789128406E+00  0.59518664314E+00  0.90007733158E+02  0.89999994435E+02 0.  0.
        -12    1    1    2    0    0 -0.25070598322E+00  0.98789128406E+00 -0.59518664314E+00  0.11802668424E+01  0.00000000000E+00 0.  1.
         11    1    3    3    0    0 -0.59989362861E+01 -0.18781976117E+01  0.83876674404E+01  0.10481785544E+02  0.51100000000E-03 0. -1.
        -11    1    3    3    0    0 -0.12926186476E+02  0.25418900974E+02  0.22318910121E+02  0.36212436714E+02  0.51100000000E-03 0.  1.
         12    1    3    3    0    0  0.19175828746E+02 -0.24528594646E+02 -0.30111390918E+02  0.43313510899E+02  0.00000000000E+00 0. -1.
</event>
<event>
 7    1  0.2911888E-015  0.9000741E+02  0.7816164E-02  0.1186340E+00
        -11   -1    0    0    0    0  0.00000000000E+00  0.00000000000E+00  0.45593999997E+02  0.45594000000E+02  0.51100000000E-03 0. -1.
         11   -1    0    0    0    0 -0.00000000000E+00 -0.00000000000E+00 -0.45593999997E+02  0.45594000000E+02  0.51100000000E-03 0.  1.
    9900012    2    1    2    0    0 -0.70541026123E+00  0.71364441278E+00  0.62201090680E+00  0.90007411353E+02  0.89999668383E+02 0.  0.
        -12    1    1    2    0    0  0.70541026123E+00 -0.71364441278E+00 -0.62201090680E+00  0.11805886467E+01  0.00000000000E+00 0.  1.
         11    1    3    3    0    0 -0.22896519769E+02  0.12094636155E+02  0.26387283306E+02  0.36970522877E+02  0.51100000000E-03 0. -1.
        -11    1    3    3    0    0 -0.97383949535E+01 -0.13539328217E+00  0.11254847342E+01  0.98041513533E+01  0.51100000000E-03 0.  1.
        -12    1    3    3    0    0  0.31929504462E+02 -0.11245598460E+02 -0.26890757134E+02  0.43232737123E+02  0.00000000000E+00 0.  1.
</event>
<event>
 7    1  0.2429906E-015  0.9000764E+02  0.7816164E-02  0.1186339E+00
        -11   -1    0    0    0    0  0.00000000000E+00  0.00000000000E+00  0.45593999997E+02  0.45594000000E+02  0.51100000000E-03 0.  1.
         11   -1    0    0    0    0 -0.00000000000E+00 -0.00000000000E+00 -0.45593999997E+02  0.45594000000E+02  0.51100000000E-03 0. -1.
    9900012    2    1    2    0    0 -0.22607285379E+00  0.88971475255E+00  0.74199693905E+00  0.90007635339E+02  0.89999895325E+02 0.  0.
        -12    1    1    2    0    0  0.22607285379E+00 -0.88971475255E+00 -0.74199693905E+00  0.11803646613E+01  0.00000000000E+00 0.  1.
         11    1    3    3    0    0 -0.24132922813E+02  0.14968616102E+02 -0.28667295411E+02  0.40351843303E+02  0.51100000000E-03 0. -1.
        -11    1    3    3    0    0 -0.26840686546E+01 -0.93775752287E+01  0.33139559910E-01  0.97541909046E+01  0.51100000000E-03 0.  1.
        -12    1    3    3    0    0  0.26590918614E+02 -0.47013261205E+01  0.29376152791E+02  0.39901601131E+02  0.00000000000E+00 0.  1.
</event>
<event>
 7    1  0.2429906E-015  0.9000786E+02  0.7816164E-02  0.1186339E+00
        -11   -1    0    0    0    0  0.00000000000E+00  0.00000000000E+00  0.45593999997E+02  0.45594000000E+02  0.51100000000E-03 0. -1.
         11   -1    0    0    0    0 -0.00000000000E+00 -0.00000000000E+00 -0.45593999997E+02  0.45594000000E+02  0.51100000000E-03 0.  1.
    9900012    2    1    2    0    0 -0.75401743326E+00 -0.68499637527E+00  0.59580127504E+00  0.90007855313E+02  0.90000118203E+02 0.  0.
        -12    1    1    2    0    0  0.75401743326E+00  0.68499637527E+00 -0.59580127504E+00  0.11801446874E+01  0.00000000000E+00 0.  1.
         11    1    3    3    0    0 -0.37172109644E+01  0.68111364386E+01  0.56657162296E+01  0.96077873413E+01  0.51100000000E-03 0. -1.
        -11    1    3    3    0    0  0.18826747462E+02  0.12359969078E+02 -0.34697186824E+02  0.41365565745E+02  0.51100000000E-03 0.  1.
         12    1    3    3    0    0 -0.15863553931E+02 -0.19856101892E+02  0.29627271869E+02  0.39034502227E+02  0.00000000000E+00 0. -1.
</event>
<event>
 7    1  0.2429906E-015  0.9000774E+02  0.7816164E-02  0.1186339E+00
        -11   -1    0    0    0    0  0.00000000000E+00  0.00000000000E+00  0.45593999997E+02  0.45594000000E+02  0.51100000000E-03 0. -1.
         11   -1    0    0    0    0 -0.00000000000E+00 -0.00000000000E+00 -0.45593999997E+02  0.45594000000E+02  0.51100000000E-03 0.  1.
    9900012    2    1    2    0    0 -0.75800656515E-01 -0.10637135570E+01  0.50575274523E+00  0.90007738118E+02  0.89999999461E+02 0.  0.
        -12    1    1    2    0    0  0.75800656515E-01  0.10637135570E+01 -0.50575274523E+00  0.11802618820E+01  0.00000000000E+00 0.  1.
         11    1    3    3    0    0 -0.80795318422E+00 -0.85080924302E+01 -0.23854475261E+01  0.88730369834E+01  0.51100000000E-03 0. -1.
        -11    1    3    3    0    0  0.31329255405E+02 -0.10739602921E+02 -0.20119820329E+02  0.38751367530E+02  0.51100000000E-03 0.  1.
         12    1    3    3    0    0 -0.30597102877E+02  0.18183981794E+02  0.23011020600E+02  0.42383333604E+02  0.00000000000E+00 0. -1.
</event>
<event>
 7    1  0.2429906E-015  0.9000817E+02  0.7816164E-02  0.1186338E+00
        -11   -1    0    0    0    0  0.00000000000E+00  0.00000000000E+00  0.45593999997E+02  0.45594000000E+02  0.51100000000E-03 0. -1.
         11   -1    0    0    0    0 -0.00000000000E+00 -0.00000000000E+00 -0.45593999997E+02  0.45594000000E+02  0.51100000000E-03 0.  1.
    9900012    2    1    2    0    0 -0.65679101482E+00 -0.97736381171E+00  0.73359742706E-01  0.90008171152E+02  0.90000438211E+02 0.  0.
        -12    1    1    2    0    0  0.65679101482E+00  0.97736381171E+00 -0.73359742706E-01  0.11798288475E+01  0.00000000000E+00 0.  1.
         11    1    3    3    0    0  0.43288528005E+01  0.80186933641E+01 -0.70014817850E+01  0.11491699495E+02  0.51100000000E-03 0. -1.
        -11    1    3    3    0    0  0.13014037252E+02 -0.15850219243E+02 -0.30231644263E+02  0.36531451254E+02  0.51100000000E-03 0.  1.
         12    1    3    3    0    0 -0.17999681068E+02  0.68541620668E+01  0.37306485791E+02  0.41985020403E+02  0.00000000000E+00 0. -1.
</event>
<event>
 7    1  0.3003572E-015  0.9000774E+02  0.7816164E-02  0.1186339E+00
        -11   -1    0    0    0    0  0.00000000000E+00  0.00000000000E+00  0.45593999997E+02  0.45594000000E+02  0.51100000000E-03 0. -1.
         11   -1    0    0    0    0 -0.00000000000E+00 -0.00000000000E+00 -0.45593999997E+02  0.45594000000E+02  0.51100000000E-03 0.  1.
    9900012    2    1    2    0    0 -0.40062306452E+00  0.87638402072E+00  0.68152260554E+00  0.90007736956E+02  0.89999998284E+02 0.  0.
        -12    1    1    2    0    0  0.40062306452E+00 -0.87638402072E+00 -0.68152260554E+00  0.11802630442E+01  0.00000000000E+00 0.  1.
         11    1    3    3    0    0  0.12321954840E+01  0.36472717192E+02  0.15363827842E+02  0.39595765068E+02  0.51100000000E-03 0. -1.
        -11    1    3    3    0    0 -0.29527255969E+01 -0.23997260696E+01  0.88940621744E+01  0.96737591392E+01  0.51100000000E-03 0.  1.
        -12    1    3    3    0    0  0.13199070483E+01 -0.33196607102E+02 -0.23576367411E+02  0.40738212749E+02  0.00000000000E+00 0.  1.
</event>
<event>
 7    1  0.2429906E-015  0.9000804E+02  0.7816164E-02  0.1186338E+00
        -11   -1    0    0    0    0  0.00000000000E+00  0.00000000000E+00  0.45593999997E+02  0.45594000000E+02  0.51100000000E-03 0.  1.
         11   -1    0    0    0    0 -0.00000000000E+00 -0.00000000000E+00 -0.45593999997E+02  0.45594000000E+02  0.51100000000E-03 0. -1.
    9900012    2    1    2    0    0 -0.63568536117E+00 -0.84157083304E+00 -0.52912537745E+00  0.90008037708E+02  0.90000303005E+02 0.  0.
        -12    1    1    2    0    0  0.63568536117E+00  0.84157083304E+00  0.52912537745E+00  0.11799622920E+01  0.00000000000E+00 0.  1.
         11    1    3    3    0    0  0.25472890678E+02 -0.25905186964E+02 -0.10462569704E+02  0.37807568504E+02  0.51100000000E-03 0. -1.
        -11    1    3    3    0    0  0.90522974363E+01  0.28638169176E+01  0.21353679617E+00  0.94969013071E+01  0.51100000000E-03 0.  1.
        -12    1    3    3    0    0 -0.35160873476E+02  0.22199799213E+02  0.97199075300E+01  0.42703567896E+02  0.00000000000E+00 0.  1.
</event>
<event>
 7    1  0.2429906E-015  0.9000768E+02  0.7816164E-02  0.1186339E+00
        -11   -1    0    0    0    0  0.00000000000E+00  0.00000000000E+00  0.45593999997E+02  0.45594000000E+02  0.51100000000E-03 0. -1.
         11   -1    0    0    0    0 -0.00000000000E+00 -0.00000000000E+00 -0.45593999997E+02  0.45594000000E+02  0.51100000000E-03 0.  1.
    9900012    2    1    2    0    0 -0.49951935892E+00  0.42935074280E+00  0.97943718441E+00  0.90007678498E+02  0.89999939054E+02 0.  0.
        -12    1    1    2    0    0  0.49951935892E+00 -0.42935074280E+00 -0.97943718441E+00  0.11803215022E+01  0.00000000000E+00 0.  1.
         11    1    3    3    0    0  0.32024399104E+02 -0.14316060061E+01  0.17875111442E+02  0.36703286543E+02  0.51100000000E-03 0. -1.
        -11    1    3    3    0    0  0.61053706970E+01 -0.38459753170E+01  0.47682202925E+01  0.86488729038E+01  0.51100000000E-03 0.  1.
        -12    1    3    3    0    0 -0.38629289160E+02  0.57069320659E+01 -0.21663894550E+02  0.44655519051E+02  0.00000000000E+00 0.  1.
</event>
<event>
 7    1  0.2429906E-015  0.9000780E+02  0.7816164E-02  0.1186339E+00
        -11   -1    0    0    0    0  0.00000000000E+00  0.00000000000E+00  0.45593999997E+02  0.45594000000E+02  0.51100000000E-03 0.  1.
         11   -1    0    0    0    0 -0.00000000000E+00 -0.00000000000E+00 -0.45593999997E+02  0.45594000000E+02  0.51100000000E-03 0. -1.
    9900012    2    1    2    0    0 -0.17579423376E+00 -0.89873993950E+00 -0.74446566475E+00  0.90007802467E+02  0.90000064659E+02 0.  0.
        -12    1    1    2    0    0  0.17579423376E+00  0.89873993950E+00  0.74446566475E+00  0.11801975332E+01  0.00000000000E+00 0.  1.
         11    1    3    3    0    0 -0.36757092574E+01 -0.68894881292E+01  0.38710975235E+01  0.87155769473E+01  0.51100000000E-03 0. -1.
        -11    1    3    3    0    0  0.15580547622E+01 -0.21932306628E+01  0.37878394426E+02  0.37973814135E+02  0.51100000000E-03 0.  1.
         12    1    3    3    0    0  0.19418602615E+01  0.81839788524E+01 -0.42493957615E+02  0.43318411384E+02  0.00000000000E+00 0. -1.
</event>
<event>
 7    1  0.2429906E-015  0.9000771E+02  0.7816164E-02  0.1186339E+00
        -11   -1    0    0    0    0  0.00000000000E+00  0.00000000000E+00  0.45593999997E+02  0.45594000000E+02  0.51100000000E-03 0. -1.
         11   -1    0    0    0    0 -0.00000000000E+00 -0.00000000000E+00 -0.45593999997E+02  0.45594000000E+02  0.51100000000E-03 0.  1.
    9900012    2    1    2    0    0  0.73592823408E+00 -0.29752811714E-01  0.92228628594E+00  0.90007708685E+02  0.89999969639E+02 0.  0.
        -12    1    1    2    0    0 -0.73592823408E+00  0.29752811714E-01 -0.92228628594E+00  0.11802913152E+01  0.00000000000E+00 0.  1.
         11    1    3    3    0    0 -0.36754628915E+02 -0.97250420367E+01  0.39225113522E+01  0.38221267442E+02  0.51100000000E-03 0. -1.
        -11    1    3    3    0    0  0.79593240684E+00 -0.99083330998E+01 -0.21749065359E+01  0.10175401315E+02  0.51100000000E-03 0.  1.
        -12    1    3    3    0    0  0.36694624742E+02  0.19603622325E+02 -0.82531853032E+00  0.41611039928E+02  0.00000000000E+00 0.  1.
</event>
<event>
 7    1  0.2429906E-015  0.9000769E+02  0.7816164E-02  0.1186339E+00
        -11   -1    0    0    0    0  0.00000000000E+00  0.00000000000E+00  0.45593999997E+02  0.45594000000E+02  0.51100000000E-03 0. -1.
         11   -1    0    0    0    0 -0.00000000000E+00 -0.00000000000E+00 -0.45593999997E+02  0.45594000000E+02  0.51100000000E-03 0.  1.
    9900012    2    1    2    0    0 -0.68864914368E+00 -0.97533716457E-01  0.95361552813E+00  0.90007689429E+02  0.89999950129E+02 0.  0.
        -12    1    1    2    0    0  0.68864914368E+00  0.97533716457E-01 -0.95361552813E+00  0.11803105712E+01  0.00000000000E+00 0.  1.
         11    1    3    3    0    0 -0.14805989048E+01 -0.33712847043E+02 -0.24460315750E+02  0.41677995102E+02  0.51100000000E-03 0. -1.
        -11    1    3    3    0    0  0.81861549124E+01  0.29335245411E+01  0.17180419602E+01  0.88639927190E+01  0.51100000000E-03 0.  1.
        -12    1    3    3    0    0 -0.73942051513E+01  0.30681788785E+02  0.23695889318E+02  0.39465701608E+02  0.00000000000E+00 0.  1.
</event>
<event>
 7    1  0.2429906E-015  0.9000773E+02  0.7816164E-02  0.1186339E+00
        -11   -1    0    0    0    0  0.00000000000E+00  0.00000000000E+00  0.45593999997E+02  0.45594000000E+02  0.51100000000E-03 0.  1.
         11   -1    0    0    0    0 -0.00000000000E+00 -0.00000000000E+00 -0.45593999997E+02  0.45594000000E+02  0.51100000000E-03 0. -1.
    9900012    2    1    2    0    0  0.11568431779E+01 -0.12753885522E+00 -0.19615597895E+00  0.90007733307E+02  0.89999994587E+02 0.  0.
        -12    1    1    2    0    0 -0.11568431779E+01  0.12753885522E+00  0.19615597895E+00  0.11802666927E+01  0.00000000000E+00 0.  1.
         11    1    3    3    0    0  0.50776809749E+01  0.37285114898E-01  0.84665300741E+01  0.98725055593E+01  0.51100000000E-03 0. -1.
        -11    1    3    3    0    0  0.67718298792E+01  0.15219089605E+02  0.31603026074E+02  0.35724356196E+02  0.51100000000E-03 0.  1.
         12    1    3    3    0    0 -0.10692667676E+02 -0.15383913575E+02 -0.40265712127E+02  0.44410871552E+02  0.00000000000E+00 0. -1.
</event>
<event>
 7    1  0.2429906E-015  0.9000784E+02  0.7816164E-02  0.1186339E+00
        -11   -1    0    0    0    0  0.00000000000E+00  0.00000000000E+00  0.45593999997E+02  0.45594000000E+02  0.51100000000E-03 0.  1.
         11   -1    0    0    0    0 -0.00000000000E+00 -0.00000000000E+00 -0.45593999997E+02  0.45594000000E+02  0.51100000000E-03 0. -1.
    9900012    2    1    2    0    0 -0.11218415549E+01 -0.34494756203E+00 -0.12351166993E+00  0.90007842202E+02  0.90000104919E+02 0.  0.
        -12    1    1    2    0    0  0.11218415549E+01  0.34494756203E+00  0.12351166993E+00  0.11801577977E+01  0.00000000000E+00 0.  1.
         11    1    3    3    0    0 -0.37513160074E+01  0.33600987277E+02 -0.21542097905E+02  0.40089408829E+02  0.51100000000E-03 0. -1.
        -11    1    3    3    0    0 -0.78294501743E+00  0.47463130304E+01  0.69845285499E+01  0.84808094902E+01  0.51100000000E-03 0.  1.
        -12    1    3    3    0    0  0.34124194699E+01 -0.38692247870E+02  0.14434057685E+02  0.41437623884E+02  0.00000000000E+00 0.  1.
</event>
<event>
 7    1  0.2429906E-015  0.9000763E+02  0.7816164E-02  0.1186339E+00
        -11   -1    0    0    0    0  0.00000000000E+00  0.00000000000E+00  0.45593999997E+02  0.45594000000E+02  0.51100000000E-03 0. -1.
         11   -1    0    0    0    0 -0.00000000000E+00 -0.00000000000E+00 -0.45593999997E+02  0.45594000000E+02  0.51100000000E-03 0.  1.
    9900012    2    1    2    0    0 -0.13445361432E+00  0.61408421551E+00  0.99905209482E+00  0.90007626209E+02  0.89999886075E+02 0.  0.
        -12    1    1    2    0    0  0.13445361432E+00 -0.61408421551E+00 -0.99905209482E+00  0.11803737909E+01  0.00000000000E+00 0.  1.
         11    1    3    3    0    0  0.59417589071E+01  0.81228380793E+01  0.81589086910E+01  0.12955801352E+02  0.51100000000E-03 0. -1.
        -11    1    3    3    0    0  0.29365064626E+02 -0.10429166383E+01 -0.23372556808E+02  0.37545587059E+02  0.51100000000E-03 0.  1.
         12    1    3    3    0    0 -0.35441277147E+02 -0.64658372255E+01  0.16212700212E+02  0.39506237799E+02  0.00000000000E+00 0. -1.
</event>
<event>
 7    1  0.2429906E-015  0.9000776E+02  0.7816164E-02  0.1186339E+00
        -11   -1    0    0    0    0  0.00000000000E+00  0.00000000000E+00  0.45593999997E+02  0.45594000000E+02  0.51100000000E-03 0.  1.
         11   -1    0    0    0    0 -0.00000000000E+00 -0.00000000000E+00 -0.45593999997E+02  0.45594000000E+02  0.51100000000E-03 0. -1.
    9900012    2    1    2    0    0 -0.56707616336E+00  0.10880142814E+00 -0.10293414732E+01  0.90007764009E+02  0.90000025694E+02 0.  0.
        -12    1    1    2    0    0  0.56707616336E+00 -0.10880142814E+00  0.10293414732E+01  0.11802359909E+01  0.00000000000E+00 0.  1.
         11    1    3    3    0    0 -0.26800075015E+01 -0.83555690939E+01  0.84985310222E+00  0.88159075340E+01  0.51100000000E-03 0. -1.
        -11    1    3    3    0    0 -0.32223303912E+02  0.24070027883E+02  0.10370579322E+02  0.41536206772E+02  0.51100000000E-03 0.  1.
         12    1    3    3    0    0  0.34336235250E+02 -0.15605657361E+02 -0.12249773898E+02  0.39655649703E+02  0.00000000000E+00 0. -1.
</event>
<event>
 7    1  0.2429906E-015  0.9000774E+02  0.7816164E-02  0.1186339E+00
        -11   -1    0    0    0    0  0.00000000000E+00  0.00000000000E+00  0.45593999997E+02  0.45594000000E+02  0.51100000000E-03 0.  1.
         11   -1    0    0    0    0 -0.00000000000E+00 -0.00000000000E+00 -0.45593999997E+02  0.45594000000E+02  0.51100000000E-03 0. -1.
    9900012    2    1    2    0    0  0.26398617809E-01 -0.16738189765E+00 -0.11680352698E+01  0.90007737327E+02  0.89999998659E+02 0.  0.
        -12    1    1    2    0    0 -0.26398617809E-01  0.16738189765E+00  0.11680352698E+01  0.11802626734E+01  0.00000000000E+00 0.  1.
         11    1    3    3    0    0  0.47938622107E+01 -0.18957378680E+01 -0.16383223563E+01  0.54091623533E+01  0.51100000000E-03 0. -1.
        -11    1    3    3    0    0 -0.91735744035E+01 -0.24764674951E+02  0.33095562324E+02  0.42340994775E+02  0.51100000000E-03 0.  1.
         12    1    3    3    0    0  0.44061108106E+01  0.26493030921E+02 -0.32625275238E+02  0.42257580198E+02  0.00000000000E+00 0. -1.
</event>
<event>
 7    1  0.2429906E-015  0.9000775E+02  0.7816164E-02  0.1186339E+00
        -11   -1    0    0    0    0  0.00000000000E+00  0.00000000000E+00  0.45593999997E+02  0.45594000000E+02  0.51100000000E-03 0.  1.
         11   -1    0    0    0    0 -0.00000000000E+00 -0.00000000000E+00 -0.45593999997E+02  0.45594000000E+02  0.51100000000E-03 0. -1.
    9900012    2    1    2    0    0 -0.55767183993E+00 -0.10288381358E+01 -0.15322761404E+00  0.90007752360E+02  0.90000013891E+02 0.  0.
        -12    1    1    2    0    0  0.55767183993E+00  0.10288381358E+01  0.15322761404E+00  0.11802476403E+01  0.00000000000E+00 0.  1.
         11    1    3    3    0    0  0.41627593019E+01 -0.54393691450E+01  0.54931784738E+01  0.87801088666E+01  0.51100000000E-03 0. -1.
        -11    1    3    3    0    0  0.37996879359E+02  0.18720044745E+01  0.15667874999E+00  0.38043288374E+02  0.51100000000E-03 0.  1.
         12    1    3    3    0    0 -0.42717310501E+02  0.25385265348E+01 -0.58030848379E+01  0.43184355119E+02  0.00000000000E+00 0. -1.
</event>
<event>
 7    1  0.2429906E-015  0.9000775E+02  0.7816164E-02  0.1186339E+00
        -11   -1    0    0    0    0  0.00000000000E+00  0.00000000000E+00  0.45593999997E+02  0.45594000000E+02  0.51100000000E-03 0. -1.
         11   -1    0    0    0    0 -0.00000000000E+00 -0.00000000000E+00 -0.45593999997E+02  0.45594000000E+02  0.51100000000E-03 0.  1.
    9900012    2    1    2    0    0  0.95878739961E+00  0.56086870662E+00 -0.39891692113E+00  0.90007753545E+02  0.90000015092E+02 0.  0.
        -12    1    1    2    0    0 -0.95878739961E+00 -0.56086870662E+00  0.39891692113E+00  0.11802464546E+01  0.00000000000E+00 0.  1.
         11    1    3    3    0    0  0.18182333386E+02  0.21932853383E+02 -0.17058628206E+02  0.33206085307E+02  0.51100000000E-03 0. -1.
        -11    1    3    3    0    0  0.52486022896E+01  0.11711075461E+02 -0.14191677774E+01  0.12911667278E+02  0.51100000000E-03 0.  1.
        -12    1    3    3    0    0 -0.22472148276E+02 -0.33083060137E+02  0.18078879062E+02  0.43890000961E+02  0.00000000000E+00 0.  1.
</event>
<event>
 7    1  0.2429906E-015  0.9000776E+02  0.7816164E-02  0.1186339E+00
        -11   -1    0    0    0    0  0.00000000000E+00  0.00000000000E+00  0.45593999997E+02  0.45594000000E+02  0.51100000000E-03 0.  1.
         11   -1    0    0    0    0 -0.00000000000E+00 -0.00000000000E+00 -0.45593999997E+02  0.45594000000E+02  0.51100000000E-03 0. -1.
    9900012    2    1    2    0    0  0.46677485949E+00  0.10451307739E+01  0.28773019672E+00  0.90007760291E+02  0.90000021927E+02 0.  0.
        -12    1    1    2    0    0 -0.46677485949E+00 -0.10451307739E+01 -0.28773019672E+00  0.11802397087E+01  0.00000000000E+00 0.  1.
         11    1    3    3    0    0 -0.11839215102E+01  0.11295819224E+02  0.24459686867E+01  0.11618087844E+02  0.51100000000E-03 0. -1.
        -11    1    3    3    0    0 -0.15823546722E+02 -0.14246265829E+02  0.32799364136E+02  0.39104207049E+02  0.51100000000E-03 0.  1.
         12    1    3    3    0    0  0.17474243092E+02  0.39955773792E+01 -0.34957602626E+02  0.39285465398E+02  0.00000000000E+00 0. -1.
</event>
<event>
 7    1  0.2429906E-015  0.9000678E+02  0.7816164E-02  0.1186341E+00
        -11   -1    0    0    0    0  0.00000000000E+00  0.00000000000E+00  0.45593999997E+02  0.45594000000E+02  0.51100000000E-03 0. -1.
         11   -1    0    0    0    0 -0.00000000000E+00 -0.00000000000E+00 -0.45593999997E+02  0.45594000000E+02  0.51100000000E-03 0.  1.
    9900012    2    1    2    0    0  0.78133564841E+00  0.78950762233E+00 -0.40182665644E+00  0.90006783533E+02  0.89999032270E+02 0.  0.
        -12    1    1    2    0    0 -0.78133564841E+00 -0.78950762233E+00  0.40182665644E+00  0.11812164675E+01  0.00000000000E+00 0.  1.
         11    1    3    3    0    0 -0.27435196020E+01  0.16059542374E+01 -0.12995653740E+02  0.13378826751E+02  0.51100000000E-03 0. -1.
        -11    1    3    3    0    0 -0.55907442403E+01 -0.19422658879E+02 -0.25935639579E+02  0.32880898707E+02  0.51100000000E-03 0.  1.
         12    1    3    3    0    0  0.91155994908E+01  0.18606212264E+02  0.38529466663E+02  0.43747058075E+02  0.00000000000E+00 0. -1.
</event>
<event>
 7    1  0.2429906E-015  0.9000774E+02  0.7816164E-02  0.1186339E+00
        -11   -1    0    0    0    0  0.00000000000E+00  0.00000000000E+00  0.45593999997E+02  0.45594000000E+02  0.51100000000E-03 0. -1.
         11   -1    0    0    0    0 -0.00000000000E+00 -0.00000000000E+00 -0.45593999997E+02  0.45594000000E+02  0.51100000000E-03 0.  1.
    9900012    2    1    2    0    0 -0.90672853860E+00 -0.75488410296E+00  0.31627243847E-01  0.90007742853E+02  0.90000004258E+02 0.  0.
        -12    1    1    2    0    0  0.90672853860E+00  0.75488410296E+00 -0.31627243847E-01  0.11802571475E+01  0.00000000000E+00 0.  1.
         11    1    3    3    0    0 -0.12558319820E+02 -0.11620737672E+02 -0.39066125074E+01  0.17550343652E+02  0.51100000000E-03 0. -1.
        -11    1    3    3    0    0 -0.93355676906E+01 -0.21495194137E+02  0.19871059224E+02  0.30725481120E+02  0.51100000000E-03 0.  1.
         12    1    3    3    0    0  0.20987158972E+02  0.32361047706E+02 -0.15932819473E+02  0.41731918081E+02  0.00000000000E+00 0. -1.
</event>
<event>
 7    1  0.2429906E-015  0.9000778E+02  0.7816164E-02  0.1186339E+00
        -11   -1    0    0    0    0  0.00000000000E+00  0.00000000000E+00  0.45593999997E+02  0.45594000000E+02  0.51100000000E-03 0. -1.
         11   -1    0    0    0    0 -0.00000000000E+00 -0.00000000000E+00 -0.45593999997E+02  0.45594000000E+02  0.51100000000E-03 0.  1.
    9900012    2    1    2    0    0  0.25420175057E+00  0.71501596618E+00 -0.90390658832E+00  0.90007782443E+02  0.90000044371E+02 0.  0.
        -12    1    1    2    0    0 -0.25420175057E+00 -0.71501596618E+00  0.90390658832E+00  0.11802175572E+01  0.00000000000E+00 0.  1.
         11    1    3    3    0    0  0.22818393956E+02  0.11043524859E+02  0.29466911776E+02  0.38870778663E+02  0.51100000000E-03 0. -1.
        -11    1    3    3    0    0  0.82914200460E+01 -0.15696708784E+01 -0.29520366661E+01  0.89401361166E+01  0.51100000000E-03 0.  1.
        -12    1    3    3    0    0 -0.30855612251E+02 -0.87588380142E+01 -0.27418781698E+02  0.42196867663E+02  0.00000000000E+00 0.  1.
</event>
<event>
 7    1  0.2429906E-015  0.9000778E+02  0.7816164E-02  0.1186339E+00
        -11   -1    0    0    0    0  0.00000000000E+00  0.00000000000E+00  0.45593999997E+02  0.45594000000E+02  0.51100000000E-03 0. -1.
         11   -1    0    0    0    0 -0.00000000000E+00 -0.00000000000E+00 -0.45593999997E+02  0.45594000000E+02  0.51100000000E-03 0.  1.
    9900012    2    1    2    0    0  0.68201409752E+00  0.51285673094E+00  0.81532651954E+00  0.90007778585E+02  0.90000040462E+02 0.  0.
        -12    1    1    2    0    0 -0.68201409752E+00 -0.51285673094E+00 -0.81532651954E+00  0.11802214153E+01  0.00000000000E+00 0.  1.
         11    1    3    3    0    0  0.80754486811E+00  0.36841942498E+02  0.12066496553E+02  0.38776038929E+02  0.51100000000E-03 0. -1.
        -11    1    3    3    0    0 -0.47521313064E+01  0.54876488122E+01 -0.47125335567E+01  0.86547682941E+01  0.51100000000E-03 0.  1.
        -12    1    3    3    0    0  0.46266005358E+01 -0.41816734579E+02 -0.65386364765E+01  0.42576971362E+02  0.00000000000E+00 0.  1.
</event>
<event>
 7    1  0.2429906E-015  0.9000774E+02  0.7816164E-02  0.1186339E+00
        -11   -1    0    0    0    0  0.00000000000E+00  0.00000000000E+00  0.45593999997E+02  0.45594000000E+02  0.51100000000E-03 0.  1.
         11   -1    0    0    0    0 -0.00000000000E+00 -0.00000000000E+00 -0.45593999997E+02  0.45594000000E+02  0.51100000000E-03 0. -1.
    9900012    2    1    2    0    0 -0.56058860756E+00  0.92486827049E+00 -0.47262867820E+00  0.90007737838E+02  0.89999999177E+02 0.  0.
        -12    1    1    2    0    0  0.56058860756E+00 -0.92486827049E+00  0.47262867820E+00  0.11802621625E+01  0.00000000000E+00 0.  1.
         11    1    3    3    0    0  0.73622320423E+01 -0.23938519434E+01  0.19008377694E+01  0.79715853040E+01  0.51100000000E-03 0. -1.
        -11    1    3    3    0    0 -0.35279445455E+02  0.60711077866E+01  0.24666171936E+02  0.43473183224E+02  0.51100000000E-03 0.  1.
         12    1    3    3    0    0  0.27356624805E+02 -0.27523875727E+01 -0.27039638384E+02  0.38562969310E+02  0.00000000000E+00 0. -1.
</event>
<event>
 7    1  0.2429906E-015  0.9000772E+02  0.7816164E-02  0.1186339E+00
        -11   -1    0    0    0    0  0.00000000000E+00  0.00000000000E+00  0.45593999997E+02  0.45594000000E+02  0.51100000000E-03 0. -1.
         11   -1    0    0    0    0 -0.00000000000E+00 -0.00000000000E+00 -0.45593999997E+02  0.45594000000E+02  0.51100000000E-03 0.  1.
    9900012    2    1    2    0    0 -0.47365823894E+00 -0.10281167865E+01  0.33419334423E+00  0.90007719760E+02  0.89999980861E+02 0.  0.
        -12    1    1    2    0    0  0.47365823894E+00  0.10281167865E+01 -0.33419334423E+00  0.11802802402E+01  0.00000000000E+00 0.  1.
         11    1    3    3    0    0 -0.60365473120E+00 -0.84527989777E+01  0.28144594573E+01  0.89294676151E+01  0.51100000000E-03 0. -1.
        -11    1    3    3    0    0  0.33884213792E+02  0.16035397062E+02 -0.19557837804E+02  0.42282182099E+02  0.51100000000E-03 0.  1.
         12    1    3    3    0    0 -0.33754217300E+02 -0.86107148710E+01  0.17077571691E+02  0.38796070045E+02  0.00000000000E+00 0. -1.
</event>
<event>
 7    1  0.2429906E-015  0.9000781E+02  0.7816164E-02  0.1186339E+00
        -11   -1    0    0    0    0  0.00000000000E+00  0.00000000000E+00  0.45593999997E+02  0.45594000000E+02  0.51100000000E-03 0. -1.
         11   -1    0    0    0    0 -0.00000000000E+00 -0.00000000000E+00 -0.45593999997E+02  0.45594000000E+02  0.51100000000E-03 0.  1.
    9900012    2    1    2    0    0  0.10680046306E+01  0.54852595606E-01 -0.49919393557E+00  0.90007814725E+02  0.90000077079E+02 0.  0.
        -12    1    1    2    0    0 -0.10680046306E+01 -0.54852595606E-01  0.49919393557E+00  0.11801852750E+01  0.00000000000E+00 0.  1.
         11    1    3    3    0    0  0.68217857210E+01  0.67783673971E+01  0.36411047788E+02  0.37659625945E+02  0.51100000000E-03 0. -1.
        -11    1    3    3    0    0  0.47689628064E+01  0.79524971806E+01  0.19691034026E+01  0.94795878669E+01  0.51100000000E-03 0.  1.
        -12    1    3    3    0    0 -0.10522743897E+02 -0.14676011982E+02 -0.38879345126E+02  0.42868600913E+02  0.00000000000E+00 0.  1.
</event>
<event>
 7    1  0.2429906E-015  0.9000772E+02  0.7816164E-02  0.1186339E+00
        -11   -1    0    0    0    0  0.00000000000E+00  0.00000000000E+00  0.45593999997E+02  0.45594000000E+02  0.51100000000E-03 0. -1.
         11   -1    0    0    0    0 -0.00000000000E+00 -0.00000000000E+00 -0.45593999997E+02  0.45594000000E+02  0.51100000000E-03 0.  1.
    9900012    2    1    2    0    0  0.16742167259E+00 -0.61302773451E+00  0.99459793898E+00  0.90007721186E+02  0.89999982305E+02 0.  0.
        -12    1    1    2    0    0 -0.16742167259E+00  0.61302773451E+00 -0.99459793898E+00  0.11802788145E+01  0.00000000000E+00 0.  1.
         11    1    3    3    0    0 -0.22879901175E+02  0.12881096470E+02  0.31676147361E+02  0.41143539419E+02  0.51100000000E-03 0. -1.
        -11    1    3    3    0    0  0.68389257756E+01 -0.45355941132E+00  0.43525273872E+01  0.81191820291E+01  0.51100000000E-03 0.  1.
        -12    1    3    3    0    0  0.16208397072E+02 -0.13040564793E+02 -0.35034076809E+02  0.40744999738E+02  0.00000000000E+00 0.  1.
</event>
<event>
 7    1  0.2429906E-015  0.9000763E+02  0.7816164E-02  0.1186339E+00
        -11   -1    0    0    0    0  0.00000000000E+00  0.00000000000E+00  0.45593999997E+02  0.45594000000E+02  0.51100000000E-03 0. -1.
         11   -1    0    0    0    0 -0.00000000000E+00 -0.00000000000E+00 -0.45593999997E+02  0.45594000000E+02  0.51100000000E-03 0.  1.
    9900012    2    1    2    0    0  0.85607838072E-01  0.60639842757E+00  0.10090683857E+01  0.90007632785E+02  0.89999892738E+02 0.  0.
        -12    1    1    2    0    0 -0.85607838072E-01 -0.60639842757E+00 -0.10090683857E+01  0.11803672149E+01  0.00000000000E+00 0.  1.
         11    1    3    3    0    0  0.12783695516E+02  0.31068358135E+02  0.16226604446E+02  0.37309093266E+02  0.51100000000E-03 0. -1.
        -11    1    3    3    0    0  0.14242619994E+01  0.35424536268E+01  0.82117719686E+01  0.90559758760E+01  0.51100000000E-03 0.  1.
        -12    1    3    3    0    0 -0.14122349677E+02 -0.34004413335E+02 -0.23429308028E+02  0.43642563643E+02  0.00000000000E+00 0.  1.
</event>
<event>
 7    1  0.2429906E-015  0.9000767E+02  0.7816164E-02  0.1186339E+00
        -11   -1    0    0    0    0  0.00000000000E+00  0.00000000000E+00  0.45593999997E+02  0.45594000000E+02  0.51100000000E-03 0.  1.
         11   -1    0    0    0    0 -0.00000000000E+00 -0.00000000000E+00 -0.45593999997E+02  0.45594000000E+02  0.51100000000E-03 0. -1.
    9900012    2    1    2    0    0 -0.11533733542E+01  0.74142438216E-01 -0.23962253964E+00  0.90007666930E+02  0.89999927333E+02 0.  0.
        -12    1    1    2    0    0  0.11533733542E+01 -0.74142438216E-01  0.23962253964E+00  0.11803330703E+01  0.00000000000E+00 0.  1.
         11    1    3    3    0    0  0.42207498203E+01  0.47646733088E+01 -0.94836657448E+01  0.11421766808E+02  0.51100000000E-03 0. -1.
        -11    1    3    3    0    0  0.22187046854E+02  0.20093614671E+02 -0.15804806917E+02  0.33849820097E+02  0.51100000000E-03 0.  1.
         12    1    3    3    0    0 -0.27561170029E+02 -0.24784145541E+02  0.25048850123E+02  0.44736080025E+02  0.00000000000E+00 0. -1.
</event>
<event>
 7    1  0.2429906E-015  0.9000779E+02  0.7816164E-02  0.1186339E+00
        -11   -1    0    0    0    0  0.00000000000E+00  0.00000000000E+00  0.45593999997E+02  0.45594000000E+02  0.51100000000E-03 0.  1.
         11   -1    0    0    0    0 -0.00000000000E+00 -0.00000000000E+00 -0.45593999997E+02  0.45594000000E+02  0.51100000000E-03 0. -1.
    9900012    2    1    2    0    0  0.86798828094E+00  0.18534426755E+00 -0.77790215468E+00  0.90007793274E+02  0.90000055345E+02 0.  0.
        -12    1    1    2    0    0 -0.86798828094E+00 -0.18534426755E+00  0.77790215468E+00  0.11802067258E+01  0.00000000000E+00 0.  1.
         11    1    3    3    0    0 -0.11520075151E+02  0.31846072625E+01  0.26346256544E+01  0.12239081154E+02  0.51100000000E-03 0. -1.
        -11    1    3    3    0    0 -0.92264755133E+01  0.33518865444E+02  0.28127560726E+01  0.34879131125E+02  0.51100000000E-03 0.  1.
         12    1    3    3    0    0  0.21614538945E+02 -0.36518128439E+02 -0.62252838817E+01  0.42889580995E+02  0.00000000000E+00 0. -1.
</event>
<event>
 7    1  0.2429906E-015  0.9000778E+02  0.7816164E-02  0.1186339E+00
        -11   -1    0    0    0    0  0.00000000000E+00  0.00000000000E+00  0.45593999997E+02  0.45594000000E+02  0.51100000000E-03 0. -1.
         11   -1    0    0    0    0 -0.00000000000E+00 -0.00000000000E+00 -0.45593999997E+02  0.45594000000E+02  0.51100000000E-03 0.  1.
    9900012    2    1    2    0    0 -0.10866004609E+01 -0.26125083743E+00 -0.37943820153E+00  0.90007777178E+02  0.90000039036E+02 0.  0.
        -12    1    1    2    0    0  0.10866004609E+01  0.26125083743E+00  0.37943820153E+00  0.11802228224E+01  0.00000000000E+00 0.  1.
         11    1    3    3    0    0 -0.46604330545E+01  0.89722841066E+01 -0.33861533115E+01  0.10662436535E+02  0.51100000000E-03 0. -1.
        -11    1    3    3    0    0  0.21396372940E+02  0.15607508056E+02 -0.26063392560E+02  0.37157765201E+02  0.51100000000E-03 0.  1.
         12    1    3    3    0    0 -0.17822540346E+02 -0.24841043000E+02  0.29070107670E+02  0.42187575442E+02  0.00000000000E+00 0. -1.
</event>
<event>
 7    1  0.2429906E-015  0.9000774E+02  0.7816164E-02  0.1186339E+00
        -11   -1    0    0    0    0  0.00000000000E+00  0.00000000000E+00  0.45593999997E+02  0.45594000000E+02  0.51100000000E-03 0. -1.
         11   -1    0    0    0    0 -0.00000000000E+00 -0.00000000000E+00 -0.45593999997E+02  0.45594000000E+02  0.51100000000E-03 0.  1.
    9900012    2    1    2    0    0  0.74910548935E+00 -0.10230088567E+00  0.90630098209E+00  0.90007743259E+02  0.90000004670E+02 0.  0.
        -12    1    1    2    0    0 -0.74910548935E+00  0.10230088567E+00 -0.90630098209E+00  0.11802567414E+01  0.00000000000E+00 0.  1.
         11    1    3    3    0    0  0.63846096523E+00 -0.65374942935E+01 -0.34571155410E+01  0.74228102607E+01  0.51100000000E-03 0. -1.
        -11    1    3    3    0    0  0.70159997246E+01  0.34343817996E+02 -0.23775753341E+02  0.42355737909E+02  0.51100000000E-03 0.  1.
         12    1    3    3    0    0 -0.69053552005E+01 -0.27908624588E+02  0.28139169864E+02  0.40229195089E+02  0.00000000000E+00 0. -1.
</event>
<event>
 7    1  0.2429906E-015  0.9000780E+02  0.7816164E-02  0.1186339E+00
        -11   -1    0    0    0    0  0.00000000000E+00  0.00000000000E+00  0.45593999997E+02  0.45594000000E+02  0.51100000000E-03 0. -1.
         11   -1    0    0    0    0 -0.00000000000E+00 -0.00000000000E+00 -0.45593999997E+02  0.45594000000E+02  0.51100000000E-03 0.  1.
    9900012    2    1    2    0    0  0.11819585809E+00 -0.11462498082E+01  0.25498486519E+00  0.90007798252E+02  0.90000060389E+02 0.  0.
        -12    1    1    2    0    0 -0.11819585809E+00  0.11462498082E+01 -0.25498486519E+00  0.11802017477E+01  0.00000000000E+00 0.  1.
         11    1    3    3    0    0  0.17163767272E+01  0.79696386725E+01 -0.63839300042E+01  0.10354499128E+02  0.51100000000E-03 0. -1.
        -11    1    3    3    0    0 -0.14932823968E+02  0.50153129839E+01 -0.32411271300E+02  0.36036552326E+02  0.51100000000E-03 0.  1.
         12    1    3    3    0    0  0.13334643099E+02 -0.14131201465E+02  0.39050186169E+02  0.43616746798E+02  0.00000000000E+00 0. -1.
</event>
<event>
 7    1  0.2429906E-015  0.9000779E+02  0.7816164E-02  0.1186339E+00
        -11   -1    0    0    0    0  0.00000000000E+00  0.00000000000E+00  0.45593999997E+02  0.45594000000E+02  0.51100000000E-03 0. -1.
         11   -1    0    0    0    0 -0.00000000000E+00 -0.00000000000E+00 -0.45593999997E+02  0.45594000000E+02  0.51100000000E-03 0.  1.
    9900012    2    1    2    0    0 -0.55637680864E+00 -0.10394360792E+01  0.53886802288E-01  0.90007793957E+02  0.90000056037E+02 0.  0.
        -12    1    1    2    0    0  0.55637680864E+00  0.10394360792E+01 -0.53886802288E-01  0.11802060428E+01  0.00000000000E+00 0.  1.
         11    1    3    3    0    0 -0.25388887152E+01 -0.26441185104E+01 -0.77539072460E+01  0.85767357687E+01  0.51100000000E-03 0. -1.
        -11    1    3    3    0    0 -0.10164164672E+02 -0.25496204384E+02 -0.25036345237E+02  0.37150844735E+02  0.51100000000E-03 0.  1.
         12    1    3    3    0    0  0.12146676579E+02  0.27100886815E+02  0.32844139285E+02  0.44280213453E+02  0.00000000000E+00 0. -1.
</event>
<event>
 7    1  0.2429906E-015  0.9000792E+02  0.7816164E-02  0.1186339E+00
        -11   -1    0    0    0    0  0.00000000000E+00  0.00000000000E+00  0.45593999997E+02  0.45594000000E+02  0.51100000000E-03 0. -1.
         11   -1    0    0    0    0 -0.00000000000E+00 -0.00000000000E+00 -0.45593999997E+02  0.45594000000E+02  0.51100000000E-03 0.  1.
    9900012    2    1    2    0    0 -0.28255522020E-01 -0.40740862678E+00  0.11071654019E+01  0.90007917210E+02  0.90000180917E+02 0.  0.
        -12    1    1    2    0    0  0.28255522020E-01  0.40740862678E+00 -0.11071654019E+01  0.11800827898E+01  0.00000000000E+00 0.  1.
         11    1    3    3    0    0  0.52421384415E+01 -0.35518136552E+02 -0.13178239631E+02  0.38245052485E+02  0.51100000000E-03 0. -1.
        -11    1    3    3    0    0 -0.34828749091E+01 -0.68384533542E+01  0.33589365147E+01  0.83771902617E+01  0.51100000000E-03 0.  1.
        -12    1    3    3    0    0 -0.17875190545E+01  0.41949181279E+02  0.10926468518E+02  0.43385674463E+02  0.00000000000E+00 0.  1.
</event>
<event>
 7    1  0.2429906E-015  0.9000781E+02  0.7816164E-02  0.1186339E+00
        -11   -1    0    0    0    0  0.00000000000E+00  0.00000000000E+00  0.45593999997E+02  0.45594000000E+02  0.51100000000E-03 0.  1.
         11   -1    0    0    0    0 -0.00000000000E+00 -0.00000000000E+00 -0.45593999997E+02  0.45594000000E+02  0.51100000000E-03 0. -1.
    9900012    2    1    2    0    0  0.75746505330E+00  0.36748242592E+00 -0.82706791128E+00  0.90007814434E+02  0.90000076784E+02 0.  0.
        -12    1    1    2    0    0 -0.75746505330E+00 -0.36748242592E+00  0.82706791128E+00  0.11801855660E+01  0.00000000000E+00 0.  1.
         11    1    3    3    0    0  0.89963802140E+01 -0.11879279196E+01 -0.38776950510E+02  0.39824589399E+02  0.51100000000E-03 0. -1.
        -11    1    3    3    0    0  0.82391788338E+01 -0.30551483777E+01  0.26019527320E+00  0.87912286574E+01  0.51100000000E-03 0.  1.
        -12    1    3    3    0    0 -0.16478093995E+02  0.46105587233E+01  0.37689687325E+02  0.41391996378E+02  0.00000000000E+00 0.  1.
</event>
<event>
 7    1  0.2429906E-015  0.9000771E+02  0.7816164E-02  0.1186339E+00
        -11   -1    0    0    0    0  0.00000000000E+00  0.00000000000E+00  0.45593999997E+02  0.45594000000E+02  0.51100000000E-03 0.  1.
         11   -1    0    0    0    0 -0.00000000000E+00 -0.00000000000E+00 -0.45593999997E+02  0.45594000000E+02  0.51100000000E-03 0. -1.
    9900012    2    1    2    0    0  0.44633067745E+00  0.98482327048E+00  0.47327891214E+00  0.90007711528E+02  0.89999972520E+02 0.  0.
        -12    1    1    2    0    0 -0.44633067745E+00 -0.98482327048E+00 -0.47327891214E+00  0.11802884717E+01  0.00000000000E+00 0.  1.
         11    1    3    3    0    0  0.62173210029E+01  0.23322530122E+01  0.84235805857E+01  0.10726191995E+02  0.51100000000E-03 0. -1.
        -11    1    3    3    0    0 -0.24119818155E+02  0.22368175211E+02  0.19826161358E+02  0.38408040363E+02  0.51100000000E-03 0.  1.
         12    1    3    3    0    0  0.18348827830E+02 -0.23715604952E+02 -0.27776463031E+02  0.40873479170E+02  0.00000000000E+00 0. -1.
</event>
<event>
 7    1  0.2429906E-015  0.9000773E+02  0.7816164E-02  0.1186339E+00
        -11   -1    0    0    0    0  0.00000000000E+00  0.00000000000E+00  0.45593999997E+02  0.45594000000E+02  0.51100000000E-03 0.  1.
         11   -1    0    0    0    0 -0.00000000000E+00 -0.00000000000E+00 -0.45593999997E+02  0.45594000000E+02  0.51100000000E-03 0. -1.
    9900012    2    1    2    0    0  0.50855043157E+00  0.95248432469E+00  0.47663386142E+00  0.90007733179E+02  0.89999994457E+02 0.  0.
        -12    1    1    2    0    0 -0.50855043157E+00 -0.95248432469E+00 -0.47663386142E+00  0.11802668207E+01  0.00000000000E+00 0.  1.
         11    1    3    3    0    0 -0.12994381220E+02 -0.90631253166E+01 -0.33893581414E+02  0.37413487476E+02  0.51100000000E-03 0. -1.
        -11    1    3    3    0    0 -0.96725393360E+01 -0.25856633986E+01  0.10081236474E+01  0.10062802093E+02  0.51100000000E-03 0.  1.
        -12    1    3    3    0    0  0.23175470988E+02  0.12601273040E+02  0.33362091628E+02  0.42531443610E+02  0.00000000000E+00 0.  1.
</event>
<event>
 7    1  0.2429906E-015  0.9000770E+02  0.7816164E-02  0.1186339E+00
        -11   -1    0    0    0    0  0.00000000000E+00  0.00000000000E+00  0.45593999997E+02  0.45594000000E+02  0.51100000000E-03 0.  1.
         11   -1    0    0    0    0 -0.00000000000E+00 -0.00000000000E+00 -0.45593999997E+02  0.45594000000E+02  0.51100000000E-03 0. -1.
    9900012    2    1    2    0    0  0.84773594622E-01 -0.97360704165E+00 -0.66182836427E+00  0.90007697489E+02  0.89999958296E+02 0.  0.
        -12    1    1    2    0    0 -0.84773594622E-01  0.97360704165E+00  0.66182836427E+00  0.11803025111E+01  0.00000000000E+00 0.  1.
         11    1    3    3    0    0 -0.11096813383E+02 -0.18628807118E+01 -0.36782659662E-01  0.11252152906E+02  0.51100000000E-03 0. -1.
        -11    1    3    3    0    0  0.41277634999E+01  0.39358925773E+02 -0.19416643877E+01  0.39622386732E+02  0.51100000000E-03 0.  1.
         12    1    3    3    0    0  0.70538234778E+01 -0.38469652103E+02  0.13166186831E+01  0.39133157850E+02  0.00000000000E+00 0. -1.
</event>
<event>
 7    1  0.2429906E-015  0.9000775E+02  0.7816164E-02  0.1186339E+00
        -11   -1    0    0    0    0  0.00000000000E+00  0.00000000000E+00  0.45593999997E+02  0.45594000000E+02  0.51100000000E-03 0. -1.
         11   -1    0    0    0    0 -0.00000000000E+00 -0.00000000000E+00 -0.45593999997E+02  0.45594000000E+02  0.51100000000E-03 0.  1.
    9900012    2    1    2    0    0 -0.89644613838E+00  0.35931848058E+00  0.67843321292E+00  0.90007747030E+02  0.90000008490E+02 0.  0.
        -12    1    1    2    0    0  0.89644613838E+00 -0.35931848058E+00 -0.67843321292E+00  0.11802529703E+01  0.00000000000E+00 0.  1.
         11    1    3    3    0    0  0.41419236869E+01 -0.18142151528E+01  0.66458450195E+01  0.80382936457E+01  0.51100000000E-03 0. -1.
        -11    1    3    3    0    0 -0.31406122504E+02 -0.22418448348E+02  0.13640704532E+02  0.40926766027E+02  0.51100000000E-03 0.  1.
         12    1    3    3    0    0  0.26367752679E+02  0.24591981981E+02 -0.19608116339E+02  0.41042687357E+02  0.00000000000E+00 0. -1.
</event>
<event>
 7    1  0.2429906E-015  0.9000768E+02  0.7816164E-02  0.1186339E+00
        -11   -1    0    0    0    0  0.00000000000E+00  0.00000000000E+00  0.45593999997E+02  0.45594000000E+02  0.51100000000E-03 0.  1.
         11   -1    0    0    0    0 -0.00000000000E+00 -0.00000000000E+00 -0.45593999997E+02  0.45594000000E+02  0.51100000000E-03 0. -1.
    9900012    2    1    2    0    0 -0.35769514578E+00  0.31020910673E+00 -0.10811930857E+01  0.90007680554E+02  0.89999941137E+02 0.  0.
        -12    1    1    2    0    0  0.35769514578E+00 -0.31020910673E+00  0.10811930857E+01  0.11803194465E+01  0.00000000000E+00 0.  1.
         11    1    3    3    0    0  0.49971575262E+01  0.29827746283E+02 -0.24574663836E+02  0.38968963735E+02  0.51100000000E-03 0. -1.
        -11    1    3    3    0    0  0.29644104328E-01  0.75059096696E+01  0.65739874920E+01  0.99778189274E+01  0.51100000000E-03 0.  1.
        -12    1    3    3    0    0 -0.53844967763E+01 -0.37023446846E+02  0.16919483258E+02  0.41060897891E+02  0.00000000000E+00 0.  1.
</event>
<event>
 7    1  0.2429906E-015  0.9000773E+02  0.7816164E-02  0.1186339E+00
        -11   -1    0    0    0    0  0.00000000000E+00  0.00000000000E+00  0.45593999997E+02  0.45594000000E+02  0.51100000000E-03 0.  1.
         11   -1    0    0    0    0 -0.00000000000E+00 -0.00000000000E+00 -0.45593999997E+02  0.45594000000E+02  0.51100000000E-03 0. -1.
    9900012    2    1    2    0    0  0.23380252986E+00  0.11489093134E+01  0.13556376143E+00  0.90007731485E+02  0.89999992741E+02 0.  0.
        -12    1    1    2    0    0 -0.23380252986E+00 -0.11489093134E+01 -0.13556376143E+00  0.11802685147E+01  0.00000000000E+00 0.  1.
         11    1    3    3    0    0  0.25598993119E+02  0.16478770408E+02 -0.27874981140E+02  0.41277995308E+02  0.51100000000E-03 0. -1.
        -11    1    3    3    0    0  0.50705347071E+01 -0.12579261076E+00  0.73353981227E+01  0.89181955505E+01  0.51100000000E-03 0.  1.
        -12    1    3    3    0    0 -0.30435725296E+02 -0.15204068484E+02  0.20675146779E+02  0.39811540627E+02  0.00000000000E+00 0.  1.
</event>
<event>
 7    1  0.2429906E-015  0.9000699E+02  0.7816164E-02  0.1186341E+00
        -11   -1    0    0    0    0  0.00000000000E+00  0.00000000000E+00  0.45593999997E+02  0.45594000000E+02  0.51100000000E-03 0.  1.
         11   -1    0    0    0    0 -0.00000000000E+00 -0.00000000000E+00 -0.45593999997E+02  0.45594000000E+02  0.51100000000E-03 0. -1.
    9900012    2    1    2    0    0 -0.16166540524E+00 -0.10343723459E+01 -0.54655764519E+00  0.90006988945E+02  0.89999240396E+02 0.  0.
        -12    1    1    2    0    0  0.16166540524E+00  0.10343723459E+01  0.54655764519E+00  0.11810110553E+01  0.00000000000E+00 0.  1.
         11    1    3    3    0    0  0.22020194181E+02 -0.97854769853E+01 -0.23431391063E+02  0.33610632232E+02  0.51100000000E-03 0. -1.
        -11    1    3    3    0    0  0.84113318447E+01 -0.28762154833E+01 -0.75807557257E+01  0.11682935271E+02  0.51100000000E-03 0.  1.
        -12    1    3    3    0    0 -0.30593191431E+02  0.11627320123E+02  0.30465589144E+02  0.44713421442E+02  0.00000000000E+00 0.  1.
</event>
<event>
 7    1  0.2429906E-015  0.9000771E+02  0.7816164E-02  0.1186339E+00
        -11   -1    0    0    0    0  0.00000000000E+00  0.00000000000E+00  0.45593999997E+02  0.45594000000E+02  0.51100000000E-03 0.  1.
         11   -1    0    0    0    0 -0.00000000000E+00 -0.00000000000E+00 -0.45593999997E+02  0.45594000000E+02  0.51100000000E-03 0. -1.
    9900012    2    1    2    0    0 -0.80729625070E+00  0.75685265757E+00 -0.41052670948E+00  0.90007709629E+02  0.89999970596E+02 0.  0.
        -12    1    1    2    0    0  0.80729625070E+00 -0.75685265757E+00  0.41052670948E+00  0.11802903714E+01  0.00000000000E+00 0.  1.
         11    1    3    3    0    0  0.13289850903E+02  0.38346964131E+01 -0.20328406758E+01  0.13980610683E+02  0.51100000000E-03 0. -1.
        -11    1    3    3    0    0  0.14260419167E+01  0.88830884832E+01  0.35645713808E+02  0.36763565792E+02  0.51100000000E-03 0.  1.
         12    1    3    3    0    0 -0.15523189070E+02 -0.11960932239E+02 -0.34023399842E+02  0.39263533154E+02  0.00000000000E+00 0. -1.
</event>
<event>
 7    1  0.2429906E-015  0.9000778E+02  0.7816164E-02  0.1186339E+00
        -11   -1    0    0    0    0  0.00000000000E+00  0.00000000000E+00  0.45593999997E+02  0.45594000000E+02  0.51100000000E-03 0.  1.
         11   -1    0    0    0    0 -0.00000000000E+00 -0.00000000000E+00 -0.45593999997E+02  0.45594000000E+02  0.51100000000E-03 0. -1.
    9900012    2    1    2    0    0 -0.99557107150E+00  0.62670017814E+00  0.94947509697E-01  0.90007775487E+02  0.90000037323E+02 0.  0.
        -12    1    1    2    0    0  0.99557107150E+00 -0.62670017814E+00 -0.94947509697E-01  0.11802245131E+01  0.00000000000E+00 0.  1.
         11    1    3    3    0    0 -0.11748556280E+02  0.10713005733E+01 -0.39236233919E+01  0.12432661837E+02  0.51100000000E-03 0. -1.
        -11    1    3    3    0    0  0.69462453988E+01  0.37822832952E+02  0.66614703772E+01  0.39028095080E+02  0.51100000000E-03 0.  1.
         12    1    3    3    0    0  0.38067398096E+01 -0.38267433348E+02 -0.26428994756E+01  0.38547018570E+02  0.00000000000E+00 0. -1.
</event>
<event>
 7    1  0.2429906E-015  0.9000771E+02  0.7816164E-02  0.1186339E+00
        -11   -1    0    0    0    0  0.00000000000E+00  0.00000000000E+00  0.45593999997E+02  0.45594000000E+02  0.51100000000E-03 0.  1.
         11   -1    0    0    0    0 -0.00000000000E+00 -0.00000000000E+00 -0.45593999997E+02  0.45594000000E+02  0.51100000000E-03 0. -1.
    9900012    2    1    2    0    0  0.93516442133E-02 -0.11556584769E+01 -0.23967026717E+00  0.90007713677E+02  0.89999974697E+02 0.  0.
        -12    1    1    2    0    0 -0.93516442134E-02  0.11556584769E+01  0.23967026717E+00  0.11802863235E+01  0.00000000000E+00 0.  1.
         11    1    3    3    0    0 -0.49930312201E+01  0.65521609239E+01  0.23756217883E+01  0.85734912772E+01  0.51100000000E-03 0. -1.
        -11    1    3    3    0    0 -0.17653066396E+02 -0.47240126199E+01 -0.36352108548E+02  0.40686887871E+02  0.51100000000E-03 0.  1.
         12    1    3    3    0    0  0.22655449261E+02 -0.29838067809E+01  0.33736816493E+02  0.40747334529E+02  0.00000000000E+00 0. -1.
</event>
<event>
 7    1  0.2429906E-015  0.9000774E+02  0.7816164E-02  0.1186339E+00
        -11   -1    0    0    0    0  0.00000000000E+00  0.00000000000E+00  0.45593999997E+02  0.45594000000E+02  0.51100000000E-03 0.  1.
         11   -1    0    0    0    0 -0.00000000000E+00 -0.00000000000E+00 -0.45593999997E+02  0.45594000000E+02  0.51100000000E-03 0. -1.
    9900012    2    1    2    0    0 -0.79590235477E+00  0.16366392750E+00 -0.85601820159E+00  0.90007740028E+02  0.90000001397E+02 0.  0.
        -12    1    1    2    0    0  0.79590235477E+00 -0.16366392750E+00  0.85601820159E+00  0.11802599718E+01  0.00000000000E+00 0.  1.
         11    1    3    3    0    0  0.58264811931E+01  0.90523693107E+01  0.16567223565E+02  0.19757686356E+02  0.51100000000E-03 0. -1.
        -11    1    3    3    0    0 -0.15942952195E+02 -0.28173999058E+02  0.11416457983E+02  0.34326192052E+02  0.51100000000E-03 0.  1.
         12    1    3    3    0    0  0.93205686470E+01  0.19285293675E+02 -0.28839699750E+02  0.35923861620E+02  0.00000000000E+00 0. -1.
</event>
<event>
 7    1  0.2429906E-015  0.9000769E+02  0.7816164E-02  0.1186339E+00
        -11   -1    0    0    0    0  0.00000000000E+00  0.00000000000E+00  0.45593999997E+02  0.45594000000E+02  0.51100000000E-03 0. -1.
         11   -1    0    0    0    0 -0.00000000000E+00 -0.00000000000E+00 -0.45593999997E+02  0.45594000000E+02  0.51100000000E-03 0.  1.
    9900012    2    1    2    0    0 -0.30188142405E+00 -0.11315180633E+01  0.14717074770E+00  0.90007692942E+02  0.89999953689E+02 0.  0.
        -12    1    1    2    0    0  0.30188142405E+00  0.11315180633E+01 -0.14717074770E+00  0.11803070578E+01  0.00000000000E+00 0.  1.
         11    1    3    3    0    0  0.23166933976E+02  0.23872419091E+02 -0.21160657394E+02  0.39425532903E+02  0.51100000000E-03 0. -1.
        -11    1    3    3    0    0  0.61750418766E+01 -0.23705329565E+01  0.92763958737E+01  0.11393071989E+02  0.51100000000E-03 0.  1.
        -12    1    3    3    0    0 -0.29643857276E+02 -0.22633404198E+02  0.12031432268E+02  0.39189088050E+02  0.00000000000E+00 0.  1.
</event>
<event>
 7    1  0.2429906E-015  0.9000773E+02  0.7816164E-02  0.1186339E+00
        -11   -1    0    0    0    0  0.00000000000E+00  0.00000000000E+00  0.45593999997E+02  0.45594000000E+02  0.51100000000E-03 0.  1.
         11   -1    0    0    0    0 -0.00000000000E+00 -0.00000000000E+00 -0.45593999997E+02  0.45594000000E+02  0.51100000000E-03 0. -1.
    9900012    2    1    2    0    0 -0.13145055207E-01 -0.72737541266E+00 -0.92940236231E+00  0.90007730313E+02  0.89999991553E+02 0.  0.
        -12    1    1    2    0    0  0.13145055207E-01  0.72737541266E+00  0.92940236231E+00  0.11802696872E+01  0.00000000000E+00 0.  1.
         11    1    3    3    0    0  0.11166378523E+02  0.15814808465E+02 -0.99671303602E+01  0.21774752903E+02  0.51100000000E-03 0. -1.
        -11    1    3    3    0    0  0.26907232012E+02 -0.11305476929E+02  0.40720667356E+01  0.29468536966E+02  0.51100000000E-03 0.  1.
         12    1    3    3    0    0 -0.38086755591E+02 -0.52367069488E+01  0.49656612623E+01  0.38764440443E+02  0.00000000000E+00 0. -1.
</event>
<event>
 7    1  0.2429906E-015  0.9000763E+02  0.7816164E-02  0.1186339E+00
        -11   -1    0    0    0    0  0.00000000000E+00  0.00000000000E+00  0.45593999997E+02  0.45594000000E+02  0.51100000000E-03 0.  1.
         11   -1    0    0    0    0 -0.00000000000E+00 -0.00000000000E+00 -0.45593999997E+02  0.45594000000E+02  0.51100000000E-03 0. -1.
    9900012    2    1    2    0    0 -0.72019290788E+00  0.78097208740E+00  0.51446737150E+00  0.90007630608E+02  0.89999890532E+02 0.  0.
        -12    1    1    2    0    0  0.72019290788E+00 -0.78097208740E+00 -0.51446737150E+00  0.11803693923E+01  0.00000000000E+00 0.  1.
         11    1    3    3    0    0 -0.35352089477E+01  0.30638534989E+01 -0.83639828866E+01  0.95833767825E+01  0.51100000000E-03 0. -1.
        -11    1    3    3    0    0 -0.31788448919E+02 -0.63207460808E+01 -0.17400289750E+02  0.36786239266E+02  0.51100000000E-03 0.  1.
         12    1    3    3    0    0  0.34603464959E+02  0.40378646693E+01  0.26278740008E+02  0.43638014559E+02  0.00000000000E+00 0. -1.
</event>
<event>
 7    1  0.2429906E-015  0.9000755E+02  0.7816164E-02  0.1186339E+00
        -11   -1    0    0    0    0  0.00000000000E+00  0.00000000000E+00  0.45593999997E+02  0.45594000000E+02  0.51100000000E-03 0.  1.
         11   -1    0    0    0    0 -0.00000000000E+00 -0.00000000000E+00 -0.45593999997E+02  0.45594000000E+02  0.51100000000E-03 0. -1.
    9900012    2    1    2    0    0  0.26812336338E+00 -0.78455353710E+00 -0.84027226211E+00  0.90007545907E+02  0.89999804713E+02 0.  0.
        -12    1    1    2    0    0 -0.26812336338E+00  0.78455353710E+00  0.84027226211E+00  0.11804540927E+01  0.00000000000E+00 0.  1.
         11    1    3    3    0    0  0.60213349805E+01 -0.61889021056E+01  0.44092744969E+01  0.96953950962E+01  0.51100000000E-03 0. -1.
        -11    1    3    3    0    0  0.31356180346E+02  0.22824200434E+02 -0.63655770226E+01  0.39302350343E+02  0.51100000000E-03 0.  1.
         12    1    3    3    0    0 -0.37109391963E+02 -0.17419851866E+02  0.11160302637E+01  0.41009800468E+02  0.00000000000E+00 0. -1.
</event>
<event>
 7    1  0.2429906E-015  0.9000737E+02  0.7816164E-02  0.1186340E+00
        -11   -1    0    0    0    0  0.00000000000E+00  0.00000000000E+00  0.45593999997E+02  0.45594000000E+02  0.51100000000E-03 0. -1.
         11   -1    0    0    0    0 -0.00000000000E+00 -0.00000000000E+00 -0.45593999997E+02  0.45594000000E+02  0.51100000000E-03 0.  1.
    9900012    2    1    2    0    0  0.35402508162E+00  0.33754325755E+00  0.10745328886E+01  0.90007368754E+02  0.89999625221E+02 0.  0.
        -12    1    1    2    0    0 -0.35402508162E+00 -0.33754325755E+00 -0.10745328886E+01  0.11806312455E+01  0.00000000000E+00 0.  1.
         11    1    3    3    0    0 -0.91402004266E+01 -0.35513476646E+01 -0.28737683121E+01  0.10218310949E+02  0.51100000000E-03 0. -1.
        -11    1    3    3    0    0 -0.10893172080E+02 -0.16341066441E+02 -0.29664847901E+02  0.35576605398E+02  0.51100000000E-03 0.  1.
         12    1    3    3    0    0  0.20387397589E+02  0.20229957364E+02  0.33613149101E+02  0.44212452408E+02  0.00000000000E+00 0. -1.
</event>
<event>
 7    1  0.2429906E-015  0.9000771E+02  0.7816164E-02  0.1186339E+00
        -11   -1    0    0    0    0  0.00000000000E+00  0.00000000000E+00  0.45593999997E+02  0.45594000000E+02  0.51100000000E-03 0.  1.
         11   -1    0    0    0    0 -0.00000000000E+00 -0.00000000000E+00 -0.45593999997E+02  0.45594000000E+02  0.51100000000E-03 0. -1.
    9900012    2    1    2    0    0 -0.53381103354E+00  0.82389262685E+00 -0.65523547443E+00  0.90007709016E+02  0.89999969975E+02 0.  0.
        -12    1    1    2    0    0  0.53381103354E+00 -0.82389262685E+00  0.65523547443E+00  0.11802909841E+01  0.00000000000E+00 0.  1.
         11    1    3    3    0    0  0.95058794113E+01 -0.39662462862E+01 -0.37300502995E+02  0.38696516341E+02  0.51100000000E-03 0. -1.
        -11    1    3    3    0    0  0.21237482608E-01  0.70258432964E+01 -0.48616103578E+01  0.85438972716E+01  0.51100000000E-03 0.  1.
        -12    1    3    3    0    0 -0.10060927927E+02 -0.22357043833E+01  0.41506877879E+02  0.42767295403E+02  0.00000000000E+00 0.  1.
</event>
<event>
 7    1  0.2429906E-015  0.9000746E+02  0.7816164E-02  0.1186340E+00
        -11   -1    0    0    0    0  0.00000000000E+00  0.00000000000E+00  0.45593999997E+02  0.45594000000E+02  0.51100000000E-03 0. -1.
         11   -1    0    0    0    0 -0.00000000000E+00 -0.00000000000E+00 -0.45593999997E+02  0.45594000000E+02  0.51100000000E-03 0.  1.
    9900012    2    1    2    0    0 -0.25222755238E-01  0.11707032495E+01 -0.14996589375E+00  0.90007461117E+02  0.89999718803E+02 0.  0.
        -12    1    1    2    0    0  0.25222755238E-01 -0.11707032495E+01  0.14996589375E+00  0.11805388833E+01  0.00000000000E+00 0.  1.
         11    1    3    3    0    0  0.50687221187E+01 -0.11060281484E+02 -0.19811883428E+01  0.12326673433E+02  0.51100000000E-03 0. -1.
        -11    1    3    3    0    0 -0.28868474627E+01 -0.95168026669E+01 -0.34156214265E+02  0.35574575113E+02  0.51100000000E-03 0.  1.
         12    1    3    3    0    0 -0.22070974112E+01  0.21747787400E+02  0.35987436714E+02  0.42106212571E+02  0.00000000000E+00 0. -1.
</event>
<event>
 7    1  0.2429906E-015  0.9000790E+02  0.7816164E-02  0.1186339E+00
        -11   -1    0    0    0    0  0.00000000000E+00  0.00000000000E+00  0.45593999997E+02  0.45594000000E+02  0.51100000000E-03 0. -1.
         11   -1    0    0    0    0 -0.00000000000E+00 -0.00000000000E+00 -0.45593999997E+02  0.45594000000E+02  0.51100000000E-03 0.  1.
    9900012    2    1    2    0    0  0.62650603885E+00  0.99841974555E+00  0.57233877106E-01  0.90007903596E+02  0.90000167124E+02 0.  0.
        -12    1    1    2    0    0 -0.62650603885E+00 -0.99841974555E+00 -0.57233877106E-01  0.11800964036E+01  0.00000000000E+00 0.  1.
         11    1    3    3    0    0  0.26962149203E+01  0.75869091597E+01 -0.23148759954E+01  0.83779124267E+01  0.51100000000E-03 0. -1.
        -11    1    3    3    0    0  0.28713792152E+02 -0.18977555986E+02 -0.21652707744E+02  0.40662873040E+02  0.51100000000E-03 0.  1.
         12    1    3    3    0    0 -0.30783501033E+02  0.12389066572E+02  0.24024817616E+02  0.40967118130E+02  0.00000000000E+00 0. -1.
</event>
<event>
 7    1  0.2429906E-015  0.9000793E+02  0.7816164E-02  0.1186339E+00
        -11   -1    0    0    0    0  0.00000000000E+00  0.00000000000E+00  0.45593999997E+02  0.45594000000E+02  0.51100000000E-03 0.  1.
         11   -1    0    0    0    0 -0.00000000000E+00 -0.00000000000E+00 -0.45593999997E+02  0.45594000000E+02  0.51100000000E-03 0. -1.
    9900012    2    1    2    0    0 -0.88518756500E+00  0.69973835263E+00 -0.34549019203E+00  0.90007934637E+02  0.90000198574E+02 0.  0.
        -12    1    1    2    0    0  0.88518756500E+00 -0.69973835263E+00  0.34549019203E+00  0.11800653627E+01  0.00000000000E+00 0.  1.
         11    1    3    3    0    0  0.71950719863E+01 -0.21157655017E+01 -0.60333642073E+01  0.96253316029E+01  0.51100000000E-03 0. -1.
        -11    1    3    3    0    0  0.19696698360E+02 -0.16294504563E+02  0.29553247832E+02  0.39075123325E+02  0.51100000000E-03 0.  1.
         12    1    3    3    0    0 -0.27776957911E+02  0.19110008417E+02 -0.23865373817E+02  0.41307479709E+02  0.00000000000E+00 0. -1.
</event>
<event>
 7    1  0.2429906E-015  0.9000781E+02  0.7816164E-02  0.1186339E+00
        -11   -1    0    0    0    0  0.00000000000E+00  0.00000000000E+00  0.45593999997E+02  0.45594000000E+02  0.51100000000E-03 0.  1.
         11   -1    0    0    0    0 -0.00000000000E+00 -0.00000000000E+00 -0.45593999997E+02  0.45594000000E+02  0.51100000000E-03 0. -1.
    9900012    2    1    2    0    0 -0.21714794397E+00  0.74452330351E+00 -0.88959700651E+00  0.90007808908E+02  0.90000071186E+02 0.  0.
        -12    1    1    2    0    0  0.21714794397E+00 -0.74452330351E+00  0.88959700651E+00  0.11801910917E+01  0.00000000000E+00 0.  1.
         11    1    3    3    0    0  0.32479646169E+02  0.61818121838E+01  0.18869958136E+02  0.38068589907E+02  0.51100000000E-03 0. -1.
        -11    1    3    3    0    0  0.11511814257E+01  0.85518885526E+01  0.26200513267E+01  0.90180200547E+01  0.51100000000E-03 0.  1.
        -12    1    3    3    0    0 -0.33847975539E+02 -0.13989177433E+02 -0.22379606469E+02  0.42921198947E+02  0.00000000000E+00 0.  1.
</event>
<event>
 7    1  0.2429906E-015  0.9000741E+02  0.7816164E-02  0.1186340E+00
        -11   -1    0    0    0    0  0.00000000000E+00  0.00000000000E+00  0.45593999997E+02  0.45594000000E+02  0.51100000000E-03 0.  1.
         11   -1    0    0    0    0 -0.00000000000E+00 -0.00000000000E+00 -0.45593999997E+02  0.45594000000E+02  0.51100000000E-03 0. -1.
    9900012    2    1    2    0    0 -0.10237371212E+01  0.29892732558E+00 -0.50635026236E+00  0.90007412931E+02  0.89999669981E+02 0.  0.
        -12    1    1    2    0    0  0.10237371212E+01 -0.29892732558E+00  0.50635026236E+00  0.11805870690E+01  0.00000000000E+00 0.  1.
         11    1    3    3    0    0  0.31672431779E+02  0.53507343137E+01 -0.20478037930E+02  0.38093612722E+02  0.51100000000E-03 0. -1.
        -11    1    3    3    0    0  0.50238237941E+01 -0.83518825680E+01  0.17850592341E+01  0.99085409963E+01  0.51100000000E-03 0.  1.
        -12    1    3    3    0    0 -0.37719992695E+02  0.33000755799E+01  0.18186628434E+02  0.42005259212E+02  0.00000000000E+00 0.  1.
</event>
<event>
 7    1  0.2429906E-015  0.9000771E+02  0.7816164E-02  0.1186339E+00
        -11   -1    0    0    0    0  0.00000000000E+00  0.00000000000E+00  0.45593999997E+02  0.45594000000E+02  0.51100000000E-03 0.  1.
         11   -1    0    0    0    0 -0.00000000000E+00 -0.00000000000E+00 -0.45593999997E+02  0.45594000000E+02  0.51100000000E-03 0. -1.
    9900012    2    1    2    0    0  0.88632074628E+00  0.59202778313E+00  0.50698038991E+00  0.90007707461E+02  0.89999968400E+02 0.  0.
        -12    1    1    2    0    0 -0.88632074628E+00 -0.59202778313E+00 -0.50698038991E+00  0.11802925388E+01  0.00000000000E+00 0.  1.
         11    1    3    3    0    0 -0.35685121505E+02 -0.12516594354E+01  0.25538849393E+01  0.35798280360E+02  0.51100000000E-03 0. -1.
        -11    1    3    3    0    0 -0.64803145300E+01 -0.46854952419E+00  0.76314798797E+01  0.10022649374E+02  0.51100000000E-03 0.  1.
        -12    1    3    3    0    0  0.43051756782E+02  0.23122367427E+01 -0.96783844291E+01  0.44186777727E+02  0.00000000000E+00 0.  1.
</event>
<event>
 7    1  0.2429906E-015  0.9000765E+02  0.7816164E-02  0.1186339E+00
        -11   -1    0    0    0    0  0.00000000000E+00  0.00000000000E+00  0.45593999997E+02  0.45594000000E+02  0.51100000000E-03 0.  1.
         11   -1    0    0    0    0 -0.00000000000E+00 -0.00000000000E+00 -0.45593999997E+02  0.45594000000E+02  0.51100000000E-03 0. -1.
    9900012    2    1    2    0    0  0.35942424027E+00  0.56594874355E-01 -0.11228725856E+01  0.90007647676E+02  0.89999907826E+02 0.  0.
        -12    1    1    2    0    0 -0.35942424027E+00 -0.56594874355E-01  0.11228725856E+01  0.11803523235E+01  0.00000000000E+00 0.  1.
         11    1    3    3    0    0  0.37713813105E+02 -0.43891903598E+01 -0.21862219111E+01  0.38031253693E+02  0.51100000000E-03 0. -1.
        -11    1    3    3    0    0  0.47827490597E+01  0.77917818364E+01  0.31101225639E+01  0.96570914553E+01  0.51100000000E-03 0.  1.
        -12    1    3    3    0    0 -0.42137137925E+02 -0.33459966022E+01 -0.20467732384E+01  0.42319302528E+02  0.00000000000E+00 0.  1.
</event>
<event>
 7    1  0.2429906E-015  0.9000774E+02  0.7816164E-02  0.1186339E+00
        -11   -1    0    0    0    0  0.00000000000E+00  0.00000000000E+00  0.45593999997E+02  0.45594000000E+02  0.51100000000E-03 0. -1.
         11   -1    0    0    0    0 -0.00000000000E+00 -0.00000000000E+00 -0.45593999997E+02  0.45594000000E+02  0.51100000000E-03 0.  1.
    9900012    2    1    2    0    0  0.97963060762E+00  0.65767326259E+00  0.28328149566E-01  0.90007740396E+02  0.90000001770E+02 0.  0.
        -12    1    1    2    0    0 -0.97963060762E+00 -0.65767326259E+00 -0.28328149566E-01  0.11802596036E+01  0.00000000000E+00 0.  1.
         11    1    3    3    0    0 -0.64277880875E+01 -0.32329420349E+02  0.21877084451E+02  0.39561530610E+02  0.51100000000E-03 0. -1.
        -11    1    3    3    0    0  0.16837484887E+01 -0.10161087235E+01 -0.15203484724E+02  0.15330147877E+02  0.51100000000E-03 0.  1.
        -12    1    3    3    0    0  0.57236702065E+01  0.34003202336E+02 -0.66452715774E+01  0.35116061910E+02  0.00000000000E+00 0.  1.
</event>
<event>
 7    1  0.2429906E-015  0.9000730E+02  0.7816164E-02  0.1186340E+00
        -11   -1    0    0    0    0  0.00000000000E+00  0.00000000000E+00  0.45593999997E+02  0.45594000000E+02  0.51100000000E-03 0.  1.
         11   -1    0    0    0    0 -0.00000000000E+00 -0.00000000000E+00 -0.45593999997E+02  0.45594000000E+02  0.51100000000E-03 0. -1.
    9900012    2    1    2    0    0  0.80373198074E+00  0.36103946893E-01  0.86415844458E+00  0.90007297493E+02  0.89999553019E+02 0.  0.
        -12    1    1    2    0    0 -0.80373198074E+00 -0.36103946893E-01 -0.86415844458E+00  0.11807025066E+01  0.00000000000E+00 0.  1.
         11    1    3    3    0    0 -0.81653159437E+01  0.51904409668E+01 -0.30929963798E+00  0.96803268756E+01  0.51100000000E-03 0. -1.
        -11    1    3    3    0    0 -0.16961931397E+02 -0.26094124500E+01  0.34197337991E+02  0.38261914171E+02  0.51100000000E-03 0.  1.
         12    1    3    3    0    0  0.25930979322E+02 -0.25449245699E+01 -0.33023879909E+02  0.42065056447E+02  0.00000000000E+00 0. -1.
</event>
<event>
 7    1  0.2429906E-015  0.9000773E+02  0.7816164E-02  0.1186339E+00
        -11   -1    0    0    0    0  0.00000000000E+00  0.00000000000E+00  0.45593999997E+02  0.45594000000E+02  0.51100000000E-03 0. -1.
         11   -1    0    0    0    0 -0.00000000000E+00 -0.00000000000E+00 -0.45593999997E+02  0.45594000000E+02  0.51100000000E-03 0.  1.
    9900012    2    1    2    0    0 -0.13555596064E+00 -0.10182367483E+01  0.58124615163E+00  0.90007733681E+02  0.89999994966E+02 0.  0.
        -12    1    1    2    0    0  0.13555596064E+00  0.10182367483E+01 -0.58124615163E+00  0.11802663186E+01  0.00000000000E+00 0.  1.
         11    1    3    3    0    0 -0.86842297951E+01 -0.19219221300E+01 -0.58377525164E+01  0.10639031277E+02  0.51100000000E-03 0. -1.
        -11    1    3    3    0    0  0.39146092375E+02  0.36476790487E+01 -0.14825646245E+02  0.42018113921E+02  0.51100000000E-03 0.  1.
         12    1    3    3    0    0 -0.30597418540E+02 -0.27439936670E+01  0.21244644913E+02  0.37350588483E+02  0.00000000000E+00 0. -1.
</event>
<event>
 7    1  0.2429906E-015  0.9000766E+02  0.7816164E-02  0.1186339E+00
        -11   -1    0    0    0    0  0.00000000000E+00  0.00000000000E+00  0.45593999997E+02  0.45594000000E+02  0.51100000000E-03 0. -1.
         11   -1    0    0    0    0 -0.00000000000E+00 -0.00000000000E+00 -0.45593999997E+02  0.45594000000E+02  0.51100000000E-03 0.  1.
    9900012    2    1    2    0    0 -0.70011877404E+00 -0.94990664814E+00  0.26526002381E-01  0.90007664214E+02  0.89999924582E+02 0.  0.
        -12    1    1    2    0    0  0.70011877404E+00  0.94990664814E+00 -0.26526002381E-01  0.11803357856E+01  0.00000000000E+00 0.  1.
         11    1    3    3    0    0  0.34309005386E+02 -0.14438972822E+02  0.47473634340E+01  0.37525048255E+02  0.51100000000E-03 0. -1.
        -11    1    3    3    0    0  0.10500854762E+01 -0.59099692495E+01  0.76357244982E+01  0.97126054646E+01  0.51100000000E-03 0.  1.
        -12    1    3    3    0    0 -0.36059209636E+02  0.19399035423E+02 -0.12356561930E+02  0.42770010494E+02  0.00000000000E+00 0.  1.
</event>
<event>
 7    1  0.2429906E-015  0.9000769E+02  0.7816164E-02  0.1186339E+00
        -11   -1    0    0    0    0  0.00000000000E+00  0.00000000000E+00  0.45593999997E+02  0.45594000000E+02  0.51100000000E-03 0. -1.
         11   -1    0    0    0    0 -0.00000000000E+00 -0.00000000000E+00 -0.45593999997E+02  0.45594000000E+02  0.51100000000E-03 0.  1.
    9900012    2    1    2    0    0 -0.40257997200E+00 -0.10730432376E+01 -0.28220472036E+00  0.90007689902E+02  0.89999950608E+02 0.  0.
        -12    1    1    2    0    0  0.40257997200E+00  0.10730432376E+01  0.28220472036E+00  0.11803100982E+01  0.00000000000E+00 0.  1.
         11    1    3    3    0    0  0.31852995366E+01  0.32693505180E+02  0.29711140746E+02  0.44291797195E+02  0.51100000000E-03 0. -1.
        -11    1    3    3    0    0 -0.21347834573E+01 -0.79452605559E+01 -0.43952174116E+01  0.93275078165E+01  0.51100000000E-03 0.  1.
        -12    1    3    3    0    0 -0.14530960513E+01 -0.25821287862E+02 -0.25598128055E+02  0.36388384890E+02  0.00000000000E+00 0.  1.
</event>
<event>
 7    1  0.2429906E-015  0.9000765E+02  0.7816164E-02  0.1186339E+00
        -11   -1    0    0    0    0  0.00000000000E+00  0.00000000000E+00  0.45593999997E+02  0.45594000000E+02  0.51100000000E-03 0.  1.
         11   -1    0    0    0    0 -0.00000000000E+00 -0.00000000000E+00 -0.45593999997E+02  0.45594000000E+02  0.51100000000E-03 0. -1.
    9900012    2    1    2    0    0 -0.89667867268E+00  0.48226261394E+00 -0.59717454196E+00  0.90007649499E+02  0.89999909673E+02 0.  0.
        -12    1    1    2    0    0  0.89667867268E+00 -0.48226261394E+00  0.59717454196E+00  0.11803505007E+01  0.00000000000E+00 0.  1.
         11    1    3    3    0    0  0.96057995548E+01 -0.20084078132E+01  0.49701728024E+01  0.11000350221E+02  0.51100000000E-03 0. -1.
        -11    1    3    3    0    0  0.11465185354E+02  0.28784723925E+02 -0.24825589397E+02  0.39702905382E+02  0.51100000000E-03 0.  1.
         12    1    3    3    0    0 -0.21967663582E+02 -0.26294053497E+02  0.19258242053E+02  0.39304393896E+02  0.00000000000E+00 0. -1.
</event>
<event>
 7    1  0.2429906E-015  0.9000772E+02  0.7816164E-02  0.1186339E+00
        -11   -1    0    0    0    0  0.00000000000E+00  0.00000000000E+00  0.45593999997E+02  0.45594000000E+02  0.51100000000E-03 0.  1.
         11   -1    0    0    0    0 -0.00000000000E+00 -0.00000000000E+00 -0.45593999997E+02  0.45594000000E+02  0.51100000000E-03 0. -1.
    9900012    2    1    2    0    0 -0.11044091092E-01 -0.11041351399E+01  0.41691255191E+00  0.90007723568E+02  0.89999984719E+02 0.  0.
        -12    1    1    2    0    0  0.11044091092E-01  0.11041351399E+01 -0.41691255191E+00  0.11802764317E+01  0.00000000000E+00 0.  1.
         11    1    3    3    0    0 -0.31223805347E+02 -0.25812553536E+02 -0.14577985120E+02  0.43054983345E+02  0.51100000000E-03 0. -1.
        -11    1    3    3    0    0  0.57427349866E+01  0.63081743825E+01  0.12895152662E+02  0.15461469257E+02  0.51100000000E-03 0.  1.
        -12    1    3    3    0    0  0.25470026270E+02  0.18400244014E+02  0.20997450101E+01  0.31491270966E+02  0.00000000000E+00 0.  1.
</event>
<event>
 7    1  0.2429906E-015  0.9000781E+02  0.7816164E-02  0.1186339E+00
        -11   -1    0    0    0    0  0.00000000000E+00  0.00000000000E+00  0.45593999997E+02  0.45594000000E+02  0.51100000000E-03 0.  1.
         11   -1    0    0    0    0 -0.00000000000E+00 -0.00000000000E+00 -0.45593999997E+02  0.45594000000E+02  0.51100000000E-03 0. -1.
    9900012    2    1    2    0    0  0.40462410936E+00  0.10647316142E+01  0.30898984535E+00  0.90007809844E+02  0.90000072134E+02 0.  0.
        -12    1    1    2    0    0 -0.40462410936E+00 -0.10647316142E+01 -0.30898984535E+00  0.11801901562E+01  0.00000000000E+00 0.  1.
         11    1    3    3    0    0 -0.29712876906E+01 -0.11611164343E+02 -0.26214817727E+00  0.11988177921E+02  0.51100000000E-03 0. -1.
        -11    1    3    3    0    0  0.76463010280E+01 -0.13821589361E+02  0.32604141850E+02  0.36228887892E+02  0.51100000000E-03 0.  1.
         12    1    3    3    0    0 -0.42703892281E+01  0.26497485318E+02 -0.32033003828E+02  0.41790744030E+02  0.00000000000E+00 0. -1.
</event>
<event>
 7    1  0.2429906E-015  0.9000781E+02  0.7816164E-02  0.1186339E+00
        -11   -1    0    0    0    0  0.00000000000E+00  0.00000000000E+00  0.45593999997E+02  0.45594000000E+02  0.51100000000E-03 0.  1.
         11   -1    0    0    0    0 -0.00000000000E+00 -0.00000000000E+00 -0.45593999997E+02  0.45594000000E+02  0.51100000000E-03 0. -1.
    9900012    2    1    2    0    0 -0.97915220924E+00  0.52504631984E+00 -0.39805394500E+00  0.90007805258E+02  0.90000067487E+02 0.  0.
        -12    1    1    2    0    0  0.97915220924E+00 -0.52504631984E+00  0.39805394500E+00  0.11801947424E+01  0.00000000000E+00 0.  1.
         11    1    3    3    0    0 -0.36364645075E+01 -0.75863432515E+01  0.92355093535E+01  0.12492842404E+02  0.51100000000E-03 0. -1.
        -11    1    3    3    0    0  0.36613678092E+02  0.28260288976E+01 -0.19743345916E+02  0.41693495548E+02  0.51100000000E-03 0.  1.
         12    1    3    3    0    0 -0.33956365794E+02  0.52853606737E+01  0.10109782618E+02  0.35821467306E+02  0.00000000000E+00 0. -1.
</event>
<event>
 7    1  0.2429906E-015  0.9000773E+02  0.7816164E-02  0.1186339E+00
        -11   -1    0    0    0    0  0.00000000000E+00  0.00000000000E+00  0.45593999997E+02  0.45594000000E+02  0.51100000000E-03 0.  1.
         11   -1    0    0    0    0 -0.00000000000E+00 -0.00000000000E+00 -0.45593999997E+02  0.45594000000E+02  0.51100000000E-03 0. -1.
    9900012    2    1    2    0    0  0.89177768080E+00 -0.74385001480E+00  0.21087225093E+00  0.90007725717E+02  0.89999986897E+02 0.  0.
        -12    1    1    2    0    0 -0.89177768080E+00  0.74385001480E+00 -0.21087225093E+00  0.11802742828E+01  0.00000000000E+00 0.  1.
         11    1    3    3    0    0 -0.28943040219E+02  0.16632532393E+02 -0.10386979203E+02  0.34960406865E+02  0.51100000000E-03 0. -1.
        -11    1    3    3    0    0 -0.53896206335E+01  0.73266756862E+01 -0.35408196489E+01  0.97604093783E+01  0.51100000000E-03 0.  1.
        -12    1    3    3    0    0  0.35224438533E+02 -0.24703058094E+02  0.14138671103E+02  0.45286909474E+02  0.00000000000E+00 0.  1.
</event>
<event>
 7    1  0.2429906E-015  0.9000771E+02  0.7816164E-02  0.1186339E+00
        -11   -1    0    0    0    0  0.00000000000E+00  0.00000000000E+00  0.45593999997E+02  0.45594000000E+02  0.51100000000E-03 0. -1.
         11   -1    0    0    0    0 -0.00000000000E+00 -0.00000000000E+00 -0.45593999997E+02  0.45594000000E+02  0.51100000000E-03 0.  1.
    9900012    2    1    2    0    0  0.18486423902E-01 -0.94134745275E+00 -0.71176830478E+00  0.90007707284E+02  0.89999968221E+02 0.  0.
        -12    1    1    2    0    0 -0.18486423902E-01  0.94134745275E+00  0.71176830478E+00  0.11802927155E+01  0.00000000000E+00 0.  1.
         11    1    3    3    0    0  0.33634540781E+01 -0.65105220213E+01 -0.65500604606E+01  0.98286831581E+01  0.51100000000E-03 0. -1.
        -11    1    3    3    0    0 -0.16458682465E+02  0.23636253863E+01 -0.34144917691E+02  0.37978287979E+02  0.51100000000E-03 0.  1.
         12    1    3    3    0    0  0.13113714811E+02  0.32055491822E+01  0.39983209847E+02  0.42200736147E+02  0.00000000000E+00 0. -1.
</event>
<event>
 7    1  0.2429906E-015  0.9000775E+02  0.7816164E-02  0.1186339E+00
        -11   -1    0    0    0    0  0.00000000000E+00  0.00000000000E+00  0.45593999997E+02  0.45594000000E+02  0.51100000000E-03 0.  1.
         11   -1    0    0    0    0 -0.00000000000E+00 -0.00000000000E+00 -0.45593999997E+02  0.45594000000E+02  0.51100000000E-03 0. -1.
    9900012    2    1    2    0    0 -0.10730079250E+01 -0.14895044802E+00 -0.46845873095E+00  0.90007751795E+02  0.90000013319E+02 0.  0.
        -12    1    1    2    0    0  0.10730079250E+01  0.14895044802E+00  0.46845873095E+00  0.11802482051E+01  0.00000000000E+00 0.  1.
         11    1    3    3    0    0  0.66037440539E-01  0.77491697767E+00 -0.85069160171E+01  0.85423929697E+01  0.51100000000E-03 0. -1.
        -11    1    3    3    0    0  0.81640254912E+01 -0.36661326433E+02 -0.12026488319E+02  0.39437806603E+02  0.51100000000E-03 0.  1.
         12    1    3    3    0    0 -0.93030708567E+01  0.35737459007E+02  0.20064945605E+02  0.42027552223E+02  0.00000000000E+00 0. -1.
</event>
<event>
 7    1  0.2429906E-015  0.9000769E+02  0.7816164E-02  0.1186339E+00
        -11   -1    0    0    0    0  0.00000000000E+00  0.00000000000E+00  0.45593999997E+02  0.45594000000E+02  0.51100000000E-03 0.  1.
         11   -1    0    0    0    0 -0.00000000000E+00 -0.00000000000E+00 -0.45593999997E+02  0.45594000000E+02  0.51100000000E-03 0. -1.
    9900012    2    1    2    0    0 -0.85616243927E+00 -0.18828461719E+00 -0.79035417994E+00  0.90007692858E+02  0.89999953604E+02 0.  0.
        -12    1    1    2    0    0  0.85616243927E+00  0.18828461719E+00  0.79035417994E+00  0.11803071419E+01  0.00000000000E+00 0.  1.
         11    1    3    3    0    0 -0.30327985823E+01  0.24108945015E+01 -0.41643543926E+02  0.41823378994E+02  0.51100000000E-03 0. -1.
        -11    1    3    3    0    0 -0.47975610857E+01 -0.79952503971E+01  0.37539396242E+01  0.10051501592E+02  0.51100000000E-03 0.  1.
        -12    1    3    3    0    0  0.69741972287E+01  0.53960712784E+01  0.37099250121E+02  0.38132812272E+02  0.00000000000E+00 0.  1.
</event>
<event>
 7    1  0.2429906E-015  0.9000777E+02  0.7816164E-02  0.1186339E+00
        -11   -1    0    0    0    0  0.00000000000E+00  0.00000000000E+00  0.45593999997E+02  0.45594000000E+02  0.51100000000E-03 0.  1.
         11   -1    0    0    0    0 -0.00000000000E+00 -0.00000000000E+00 -0.45593999997E+02  0.45594000000E+02  0.51100000000E-03 0. -1.
    9900012    2    1    2    0    0  0.99483459960E+00  0.21516716130E+00 -0.59745966182E+00  0.90007766618E+02  0.90000028338E+02 0.  0.
        -12    1    1    2    0    0 -0.99483459960E+00 -0.21516716130E+00  0.59745966182E+00  0.11802333817E+01  0.00000000000E+00 0.  1.
         11    1    3    3    0    0  0.20980681571E+02 -0.26495958533E+02 -0.14012942448E+02  0.36586710348E+02  0.51100000000E-03 0. -1.
        -11    1    3    3    0    0  0.25702729491E+01 -0.80883486922E+01 -0.27352651328E+01  0.89168022971E+01  0.51100000000E-03 0.  1.
        -12    1    3    3    0    0 -0.22556119921E+02  0.34799474386E+02  0.16150747919E+02  0.44504253974E+02  0.00000000000E+00 0.  1.
</event>
<event>
 7    1  0.2429906E-015  0.9000778E+02  0.7816164E-02  0.1186339E+00
        -11   -1    0    0    0    0  0.00000000000E+00  0.00000000000E+00  0.45593999997E+02  0.45594000000E+02  0.51100000000E-03 0.  1.
         11   -1    0    0    0    0 -0.00000000000E+00 -0.00000000000E+00 -0.45593999997E+02  0.45594000000E+02  0.51100000000E-03 0. -1.
    9900012    2    1    2    0    0  0.67726407579E+00 -0.72905770249E+00 -0.63458751892E+00  0.90007782613E+02  0.90000044543E+02 0.  0.
        -12    1    1    2    0    0 -0.67726407579E+00  0.72905770249E+00  0.63458751892E+00  0.11802173872E+01  0.00000000000E+00 0.  1.
         11    1    3    3    0    0  0.24563367946E+01  0.14859445802E+02 -0.54865251853E+01  0.16029306874E+02  0.51100000000E-03 0. -1.
        -11    1    3    3    0    0  0.67841726167E+01  0.24689408058E+02  0.17369102605E+02  0.30939902939E+02  0.51100000000E-03 0.  1.
         12    1    3    3    0    0 -0.85632453355E+01 -0.40277911563E+02 -0.12517164938E+02  0.43038572799E+02  0.00000000000E+00 0. -1.
</event>
<event>
 7    1  0.2429906E-015  0.9000780E+02  0.7816164E-02  0.1186339E+00
        -11   -1    0    0    0    0  0.00000000000E+00  0.00000000000E+00  0.45593999997E+02  0.45594000000E+02  0.51100000000E-03 0.  1.
         11   -1    0    0    0    0 -0.00000000000E+00 -0.00000000000E+00 -0.45593999997E+02  0.45594000000E+02  0.51100000000E-03 0. -1.
    9900012    2    1    2    0    0 -0.11661529646E+01 -0.15923043659E+00 -0.87249600060E-01  0.90007796814E+02  0.90000058931E+02 0.  0.
        -12    1    1    2    0    0  0.11661529646E+01  0.15923043659E+00  0.87249600060E-01  0.11802031865E+01  0.00000000000E+00 0.  1.
         11    1    3    3    0    0 -0.34598873246E+01  0.84523332734E+01  0.20130536074E+01  0.93522801044E+01  0.51100000000E-03 0. -1.
        -11    1    3    3    0    0 -0.83328338650E+01  0.14613727759E+02  0.33120984511E+02  0.37148307828E+02  0.51100000000E-03 0.  1.
         12    1    3    3    0    0  0.10626568225E+02 -0.23225291469E+02 -0.35221287719E+02  0.43507208881E+02  0.00000000000E+00 0. -1.
</event>
<event>
 7    1  0.2429906E-015  0.9000786E+02  0.7816164E-02  0.1186339E+00
        -11   -1    0    0    0    0  0.00000000000E+00  0.00000000000E+00  0.45593999997E+02  0.45594000000E+02  0.51100000000E-03 0.  1.
         11   -1    0    0    0    0 -0.00000000000E+00 -0.00000000000E+00 -0.45593999997E+02  0.45594000000E+02  0.51100000000E-03 0. -1.
    9900012    2    1    2    0    0 -0.11779703433E+01 -0.33786226952E-01  0.63043482732E-01  0.90007860127E+02  0.90000123081E+02 0.  0.
        -12    1    1    2    0    0  0.11779703433E+01  0.33786226952E-01 -0.63043482732E-01  0.11801398729E+01  0.00000000000E+00 0.  1.
         11    1    3    3    0    0  0.28195091676E+02  0.59176754351E+01  0.25392732350E+02  0.38402772473E+02  0.51100000000E-03 0. -1.
        -11    1    3    3    0    0  0.55097994664E+01  0.56191433747E+01 -0.70161584287E+01  0.10543203582E+02  0.51100000000E-03 0.  1.
        -12    1    3    3    0    0 -0.34882861486E+02 -0.11570605037E+02 -0.18313530439E+02  0.41061884071E+02  0.00000000000E+00 0.  1.
</event>
<event>
 7    1  0.2429906E-015  0.9000759E+02  0.7816164E-02  0.1186339E+00
        -11   -1    0    0    0    0  0.00000000000E+00  0.00000000000E+00  0.45593999997E+02  0.45594000000E+02  0.51100000000E-03 0.  1.
         11   -1    0    0    0    0 -0.00000000000E+00 -0.00000000000E+00 -0.45593999997E+02  0.45594000000E+02  0.51100000000E-03 0. -1.
    9900012    2    1    2    0    0  0.21548505382E+00 -0.79090489436E+00 -0.84935737355E+00  0.90007588077E+02  0.89999847439E+02 0.  0.
        -12    1    1    2    0    0 -0.21548505382E+00  0.79090489436E+00  0.84935737355E+00  0.11804119232E+01  0.00000000000E+00 0.  1.
         11    1    3    3    0    0 -0.26109479893E+01  0.67117163041E+01  0.12068263634E+02  0.14053724508E+02  0.51100000000E-03 0. -1.
        -11    1    3    3    0    0 -0.28209364142E+02 -0.14821538993E+02  0.13439082311E+02  0.34584030665E+02  0.51100000000E-03 0.  1.
         12    1    3    3    0    0  0.31035797185E+02  0.73189177949E+01 -0.26356703319E+02  0.41369832903E+02  0.00000000000E+00 0. -1.
</event>
<event>
 7    1  0.2429906E-015  0.9000779E+02  0.7816164E-02  0.1186339E+00
        -11   -1    0    0    0    0  0.00000000000E+00  0.00000000000E+00  0.45593999997E+02  0.45594000000E+02  0.51100000000E-03 0. -1.
         11   -1    0    0    0    0 -0.00000000000E+00 -0.00000000000E+00 -0.45593999997E+02  0.45594000000E+02  0.51100000000E-03 0.  1.
    9900012    2    1    2    0    0  0.29126373833E+00  0.10794932663E+01  0.37783933420E+00  0.90007786952E+02  0.90000048939E+02 0.  0.
        -12    1    1    2    0    0 -0.29126373833E+00 -0.10794932663E+01 -0.37783933420E+00  0.11802130484E+01  0.00000000000E+00 0.  1.
         11    1    3    3    0    0 -0.18342581656E+01 -0.82464403486E+01  0.37683637736E+01  0.92503430873E+01  0.51100000000E-03 0. -1.
        -11    1    3    3    0    0 -0.31374175106E+02 -0.55497796604E+01 -0.22897758773E+02  0.39235777996E+02  0.51100000000E-03 0.  1.
         12    1    3    3    0    0  0.33499697010E+02  0.14875713275E+02  0.19507234333E+02  0.41521665869E+02  0.00000000000E+00 0. -1.
</event>
<event>
 7    1  0.2429906E-015  0.9000775E+02  0.7816164E-02  0.1186339E+00
        -11   -1    0    0    0    0  0.00000000000E+00  0.00000000000E+00  0.45593999997E+02  0.45594000000E+02  0.51100000000E-03 0. -1.
         11   -1    0    0    0    0 -0.00000000000E+00 -0.00000000000E+00 -0.45593999997E+02  0.45594000000E+02  0.51100000000E-03 0.  1.
    9900012    2    1    2    0    0 -0.37791871139E+00  0.74658639291E-01  0.11156171525E+01  0.90007746597E+02  0.90000008052E+02 0.  0.
        -12    1    1    2    0    0  0.37791871139E+00 -0.74658639291E-01 -0.11156171525E+01  0.11802534032E+01  0.00000000000E+00 0.  1.
         11    1    3    3    0    0 -0.22103770970E+02  0.28540277380E+02  0.11983356409E+02  0.38035837773E+02  0.51100000000E-03 0. -1.
        -11    1    3    3    0    0  0.91853678836E+01  0.11568575797E+01  0.10000762731E+02  0.13628079765E+02  0.51100000000E-03 0.  1.
        -12    1    3    3    0    0  0.12540484376E+02 -0.29622476320E+02 -0.20868501987E+02  0.38343829059E+02  0.00000000000E+00 0.  1.
</event>
<event>
 7    1  0.2429906E-015  0.9000863E+02  0.7816164E-02  0.1186337E+00
        -11   -1    0    0    0    0  0.00000000000E+00  0.00000000000E+00  0.45593999997E+02  0.45594000000E+02  0.51100000000E-03 0.  1.
         11   -1    0    0    0    0 -0.00000000000E+00 -0.00000000000E+00 -0.45593999997E+02  0.45594000000E+02  0.51100000000E-03 0. -1.
    9900012    2    1    2    0    0 -0.95407549083E+00  0.59312917645E+00 -0.35895807203E+00  0.90008630185E+02  0.90000903299E+02 0.  0.
        -12    1    1    2    0    0  0.95407549083E+00 -0.59312917645E+00  0.35895807203E+00  0.11793698146E+01  0.00000000000E+00 0.  1.
         11    1    3    3    0    0  0.24365700954E+02 -0.87084061455E+01 -0.27771393757E+02  0.37957529320E+02  0.51100000000E-03 0. -1.
        -11    1    3    3    0    0 -0.10325696806E+01 -0.30917956856E+01 -0.72502709107E+01  0.79493288552E+01  0.51100000000E-03 0.  1.
        -12    1    3    3    0    0 -0.24287206765E+02  0.12393331008E+02  0.34662706596E+02  0.44101772010E+02  0.00000000000E+00 0.  1.
</event>
<event>
 7    1  0.2429906E-015  0.9000744E+02  0.7816164E-02  0.1186340E+00
        -11   -1    0    0    0    0  0.00000000000E+00  0.00000000000E+00  0.45593999997E+02  0.45594000000E+02  0.51100000000E-03 0.  1.
         11   -1    0    0    0    0 -0.00000000000E+00 -0.00000000000E+00 -0.45593999997E+02  0.45594000000E+02  0.51100000000E-03 0. -1.
    9900012    2    1    2    0    0  0.34416983378E+00  0.24883583150E+00 -0.11015172176E+01  0.90007444061E+02  0.89999701522E+02 0.  0.
        -12    1    1    2    0    0 -0.34416983378E+00 -0.24883583150E+00  0.11015172176E+01  0.11805559394E+01  0.00000000000E+00 0.  1.
         11    1    3    3    0    0  0.53572193511E+00 -0.10220160518E+02  0.22228949742E+01  0.10472819168E+02  0.51100000000E-03 0. -1.
        -11    1    3    3    0    0 -0.61558265357E+00 -0.51711170390E+01  0.36436176767E+02  0.36806444695E+02  0.51100000000E-03 0.  1.
         12    1    3    3    0    0  0.42403055224E+00  0.15640113388E+02 -0.39760588958E+02  0.42728180198E+02  0.00000000000E+00 0. -1.
</event>
<event>
 7    1  0.2429906E-015  0.9000778E+02  0.7816164E-02  0.1186339E+00
        -11   -1    0    0    0    0  0.00000000000E+00  0.00000000000E+00  0.45593999997E+02  0.45594000000E+02  0.51100000000E-03 0.  1.
         11   -1    0    0    0    0 -0.00000000000E+00 -0.00000000000E+00 -0.45593999997E+02  0.45594000000E+02  0.51100000000E-03 0. -1.
    9900012    2    1    2    0    0  0.23078473644E+00  0.80654574579E-01 -0.11546193906E+01  0.90007782778E+02  0.90000044710E+02 0.  0.
        -12    1    1    2    0    0 -0.23078473644E+00 -0.80654574579E-01  0.11546193906E+01  0.11802172224E+01  0.00000000000E+00 0.  1.
         11    1    3    3    0    0  0.18357251654E+01 -0.67739681225E+01 -0.38136065405E+02  0.38776487925E+02  0.51100000000E-03 0. -1.
        -11    1    3    3    0    0  0.63668548758E+00 -0.10565948513E+02  0.33191772357E+00  0.10590316616E+02  0.51100000000E-03 0.  1.
        -12    1    3    3    0    0 -0.22416259165E+01  0.17420571210E+02  0.36649528291E+02  0.40640978236E+02  0.00000000000E+00 0.  1.
</event>
<event>
 7    1  0.2429906E-015  0.9000786E+02  0.7816164E-02  0.1186339E+00
        -11   -1    0    0    0    0  0.00000000000E+00  0.00000000000E+00  0.45593999997E+02  0.45594000000E+02  0.51100000000E-03 0. -1.
         11   -1    0    0    0    0 -0.00000000000E+00 -0.00000000000E+00 -0.45593999997E+02  0.45594000000E+02  0.51100000000E-03 0.  1.
    9900012    2    1    2    0    0  0.96070572186E+00 -0.67637674096E+00  0.11082544412E+00  0.90007863034E+02  0.90000126026E+02 0.  0.
        -12    1    1    2    0    0 -0.96070572186E+00  0.67637674096E+00 -0.11082544412E+00  0.11801369661E+01  0.00000000000E+00 0.  1.
         11    1    3    3    0    0 -0.31746218368E+01 -0.64712414500E+01  0.14500229326E+01  0.73523980086E+01  0.51100000000E-03 0. -1.
        -11    1    3    3    0    0  0.55768127429E+01 -0.36675148756E+02  0.10478708708E+02  0.38548290664E+02  0.51100000000E-03 0.  1.
         12    1    3    3    0    0 -0.14414851842E+01  0.42470013465E+02 -0.11817906196E+02  0.44107174361E+02  0.00000000000E+00 0. -1.
</event>
<event>
 7    1  0.2429906E-015  0.9000774E+02  0.7816164E-02  0.1186339E+00
        -11   -1    0    0    0    0  0.00000000000E+00  0.00000000000E+00  0.45593999997E+02  0.45594000000E+02  0.51100000000E-03 0.  1.
         11   -1    0    0    0    0 -0.00000000000E+00 -0.00000000000E+00 -0.45593999997E+02  0.45594000000E+02  0.51100000000E-03 0. -1.
    9900012    2    1    2    0    0 -0.10668925263E+01 -0.67940971818E-02 -0.50467720129E+00  0.90007743714E+02  0.90000005131E+02 0.  0.
        -12    1    1    2    0    0  0.10668925263E+01  0.67940971818E-02  0.50467720129E+00  0.11802562857E+01  0.00000000000E+00 0.  1.
         11    1    3    3    0    0 -0.10620794520E+02 -0.31728912030E+02 -0.17128592569E+02  0.37588745902E+02  0.51100000000E-03 0. -1.
        -11    1    3    3    0    0 -0.59344481084E+01 -0.62153874531E+01  0.14095761230E+01  0.87083649815E+01  0.51100000000E-03 0.  1.
        -12    1    3    3    0    0  0.15488350103E+02  0.37937505386E+02  0.15214339245E+02  0.43710632831E+02  0.00000000000E+00 0.  1.
</event>
<event>
 7    1  0.2429906E-015  0.9000738E+02  0.7816164E-02  0.1186340E+00
        -11   -1    0    0    0    0  0.00000000000E+00  0.00000000000E+00  0.45593999997E+02  0.45594000000E+02  0.51100000000E-03 0.  1.
         11   -1    0    0    0    0 -0.00000000000E+00 -0.00000000000E+00 -0.45593999997E+02  0.45594000000E+02  0.51100000000E-03 0. -1.
    9900012    2    1    2    0    0  0.77248383829E+00  0.87697799110E+00  0.16744896887E+00  0.90007381165E+02  0.89999637795E+02 0.  0.
        -12    1    1    2    0    0 -0.77248383829E+00 -0.87697799110E+00 -0.16744896887E+00  0.11806188354E+01  0.00000000000E+00 0.  1.
         11    1    3    3    0    0 -0.86272705855E+01 -0.47921023949E+01  0.44381249597E+01  0.10820859325E+02  0.51100000000E-03 0. -1.
        -11    1    3    3    0    0 -0.14917897998E+02  0.19288579661E+02  0.27612624003E+02  0.36838159435E+02  0.51100000000E-03 0.  1.
         12    1    3    3    0    0  0.24317652422E+02 -0.13619499275E+02 -0.31883299994E+02  0.42348362404E+02  0.00000000000E+00 0. -1.
</event>
<event>
 7    1  0.2429906E-015  0.9000780E+02  0.7816164E-02  0.1186339E+00
        -11   -1    0    0    0    0  0.00000000000E+00  0.00000000000E+00  0.45593999997E+02  0.45594000000E+02  0.51100000000E-03 0.  1.
         11   -1    0    0    0    0 -0.00000000000E+00 -0.00000000000E+00 -0.45593999997E+02  0.45594000000E+02  0.51100000000E-03 0. -1.
    9900012    2    1    2    0    0  0.87371072443E+00 -0.66475630853E+00 -0.43311758658E+00  0.90007804159E+02  0.90000066374E+02 0.  0.
        -12    1    1    2    0    0 -0.87371072443E+00  0.66475630853E+00  0.43311758658E+00  0.11801958412E+01  0.00000000000E+00 0.  1.
         11    1    3    3    0    0 -0.18192906012E+01  0.99930431044E+01  0.36396876423E+01  0.10789719884E+02  0.51100000000E-03 0. -1.
        -11    1    3    3    0    0 -0.15817674535E+02  0.17391882594E+01  0.32618305655E+02  0.36292939638E+02  0.51100000000E-03 0.  1.
         12    1    3    3    0    0  0.18510675861E+02 -0.12396987672E+02 -0.36691110884E+02  0.42925144637E+02  0.00000000000E+00 0. -1.
</event>
<event>
 7    1  0.2429906E-015  0.9000840E+02  0.7816164E-02  0.1186338E+00
        -11   -1    0    0    0    0  0.00000000000E+00  0.00000000000E+00  0.45593999997E+02  0.45594000000E+02  0.51100000000E-03 0.  1.
         11   -1    0    0    0    0 -0.00000000000E+00 -0.00000000000E+00 -0.45593999997E+02  0.45594000000E+02  0.51100000000E-03 0. -1.
    9900012    2    1    2    0    0 -0.10510083208E+01  0.49763184901E+00 -0.19798263758E+00  0.90008401309E+02  0.90000671404E+02 0.  0.
        -12    1    1    2    0    0  0.10510083208E+01 -0.49763184901E+00  0.19798263758E+00  0.11795986912E+01  0.00000000000E+00 0.  1.
         11    1    3    3    0    0 -0.19881115042E+02  0.17827382587E+02 -0.24884168598E+02  0.36500632217E+02  0.51100000000E-03 0. -1.
        -11    1    3    3    0    0 -0.10425492382E+02  0.11846991518E+01 -0.79071010478E+00  0.10522339389E+02  0.51100000000E-03 0.  1.
        -12    1    3    3    0    0  0.29255599103E+02 -0.18514449890E+02  0.25476896065E+02  0.42985429702E+02  0.00000000000E+00 0.  1.
</event>
<event>
 7    1  0.2429906E-015  0.9000772E+02  0.7816164E-02  0.1186339E+00
        -11   -1    0    0    0    0  0.00000000000E+00  0.00000000000E+00  0.45593999997E+02  0.45594000000E+02  0.51100000000E-03 0.  1.
         11   -1    0    0    0    0 -0.00000000000E+00 -0.00000000000E+00 -0.45593999997E+02  0.45594000000E+02  0.51100000000E-03 0. -1.
    9900012    2    1    2    0    0  0.40038788926E+00  0.40398952127E+00 -0.10341921019E+01  0.90007715586E+02  0.89999976631E+02 0.  0.
        -12    1    1    2    0    0 -0.40038788926E+00 -0.40398952127E+00  0.10341921019E+01  0.11802844143E+01  0.00000000000E+00 0.  1.
         11    1    3    3    0    0  0.32689034919E+02  0.13036119056E+02 -0.15067355903E+02  0.38282353874E+02  0.51100000000E-03 0. -1.
        -11    1    3    3    0    0 -0.59959002946E+01 -0.75476411762E+01 -0.11306096655E+02  0.14857507513E+02  0.51100000000E-03 0.  1.
        -12    1    3    3    0    0 -0.26292746735E+02 -0.50844883583E+01  0.25339260456E+02  0.36867854199E+02  0.00000000000E+00 0.  1.
</event>
<event>
 7    1  0.2429906E-015  0.9000769E+02  0.7816164E-02  0.1186339E+00
        -11   -1    0    0    0    0  0.00000000000E+00  0.00000000000E+00  0.45593999997E+02  0.45594000000E+02  0.51100000000E-03 0. -1.
         11   -1    0    0    0    0 -0.00000000000E+00 -0.00000000000E+00 -0.45593999997E+02  0.45594000000E+02  0.51100000000E-03 0.  1.
    9900012    2    1    2    0    0  0.13347410934E+00  0.51826227037E+00  0.10520028008E+01  0.90007694526E+02  0.89999955294E+02 0.  0.
        -12    1    1    2    0    0 -0.13347410934E+00 -0.51826227037E+00 -0.10520028008E+01  0.11803054739E+01  0.00000000000E+00 0.  1.
         11    1    3    3    0    0  0.63368164996E+01  0.21167419156E+01 -0.54792186100E+01  0.86404673788E+01  0.51100000000E-03 0. -1.
        -11    1    3    3    0    0  0.34314514731E+02  0.20308347027E+01 -0.12340980506E+02  0.36522732797E+02  0.51100000000E-03 0.  1.
         12    1    3    3    0    0 -0.40517857122E+02 -0.36293143479E+01  0.18872201917E+02  0.44844494350E+02  0.00000000000E+00 0. -1.
</event>
<event>
 7    1  0.2429906E-015  0.9000768E+02  0.7816164E-02  0.1186339E+00
        -11   -1    0    0    0    0  0.00000000000E+00  0.00000000000E+00  0.45593999997E+02  0.45594000000E+02  0.51100000000E-03 0.  1.
         11   -1    0    0    0    0 -0.00000000000E+00 -0.00000000000E+00 -0.45593999997E+02  0.45594000000E+02  0.51100000000E-03 0. -1.
    9900012    2    1    2    0    0  0.52242433951E+00 -0.15001888422E+00 -0.10477179018E+01  0.90007684086E+02  0.89999944715E+02 0.  0.
        -12    1    1    2    0    0 -0.52242433951E+00  0.15001888422E+00  0.10477179018E+01  0.11803159145E+01  0.00000000000E+00 0.  1.
         11    1    3    3    0    0 -0.91646514733E+01 -0.52363619783E+00 -0.25563693136E+01  0.95289063288E+01  0.51100000000E-03 0. -1.
        -11    1    3    3    0    0  0.50574295319E+01 -0.44761750008E+00  0.40695428248E+02  0.41010923367E+02  0.51100000000E-03 0.  1.
         12    1    3    3    0    0  0.46296462809E+01  0.82123481370E+00 -0.39186776836E+02  0.39467854389E+02  0.00000000000E+00 0. -1.
</event>
<event>
 7    1  0.2429906E-015  0.9000783E+02  0.7816164E-02  0.1186339E+00
        -11   -1    0    0    0    0  0.00000000000E+00  0.00000000000E+00  0.45593999997E+02  0.45594000000E+02  0.51100000000E-03 0. -1.
         11   -1    0    0    0    0 -0.00000000000E+00 -0.00000000000E+00 -0.45593999997E+02  0.45594000000E+02  0.51100000000E-03 0.  1.
    9900012    2    1    2    0    0 -0.87203303463E+00  0.58915731876E-01 -0.79301788351E+00  0.90007834740E+02  0.90000097359E+02 0.  0.
        -12    1    1    2    0    0  0.87203303463E+00 -0.58915731876E-01  0.79301788351E+00  0.11801652598E+01  0.00000000000E+00 0.  1.
         11    1    3    3    0    0 -0.25763871512E+02  0.15222484481E+02  0.26264758212E+02  0.39816311146E+02  0.51100000000E-03 0. -1.
        -11    1    3    3    0    0  0.14562917368E+01  0.82696752903E+01 -0.19685769914E+01  0.86245933621E+01  0.51100000000E-03 0.  1.
        -12    1    3    3    0    0  0.23435546740E+02 -0.23433244040E+02 -0.25089199104E+02  0.41566930232E+02  0.00000000000E+00 0.  1.
</event>
<event>
 7    1  0.2429906E-015  0.9000771E+02  0.7816164E-02  0.1186339E+00
        -11   -1    0    0    0    0  0.00000000000E+00  0.00000000000E+00  0.45593999997E+02  0.45594000000E+02  0.51100000000E-03 0.  1.
         11   -1    0    0    0    0 -0.00000000000E+00 -0.00000000000E+00 -0.45593999997E+02  0.45594000000E+02  0.51100000000E-03 0. -1.
    9900012    2    1    2    0    0  0.65914623469E+00  0.66974010583E+00 -0.71418500426E+00  0.90007709447E+02  0.89999970412E+02 0.  0.
        -12    1    1    2    0    0 -0.65914623469E+00 -0.66974010583E+00  0.71418500426E+00  0.11802905525E+01  0.00000000000E+00 0.  1.
         11    1    3    3    0    0  0.21720174835E+02 -0.10222638763E+02 -0.29820162145E+02  0.38281985434E+02  0.51100000000E-03 0. -1.
        -11    1    3    3    0    0 -0.25645039899E+01 -0.12041939894E+02  0.37964056406E+01  0.12884009205E+02  0.51100000000E-03 0.  1.
        -12    1    3    3    0    0 -0.18496524610E+02  0.22934318763E+02  0.25309571500E+02  0.38841714809E+02  0.00000000000E+00 0.  1.
</event>
<event>
 7    1  0.2429906E-015  0.9000773E+02  0.7816164E-02  0.1186339E+00
        -11   -1    0    0    0    0  0.00000000000E+00  0.00000000000E+00  0.45593999997E+02  0.45594000000E+02  0.51100000000E-03 0. -1.
         11   -1    0    0    0    0 -0.00000000000E+00 -0.00000000000E+00 -0.45593999997E+02  0.45594000000E+02  0.51100000000E-03 0.  1.
    9900012    2    1    2    0    0 -0.21753415365E+00  0.12607183886E+00  0.11531814524E+01  0.90007727710E+02  0.89999988916E+02 0.  0.
        -12    1    1    2    0    0  0.21753415365E+00 -0.12607183886E+00 -0.11531814524E+01  0.11802722900E+01  0.00000000000E+00 0.  1.
         11    1    3    3    0    0  0.37343168443E+02  0.77396464528E+01 -0.73952768084E+01  0.38847193926E+02  0.51100000000E-03 0. -1.
        -11    1    3    3    0    0 -0.52942516071E+00  0.31864608226E+01 -0.84207168058E+01  0.90189963609E+01  0.51100000000E-03 0.  1.
        -12    1    3    3    0    0 -0.37031277436E+02 -0.10800035437E+02  0.16969175067E+02  0.42141537423E+02  0.00000000000E+00 0.  1.
</event>
<event>
 7    1  0.2429906E-015  0.9000774E+02  0.7816164E-02  0.1186339E+00
        -11   -1    0    0    0    0  0.00000000000E+00  0.00000000000E+00  0.45593999997E+02  0.45594000000E+02  0.51100000000E-03 0.  1.
         11   -1    0    0    0    0 -0.00000000000E+00 -0.00000000000E+00 -0.45593999997E+02  0.45594000000E+02  0.51100000000E-03 0. -1.
    9900012    2    1    2    0    0 -0.92682385625E+00 -0.43046529771E+00 -0.59051798240E+00  0.90007739723E+02  0.90000001088E+02 0.  0.
        -12    1    1    2    0    0  0.92682385625E+00  0.43046529771E+00  0.59051798240E+00  0.11802602766E+01  0.00000000000E+00 0.  1.
         11    1    3    3    0    0 -0.60436969401E+01  0.67910719587E+01 -0.59643655973E+01  0.10872837178E+02  0.51100000000E-03 0. -1.
        -11    1    3    3    0    0  0.23427245786E+02  0.19170649086E+02  0.26876051081E+02  0.40480510786E+02  0.51100000000E-03 0.  1.
         12    1    3    3    0    0 -0.18310372702E+02 -0.26392186342E+02 -0.21502203466E+02  0.38654391760E+02  0.00000000000E+00 0. -1.
</event>
<event>
 7    1  0.2429906E-015  0.9000772E+02  0.7816164E-02  0.1186339E+00
        -11   -1    0    0    0    0  0.00000000000E+00  0.00000000000E+00  0.45593999997E+02  0.45594000000E+02  0.51100000000E-03 0. -1.
         11   -1    0    0    0    0 -0.00000000000E+00 -0.00000000000E+00 -0.45593999997E+02  0.45594000000E+02  0.51100000000E-03 0.  1.
    9900012    2    1    2    0    0  0.96552136349E+00 -0.26144038227E+00  0.62648597237E+00  0.90007717301E+02  0.89999978369E+02 0.  0.
        -12    1    1    2    0    0 -0.96552136349E+00  0.26144038227E+00 -0.62648597237E+00  0.11802826994E+01  0.00000000000E+00 0.  1.
         11    1    3    3    0    0  0.22001193494E+02  0.15225721541E+02  0.29456348687E+02  0.39793863721E+02  0.51100000000E-03 0. -1.
        -11    1    3    3    0    0 -0.83840253493E+00 -0.12639978669E+02  0.24196042864E+01  0.12896761792E+02  0.51100000000E-03 0.  1.
        -12    1    3    3    0    0 -0.20197269596E+02 -0.28471832542E+01 -0.31249467001E+02  0.37317091787E+02  0.00000000000E+00 0.  1.
</event>
<event>
 7    1  0.2617084E-015  0.9000775E+02  0.7816164E-02  0.1186339E+00
        -11   -1    0    0    0    0  0.00000000000E+00  0.00000000000E+00  0.45593999997E+02  0.45594000000E+02  0.51100000000E-03 0.  1.
         11   -1    0    0    0    0 -0.00000000000E+00 -0.00000000000E+00 -0.45593999997E+02  0.45594000000E+02  0.51100000000E-03 0. -1.
    9900012    2    1    2    0    0  0.10195300159E+01 -0.57611552911E+00 -0.14711863910E+00  0.90007748141E+02  0.90000009617E+02 0.  0.
        -12    1    1    2    0    0 -0.10195300159E+01  0.57611552911E+00  0.14711863910E+00  0.11802518588E+01  0.00000000000E+00 0.  1.
         11    1    3    3    0    0  0.30592604400E+02 -0.72929035083E+01 -0.29226810820E+02  0.42933673923E+02  0.51100000000E-03 0. -1.
        -11    1    3    3    0    0 -0.62698297053E+00  0.80125205973E+01  0.59674064803E+01  0.10010171543E+02  0.51100000000E-03 0.  1.
        -12    1    3    3    0    0 -0.28946091414E+02 -0.12957326181E+01  0.23112285700E+02  0.37063902675E+02  0.00000000000E+00 0.  1.
</event>
<event>
 7    1  0.2429906E-015  0.9000780E+02  0.7816164E-02  0.1186339E+00
        -11   -1    0    0    0    0  0.00000000000E+00  0.00000000000E+00  0.45593999997E+02  0.45594000000E+02  0.51100000000E-03 0. -1.
         11   -1    0    0    0    0 -0.00000000000E+00 -0.00000000000E+00 -0.45593999997E+02  0.45594000000E+02  0.51100000000E-03 0.  1.
    9900012    2    1    2    0    0 -0.10360712723E+01 -0.56372549128E+00  0.40659500796E-01  0.90007795227E+02  0.90000057324E+02 0.  0.
        -12    1    1    2    0    0  0.10360712723E+01  0.56372549128E+00 -0.40659500796E-01  0.11802047729E+01  0.00000000000E+00 0.  1.
         11    1    3    3    0    0  0.44780764012E+01  0.57041463165E+01  0.58315489531E+01  0.93057733106E+01  0.51100000000E-03 0. -1.
        -11    1    3    3    0    0 -0.30088327966E+02 -0.29247175674E+02  0.10597822084E+02  0.43278384880E+02  0.51100000000E-03 0.  1.
         12    1    3    3    0    0  0.24574180292E+02  0.22979303866E+02 -0.16388711536E+02  0.37423637036E+02  0.00000000000E+00 0. -1.
</event>
<event>
 7    1  0.2429906E-015  0.9000778E+02  0.7816164E-02  0.1186339E+00
        -11   -1    0    0    0    0  0.00000000000E+00  0.00000000000E+00  0.45593999997E+02  0.45594000000E+02  0.51100000000E-03 0.  1.
         11   -1    0    0    0    0 -0.00000000000E+00 -0.00000000000E+00 -0.45593999997E+02  0.45594000000E+02  0.51100000000E-03 0. -1.
    9900012    2    1    2    0    0 -0.65276509749E+00  0.89188380862E+00 -0.41394579440E+00  0.90007783867E+02  0.90000045814E+02 0.  0.
        -12    1    1    2    0    0  0.65276509749E+00 -0.89188380862E+00  0.41394579440E+00  0.11802161333E+01  0.00000000000E+00 0.  1.
         11    1    3    3    0    0  0.75951715914E+01  0.50369215016E+01 -0.43812781605E+01  0.10112013068E+02  0.51100000000E-03 0. -1.
        -11    1    3    3    0    0 -0.16730383603E+02  0.28286899120E+02  0.24134578923E+02  0.40774162130E+02  0.51100000000E-03 0.  1.
         12    1    3    3    0    0  0.84824469145E+01 -0.32431936813E+02 -0.20167246557E+02  0.39121608668E+02  0.00000000000E+00 0. -1.
</event>
<event>
 7    1  0.2429906E-015  0.9000773E+02  0.7816164E-02  0.1186339E+00
        -11   -1    0    0    0    0  0.00000000000E+00  0.00000000000E+00  0.45593999997E+02  0.45594000000E+02  0.51100000000E-03 0. -1.
         11   -1    0    0    0    0 -0.00000000000E+00 -0.00000000000E+00 -0.45593999997E+02  0.45594000000E+02  0.51100000000E-03 0.  1.
    9900012    2    1    2    0    0 -0.93012115611E+00  0.63289916542E+00  0.35687537748E+00  0.90007725984E+02  0.89999987167E+02 0.  0.
        -12    1    1    2    0    0  0.93012115611E+00 -0.63289916542E+00 -0.35687537748E+00  0.11802740164E+01  0.00000000000E+00 0.  1.
         11    1    3    3    0    0 -0.33800773836E+02  0.52026722411E+01  0.15940559932E+02  0.37731439961E+02  0.51100000000E-03 0. -1.
        -11    1    3    3    0    0 -0.42115570793E+01 -0.11231351479E+02 -0.59431225752E+01  0.13386604323E+02  0.51100000000E-03 0.  1.
        -12    1    3    3    0    0  0.37082209759E+02  0.66615784036E+01 -0.96405619797E+01  0.38889681700E+02  0.00000000000E+00 0.  1.
</event>
<event>
 7    1  0.2580497E-015  0.9000787E+02  0.7816164E-02  0.1186339E+00
        -11   -1    0    0    0    0  0.00000000000E+00  0.00000000000E+00  0.45593999997E+02  0.45594000000E+02  0.51100000000E-03 0.  1.
         11   -1    0    0    0    0 -0.00000000000E+00 -0.00000000000E+00 -0.45593999997E+02  0.45594000000E+02  0.51100000000E-03 0. -1.
    9900012    2    1    2    0    0 -0.92017071601E+00 -0.51094658704E+00 -0.53377494763E+00  0.90007874474E+02  0.90000137617E+02 0.  0.
        -12    1    1    2    0    0  0.92017071601E+00  0.51094658704E+00  0.53377494763E+00  0.11801255256E+01  0.00000000000E+00 0.  1.
         11    1    3    3    0    0 -0.22427573185E+02 -0.10845559480E+02 -0.29698218147E+02  0.38763466831E+02  0.51100000000E-03 0. -1.
        -11    1    3    3    0    0 -0.86751907862E+01  0.47491698217E+01  0.16581299211E+01  0.10028107711E+02  0.51100000000E-03 0.  1.
        -12    1    3    3    0    0  0.30182593255E+02  0.55854430714E+01  0.27506313279E+02  0.41216299932E+02  0.00000000000E+00 0.  1.
</event>
<event>
 7    1  0.2429906E-015  0.9000725E+02  0.7816164E-02  0.1186340E+00
        -11   -1    0    0    0    0  0.00000000000E+00  0.00000000000E+00  0.45593999997E+02  0.45594000000E+02  0.51100000000E-03 0.  1.
         11   -1    0    0    0    0 -0.00000000000E+00 -0.00000000000E+00 -0.45593999997E+02  0.45594000000E+02  0.51100000000E-03 0. -1.
    9900012    2    1    2    0    0  0.52305480480E+00  0.69540464768E+00 -0.79811553410E+00  0.90007253474E+02  0.89999508419E+02 0.  0.
        -12    1    1    2    0    0 -0.52305480480E+00 -0.69540464768E+00  0.79811553410E+00  0.11807465260E+01  0.00000000000E+00 0.  1.
         11    1    3    3    0    0 -0.20379908292E+02 -0.25640500857E+02 -0.20447751901E+02  0.38611999485E+02  0.51100000000E-03 0. -1.
        -11    1    3    3    0    0 -0.15557955633E+00  0.46903446493E+01 -0.87570380592E+01  0.99352530797E+01  0.51100000000E-03 0.  1.
        -12    1    3    3    0    0  0.21058542653E+02  0.21645560856E+02  0.28406674426E+02  0.41460000909E+02  0.00000000000E+00 0.  1.
</event>
<event>
 7    1  0.2429906E-015  0.9000769E+02  0.7816164E-02  0.1186339E+00
        -11   -1    0    0    0    0  0.00000000000E+00  0.00000000000E+00  0.45593999997E+02  0.45594000000E+02  0.51100000000E-03 0. -1.
         11   -1    0    0    0    0 -0.00000000000E+00 -0.00000000000E+00 -0.45593999997E+02  0.45594000000E+02  0.51100000000E-03 0.  1.
    9900012    2    1    2    0    0 -0.28641136526E+00  0.10582992757E+01  0.43714834256E+00  0.90007691777E+02  0.89999952509E+02 0.  0.
        -12    1    1    2    0    0  0.28641136526E+00 -0.10582992757E+01 -0.43714834256E+00  0.11803082226E+01  0.00000000000E+00 0.  1.
         11    1    3    3    0    0 -0.36458951895E+01  0.38615265897E+02  0.64928472369E+01  0.39326687854E+02  0.51100000000E-03 0. -1.
        -11    1    3    3    0    0 -0.52880187122E+01 -0.51128441417E-01  0.80976073537E+01  0.96714528967E+01  0.51100000000E-03 0.  1.
        -12    1    3    3    0    0  0.86475025364E+01 -0.37505838180E+02 -0.14153306248E+02  0.41009551027E+02  0.00000000000E+00 0.  1.
</event>
<event>
 7    1  0.2429906E-015  0.9000797E+02  0.7816164E-02  0.1186339E+00
        -11   -1    0    0    0    0  0.00000000000E+00  0.00000000000E+00  0.45593999997E+02  0.45594000000E+02  0.51100000000E-03 0. -1.
         11   -1    0    0    0    0 -0.00000000000E+00 -0.00000000000E+00 -0.45593999997E+02  0.45594000000E+02  0.51100000000E-03 0.  1.
    9900012    2    1    2    0    0 -0.54593114112E+00 -0.76366842273E+00  0.71501599620E+00  0.90007966888E+02  0.90000231251E+02 0.  0.
        -12    1    1    2    0    0  0.54593114112E+00  0.76366842273E+00 -0.71501599620E+00  0.11800331120E+01  0.00000000000E+00 0.  1.
         11    1    3    3    0    0 -0.86280831992E+01  0.55682103243E+01  0.32866439339E+02  0.34433292334E+02  0.51100000000E-03 0. -1.
        -11    1    3    3    0    0 -0.13684051457E+02 -0.60263769505E+01  0.19898419788E+01  0.15084096088E+02  0.51100000000E-03 0.  1.
        -12    1    3    3    0    0  0.21766203515E+02 -0.30550179648E+00 -0.34141265321E+02  0.40490578466E+02  0.00000000000E+00 0.  1.
</event>
<event>
 7    1  0.2429906E-015  0.9000774E+02  0.7816164E-02  0.1186339E+00
        -11   -1    0    0    0    0  0.00000000000E+00  0.00000000000E+00  0.45593999997E+02  0.45594000000E+02  0.51100000000E-03 0.  1.
         11   -1    0    0    0    0 -0.00000000000E+00 -0.00000000000E+00 -0.45593999997E+02  0.45594000000E+02  0.51100000000E-03 0. -1.
    9900012    2    1    2    0    0 -0.72040686758E+00 -0.15010498195E-01 -0.93477021819E+00  0.90007742939E+02  0.90000004346E+02 0.  0.
        -12    1    1    2    0    0  0.72040686758E+00  0.15010498195E-01  0.93477021819E+00  0.11802570613E+01  0.00000000000E+00 0.  1.
         11    1    3    3    0    0  0.24566611736E+02 -0.22484316336E+02 -0.19172290216E+02  0.38427068659E+02  0.51100000000E-03 0. -1.
        -11    1    3    3    0    0  0.82223029172E+01  0.21928941239E+01  0.33398014928E+00  0.85162546288E+01  0.51100000000E-03 0.  1.
        -12    1    3    3    0    0 -0.33509321521E+02  0.20276411714E+02  0.17903539849E+02  0.43064419651E+02  0.00000000000E+00 0.  1.
</event>
<event>
 7    1  0.2429906E-015  0.9000768E+02  0.7816164E-02  0.1186339E+00
        -11   -1    0    0    0    0  0.00000000000E+00  0.00000000000E+00  0.45593999997E+02  0.45594000000E+02  0.51100000000E-03 0. -1.
         11   -1    0    0    0    0 -0.00000000000E+00 -0.00000000000E+00 -0.45593999997E+02  0.45594000000E+02  0.51100000000E-03 0.  1.
    9900012    2    1    2    0    0 -0.50071073372E+00 -0.35452446396E+00  0.10083488291E+01  0.90007675386E+02  0.89999935901E+02 0.  0.
        -12    1    1    2    0    0  0.50071073372E+00  0.35452446396E+00 -0.10083488291E+01  0.11803246144E+01  0.00000000000E+00 0.  1.
         11    1    3    3    0    0  0.16666163220E+01 -0.17881785737E+01  0.13632934640E+02  0.13850346557E+02  0.51100000000E-03 0. -1.
        -11    1    3    3    0    0  0.14456124617E+02  0.34807068903E+02 -0.41101866870E+01  0.37913127270E+02  0.51100000000E-03 0.  1.
         12    1    3    3    0    0 -0.16623451672E+02 -0.33373414793E+02 -0.85143991241E+01  0.38244201559E+02  0.00000000000E+00 0. -1.
</event>
<event>
 7    1  0.2429906E-015  0.9000776E+02  0.7816164E-02  0.1186339E+00
        -11   -1    0    0    0    0  0.00000000000E+00  0.00000000000E+00  0.45593999997E+02  0.45594000000E+02  0.51100000000E-03 0.  1.
         11   -1    0    0    0    0 -0.00000000000E+00 -0.00000000000E+00 -0.45593999997E+02  0.45594000000E+02  0.51100000000E-03 0. -1.
    9900012    2    1    2    0    0  0.16165947366E+00 -0.54806005600E+00 -0.10327007010E+01  0.90007756657E+02  0.90000018245E+02 0.  0.
        -12    1    1    2    0    0 -0.16165947366E+00  0.54806005600E+00  0.10327007010E+01  0.11802433429E+01  0.00000000000E+00 0.  1.
         11    1    3    3    0    0  0.33005326289E+02  0.11162211582E+02  0.95542036034E+00  0.34854832652E+02  0.51100000000E-03 0. -1.
        -11    1    3    3    0    0 -0.14780286923E+01 -0.18629481382E+02 -0.11137923318E+02  0.21755355237E+02  0.51100000000E-03 0.  1.
        -12    1    3    3    0    0 -0.31365638123E+02  0.69192097433E+01  0.91498022569E+01  0.33397568769E+02  0.00000000000E+00 0.  1.
</event>
<event>
 7    1  0.2429906E-015  0.9000777E+02  0.7816164E-02  0.1186339E+00
        -11   -1    0    0    0    0  0.00000000000E+00  0.00000000000E+00  0.45593999997E+02  0.45594000000E+02  0.51100000000E-03 0.  1.
         11   -1    0    0    0    0 -0.00000000000E+00 -0.00000000000E+00 -0.45593999997E+02  0.45594000000E+02  0.51100000000E-03 0. -1.
    9900012    2    1    2    0    0  0.92331255296E+00 -0.27758520360E+00 -0.68072302710E+00  0.90007769745E+02  0.90000031505E+02 0.  0.
        -12    1    1    2    0    0 -0.92331255296E+00  0.27758520360E+00  0.68072302710E+00  0.11802302552E+01  0.00000000000E+00 0.  1.
         11    1    3    3    0    0  0.72896102231E+00 -0.95333011711E+01  0.89662508542E+00  0.96030803494E+01  0.51100000000E-03 0. -1.
        -11    1    3    3    0    0  0.50756152092E+01 -0.35152227579E+02 -0.34937570758E+01  0.35688195700E+02  0.51100000000E-03 0.  1.
         12    1    3    3    0    0 -0.48812636785E+01  0.44407943547E+02  0.19164089633E+01  0.44716493696E+02  0.00000000000E+00 0. -1.
</event>
<event>
 7    1  0.2429906E-015  0.9000775E+02  0.7816164E-02  0.1186339E+00
        -11   -1    0    0    0    0  0.00000000000E+00  0.00000000000E+00  0.45593999997E+02  0.45594000000E+02  0.51100000000E-03 0. -1.
         11   -1    0    0    0    0 -0.00000000000E+00 -0.00000000000E+00 -0.45593999997E+02  0.45594000000E+02  0.51100000000E-03 0.  1.
    9900012    2    1    2    0    0 -0.97633003127E+00  0.55072053554E+00  0.36944263452E+00  0.90007745240E+02  0.90000006677E+02 0.  0.
        -12    1    1    2    0    0  0.97633003127E+00 -0.55072053554E+00 -0.36944263452E+00  0.11802547600E+01  0.00000000000E+00 0.  1.
         11    1    3    3    0    0 -0.32977020421E+01  0.85161389224E+00  0.11258865832E+02  0.11762743942E+02  0.51100000000E-03 0. -1.
        -11    1    3    3    0    0 -0.91988238678E+01  0.27492627245E+02  0.19925648082E+02  0.35178038108E+02  0.51100000000E-03 0.  1.
         12    1    3    3    0    0  0.11520195879E+02 -0.27793520601E+02 -0.30815071279E+02  0.43066963190E+02  0.00000000000E+00 0. -1.
</event>
<event>
 7    1  0.2429906E-015  0.9000785E+02  0.7816164E-02  0.1186339E+00
        -11   -1    0    0    0    0  0.00000000000E+00  0.00000000000E+00  0.45593999997E+02  0.45594000000E+02  0.51100000000E-03 0.  1.
         11   -1    0    0    0    0 -0.00000000000E+00 -0.00000000000E+00 -0.45593999997E+02  0.45594000000E+02  0.51100000000E-03 0. -1.
    9900012    2    1    2    0    0 -0.11860967917E+00  0.44877032027E+00 -0.10850308960E+01  0.90007849543E+02  0.90000112357E+02 0.  0.
        -12    1    1    2    0    0  0.11860967917E+00 -0.44877032027E+00  0.10850308960E+01  0.11801504572E+01  0.00000000000E+00 0.  1.
         11    1    3    3    0    0 -0.26551219503E+01 -0.30889769159E+02  0.27731870435E+02  0.41596684355E+02  0.51100000000E-03 0. -1.
        -11    1    3    3    0    0  0.66523266623E+01  0.58474656623E+01  0.10624960013E+01  0.89204934116E+01  0.51100000000E-03 0.  1.
        -12    1    3    3    0    0 -0.41158143912E+01  0.25491073817E+02 -0.29879397332E+02  0.39490671776E+02  0.00000000000E+00 0.  1.
</event>
<event>
 7    1  0.2429906E-015  0.9000772E+02  0.7816164E-02  0.1186339E+00
        -11   -1    0    0    0    0  0.00000000000E+00  0.00000000000E+00  0.45593999997E+02  0.45594000000E+02  0.51100000000E-03 0.  1.
         11   -1    0    0    0    0 -0.00000000000E+00 -0.00000000000E+00 -0.45593999997E+02  0.45594000000E+02  0.51100000000E-03 0. -1.
    9900012    2    1    2    0    0  0.47133241883E+00  0.40239301462E+00 -0.10044835134E+01  0.90007719730E+02  0.89999980830E+02 0.  0.
        -12    1    1    2    0    0 -0.47133241883E+00 -0.40239301462E+00  0.10044835134E+01  0.11802802701E+01  0.00000000000E+00 0.  1.
         11    1    3    3    0    0 -0.26443752615E+01  0.81732225235E+01  0.83052508098E+01  0.11948701947E+02  0.51100000000E-03 0. -1.
        -11    1    3    3    0    0  0.29746611403E+02 -0.90040740139E+01  0.21140157612E+02  0.37587770657E+02  0.51100000000E-03 0.  1.
         12    1    3    3    0    0 -0.26630903723E+02  0.12332445050E+01 -0.30449891935E+02  0.40471247126E+02  0.00000000000E+00 0. -1.
</event>
<event>
 7    1  0.2429906E-015  0.9000751E+02  0.7816164E-02  0.1186339E+00
        -11   -1    0    0    0    0  0.00000000000E+00  0.00000000000E+00  0.45593999997E+02  0.45594000000E+02  0.51100000000E-03 0. -1.
         11   -1    0    0    0    0 -0.00000000000E+00 -0.00000000000E+00 -0.45593999997E+02  0.45594000000E+02  0.51100000000E-03 0.  1.
    9900012    2    1    2    0    0  0.14666696865E+00 -0.15641372657E+00  0.11608482851E+01  0.90007514848E+02  0.89999773243E+02 0.  0.
        -12    1    1    2    0    0 -0.14666696865E+00  0.15641372657E+00 -0.11608482851E+01  0.11804851522E+01  0.00000000000E+00 0.  1.
         11    1    3    3    0    0  0.23634659056E+01 -0.10279219576E+02  0.31548518960E+01  0.11009151508E+02  0.51100000000E-03 0. -1.
        -11    1    3    3    0    0  0.49851045534E+01 -0.31504994743E+02 -0.14358777491E+02  0.34979857810E+02  0.51100000000E-03 0.  1.
         12    1    3    3    0    0 -0.72019034904E+01  0.41627800592E+02  0.12364773880E+02  0.44018505530E+02  0.00000000000E+00 0. -1.
</event>
<event>
 7    1  0.2429906E-015  0.9000773E+02  0.7816164E-02  0.1186339E+00
        -11   -1    0    0    0    0  0.00000000000E+00  0.00000000000E+00  0.45593999997E+02  0.45594000000E+02  0.51100000000E-03 0.  1.
         11   -1    0    0    0    0 -0.00000000000E+00 -0.00000000000E+00 -0.45593999997E+02  0.45594000000E+02  0.51100000000E-03 0. -1.
    9900012    2    1    2    0    0 -0.25211344064E+00  0.79478819219E+00 -0.83533048522E+00  0.90007734574E+02  0.89999995870E+02 0.  0.
        -12    1    1    2    0    0  0.25211344064E+00 -0.79478819219E+00  0.83533048522E+00  0.11802654265E+01  0.00000000000E+00 0.  1.
         11    1    3    3    0    0 -0.92572619441E+01 -0.26526462436E+01  0.22882807273E+01  0.98979624036E+01  0.51100000000E-03 0. -1.
        -11    1    3    3    0    0 -0.56437086175E+01 -0.32493733945E+02  0.16210619778E+02  0.36748855580E+02  0.51100000000E-03 0.  1.
         12    1    3    3    0    0  0.14648857121E+02  0.35941168380E+02 -0.19334230990E+02  0.43360916590E+02  0.00000000000E+00 0. -1.
</event>
<event>
 7    1  0.2429906E-015  0.9000772E+02  0.7816164E-02  0.1186339E+00
        -11   -1    0    0    0    0  0.00000000000E+00  0.00000000000E+00  0.45593999997E+02  0.45594000000E+02  0.51100000000E-03 0.  1.
         11   -1    0    0    0    0 -0.00000000000E+00 -0.00000000000E+00 -0.45593999997E+02  0.45594000000E+02  0.51100000000E-03 0. -1.
    9900012    2    1    2    0    0 -0.81270591988E+00 -0.85441919720E+00 -0.50388257941E-01  0.90007719502E+02  0.89999980600E+02 0.  0.
        -12    1    1    2    0    0  0.81270591988E+00  0.85441919720E+00  0.50388257941E-01  0.11802804977E+01  0.00000000000E+00 0.  1.
         11    1    3    3    0    0  0.19419761834E+02 -0.10468322937E+02 -0.30249964875E+02  0.37440263220E+02  0.51100000000E-03 0. -1.
        -11    1    3    3    0    0 -0.45695581702E+01  0.12019566729E+00 -0.85567882220E+01  0.97012336229E+01  0.51100000000E-03 0.  1.
        -12    1    3    3    0    0 -0.15662909583E+02  0.94937080729E+01  0.38756364839E+02  0.42866222660E+02  0.00000000000E+00 0.  1.
</event>
<event>
 7    1  0.2429906E-015  0.9000775E+02  0.7816164E-02  0.1186339E+00
        -11   -1    0    0    0    0  0.00000000000E+00  0.00000000000E+00  0.45593999997E+02  0.45594000000E+02  0.51100000000E-03 0. -1.
         11   -1    0    0    0    0 -0.00000000000E+00 -0.00000000000E+00 -0.45593999997E+02  0.45594000000E+02  0.51100000000E-03 0.  1.
    9900012    2    1    2    0    0  0.11189131792E+01  0.32847668369E+00 -0.18198668634E+00  0.90007753082E+02  0.90000014622E+02 0.  0.
        -12    1    1    2    0    0 -0.11189131792E+01 -0.32847668369E+00  0.18198668634E+00  0.11802469183E+01  0.00000000000E+00 0.  1.
         11    1    3    3    0    0 -0.13935458701E+02  0.12106476245E+02  0.33068197182E+02  0.37871749912E+02  0.51100000000E-03 0. -1.
        -11    1    3    3    0    0  0.42760081751E+01  0.12402412488E+01  0.71049128804E+01  0.83846426022E+01  0.51100000000E-03 0.  1.
        -12    1    3    3    0    0  0.10778363706E+02 -0.13018240810E+02 -0.40355096748E+02  0.43751360568E+02  0.00000000000E+00 0.  1.
</event>
<event>
 7    1  0.2429906E-015  0.9000771E+02  0.7816164E-02  0.1186339E+00
        -11   -1    0    0    0    0  0.00000000000E+00  0.00000000000E+00  0.45593999997E+02  0.45594000000E+02  0.51100000000E-03 0.  1.
         11   -1    0    0    0    0 -0.00000000000E+00 -0.00000000000E+00 -0.45593999997E+02  0.45594000000E+02  0.51100000000E-03 0. -1.
    9900012    2    1    2    0    0 -0.10967460864E+01 -0.42494273782E+00 -0.98280624702E-01  0.90007708769E+02  0.89999969725E+02 0.  0.
        -12    1    1    2    0    0  0.10967460864E+01  0.42494273782E+00  0.98280624702E-01  0.11802912308E+01  0.00000000000E+00 0.  1.
         11    1    3    3    0    0 -0.29871808381E+02 -0.19975115711E+02 -0.16190594556E+02  0.39414027147E+02  0.51100000000E-03 0. -1.
        -11    1    3    3    0    0  0.30185668559E+01 -0.25116609308E+01 -0.80553954004E+01  0.89615613491E+01  0.51100000000E-03 0.  1.
        -12    1    3    3    0    0  0.25756495439E+02  0.22061833903E+02  0.24147709332E+02  0.41632120273E+02  0.00000000000E+00 0.  1.
</event>
<event>
 7    1  0.2429906E-015  0.9000773E+02  0.7816164E-02  0.1186339E+00
        -11   -1    0    0    0    0  0.00000000000E+00  0.00000000000E+00  0.45593999997E+02  0.45594000000E+02  0.51100000000E-03 0.  1.
         11   -1    0    0    0    0 -0.00000000000E+00 -0.00000000000E+00 -0.45593999997E+02  0.45594000000E+02  0.51100000000E-03 0. -1.
    9900012    2    1    2    0    0 -0.43117239102E-01  0.29326219501E+00 -0.11424428916E+01  0.90007729873E+02  0.89999991108E+02 0.  0.
        -12    1    1    2    0    0  0.43117239102E-01 -0.29326219501E+00  0.11424428916E+01  0.11802701266E+01  0.00000000000E+00 0.  1.
         11    1    3    3    0    0  0.15515420104E+01 -0.62919011284E+01 -0.83085674206E+01  0.10536963285E+02  0.51100000000E-03 0. -1.
        -11    1    3    3    0    0 -0.37712493242E+02  0.48491439377E+01  0.17509698602E+02  0.41860911228E+02  0.51100000000E-03 0.  1.
         12    1    3    3    0    0  0.36117833993E+02  0.17360193857E+01 -0.10343574073E+02  0.37609855360E+02  0.00000000000E+00 0. -1.
</event>
<event>
 7    1  0.2429906E-015  0.9000841E+02  0.7816164E-02  0.1186338E+00
        -11   -1    0    0    0    0  0.00000000000E+00  0.00000000000E+00  0.45593999997E+02  0.45594000000E+02  0.51100000000E-03 0. -1.
         11   -1    0    0    0    0 -0.00000000000E+00 -0.00000000000E+00 -0.45593999997E+02  0.45594000000E+02  0.51100000000E-03 0.  1.
    9900012    2    1    2    0    0  0.10846919026E+01  0.93231345893E-01  0.45407451637E+00  0.90008410125E+02  0.90000680336E+02 0.  0.
        -12    1    1    2    0    0 -0.10846919026E+01 -0.93231345893E-01 -0.45407451637E+00  0.11795898753E+01  0.00000000000E+00 0.  1.
         11    1    3    3    0    0 -0.17785277949E+02  0.69562017062E+01  0.24654333275E+02  0.31185589675E+02  0.51100000000E-03 0. -1.
        -11    1    3    3    0    0  0.12261597840E+02  0.74309098796E+00  0.14400837600E+02  0.18928367327E+02  0.51100000000E-03 0.  1.
        -12    1    3    3    0    0  0.66083720113E+01 -0.76060613482E+01 -0.38601096359E+02  0.39894453123E+02  0.00000000000E+00 0.  1.
</event>
<event>
 7    1  0.2429906E-015  0.9000762E+02  0.7816164E-02  0.1186339E+00
        -11   -1    0    0    0    0  0.00000000000E+00  0.00000000000E+00  0.45593999997E+02  0.45594000000E+02  0.51100000000E-03 0.  1.
         11   -1    0    0    0    0 -0.00000000000E+00 -0.00000000000E+00 -0.45593999997E+02  0.45594000000E+02  0.51100000000E-03 0. -1.
    9900012    2    1    2    0    0 -0.52983286564E+00  0.32853714689E+00 -0.10023184370E+01  0.90007617955E+02  0.89999877712E+02 0.  0.
        -12    1    1    2    0    0  0.52983286564E+00 -0.32853714689E+00  0.10023184370E+01  0.11803820448E+01  0.00000000000E+00 0.  1.
         11    1    3    3    0    0  0.13357957145E+02 -0.38748025585E+02 -0.51929979135E+01  0.41313578076E+02  0.51100000000E-03 0. -1.
        -11    1    3    3    0    0 -0.32411428431E+01  0.10363529533E+01  0.83081746559E+01  0.89780176402E+01  0.51100000000E-03 0.  1.
        -12    1    3    3    0    0 -0.10646647168E+02  0.38040209779E+02 -0.41174951794E+01  0.39716022239E+02  0.00000000000E+00 0.  1.
</event>
<event>
 7    1  0.2429906E-015  0.9000779E+02  0.7816164E-02  0.1186339E+00
        -11   -1    0    0    0    0  0.00000000000E+00  0.00000000000E+00  0.45593999997E+02  0.45594000000E+02  0.51100000000E-03 0. -1.
         11   -1    0    0    0    0 -0.00000000000E+00 -0.00000000000E+00 -0.45593999997E+02  0.45594000000E+02  0.51100000000E-03 0.  1.
    9900012    2    1    2    0    0 -0.58129915901E+00 -0.72061391329E+00 -0.73191567040E+00  0.90007790835E+02  0.90000052874E+02 0.  0.
        -12    1    1    2    0    0  0.58129915901E+00  0.72061391329E+00  0.73191567040E+00  0.11802091649E+01  0.00000000000E+00 0.  1.
         11    1    3    3    0    0  0.36328005512E+02 -0.14760198696E+01  0.20513030379E+02  0.41745503167E+02  0.51100000000E-03 0. -1.
        -11    1    3    3    0    0 -0.44988960124E+01  0.86610768723E+01 -0.28558916188E+01  0.10169092148E+02  0.51100000000E-03 0.  1.
        -12    1    3    3    0    0 -0.32410408658E+02 -0.79056709160E+01 -0.18389054431E+02  0.38093195519E+02  0.00000000000E+00 0.  1.
</event>
<event>
 7    1  0.2429906E-015  0.9000771E+02  0.7816164E-02  0.1186339E+00
        -11   -1    0    0    0    0  0.00000000000E+00  0.00000000000E+00  0.45593999997E+02  0.45594000000E+02  0.51100000000E-03 0. -1.
         11   -1    0    0    0    0 -0.00000000000E+00 -0.00000000000E+00 -0.45593999997E+02  0.45594000000E+02  0.51100000000E-03 0.  1.
    9900012    2    1    2    0    0 -0.66321923138E-01 -0.10881410189E+01 -0.45236496076E+00  0.90007710403E+02  0.89999971381E+02 0.  0.
        -12    1    1    2    0    0  0.66321923138E-01  0.10881410189E+01  0.45236496076E+00  0.11802895967E+01  0.00000000000E+00 0.  1.
         11    1    3    3    0    0 -0.22075915754E+01  0.10846030281E+02  0.53372492830E+00  0.11081276821E+02  0.51100000000E-03 0. -1.
        -11    1    3    3    0    0  0.39669541485E+02 -0.99962145172E+01  0.36078262976E+01  0.41068397061E+02  0.51100000000E-03 0.  1.
         12    1    3    3    0    0 -0.37528271833E+02 -0.19379567828E+01 -0.45939161867E+01  0.37858036521E+02  0.00000000000E+00 0. -1.
</event>
<event>
 7    1  0.2429906E-015  0.9000754E+02  0.7816164E-02  0.1186339E+00
        -11   -1    0    0    0    0  0.00000000000E+00  0.00000000000E+00  0.45593999997E+02  0.45594000000E+02  0.51100000000E-03 0.  1.
         11   -1    0    0    0    0 -0.00000000000E+00 -0.00000000000E+00 -0.45593999997E+02  0.45594000000E+02  0.51100000000E-03 0. -1.
    9900012    2    1    2    0    0  0.11351292592E-01 -0.10997418443E+01 -0.42885948616E+00  0.90007541854E+02  0.89999800606E+02 0.  0.
        -12    1    1    2    0    0 -0.11351292592E-01  0.10997418443E+01  0.42885948616E+00  0.11804581461E+01  0.00000000000E+00 0.  1.
         11    1    3    3    0    0  0.50890169850E+01 -0.96029333655E+01 -0.10482572526E+01  0.10918482799E+02  0.51100000000E-03 0. -1.
        -11    1    3    3    0    0  0.11792793537E+02  0.31564361789E+02  0.24653907930E+02  0.41751575911E+02  0.51100000000E-03 0.  1.
         12    1    3    3    0    0 -0.16870459229E+02 -0.23061170268E+02 -0.24034510164E+02  0.37337483144E+02  0.00000000000E+00 0. -1.
</event>
<event>
 7    1  0.2429906E-015  0.9000769E+02  0.7816164E-02  0.1186339E+00
        -11   -1    0    0    0    0  0.00000000000E+00  0.00000000000E+00  0.45593999997E+02  0.45594000000E+02  0.51100000000E-03 0.  1.
         11   -1    0    0    0    0 -0.00000000000E+00 -0.00000000000E+00 -0.45593999997E+02  0.45594000000E+02  0.51100000000E-03 0. -1.
    9900012    2    1    2    0    0 -0.25816004408E+00  0.40969196578E+00 -0.10764050683E+01  0.90007685641E+02  0.89999946291E+02 0.  0.
        -12    1    1    2    0    0  0.25816004408E+00 -0.40969196578E+00  0.10764050683E+01  0.11803143591E+01  0.00000000000E+00 0.  1.
         11    1    3    3    0    0 -0.87583126802E+01 -0.28983187534E+01  0.10233506204E-01  0.92254212688E+01  0.51100000000E-03 0. -1.
        -11    1    3    3    0    0  0.98796201148E+00 -0.23374404851E+02  0.30705448606E+02  0.38602635214E+02  0.51100000000E-03 0.  1.
         12    1    3    3    0    0  0.75121906247E+01  0.26682415571E+02 -0.31792087180E+02  0.42179629158E+02  0.00000000000E+00 0. -1.
</event>
<event>
 7    1  0.2429906E-015  0.9000772E+02  0.7816164E-02  0.1186339E+00
        -11   -1    0    0    0    0  0.00000000000E+00  0.00000000000E+00  0.45593999997E+02  0.45594000000E+02  0.51100000000E-03 0.  1.
         11   -1    0    0    0    0 -0.00000000000E+00 -0.00000000000E+00 -0.45593999997E+02  0.45594000000E+02  0.51100000000E-03 0. -1.
    9900012    2    1    2    0    0  0.78647103388E+00 -0.57653866655E+00 -0.66493404427E+00  0.90007715795E+02  0.89999976844E+02 0.  0.
        -12    1    1    2    0    0 -0.78647103388E+00  0.57653866655E+00  0.66493404427E+00  0.11802842049E+01  0.00000000000E+00 0.  1.
         11    1    3    3    0    0  0.31558142261E+01  0.28330864797E+01  0.23618980503E+01  0.48542872898E+01  0.51100000000E-03 0. -1.
        -11    1    3    3    0    0  0.33721026583E+02  0.21296099830E+02  0.64526889725E+01  0.40401345238E+02  0.51100000000E-03 0.  1.
         12    1    3    3    0    0 -0.36090369775E+02 -0.24705724976E+02 -0.94795210671E+01  0.44752083267E+02  0.00000000000E+00 0. -1.
</event>
<event>
 7    1  0.2429906E-015  0.9000772E+02  0.7816164E-02  0.1186339E+00
        -11   -1    0    0    0    0  0.00000000000E+00  0.00000000000E+00  0.45593999997E+02  0.45594000000E+02  0.51100000000E-03 0.  1.
         11   -1    0    0    0    0 -0.00000000000E+00 -0.00000000000E+00 -0.45593999997E+02  0.45594000000E+02  0.51100000000E-03 0. -1.
    9900012    2    1    2    0    0  0.67533078495E+00 -0.42721336392E-01 -0.96703596622E+00  0.90007722346E+02  0.89999983480E+02 0.  0.
        -12    1    1    2    0    0 -0.67533078495E+00  0.42721336392E-01  0.96703596622E+00  0.11802776545E+01  0.00000000000E+00 0.  1.
         11    1    3    3    0    0 -0.19724025676E+01 -0.30728689031E+01 -0.87101776706E+01  0.94445799536E+01  0.51100000000E-03 0. -1.
        -11    1    3    3    0    0 -0.34183034620E+02  0.15771448427E+02 -0.80761760701E+01  0.38502507210E+02  0.51100000000E-03 0.  1.
         12    1    3    3    0    0  0.36830767972E+02 -0.12741300860E+02  0.15819317775E+02  0.42060635182E+02  0.00000000000E+00 0. -1.
</event>
<event>
 7    1  0.2429906E-015  0.9000774E+02  0.7816164E-02  0.1186339E+00
        -11   -1    0    0    0    0  0.00000000000E+00  0.00000000000E+00  0.45593999997E+02  0.45594000000E+02  0.51100000000E-03 0.  1.
         11   -1    0    0    0    0 -0.00000000000E+00 -0.00000000000E+00 -0.45593999997E+02  0.45594000000E+02  0.51100000000E-03 0. -1.
    9900012    2    1    2    0    0 -0.58347664235E+00  0.54120151439E+00 -0.87158690589E+00  0.90007742483E+02  0.90000003884E+02 0.  0.
        -12    1    1    2    0    0  0.58347664235E+00 -0.54120151439E+00  0.87158690589E+00  0.11802575168E+01  0.00000000000E+00 0.  1.
         11    1    3    3    0    0 -0.36491081836E+02 -0.70389962123E+01  0.11319765332E+02  0.38849499465E+02  0.51100000000E-03 0. -1.
        -11    1    3    3    0    0 -0.32617834603E+01 -0.53591102935E+01 -0.72883591088E+01  0.96166248362E+01  0.51100000000E-03 0.  1.
        -12    1    3    3    0    0  0.39169388654E+02  0.12939308020E+02 -0.49029931295E+01  0.41541618182E+02  0.00000000000E+00 0.  1.
</event>
<event>
 7    1  0.2429906E-015  0.9000782E+02  0.7816164E-02  0.1186339E+00
        -11   -1    0    0    0    0  0.00000000000E+00  0.00000000000E+00  0.45593999997E+02  0.45594000000E+02  0.51100000000E-03 0. -1.
         11   -1    0    0    0    0 -0.00000000000E+00 -0.00000000000E+00 -0.45593999997E+02  0.45594000000E+02  0.51100000000E-03 0.  1.
    9900012    2    1    2    0    0  0.76279445061E+00  0.76123851721E+00 -0.48111979381E+00  0.90007823865E+02  0.90000086340E+02 0.  0.
        -12    1    1    2    0    0 -0.76279445061E+00 -0.76123851721E+00  0.48111979381E+00  0.11801761351E+01  0.00000000000E+00 0.  1.
         11    1    3    3    0    0  0.29816912290E+02 -0.26800410356E+02  0.26378326911E+01  0.40177959323E+02  0.51100000000E-03 0. -1.
        -11    1    3    3    0    0  0.55422915846E+01  0.81791270598E+01 -0.24002338188E+01  0.10167410590E+02  0.51100000000E-03 0.  1.
        -12    1    3    3    0    0 -0.34596409424E+02  0.19382521814E+02 -0.71871866604E+00  0.39662453951E+02  0.00000000000E+00 0.  1.
</event>
<event>
 7    1  0.2957370E-015  0.9000728E+02  0.7816164E-02  0.1186340E+00
        -11   -1    0    0    0    0  0.00000000000E+00  0.00000000000E+00  0.45593999997E+02  0.45594000000E+02  0.51100000000E-03 0. -1.
         11   -1    0    0    0    0 -0.00000000000E+00 -0.00000000000E+00 -0.45593999997E+02  0.45594000000E+02  0.51100000000E-03 0.  1.
    9900012    2    1    2    0    0 -0.68012782500E-01  0.10241667464E+01  0.58357912944E+00  0.90007276551E+02  0.89999531800E+02 0.  0.
        -12    1    1    2    0    0  0.68012782500E-01 -0.10241667464E+01 -0.58357912944E+00  0.11807234491E+01  0.00000000000E+00 0.  1.
         11    1    3    3    0    0  0.35363110842E+02  0.92417313540E+01  0.16138692933E+02  0.39955182601E+02  0.51100000000E-03 0. -1.
        -11    1    3    3    0    0 -0.55755187661E+00 -0.78941408549E+01  0.51990111834E+01  0.94687930318E+01  0.51100000000E-03 0.  1.
        -12    1    3    3    0    0 -0.34873571748E+02 -0.32342375269E+00 -0.20754124987E+02  0.40583300918E+02  0.00000000000E+00 0.  1.
</event>
<event>
 7    1  0.2429906E-015  0.9000778E+02  0.7816164E-02  0.1186339E+00
        -11   -1    0    0    0    0  0.00000000000E+00  0.00000000000E+00  0.45593999997E+02  0.45594000000E+02  0.51100000000E-03 0.  1.
         11   -1    0    0    0    0 -0.00000000000E+00 -0.00000000000E+00 -0.45593999997E+02  0.45594000000E+02  0.51100000000E-03 0. -1.
    9900012    2    1    2    0    0  0.62526076142E+00 -0.75364148674E+00 -0.65878571423E+00  0.90007777509E+02  0.90000039372E+02 0.  0.
        -12    1    1    2    0    0 -0.62526076142E+00  0.75364148674E+00  0.65878571423E+00  0.11802224907E+01  0.00000000000E+00 0.  1.
         11    1    3    3    0    0  0.84021215440E+00 -0.17179427260E+02 -0.35347377524E+02  0.39309995873E+02  0.51100000000E-03 0. -1.
        -11    1    3    3    0    0  0.16772277557E+01 -0.33627785425E+01 -0.50321196693E+01  0.62804140865E+01  0.51100000000E-03 0.  1.
        -12    1    3    3    0    0 -0.18921791487E+01  0.19788564316E+02  0.39720711479E+02  0.44417367550E+02  0.00000000000E+00 0.  1.
</event>
<event>
 7    1  0.2429906E-015  0.9000771E+02  0.7816164E-02  0.1186339E+00
        -11   -1    0    0    0    0  0.00000000000E+00  0.00000000000E+00  0.45593999997E+02  0.45594000000E+02  0.51100000000E-03 0.  1.
         11   -1    0    0    0    0 -0.00000000000E+00 -0.00000000000E+00 -0.45593999997E+02  0.45594000000E+02  0.51100000000E-03 0. -1.
    9900012    2    1    2    0    0 -0.11005845366E+01 -0.26609522190E+00 -0.33315430679E+00  0.90007709874E+02  0.89999970844E+02 0.  0.
        -12    1    1    2    0    0  0.11005845366E+01  0.26609522190E+00  0.33315430679E+00  0.11802901260E+01  0.00000000000E+00 0.  1.
         11    1    3    3    0    0 -0.28595863652E+02  0.29718743584E+02 -0.15220507728E+01  0.41270374084E+02  0.51100000000E-03 0. -1.
        -11    1    3    3    0    0  0.19547839899E+01  0.35889072217E+01 -0.46051416497E+01  0.61570094501E+01  0.51100000000E-03 0.  1.
        -12    1    3    3    0    0  0.25540495126E+02 -0.33573746027E+02  0.57940381158E+01  0.42580326340E+02  0.00000000000E+00 0.  1.
</event>
<event>
 7    1  0.2429906E-015  0.9000777E+02  0.7816164E-02  0.1186339E+00
        -11   -1    0    0    0    0  0.00000000000E+00  0.00000000000E+00  0.45593999997E+02  0.45594000000E+02  0.51100000000E-03 0. -1.
         11   -1    0    0    0    0 -0.00000000000E+00 -0.00000000000E+00 -0.45593999997E+02  0.45594000000E+02  0.51100000000E-03 0.  1.
    9900012    2    1    2    0    0 -0.10381486352E+01  0.34535711256E+00 -0.44261960609E+00  0.90007772802E+02  0.90000034603E+02 0.  0.
        -12    1    1    2    0    0  0.10381486352E+01 -0.34535711256E+00  0.44261960609E+00  0.11802271984E+01  0.00000000000E+00 0.  1.
         11    1    3    3    0    0 -0.53513403976E+01  0.13751817618E+02  0.12735667885E+02  0.19492218155E+02  0.51100000000E-03 0. -1.
        -11    1    3    3    0    0 -0.22959013119E+02 -0.14610722336E+02  0.15173134497E+02  0.31157880244E+02  0.51100000000E-03 0.  1.
        -12    1    3    3    0    0  0.27272204881E+02  0.12042618307E+01 -0.28351421989E+02  0.39357674403E+02  0.00000000000E+00 0.  1.
</event>
<event>
 7    1  0.2429906E-015  0.9000788E+02  0.7816164E-02  0.1186339E+00
        -11   -1    0    0    0    0  0.00000000000E+00  0.00000000000E+00  0.45593999997E+02  0.45594000000E+02  0.51100000000E-03 0.  1.
         11   -1    0    0    0    0 -0.00000000000E+00 -0.00000000000E+00 -0.45593999997E+02  0.45594000000E+02  0.51100000000E-03 0. -1.
    9900012    2    1    2    0    0 -0.25594288162E+00  0.72833962277E+00 -0.89257880125E+00  0.90007880395E+02  0.90000143616E+02 0.  0.
        -12    1    1    2    0    0  0.25594288162E+00 -0.72833962277E+00  0.89257880125E+00  0.11801196046E+01  0.00000000000E+00 0.  1.
         11    1    3    3    0    0  0.13580828748E+02 -0.58110916409E+01 -0.31941000627E+01  0.15113238270E+02  0.51100000000E-03 0. -1.
        -11    1    3    3    0    0 -0.68508022970E+01  0.36213193080E+02  0.17536282265E+02  0.40814826241E+02  0.51100000000E-03 0.  1.
         12    1    3    3    0    0 -0.69859693329E+01 -0.29673761816E+02 -0.15234761004E+02  0.34079815884E+02  0.00000000000E+00 0. -1.
</event>
<event>
 7    1  0.2429906E-015  0.9000772E+02  0.7816164E-02  0.1186339E+00
        -11   -1    0    0    0    0  0.00000000000E+00  0.00000000000E+00  0.45593999997E+02  0.45594000000E+02  0.51100000000E-03 0.  1.
         11   -1    0    0    0    0 -0.00000000000E+00 -0.00000000000E+00 -0.45593999997E+02  0.45594000000E+02  0.51100000000E-03 0. -1.
    9900012    2    1    2    0    0 -0.10425083810E+01 -0.16741928295E+00  0.52744567914E+00  0.90007723810E+02  0.89999984964E+02 0.  0.
        -12    1    1    2    0    0  0.10425083810E+01  0.16741928295E+00 -0.52744567914E+00  0.11802761902E+01  0.00000000000E+00 0.  1.
         11    1    3    3    0    0 -0.33124576573E+01  0.36295057622E+02 -0.95839166998E+01  0.37684944514E+02  0.51100000000E-03 0. -1.
        -11    1    3    3    0    0  0.47528987936E+01  0.35348078580E+01  0.10715838560E+02  0.12243941761E+02  0.51100000000E-03 0.  1.
        -12    1    3    3    0    0 -0.24829495173E+01 -0.39997284762E+02 -0.60447618105E+00  0.40078837535E+02  0.00000000000E+00 0.  1.
</event>
<event>
 7    1  0.2429906E-015  0.9000782E+02  0.7816164E-02  0.1186339E+00
        -11   -1    0    0    0    0  0.00000000000E+00  0.00000000000E+00  0.45593999997E+02  0.45594000000E+02  0.51100000000E-03 0. -1.
         11   -1    0    0    0    0 -0.00000000000E+00 -0.00000000000E+00 -0.45593999997E+02  0.45594000000E+02  0.51100000000E-03 0.  1.
    9900012    2    1    2    0    0  0.19202415503E-01 -0.34261868627E+00  0.11291894681E+01  0.90007819865E+02  0.90000082287E+02 0.  0.
        -12    1    1    2    0    0 -0.19202415503E-01  0.34261868627E+00 -0.11291894681E+01  0.11801801353E+01  0.00000000000E+00 0.  1.
         11    1    3    3    0    0 -0.15981787596E+02 -0.10528743711E+02  0.21689015061E+02  0.28925513884E+02  0.51100000000E-03 0. -1.
        -11    1    3    3    0    0 -0.13343122234E+02 -0.67903088934E+01  0.78015337229E+01  0.16882272788E+02  0.51100000000E-03 0.  1.
        -12    1    3    3    0    0  0.29344112245E+02  0.16976433918E+02 -0.28361359315E+02  0.44200033193E+02  0.00000000000E+00 0.  1.
</event>
<event>
 7    1  0.2429906E-015  0.9000775E+02  0.7816164E-02  0.1186339E+00
        -11   -1    0    0    0    0  0.00000000000E+00  0.00000000000E+00  0.45593999997E+02  0.45594000000E+02  0.51100000000E-03 0.  1.
         11   -1    0    0    0    0 -0.00000000000E+00 -0.00000000000E+00 -0.45593999997E+02  0.45594000000E+02  0.51100000000E-03 0. -1.
    9900012    2    1    2    0    0 -0.10846180791E+01  0.17669738553E+00  0.43055385194E+00  0.90007747924E+02  0.90000009397E+02 0.  0.
        -12    1    1    2    0    0  0.10846180791E+01 -0.17669738553E+00 -0.43055385194E+00  0.11802520761E+01  0.00000000000E+00 0.  1.
         11    1    3    3    0    0 -0.93675854972E+01  0.58656760449E+01 -0.34493885820E+02  0.36221346921E+02  0.51100000000E-03 0. -1.
        -11    1    3    3    0    0  0.23291855238E+01  0.30736560769E+01 -0.83694415440E+01  0.92152058524E+01  0.51100000000E-03 0.  1.
        -12    1    3    3    0    0  0.59537818943E+01 -0.87626347363E+01  0.43293881216E+02  0.44571195151E+02  0.00000000000E+00 0.  1.
</event>
<event>
 7    1  0.2429906E-015  0.9000771E+02  0.7816164E-02  0.1186339E+00
        -11   -1    0    0    0    0  0.00000000000E+00  0.00000000000E+00  0.45593999997E+02  0.45594000000E+02  0.51100000000E-03 0. -1.
         11   -1    0    0    0    0 -0.00000000000E+00 -0.00000000000E+00 -0.45593999997E+02  0.45594000000E+02  0.51100000000E-03 0.  1.
    9900012    2    1    2    0    0  0.11789533858E+01  0.26836333076E-01  0.49270728275E-01  0.90007712374E+02  0.89999973378E+02 0.  0.
        -12    1    1    2    0    0 -0.11789533858E+01 -0.26836333076E-01 -0.49270728275E-01  0.11802876257E+01  0.00000000000E+00 0.  1.
         11    1    3    3    0    0  0.11623838242E+02 -0.23805388855E+02  0.26014330701E+02  0.37128904591E+02  0.51100000000E-03 0. -1.
        -11    1    3    3    0    0  0.30591423644E+01 -0.13178556356E+01  0.79082449690E+01  0.85811091493E+01  0.51100000000E-03 0.  1.
        -12    1    3    3    0    0 -0.13504027221E+02  0.25150080824E+02 -0.33873304942E+02  0.44297698634E+02  0.00000000000E+00 0.  1.
</event>
<event>
 7    1  0.2429906E-015  0.9000771E+02  0.7816164E-02  0.1186339E+00
        -11   -1    0    0    0    0  0.00000000000E+00  0.00000000000E+00  0.45593999997E+02  0.45594000000E+02  0.51100000000E-03 0.  1.
         11   -1    0    0    0    0 -0.00000000000E+00 -0.00000000000E+00 -0.45593999997E+02  0.45594000000E+02  0.51100000000E-03 0. -1.
    9900012    2    1    2    0    0 -0.96868216419E+00  0.29614838955E+00 -0.60582663478E+00  0.90007714054E+02  0.89999975079E+02 0.  0.
        -12    1    1    2    0    0  0.96868216419E+00 -0.29614838955E+00  0.60582663478E+00  0.11802859464E+01  0.00000000000E+00 0.  1.
         11    1    3    3    0    0  0.69427393015E+01  0.56486722009E+01 -0.37764208909E+01  0.97144470583E+01  0.51100000000E-03 0. -1.
        -11    1    3    3    0    0  0.21325408857E+02  0.15477403109E+02  0.26587368221E+02  0.37432755965E+02  0.51100000000E-03 0.  1.
         12    1    3    3    0    0 -0.29236830323E+02 -0.20829926921E+02 -0.23416773965E+02  0.42860511030E+02  0.00000000000E+00 0. -1.
</event>
<event>
 7    1  0.2429906E-015  0.9000780E+02  0.7816164E-02  0.1186339E+00
        -11   -1    0    0    0    0  0.00000000000E+00  0.00000000000E+00  0.45593999997E+02  0.45594000000E+02  0.51100000000E-03 0.  1.
         11   -1    0    0    0    0 -0.00000000000E+00 -0.00000000000E+00 -0.45593999997E+02  0.45594000000E+02  0.51100000000E-03 0. -1.
    9900012    2    1    2    0    0  0.74510071762E+00 -0.82242847599E+00 -0.40161915955E+00  0.90007804412E+02  0.90000066630E+02 0.  0.
        -12    1    1    2    0    0 -0.74510071762E+00  0.82242847599E+00  0.40161915955E+00  0.11801955884E+01  0.00000000000E+00 0.  1.
         11    1    3    3    0    0  0.23524981091E+01  0.42802408733E+01 -0.39433434693E+02  0.39734751556E+02  0.51100000000E-03 0. -1.
        -11    1    3    3    0    0 -0.77833911717E+00  0.85411843978E+01 -0.35281713467E+00  0.85838291508E+01  0.51100000000E-03 0.  1.
        -12    1    3    3    0    0 -0.82905827431E+00 -0.13643853747E+02  0.39384632668E+02  0.41689223705E+02  0.00000000000E+00 0.  1.
</event>
<event>
 7    1  0.2429906E-015  0.9000780E+02  0.7816164E-02  0.1186339E+00
        -11   -1    0    0    0    0  0.00000000000E+00  0.00000000000E+00  0.45593999997E+02  0.45594000000E+02  0.51100000000E-03 0.  1.
         11   -1    0    0    0    0 -0.00000000000E+00 -0.00000000000E+00 -0.45593999997E+02  0.45594000000E+02  0.51100000000E-03 0. -1.
    9900012    2    1    2    0    0 -0.11625065509E+01 -0.17558585791E+00 -0.10304720638E+00  0.90007800610E+02  0.90000062778E+02 0.  0.
        -12    1    1    2    0    0  0.11625065509E+01  0.17558585791E+00  0.10304720638E+00  0.11801993904E+01  0.00000000000E+00 0.  1.
         11    1    3    3    0    0 -0.61154364903E+01  0.26817699702E+02 -0.17648117985E+02  0.32680937096E+02  0.51100000000E-03 0. -1.
        -11    1    3    3    0    0  0.19347291449E+02 -0.26690607862E+01 -0.61164278834E+01  0.20465880441E+02  0.51100000000E-03 0.  1.
        -12    1    3    3    0    0 -0.14394361510E+02 -0.24324224774E+02  0.23661498663E+02  0.36860983073E+02  0.00000000000E+00 0.  1.
</event>
<event>
 7    1  0.2429906E-015  0.9000775E+02  0.7816164E-02  0.1186339E+00
        -11   -1    0    0    0    0  0.00000000000E+00  0.00000000000E+00  0.45593999997E+02  0.45594000000E+02  0.51100000000E-03 0. -1.
         11   -1    0    0    0    0 -0.00000000000E+00 -0.00000000000E+00 -0.45593999997E+02  0.45594000000E+02  0.51100000000E-03 0.  1.
    9900012    2    1    2    0    0 -0.49331569569E+00  0.85104317135E+00  0.65219214201E+00  0.90007750262E+02  0.90000011765E+02 0.  0.
        -12    1    1    2    0    0  0.49331569569E+00 -0.85104317135E+00 -0.65219214201E+00  0.11802497385E+01  0.00000000000E+00 0.  1.
         11    1    3    3    0    0 -0.10937160148E+02 -0.37539308070E+01 -0.81427541320E+00  0.11592088394E+02  0.51100000000E-03 0. -1.
        -11    1    3    3    0    0 -0.29026215321E+02 -0.51852757261E+01 -0.16688612186E+02  0.33880939143E+02  0.51100000000E-03 0.  1.
         12    1    3    3    0    0  0.39470059774E+02  0.97902497045E+01  0.18155079741E+02  0.44534722725E+02  0.00000000000E+00 0. -1.
</event>
<event>
 7    1  0.2429906E-015  0.9000776E+02  0.7816164E-02  0.1186339E+00
        -11   -1    0    0    0    0  0.00000000000E+00  0.00000000000E+00  0.45593999997E+02  0.45594000000E+02  0.51100000000E-03 0.  1.
         11   -1    0    0    0    0 -0.00000000000E+00 -0.00000000000E+00 -0.45593999997E+02  0.45594000000E+02  0.51100000000E-03 0. -1.
    9900012    2    1    2    0    0  0.98044450493E+00  0.40761179212E+00  0.51532199561E+00  0.90007756144E+02  0.90000017725E+02 0.  0.
        -12    1    1    2    0    0 -0.98044450493E+00 -0.40761179212E+00 -0.51532199561E+00  0.11802438559E+01  0.00000000000E+00 0.  1.
         11    1    3    3    0    0  0.67141062167E+01 -0.70043865157E+01  0.60925355663E+00  0.97217201620E+01  0.51100000000E-03 0. -1.
        -11    1    3    3    0    0 -0.14941799293E+02 -0.88242394180E+01  0.35825140037E+02  0.39806597774E+02  0.51100000000E-03 0.  1.
         12    1    3    3    0    0  0.92081375813E+01  0.16236237726E+02 -0.35919071598E+02  0.40479438208E+02  0.00000000000E+00 0. -1.
</event>
<event>
 7    1  0.2429906E-015  0.9000736E+02  0.7816164E-02  0.1186340E+00
        -11   -1    0    0    0    0  0.00000000000E+00  0.00000000000E+00  0.45593999997E+02  0.45594000000E+02  0.51100000000E-03 0. -1.
         11   -1    0    0    0    0 -0.00000000000E+00 -0.00000000000E+00 -0.45593999997E+02  0.45594000000E+02  0.51100000000E-03 0.  1.
    9900012    2    1    2    0    0  0.95183310814E+00  0.41531459531E+00  0.56163409749E+00  0.90007362317E+02  0.89999618699E+02 0.  0.
        -12    1    1    2    0    0 -0.95183310814E+00 -0.41531459531E+00 -0.56163409749E+00  0.11806376829E+01  0.00000000000E+00 0.  1.
         11    1    3    3    0    0 -0.69997454574E+01  0.13335170791E+01 -0.92395687339E+01  0.11668090457E+02  0.51100000000E-03 0. -1.
        -11    1    3    3    0    0  0.98682844128E+01 -0.17453267271E+02 -0.29494093774E+02  0.35663723074E+02  0.51100000000E-03 0.  1.
         12    1    3    3    0    0 -0.19167058473E+01  0.16535064787E+02  0.39295296606E+02  0.42675548786E+02  0.00000000000E+00 0. -1.
</event>
<event>
 7    1  0.2429906E-015  0.9000761E+02  0.7816164E-02  0.1186339E+00
        -11   -1    0    0    0    0  0.00000000000E+00  0.00000000000E+00  0.45593999997E+02  0.45594000000E+02  0.51100000000E-03 0.  1.
         11   -1    0    0    0    0 -0.00000000000E+00 -0.00000000000E+00 -0.45593999997E+02  0.45594000000E+02  0.51100000000E-03 0. -1.
    9900012    2    1    2    0    0  0.37250323011E+00  0.32901604062E+00 -0.10706585239E+01  0.90007610282E+02  0.89999869938E+02 0.  0.
        -12    1    1    2    0    0 -0.37250323011E+00 -0.32901604062E+00  0.10706585239E+01  0.11803897180E+01  0.00000000000E+00 0.  1.
         11    1    3    3    0    0 -0.50291623019E+01  0.59820141623E+01  0.50155275502E+01  0.92861447202E+01  0.51100000000E-03 0. -1.
        -11    1    3    3    0    0 -0.34063196227E+02 -0.13752511893E+00  0.13098858496E+02  0.36495209884E+02  0.51100000000E-03 0.  1.
         12    1    3    3    0    0  0.39464861759E+02 -0.55154730028E+01 -0.19185044570E+02  0.44226255677E+02  0.00000000000E+00 0. -1.
</event>
<event>
 7    1  0.2429906E-015  0.9000777E+02  0.7816164E-02  0.1186339E+00
        -11   -1    0    0    0    0  0.00000000000E+00  0.00000000000E+00  0.45593999997E+02  0.45594000000E+02  0.51100000000E-03 0.  1.
         11   -1    0    0    0    0 -0.00000000000E+00 -0.00000000000E+00 -0.45593999997E+02  0.45594000000E+02  0.51100000000E-03 0. -1.
    9900012    2    1    2    0    0  0.11647533502E+01  0.18993396258E+00  0.14669998922E-01  0.90007771003E+02  0.90000032780E+02 0.  0.
        -12    1    1    2    0    0 -0.11647533502E+01 -0.18993396258E+00 -0.14669998922E-01  0.11802289972E+01  0.00000000000E+00 0.  1.
         11    1    3    3    0    0  0.27058162465E+02  0.33606793690E+02 -0.63256977992E+01  0.43607054372E+02  0.51100000000E-03 0. -1.
        -11    1    3    3    0    0 -0.54825959754E+01 -0.58339553691E+01 -0.59261237056E+01  0.99605640560E+01  0.51100000000E-03 0.  1.
        -12    1    3    3    0    0 -0.20410813139E+02 -0.27582904358E+02  0.12266491504E+02  0.36440152575E+02  0.00000000000E+00 0.  1.
</event>
<event>
 7    1  0.2429906E-015  0.9000774E+02  0.7816164E-02  0.1186339E+00
        -11   -1    0    0    0    0  0.00000000000E+00  0.00000000000E+00  0.45593999997E+02  0.45594000000E+02  0.51100000000E-03 0. -1.
         11   -1    0    0    0    0 -0.00000000000E+00 -0.00000000000E+00 -0.45593999997E+02  0.45594000000E+02  0.51100000000E-03 0.  1.
    9900012    2    1    2    0    0  0.35673041635E+00  0.10931099687E+01  0.26623095054E+00  0.90007735236E+02  0.89999996541E+02 0.  0.
        -12    1    1    2    0    0 -0.35673041635E+00 -0.10931099687E+01 -0.26623095054E+00  0.11802647638E+01  0.00000000000E+00 0.  1.
         11    1    3    3    0    0  0.46596240712E+01  0.49621481093E+00 -0.76868760898E+01  0.90025768481E+01  0.51100000000E-03 0. -1.
        -11    1    3    3    0    0  0.59797894949E+01  0.39710210041E+02  0.32211455412E+01  0.40286901628E+02  0.51100000000E-03 0.  1.
         12    1    3    3    0    0 -0.10282683150E+02 -0.39113314884E+02  0.47319614992E+01  0.40718256760E+02  0.00000000000E+00 0. -1.
</event>
<event>
 7    1  0.2429906E-015  0.9000794E+02  0.7816164E-02  0.1186339E+00
        -11   -1    0    0    0    0  0.00000000000E+00  0.00000000000E+00  0.45593999997E+02  0.45594000000E+02  0.51100000000E-03 0. -1.
         11   -1    0    0    0    0 -0.00000000000E+00 -0.00000000000E+00 -0.45593999997E+02  0.45594000000E+02  0.51100000000E-03 0.  1.
    9900012    2    1    2    0    0  0.60476575773E+00  0.80809733888E+00  0.61136695843E+00  0.90007943862E+02  0.90000207921E+02 0.  0.
        -12    1    1    2    0    0 -0.60476575773E+00 -0.80809733888E+00 -0.61136695843E+00  0.11800561379E+01  0.00000000000E+00 0.  1.
         11    1    3    3    0    0 -0.67479823846E+01 -0.27106897826E+01 -0.24928036129E+01  0.76874687300E+01  0.51100000000E-03 0. -1.
        -11    1    3    3    0    0 -0.10433391255E+02  0.34715984409E+02 -0.18203380494E+02  0.40563755845E+02  0.51100000000E-03 0.  1.
         12    1    3    3    0    0  0.17786139397E+02 -0.31197197287E+02  0.21307551065E+02  0.41756719287E+02  0.00000000000E+00 0. -1.
</event>
<event>
 7    1  0.2928276E-015  0.9000777E+02  0.7816164E-02  0.1186339E+00
        -11   -1    0    0    0    0  0.00000000000E+00  0.00000000000E+00  0.45593999997E+02  0.45594000000E+02  0.51100000000E-03 0.  1.
         11   -1    0    0    0    0 -0.00000000000E+00 -0.00000000000E+00 -0.45593999997E+02  0.45594000000E+02  0.51100000000E-03 0. -1.
    9900012    2    1    2    0    0 -0.66242566936E+00  0.12016589250E+00 -0.96938390990E+00  0.90007765797E+02  0.90000027506E+02 0.  0.
        -12    1    1    2    0    0  0.66242566936E+00 -0.12016589250E+00  0.96938390990E+00  0.11802342030E+01  0.00000000000E+00 0.  1.
         11    1    3    3    0    0 -0.19868851696E+02 -0.22922052093E+02 -0.26300795132E+02  0.40148767910E+02  0.51100000000E-03 0. -1.
        -11    1    3    3    0    0  0.52628477954E+01 -0.74571602387E+01  0.31683868030E+01  0.96615465086E+01  0.51100000000E-03 0.  1.
        -12    1    3    3    0    0  0.13943578231E+02  0.30499378224E+02  0.22163024419E+02  0.40197451379E+02  0.00000000000E+00 0.  1.
</event>
<event>
 7    1  0.2429906E-015  0.9000815E+02  0.7816164E-02  0.1186338E+00
        -11   -1    0    0    0    0  0.00000000000E+00  0.00000000000E+00  0.45593999997E+02  0.45594000000E+02  0.51100000000E-03 0. -1.
         11   -1    0    0    0    0 -0.00000000000E+00 -0.00000000000E+00 -0.45593999997E+02  0.45594000000E+02  0.51100000000E-03 0.  1.
    9900012    2    1    2    0    0  0.34246404722E+00 -0.11247682523E+01  0.98287107307E-01  0.90008150179E+02  0.90000416960E+02 0.  0.
        -12    1    1    2    0    0 -0.34246404722E+00  0.11247682523E+01 -0.98287107307E-01  0.11798498212E+01  0.00000000000E+00 0.  1.
         11    1    3    3    0    0  0.22698150063E+01 -0.47351223237E+01 -0.65273608602E+01  0.83773434717E+01  0.51100000000E-03 0. -1.
        -11    1    3    3    0    0  0.11040602096E+02 -0.69203324387E+01 -0.34694970423E+02  0.37061123413E+02  0.51100000000E-03 0.  1.
         12    1    3    3    0    0 -0.12967953055E+02  0.10530686510E+02  0.41320618390E+02  0.44569683294E+02  0.00000000000E+00 0. -1.
</event>
<event>
 7    1  0.2429906E-015  0.9000783E+02  0.7816164E-02  0.1186339E+00
        -11   -1    0    0    0    0  0.00000000000E+00  0.00000000000E+00  0.45593999997E+02  0.45594000000E+02  0.51100000000E-03 0.  1.
         11   -1    0    0    0    0 -0.00000000000E+00 -0.00000000000E+00 -0.45593999997E+02  0.45594000000E+02  0.51100000000E-03 0. -1.
    9900012    2    1    2    0    0  0.10405410528E+01 -0.19082555000E-01 -0.55652291760E+00  0.90007827307E+02  0.90000089828E+02 0.  0.
        -12    1    1    2    0    0 -0.10405410528E+01  0.19082555000E-01  0.55652291760E+00  0.11801726925E+01  0.00000000000E+00 0.  1.
         11    1    3    3    0    0 -0.54577518173E+01 -0.11579647962E+01 -0.73652599785E+01  0.92398588831E+01  0.51100000000E-03 0. -1.
        -11    1    3    3    0    0 -0.35273634451E+02  0.76736074444E+01  0.12291665200E+02  0.38133955634E+02  0.51100000000E-03 0.  1.
         12    1    3    3    0    0  0.41771927322E+02 -0.65347252031E+01 -0.54829281394E+01  0.42634012790E+02  0.00000000000E+00 0. -1.
</event>
<event>
 7    1  0.2429906E-015  0.9000771E+02  0.7816164E-02  0.1186339E+00
        -11   -1    0    0    0    0  0.00000000000E+00  0.00000000000E+00  0.45593999997E+02  0.45594000000E+02  0.51100000000E-03 0. -1.
         11   -1    0    0    0    0 -0.00000000000E+00 -0.00000000000E+00 -0.45593999997E+02  0.45594000000E+02  0.51100000000E-03 0.  1.
    9900012    2    1    2    0    0  0.31140198298E+00 -0.74278330936E+00  0.86277332788E+00  0.90007713571E+02  0.89999974590E+02 0.  0.
        -12    1    1    2    0    0 -0.31140198298E+00  0.74278330936E+00 -0.86277332788E+00  0.11802864292E+01  0.00000000000E+00 0.  1.
         11    1    3    3    0    0 -0.87677465663E+00 -0.49067583881E+00 -0.92302466433E+01  0.92847697836E+01  0.51100000000E-03 0. -1.
        -11    1    3    3    0    0 -0.90758613217E+01 -0.39649923777E+01 -0.33940891488E+02  0.35356421461E+02  0.51100000000E-03 0.  1.
         12    1    3    3    0    0  0.10264037961E+02  0.37128849072E+01  0.44033911459E+02  0.45366522326E+02  0.00000000000E+00 0. -1.
</event>
<event>
 7    1  0.2429906E-015  0.9000782E+02  0.7816164E-02  0.1186339E+00
        -11   -1    0    0    0    0  0.00000000000E+00  0.00000000000E+00  0.45593999997E+02  0.45594000000E+02  0.51100000000E-03 0. -1.
         11   -1    0    0    0    0 -0.00000000000E+00 -0.00000000000E+00 -0.45593999997E+02  0.45594000000E+02  0.51100000000E-03 0.  1.
    9900012    2    1    2    0    0  0.74447681554E+00  0.81509559970E+00  0.41738110676E+00  0.90007816305E+02  0.90000078680E+02 0.  0.
        -12    1    1    2    0    0 -0.74447681554E+00 -0.81509559970E+00 -0.41738110676E+00  0.11801836949E+01  0.00000000000E+00 0.  1.
         11    1    3    3    0    0  0.13344731062E+02  0.29188156893E+02 -0.45415254244E+01  0.32413821178E+02  0.51100000000E-03 0. -1.
        -11    1    3    3    0    0 -0.25386200192E+01  0.56124554494E+01 -0.15493205880E+02  0.16672842483E+02  0.51100000000E-03 0.  1.
         12    1    3    3    0    0 -0.10061634227E+02 -0.33985516743E+02  0.20452112411E+02  0.40921152644E+02  0.00000000000E+00 0. -1.
</event>
<event>
 7    1  0.2429906E-015  0.9000776E+02  0.7816164E-02  0.1186339E+00
        -11   -1    0    0    0    0  0.00000000000E+00  0.00000000000E+00  0.45593999997E+02  0.45594000000E+02  0.51100000000E-03 0.  1.
         11   -1    0    0    0    0 -0.00000000000E+00 -0.00000000000E+00 -0.45593999997E+02  0.45594000000E+02  0.51100000000E-03 0. -1.
    9900012    2    1    2    0    0  0.53142698631E+00 -0.10319325148E+01 -0.21368881813E+00  0.90007761775E+02  0.90000023430E+02 0.  0.
        -12    1    1    2    0    0 -0.53142698631E+00  0.10319325148E+01  0.21368881813E+00  0.11802382250E+01  0.00000000000E+00 0.  1.
         11    1    3    3    0    0 -0.19413395254E+02 -0.30000185415E+02 -0.93311190450E+01  0.36931840235E+02  0.51100000000E-03 0. -1.
        -11    1    3    3    0    0 -0.22833911323E+01 -0.43009448089E+01 -0.81526864019E+01  0.94962254154E+01  0.51100000000E-03 0.  1.
        -12    1    3    3    0    0  0.22228213373E+02  0.33269197709E+02  0.17270116629E+02  0.43579696125E+02  0.00000000000E+00 0.  1.
</event>
<event>
 7    1  0.2429906E-015  0.9000774E+02  0.7816164E-02  0.1186339E+00
        -11   -1    0    0    0    0  0.00000000000E+00  0.00000000000E+00  0.45593999997E+02  0.45594000000E+02  0.51100000000E-03 0.  1.
         11   -1    0    0    0    0 -0.00000000000E+00 -0.00000000000E+00 -0.45593999997E+02  0.45594000000E+02  0.51100000000E-03 0. -1.
    9900012    2    1    2    0    0  0.55692726900E-01 -0.11546846458E+01  0.23792182880E+00  0.90007743626E+02  0.90000005042E+02 0.  0.
        -12    1    1    2    0    0 -0.55692726900E-01  0.11546846458E+01 -0.23792182880E+00  0.11802563737E+01  0.00000000000E+00 0.  1.
         11    1    3    3    0    0  0.32667728782E+02 -0.18936344621E+02  0.45658087675E+01  0.38034356329E+02  0.51100000000E-03 0. -1.
        -11    1    3    3    0    0  0.79012394207E+01  0.33902190247E+01 -0.24447954796E+01  0.89386908782E+01  0.51100000000E-03 0.  1.
        -12    1    3    3    0    0 -0.40513275476E+02  0.14391440951E+02 -0.18830914591E+01  0.43034696419E+02  0.00000000000E+00 0.  1.
</event>
<event>
 7    1  0.2429906E-015  0.9000771E+02  0.7816164E-02  0.1186339E+00
        -11   -1    0    0    0    0  0.00000000000E+00  0.00000000000E+00  0.45593999997E+02  0.45594000000E+02  0.51100000000E-03 0.  1.
         11   -1    0    0    0    0 -0.00000000000E+00 -0.00000000000E+00 -0.45593999997E+02  0.45594000000E+02  0.51100000000E-03 0. -1.
    9900012    2    1    2    0    0  0.68379516851E+00 -0.63363485409E+00 -0.72388933354E+00  0.90007709897E+02  0.89999970867E+02 0.  0.
        -12    1    1    2    0    0 -0.68379516851E+00  0.63363485409E+00  0.72388933354E+00  0.11802901033E+01  0.00000000000E+00 0.  1.
         11    1    3    3    0    0 -0.49973755188E+01  0.43718783393E+01  0.73387830082E+01  0.98967074622E+01  0.51100000000E-03 0. -1.
        -11    1    3    3    0    0 -0.16201421746E+02  0.97556424671E+01  0.28992682355E+02  0.34615520464E+02  0.51100000000E-03 0.  1.
         12    1    3    3    0    0  0.21882592434E+02 -0.14761155661E+02 -0.37055354697E+02  0.45495481971E+02  0.00000000000E+00 0. -1.
</event>
<event>
 7    1  0.2429906E-015  0.9000775E+02  0.7816164E-02  0.1186339E+00
        -11   -1    0    0    0    0  0.00000000000E+00  0.00000000000E+00  0.45593999997E+02  0.45594000000E+02  0.51100000000E-03 0.  1.
         11   -1    0    0    0    0 -0.00000000000E+00 -0.00000000000E+00 -0.45593999997E+02  0.45594000000E+02  0.51100000000E-03 0. -1.
    9900012    2    1    2    0    0  0.10680679088E+01 -0.47570435184E+00  0.16101947891E+00  0.90007749619E+02  0.90000011114E+02 0.  0.
        -12    1    1    2    0    0 -0.10680679088E+01  0.47570435184E+00 -0.16101947891E+00  0.11802503805E+01  0.00000000000E+00 0.  1.
         11    1    3    3    0    0  0.12234655839E+02  0.16056573341E+02 -0.33132664843E+02  0.38797858585E+02  0.51100000000E-03 0. -1.
        -11    1    3    3    0    0 -0.57503727058E+01 -0.49242806217E+01 -0.61402170165E+01  0.97476967109E+01  0.51100000000E-03 0.  1.
        -12    1    3    3    0    0 -0.54162152247E+01 -0.11607997071E+02  0.39433901338E+02  0.41462194323E+02  0.00000000000E+00 0.  1.
</event>
<event>
 7    1  0.2429906E-015  0.9000777E+02  0.7816164E-02  0.1186339E+00
        -11   -1    0    0    0    0  0.00000000000E+00  0.00000000000E+00  0.45593999997E+02  0.45594000000E+02  0.51100000000E-03 0. -1.
         11   -1    0    0    0    0 -0.00000000000E+00 -0.00000000000E+00 -0.45593999997E+02  0.45594000000E+02  0.51100000000E-03 0.  1.
    9900012    2    1    2    0    0 -0.51592410262E+00 -0.91270760367E+00  0.54197803916E+00  0.90007765682E+02  0.90000027389E+02 0.  0.
        -12    1    1    2    0    0  0.51592410262E+00  0.91270760367E+00 -0.54197803916E+00  0.11802343176E+01  0.00000000000E+00 0.  1.
         11    1    3    3    0    0  0.53343592599E+01 -0.36738594585E+02  0.25427229680E+02  0.44996930232E+02  0.51100000000E-03 0. -1.
        -11    1    3    3    0    0 -0.38482014714E+01  0.59210603639E+01 -0.77575255674E+01  0.10490319994E+02  0.51100000000E-03 0.  1.
        -12    1    3    3    0    0 -0.20020818911E+01  0.29904826617E+02 -0.17127726074E+02  0.34520515456E+02  0.00000000000E+00 0.  1.
</event>
<event>
 7    1  0.2429906E-015  0.9000759E+02  0.7816164E-02  0.1186339E+00
        -11   -1    0    0    0    0  0.00000000000E+00  0.00000000000E+00  0.45593999997E+02  0.45594000000E+02  0.51100000000E-03 0.  1.
         11   -1    0    0    0    0 -0.00000000000E+00 -0.00000000000E+00 -0.45593999997E+02  0.45594000000E+02  0.51100000000E-03 0. -1.
    9900012    2    1    2    0    0  0.11611347385E+00  0.11667428864E+01 -0.13637744055E+00  0.90007589009E+02  0.89999848384E+02 0.  0.
        -12    1    1    2    0    0 -0.11611347385E+00 -0.11667428864E+01  0.13637744055E+00  0.11804109912E+01  0.00000000000E+00 0.  1.
         11    1    3    3    0    0  0.42776810087E+01 -0.19328091886E+01  0.76876728837E+01  0.90074758284E+01  0.51100000000E-03 0. -1.
        -11    1    3    3    0    0  0.15744615716E+02 -0.20682812044E+02  0.24842713958E+02  0.35955974123E+02  0.51100000000E-03 0.  1.
         12    1    3    3    0    0 -0.19906183251E+02  0.23782364119E+02 -0.32666764282E+02  0.45044139057E+02  0.00000000000E+00 0. -1.
</event>
<event>
 7    1  0.2429906E-015  0.9000798E+02  0.7816164E-02  0.1186339E+00
        -11   -1    0    0    0    0  0.00000000000E+00  0.00000000000E+00  0.45593999997E+02  0.45594000000E+02  0.51100000000E-03 0.  1.
         11   -1    0    0    0    0 -0.00000000000E+00 -0.00000000000E+00 -0.45593999997E+02  0.45594000000E+02  0.51100000000E-03 0. -1.
    9900012    2    1    2    0    0 -0.23581477856E+00  0.11264492244E+01  0.26067663473E+00  0.90007979334E+02  0.90000243861E+02 0.  0.
        -12    1    1    2    0    0  0.23581477856E+00 -0.11264492244E+01 -0.26067663473E+00  0.11800206663E+01  0.00000000000E+00 0.  1.
         11    1    3    3    0    0  0.10705628303E+02  0.94907593228E+01 -0.71270418336E+01  0.15983732838E+02  0.51100000000E-03 0. -1.
        -11    1    3    3    0    0  0.24322740174E+02 -0.14913955038E+01  0.24212592486E+02  0.34352140912E+02  0.51100000000E-03 0.  1.
         12    1    3    3    0    0 -0.35264183255E+02 -0.68729145945E+01 -0.16824874018E+02  0.39672105583E+02  0.00000000000E+00 0. -1.
</event>
<event>
 7    1  0.2429906E-015  0.9000772E+02  0.7816164E-02  0.1186339E+00
        -11   -1    0    0    0    0  0.00000000000E+00  0.00000000000E+00  0.45593999997E+02  0.45594000000E+02  0.51100000000E-03 0. -1.
         11   -1    0    0    0    0 -0.00000000000E+00 -0.00000000000E+00 -0.45593999997E+02  0.45594000000E+02  0.51100000000E-03 0.  1.
    9900012    2    1    2    0    0 -0.75967192667E+00  0.75391983841E+00 -0.49754962695E+00  0.90007723681E+02  0.89999984833E+02 0.  0.
        -12    1    1    2    0    0  0.75967192667E+00 -0.75391983841E+00  0.49754962695E+00  0.11802763194E+01  0.00000000000E+00 0.  1.
         11    1    3    3    0    0 -0.22008617179E+01  0.35967618048E+02 -0.57260102414E+01  0.36486991297E+02  0.51100000000E-03 0. -1.
        -11    1    3    3    0    0 -0.28586567008E+01  0.86810310912E+01  0.14562177508E+01  0.92548792179E+01  0.51100000000E-03 0.  1.
        -12    1    3    3    0    0  0.42998464920E+01 -0.43894729301E+02  0.37722428636E+01  0.44265853166E+02  0.00000000000E+00 0.  1.
</event>
<event>
 7    1  0.2429906E-015  0.9000765E+02  0.7816164E-02  0.1186339E+00
        -11   -1    0    0    0    0  0.00000000000E+00  0.00000000000E+00  0.45593999997E+02  0.45594000000E+02  0.51100000000E-03 0.  1.
         11   -1    0    0    0    0 -0.00000000000E+00 -0.00000000000E+00 -0.45593999997E+02  0.45594000000E+02  0.51100000000E-03 0. -1.
    9900012    2    1    2    0    0 -0.40632555818E+00 -0.10766102664E+01 -0.26275313988E+00  0.90007648638E+02  0.89999908800E+02 0.  0.
        -12    1    1    2    0    0  0.40632555818E+00  0.10766102664E+01  0.26275313988E+00  0.11803513618E+01  0.00000000000E+00 0.  1.
         11    1    3    3    0    0  0.11039062419E+01  0.79855182640E+01 -0.11840715418E+01  0.81479529093E+01  0.51100000000E-03 0. -1.
        -11    1    3    3    0    0 -0.41194380951E+02 -0.51817316163E+01 -0.38722196189E+01  0.41699178043E+02  0.51100000000E-03 0.  1.
         12    1    3    3    0    0  0.39684149151E+02 -0.38803969140E+01  0.47935380209E+01  0.40160517686E+02  0.00000000000E+00 0. -1.
</event>
<event>
 7    1  0.2429906E-015  0.9000776E+02  0.7816164E-02  0.1186339E+00
        -11   -1    0    0    0    0  0.00000000000E+00  0.00000000000E+00  0.45593999997E+02  0.45594000000E+02  0.51100000000E-03 0. -1.
         11   -1    0    0    0    0 -0.00000000000E+00 -0.00000000000E+00 -0.45593999997E+02  0.45594000000E+02  0.51100000000E-03 0.  1.
    9900012    2    1    2    0    0 -0.11734451614E+01 -0.11326115730E+00  0.56206059532E-01  0.90007762415E+02  0.90000024079E+02 0.  0.
        -12    1    1    2    0    0  0.11734451614E+01  0.11326115730E+00 -0.56206059532E-01  0.11802375853E+01  0.00000000000E+00 0.  1.
         11    1    3    3    0    0 -0.69321296701E+01 -0.70997022413E+01 -0.36069665756E+01  0.10557954433E+02  0.51100000000E-03 0. -1.
        -11    1    3    3    0    0 -0.30155167026E+02 -0.15363688140E+02 -0.94948099922E+01  0.35150084334E+02  0.51100000000E-03 0.  1.
         12    1    3    3    0    0  0.35913851535E+02  0.22350129224E+02  0.13157982627E+02  0.44299723647E+02  0.00000000000E+00 0. -1.
</event>
<event>
 7    1  0.2429906E-015  0.9000778E+02  0.7816164E-02  0.1186339E+00
        -11   -1    0    0    0    0  0.00000000000E+00  0.00000000000E+00  0.45593999997E+02  0.45594000000E+02  0.51100000000E-03 0.  1.
         11   -1    0    0    0    0 -0.00000000000E+00 -0.00000000000E+00 -0.45593999997E+02  0.45594000000E+02  0.51100000000E-03 0. -1.
    9900012    2    1    2    0    0  0.56271575170E+00 -0.98177264349E+00 -0.33524944782E+00  0.90007780218E+02  0.90000042117E+02 0.  0.
        -12    1    1    2    0    0 -0.56271575170E+00  0.98177264349E+00  0.33524944782E+00  0.11802197816E+01  0.00000000000E+00 0.  1.
         11    1    3    3    0    0  0.10266025085E+02  0.23504044501E+02 -0.27428560249E+02  0.37552061149E+02  0.51100000000E-03 0. -1.
        -11    1    3    3    0    0  0.90160819306E+01 -0.31250506995E+01 -0.39965328398E+01  0.10345431371E+02  0.51100000000E-03 0.  1.
        -12    1    3    3    0    0 -0.18719391264E+02 -0.21360766445E+02  0.31089843641E+02  0.42110287698E+02  0.00000000000E+00 0.  1.
</event>
<event>
 7    1  0.2429906E-015  0.9000778E+02  0.7816164E-02  0.1186339E+00
        -11   -1    0    0    0    0  0.00000000000E+00  0.00000000000E+00  0.45593999997E+02  0.45594000000E+02  0.51100000000E-03 0. -1.
         11   -1    0    0    0    0 -0.00000000000E+00 -0.00000000000E+00 -0.45593999997E+02  0.45594000000E+02  0.51100000000E-03 0.  1.
    9900012    2    1    2    0    0 -0.53572104704E+00  0.22688573892E+00  0.10268628364E+01  0.90007779062E+02  0.90000040945E+02 0.  0.
        -12    1    1    2    0    0  0.53572104704E+00 -0.22688573892E+00 -0.10268628364E+01  0.11802209384E+01  0.00000000000E+00 0.  1.
         11    1    3    3    0    0  0.10817823973E+02  0.20066659701E+02 -0.23890135205E+02  0.33021730836E+02  0.51100000000E-03 0. -1.
        -11    1    3    3    0    0 -0.15519406277E+02 -0.18685396570E+02 -0.66027406390E+01  0.25171257425E+02  0.51100000000E-03 0.  1.
         12    1    3    3    0    0  0.41658612574E+01 -0.11543773920E+01  0.31519738680E+02  0.31814790800E+02  0.00000000000E+00 0. -1.
</event>
<event>
 7    1  0.2429906E-015  0.9000773E+02  0.7816164E-02  0.1186339E+00
        -11   -1    0    0    0    0  0.00000000000E+00  0.00000000000E+00  0.45593999997E+02  0.45594000000E+02  0.51100000000E-03 0.  1.
         11   -1    0    0    0    0 -0.00000000000E+00 -0.00000000000E+00 -0.45593999997E+02  0.45594000000E+02  0.51100000000E-03 0. -1.
    9900012    2    1    2    0    0  0.64578887334E+00  0.49611501286E+00  0.85432023839E+00  0.90007730351E+02  0.89999991592E+02 0.  0.
        -12    1    1    2    0    0 -0.64578887334E+00 -0.49611501286E+00 -0.85432023839E+00  0.11802696491E+01  0.00000000000E+00 0.  1.
         11    1    3    3    0    0 -0.16707588577E+01 -0.26663937260E+02 -0.24790198950E+02  0.36446000461E+02  0.51100000000E-03 0. -1.
        -11    1    3    3    0    0 -0.64593401470E+01 -0.58210373343E+01 -0.27985550329E+01  0.91345203112E+01  0.51100000000E-03 0.  1.
        -12    1    3    3    0    0  0.87758878780E+01  0.32981089608E+02  0.28443074221E+02  0.44427209578E+02  0.00000000000E+00 0.  1.
</event>
<event>
 7    1  0.2429906E-015  0.9000782E+02  0.7816164E-02  0.1186339E+00
        -11   -1    0    0    0    0  0.00000000000E+00  0.00000000000E+00  0.45593999997E+02  0.45594000000E+02  0.51100000000E-03 0. -1.
         11   -1    0    0    0    0 -0.00000000000E+00 -0.00000000000E+00 -0.45593999997E+02  0.45594000000E+02  0.51100000000E-03 0.  1.
    9900012    2    1    2    0    0 -0.98394039703E+00  0.65138385468E+00 -0.19461926531E-01  0.90007822726E+02  0.90000085186E+02 0.  0.
        -12    1    1    2    0    0  0.98394039703E+00 -0.65138385468E+00  0.19461926531E-01  0.11801772738E+01  0.00000000000E+00 0.  1.
         11    1    3    3    0    0 -0.33084533009E+02  0.16086501902E+02 -0.83818815118E+01  0.37730860126E+02  0.51100000000E-03 0. -1.
        -11    1    3    3    0    0 -0.39866372074E+01  0.74315036615E+01  0.39968197989E+01  0.93324751090E+01  0.51100000000E-03 0.  1.
        -12    1    3    3    0    0  0.36087229819E+02 -0.22866621709E+02  0.43655997864E+01  0.42944487492E+02  0.00000000000E+00 0.  1.
</event>
<event>
 7    1  0.2429906E-015  0.9000817E+02  0.7816164E-02  0.1186338E+00
        -11   -1    0    0    0    0  0.00000000000E+00  0.00000000000E+00  0.45593999997E+02  0.45594000000E+02  0.51100000000E-03 0. -1.
         11   -1    0    0    0    0 -0.00000000000E+00 -0.00000000000E+00 -0.45593999997E+02  0.45594000000E+02  0.51100000000E-03 0.  1.
    9900012    2    1    2    0    0 -0.51384764853E+00 -0.10586905687E+01  0.84511022446E-01  0.90008166436E+02  0.90000433432E+02 0.  0.
        -12    1    1    2    0    0  0.51384764853E+00  0.10586905687E+01 -0.84511022446E-01  0.11798335641E+01  0.00000000000E+00 0.  1.
         11    1    3    3    0    0 -0.38063383400E+02  0.47701753809E+01  0.45216753460E+01  0.38626691254E+02  0.51100000000E-03 0. -1.
        -11    1    3    3    0    0  0.28381885691E+01  0.86270034232E+01 -0.98440817677E+01  0.13393522633E+02  0.51100000000E-03 0.  1.
        -12    1    3    3    0    0  0.34711347183E+02 -0.14455869373E+02  0.54069174442E+01  0.37987952548E+02  0.00000000000E+00 0.  1.
</event>
<event>
 7    1  0.2429906E-015  0.9000770E+02  0.7816164E-02  0.1186339E+00
        -11   -1    0    0    0    0  0.00000000000E+00  0.00000000000E+00  0.45593999997E+02  0.45594000000E+02  0.51100000000E-03 0.  1.
         11   -1    0    0    0    0 -0.00000000000E+00 -0.00000000000E+00 -0.45593999997E+02  0.45594000000E+02  0.51100000000E-03 0. -1.
    9900012    2    1    2    0    0 -0.75125553971E+00 -0.45135619850E+00 -0.79056944866E+00  0.90007700311E+02  0.89999961155E+02 0.  0.
        -12    1    1    2    0    0  0.75125553971E+00  0.45135619850E+00  0.79056944866E+00  0.11802996895E+01  0.00000000000E+00 0.  1.
         11    1    3    3    0    0  0.94774612220E+01 -0.71596161856E+00 -0.66558084989E+01  0.11603217627E+02  0.51100000000E-03 0. -1.
        -11    1    3    3    0    0  0.25015300345E+02  0.83380340306E+01  0.25990272052E+02  0.37024077361E+02  0.51100000000E-03 0.  1.
         12    1    3    3    0    0 -0.35244017107E+02 -0.80734286105E+01 -0.20125033002E+02  0.41380405323E+02  0.00000000000E+00 0. -1.
</event>
<event>
 7    1  0.2429906E-015  0.9000770E+02  0.7816164E-02  0.1186339E+00
        -11   -1    0    0    0    0  0.00000000000E+00  0.00000000000E+00  0.45593999997E+02  0.45594000000E+02  0.51100000000E-03 0.  1.
         11   -1    0    0    0    0 -0.00000000000E+00 -0.00000000000E+00 -0.45593999997E+02  0.45594000000E+02  0.51100000000E-03 0. -1.
    9900012    2    1    2    0    0 -0.56047863157E-02  0.79679183226E-01 -0.11775980418E+01  0.90007696084E+02  0.89999956872E+02 0.  0.
        -12    1    1    2    0    0  0.56047863157E-02 -0.79679183226E-01  0.11775980418E+01  0.11803039159E+01  0.00000000000E+00 0.  1.
         11    1    3    3    0    0 -0.54112448960E+00  0.52232798761E+01  0.80609397286E+01  0.96205102748E+01  0.51100000000E-03 0. -1.
        -11    1    3    3    0    0 -0.27015874017E+02 -0.13467606639E+02  0.22419682002E+02  0.37601542772E+02  0.51100000000E-03 0.  1.
         12    1    3    3    0    0  0.27551393721E+02  0.83240059459E+01 -0.31658219772E+02  0.42785643037E+02  0.00000000000E+00 0. -1.
</event>
<event>
 7    1  0.2501254E-015  0.9000774E+02  0.7816164E-02  0.1186339E+00
        -11   -1    0    0    0    0  0.00000000000E+00  0.00000000000E+00  0.45593999997E+02  0.45594000000E+02  0.51100000000E-03 0. -1.
         11   -1    0    0    0    0 -0.00000000000E+00 -0.00000000000E+00 -0.45593999997E+02  0.45594000000E+02  0.51100000000E-03 0.  1.
    9900012    2    1    2    0    0 -0.36784490463E+00 -0.10056112330E+01  0.49644727580E+00  0.90007735740E+02  0.89999997052E+02 0.  0.
        -12    1    1    2    0    0  0.36784490463E+00  0.10056112330E+01 -0.49644727580E+00  0.11802642600E+01  0.00000000000E+00 0.  1.
         11    1    3    3    0    0 -0.17088939859E+02  0.30400718940E+02  0.21789340283E+02  0.41121903261E+02  0.51100000000E-03 0. -1.
        -11    1    3    3    0    0  0.79832483454E+01  0.28737642650E+01 -0.57258691667E+01  0.10236032101E+02  0.51100000000E-03 0.  1.
        -12    1    3    3    0    0  0.87378466094E+01 -0.34280094438E+02 -0.15567023841E+02  0.38649800378E+02  0.00000000000E+00 0.  1.
</event>
<event>
 7    1  0.2429906E-015  0.9000748E+02  0.7816164E-02  0.1186340E+00
        -11   -1    0    0    0    0  0.00000000000E+00  0.00000000000E+00  0.45593999997E+02  0.45594000000E+02  0.51100000000E-03 0.  1.
         11   -1    0    0    0    0 -0.00000000000E+00 -0.00000000000E+00 -0.45593999997E+02  0.45594000000E+02  0.51100000000E-03 0. -1.
    9900012    2    1    2    0    0 -0.10284408980E+01  0.47066589297E+00 -0.33823672411E+00  0.90007482679E+02  0.89999740650E+02 0.  0.
        -12    1    1    2    0    0  0.10284408980E+01 -0.47066589297E+00  0.33823672411E+00  0.11805173209E+01  0.00000000000E+00 0.  1.
         11    1    3    3    0    0  0.42042410157E+02  0.56741402648E+01 -0.39430661359E+01  0.42606430153E+02  0.51100000000E-03 0. -1.
        -11    1    3    3    0    0 -0.76760923056E+01  0.32898491362E+00 -0.66245104412E+01  0.10144691371E+02  0.51100000000E-03 0.  1.
        -12    1    3    3    0    0 -0.35394758750E+02 -0.55324592855E+01  0.10229339853E+02  0.37256361155E+02  0.00000000000E+00 0.  1.
</event>
<event>
 7    1  0.2429906E-015  0.9000774E+02  0.7816164E-02  0.1186339E+00
        -11   -1    0    0    0    0  0.00000000000E+00  0.00000000000E+00  0.45593999997E+02  0.45594000000E+02  0.51100000000E-03 0. -1.
         11   -1    0    0    0    0 -0.00000000000E+00 -0.00000000000E+00 -0.45593999997E+02  0.45594000000E+02  0.51100000000E-03 0.  1.
    9900012    2    1    2    0    0  0.53721750786E+00  0.89721676211E+00  0.54718825186E+00  0.90007739202E+02  0.90000000559E+02 0.  0.
        -12    1    1    2    0    0 -0.53721750786E+00 -0.89721676211E+00 -0.54718825186E+00  0.11802607983E+01  0.00000000000E+00 0.  1.
         11    1    3    3    0    0  0.19114811574E+02 -0.13822397938E+02  0.61850219988E+01  0.24386250299E+02  0.51100000000E-03 0.  1.
        -11    1    3    3    0    0  0.14178269990E+02  0.17581571387E+02  0.14710018488E+02  0.26954028206E+02  0.51100000000E-03 0. -1.
        -12    1    3    3    0    0 -0.32755864056E+02 -0.28619566866E+01 -0.20347852235E+02  0.38667460697E+02  0.00000000000E+00 0.  1.
</event>
<event>
 7    1  0.2429906E-015  0.9000770E+02  0.7816164E-02  0.1186339E+00
        -11   -1    0    0    0    0  0.00000000000E+00  0.00000000000E+00  0.45593999997E+02  0.45594000000E+02  0.51100000000E-03 0. -1.
         11   -1    0    0    0    0 -0.00000000000E+00 -0.00000000000E+00 -0.45593999997E+02  0.45594000000E+02  0.51100000000E-03 0.  1.
    9900012    2    1    2    0    0  0.64013166831E+00  0.82376062993E+00  0.55205221755E+00  0.90007698437E+02  0.89999959257E+02 0.  0.
        -12    1    1    2    0    0 -0.64013166831E+00 -0.82376062993E+00 -0.55205221755E+00  0.11803015628E+01  0.00000000000E+00 0.  1.
         11    1    3    3    0    0 -0.23836736673E+02  0.10013905514E+02  0.14856670575E+02  0.29819271951E+02  0.51100000000E-03 0. -1.
        -11    1    3    3    0    0 -0.16135453780E+02  0.16872592711E+00 -0.80905307239E+01  0.18050984039E+02  0.51100000000E-03 0.  1.
        -12    1    3    3    0    0  0.40612322121E+02 -0.93588708107E+01 -0.62140876338E+01  0.42137442447E+02  0.00000000000E+00 0.  1.
</event>
<event>
 7    1  0.2429906E-015  0.9000768E+02  0.7816164E-02  0.1186339E+00
        -11   -1    0    0    0    0  0.00000000000E+00  0.00000000000E+00  0.45593999997E+02  0.45594000000E+02  0.51100000000E-03 0. -1.
         11   -1    0    0    0    0 -0.00000000000E+00 -0.00000000000E+00 -0.45593999997E+02  0.45594000000E+02  0.51100000000E-03 0.  1.
    9900012    2    1    2    0    0 -0.82943217696E+00  0.30422057754E+00  0.78271175322E+00  0.90007684117E+02  0.89999944747E+02 0.  0.
        -12    1    1    2    0    0  0.82943217696E+00 -0.30422057754E+00 -0.78271175322E+00  0.11803158834E+01  0.00000000000E+00 0.  1.
         11    1    3    3    0    0  0.19803358252E+02 -0.22344067136E+02  0.10280908811E+02  0.31577324467E+02  0.51100000000E-03 0. -1.
        -11    1    3    3    0    0  0.55567211588E+01 -0.93292488603E+01  0.80590261141E+01  0.13522571372E+02  0.51100000000E-03 0.  1.
        -12    1    3    3    0    0 -0.26189511587E+02  0.31977536574E+02 -0.17557223172E+02  0.44907788278E+02  0.00000000000E+00 0.  1.
</event>
<event>
 7    1  0.2429906E-015  0.9000769E+02  0.7816164E-02  0.1186339E+00
        -11   -1    0    0    0    0  0.00000000000E+00  0.00000000000E+00  0.45593999997E+02  0.45594000000E+02  0.51100000000E-03 0.  1.
         11   -1    0    0    0    0 -0.00000000000E+00 -0.00000000000E+00 -0.45593999997E+02  0.45594000000E+02  0.51100000000E-03 0. -1.
    9900012    2    1    2    0    0 -0.66110317428E+00 -0.41848597141E+00 -0.88370631542E+00  0.90007692935E+02  0.89999953682E+02 0.  0.
        -12    1    1    2    0    0  0.66110317428E+00  0.41848597141E+00  0.88370631542E+00  0.11803070648E+01  0.00000000000E+00 0.  1.
         11    1    3    3    0    0 -0.16237841692E+02  0.66431250055E+01 -0.17130317775E+02  0.24520326261E+02  0.51100000000E-03 0. -1.
        -11    1    3    3    0    0  0.23127177732E+01  0.18244390625E+02 -0.14570821685E+02  0.23463062409E+02  0.51100000000E-03 0.  1.
         12    1    3    3    0    0  0.13264020744E+02 -0.25306001602E+02  0.30817433144E+02  0.42024304265E+02  0.00000000000E+00 0. -1.
</event>
<event>
 7    1  0.2429906E-015  0.9000764E+02  0.7816164E-02  0.1186339E+00
        -11   -1    0    0    0    0  0.00000000000E+00  0.00000000000E+00  0.45593999997E+02  0.45594000000E+02  0.51100000000E-03 0.  1.
         11   -1    0    0    0    0 -0.00000000000E+00 -0.00000000000E+00 -0.45593999997E+02  0.45594000000E+02  0.51100000000E-03 0. -1.
    9900012    2    1    2    0    0  0.31976108325E+00  0.11106060176E+01  0.23992371172E+00  0.90007637232E+02  0.89999897243E+02 0.  0.
        -12    1    1    2    0    0 -0.31976108325E+00 -0.11106060176E+01 -0.23992371172E+00  0.11803627680E+01  0.00000000000E+00 0.  1.
         11    1    3    3    0    0  0.13366363464E+02  0.64372235081E+01 -0.38036198280E+02  0.40827073108E+02  0.51100000000E-03 0. -1.
        -11    1    3    3    0    0  0.22899471520E+01 -0.21627752693E+01 -0.34148238610E+01  0.46456944676E+01  0.51100000000E-03 0.  1.
        -12    1    3    3    0    0 -0.15336549533E+02 -0.31638422212E+01  0.41690945853E+02  0.44534869656E+02  0.00000000000E+00 0.  1.
</event>
<event>
 7    1  0.2429906E-015  0.9000774E+02  0.7816164E-02  0.1186339E+00
        -11   -1    0    0    0    0  0.00000000000E+00  0.00000000000E+00  0.45593999997E+02  0.45594000000E+02  0.51100000000E-03 0. -1.
         11   -1    0    0    0    0 -0.00000000000E+00 -0.00000000000E+00 -0.45593999997E+02  0.45594000000E+02  0.51100000000E-03 0.  1.
    9900012    2    1    2    0    0  0.64668083170E-01 -0.11339232678E+01 -0.32101467532E+00  0.90007739707E+02  0.90000001071E+02 0.  0.
        -12    1    1    2    0    0 -0.64668083170E-01  0.11339232678E+01  0.32101467532E+00  0.11802602933E+01  0.00000000000E+00 0.  1.
         11    1    3    3    0    0  0.52848492295E+01 -0.27162752071E+01  0.54238413612E+01  0.80452369606E+01  0.51100000000E-03 0. -1.
        -11    1    3    3    0    0  0.34141117630E+02 -0.68565485502E+01  0.13493728835E+02  0.37345801493E+02  0.51100000000E-03 0.  1.
        -12    1    3    3    0    0 -0.39361298776E+02  0.84389004896E+01 -0.19238584872E+02  0.44616701253E+02  0.00000000000E+00 0.  1.
</event>
<event>
 7    1  0.2453494E-015  0.9000774E+02  0.7816164E-02  0.1186339E+00
        -11   -1    0    0    0    0  0.00000000000E+00  0.00000000000E+00  0.45593999997E+02  0.45594000000E+02  0.51100000000E-03 0. -1.
         11   -1    0    0    0    0 -0.00000000000E+00 -0.00000000000E+00 -0.45593999997E+02  0.45594000000E+02  0.51100000000E-03 0.  1.
    9900012    2    1    2    0    0 -0.86544698106E+00  0.22341427823E-01  0.80218874322E+00  0.90007743928E+02  0.90000005348E+02 0.  0.
        -12    1    1    2    0    0  0.86544698106E+00 -0.22341427823E-01 -0.80218874322E+00  0.11802560723E+01  0.00000000000E+00 0.  1.
         11    1    3    3    0    0 -0.12137669484E+02  0.18579331578E+02  0.30531173262E+02  0.37744762861E+02  0.51100000000E-03 0. -1.
        -11    1    3    3    0    0 -0.95411693249E+01  0.43244764469E+01 -0.18821010290E+01  0.10643181534E+02  0.51100000000E-03 0.  1.
        -12    1    3    3    0    0  0.20813391828E+02 -0.22881466597E+02 -0.27846883490E+02  0.41619799533E+02  0.00000000000E+00 0.  1.
</event>
<event>
 7    1  0.2429906E-015  0.9000797E+02  0.7816164E-02  0.1186339E+00
        -11   -1    0    0    0    0  0.00000000000E+00  0.00000000000E+00  0.45593999997E+02  0.45594000000E+02  0.51100000000E-03 0. -1.
         11   -1    0    0    0    0 -0.00000000000E+00 -0.00000000000E+00 -0.45593999997E+02  0.45594000000E+02  0.51100000000E-03 0.  1.
    9900012    2    1    2    0    0 -0.10845770082E+01 -0.44293183026E+00 -0.14129194375E+00  0.90007974870E+02  0.90000239338E+02 0.  0.
        -12    1    1    2    0    0  0.10845770082E+01  0.44293183026E+00  0.14129194375E+00  0.11800251295E+01  0.00000000000E+00 0.  1.
         11    1    3    3    0    0 -0.17542265601E+00 -0.16718540225E+02  0.32518106194E+02  0.36564567426E+02  0.51100000000E-03 0. -1.
        -11    1    3    3    0    0  0.15430727726E+01 -0.60189996358E+01  0.60711171965E+01  0.86872259365E+01  0.51100000000E-03 0.  1.
        -12    1    3    3    0    0 -0.24522271248E+01  0.22294608030E+02 -0.38730515334E+02  0.44756181508E+02  0.00000000000E+00 0.  1.
</event>
<event>
 7    1  0.2471202E-015  0.9000781E+02  0.7816164E-02  0.1186339E+00
        -11   -1    0    0    0    0  0.00000000000E+00  0.00000000000E+00  0.45593999997E+02  0.45594000000E+02  0.51100000000E-03 0.  1.
         11   -1    0    0    0    0 -0.00000000000E+00 -0.00000000000E+00 -0.45593999997E+02  0.45594000000E+02  0.51100000000E-03 0. -1.
    9900012    2    1    2    0    0 -0.31077488859E+00  0.94053687409E+00  0.64161158799E+00  0.90007806765E+02  0.90000069014E+02 0.  0.
        -12    1    1    2    0    0  0.31077488859E+00 -0.94053687409E+00 -0.64161158799E+00  0.11801932353E+01  0.00000000000E+00 0.  1.
         11    1    3    3    0    0  0.37747340618E+01  0.39350437413E+02 -0.41064798605E+01  0.39743788432E+02  0.51100000000E-03 0. -1.
        -11    1    3    3    0    0  0.75221949412E+01 -0.10957019388E+01 -0.60571265275E+01  0.97197099496E+01  0.51100000000E-03 0.  1.
        -12    1    3    3    0    0 -0.11607703892E+02 -0.37314198600E+02  0.10805217976E+02  0.40544308383E+02  0.00000000000E+00 0.  1.
</event>
<event>
 7    1  0.2429906E-015  0.9000776E+02  0.7816164E-02  0.1186339E+00
        -11   -1    0    0    0    0  0.00000000000E+00  0.00000000000E+00  0.45593999997E+02  0.45594000000E+02  0.51100000000E-03 0.  1.
         11   -1    0    0    0    0 -0.00000000000E+00 -0.00000000000E+00 -0.45593999997E+02  0.45594000000E+02  0.51100000000E-03 0. -1.
    9900012    2    1    2    0    0 -0.11241524530E+01  0.34066162135E+00  0.11487318414E+00  0.90007760649E+02  0.90000022289E+02 0.  0.
        -12    1    1    2    0    0  0.11241524530E+01 -0.34066162135E+00 -0.11487318414E+00  0.11802393513E+01  0.00000000000E+00 0.  1.
         11    1    3    3    0    0  0.26758472724E+02 -0.20855810866E+02 -0.21751911160E+02  0.40300450974E+02  0.51100000000E-03 0. -1.
        -11    1    3    3    0    0 -0.63482734855E+01 -0.43263492255E+01 -0.28154296417E+01  0.81819629794E+01  0.51100000000E-03 0.  1.
        -12    1    3    3    0    0 -0.21534351691E+02  0.25522821712E+02  0.24682213986E+02  0.41525346695E+02  0.00000000000E+00 0.  1.
</event>
<event>
 7    1  0.2429906E-015  0.9000763E+02  0.7816164E-02  0.1186339E+00
        -11   -1    0    0    0    0  0.00000000000E+00  0.00000000000E+00  0.45593999997E+02  0.45594000000E+02  0.51100000000E-03 0. -1.
         11   -1    0    0    0    0 -0.00000000000E+00 -0.00000000000E+00 -0.45593999997E+02  0.45594000000E+02  0.51100000000E-03 0.  1.
    9900012    2    1    2    0    0 -0.16920267928E-01  0.18908462702E+00  0.11650051334E+01  0.90007628765E+02  0.89999888665E+02 0.  0.
        -12    1    1    2    0    0  0.16920267928E-01 -0.18908462702E+00 -0.11650051334E+01  0.11803712350E+01  0.00000000000E+00 0.  1.
         11    1    3    3    0    0  0.60944982178E+01 -0.34682453533E+01 -0.33144820001E+00  0.70200778150E+01  0.51100000000E-03 0. -1.
        -11    1    3    3    0    0 -0.34454909763E+02 -0.16586168356E+02 -0.18867889222E+02  0.42640814151E+02  0.51100000000E-03 0.  1.
         12    1    3    3    0    0  0.28343491277E+02  0.20243498336E+02  0.20364342556E+02  0.40346736799E+02  0.00000000000E+00 0. -1.
</event>
<event>
 7    1  0.2429906E-015  0.9000794E+02  0.7816164E-02  0.1186339E+00
        -11   -1    0    0    0    0  0.00000000000E+00  0.00000000000E+00  0.45593999997E+02  0.45594000000E+02  0.51100000000E-03 0.  1.
         11   -1    0    0    0    0 -0.00000000000E+00 -0.00000000000E+00 -0.45593999997E+02  0.45594000000E+02  0.51100000000E-03 0. -1.
    9900012    2    1    2    0    0  0.98074235910E+00 -0.32861862551E+00 -0.56806938767E+00  0.90007937033E+02  0.90000201002E+02 0.  0.
        -12    1    1    2    0    0 -0.98074235910E+00  0.32861862551E+00  0.56806938767E+00  0.11800629666E+01  0.00000000000E+00 0.  1.
         11    1    3    3    0    0  0.62892466740E+01  0.15174460300E+02 -0.39093788812E+02  0.42404518545E+02  0.51100000000E-03 0. -1.
        -11    1    3    3    0    0 -0.75872889590E+01  0.25382378900E+01  0.49177801135E+01  0.93911749446E+01  0.51100000000E-03 0.  1.
        -12    1    3    3    0    0  0.22787846442E+01 -0.18041316815E+02  0.33607939311E+02  0.38212243543E+02  0.00000000000E+00 0.  1.
</event>
<event>
 7    1  0.2429906E-015  0.9000777E+02  0.7816164E-02  0.1186339E+00
        -11   -1    0    0    0    0  0.00000000000E+00  0.00000000000E+00  0.45593999997E+02  0.45594000000E+02  0.51100000000E-03 0. -1.
         11   -1    0    0    0    0 -0.00000000000E+00 -0.00000000000E+00 -0.45593999997E+02  0.45594000000E+02  0.51100000000E-03 0.  1.
    9900012    2    1    2    0    0 -0.10772108365E+01 -0.30930487049E+00  0.36998041442E+00  0.90007771973E+02  0.90000033763E+02 0.  0.
        -12    1    1    2    0    0  0.10772108365E+01  0.30930487049E+00 -0.36998041442E+00  0.11802280272E+01  0.00000000000E+00 0.  1.
         11    1    3    3    0    0  0.13726812207E+02 -0.77144171069E+01  0.11298117295E+02  0.19380017011E+02  0.51100000000E-03 0. -1.
        -11    1    3    3    0    0 -0.13966228513E+01 -0.47914949056E+01  0.27600839061E+02  0.28048445517E+02  0.51100000000E-03 0.  1.
        -12    1    3    3    0    0 -0.13407400193E+02  0.12196607142E+02 -0.38528975941E+02  0.42579309445E+02  0.00000000000E+00 0.  1.
</event>
<event>
 7    1  0.2429906E-015  0.9000792E+02  0.7816164E-02  0.1186339E+00
        -11   -1    0    0    0    0  0.00000000000E+00  0.00000000000E+00  0.45593999997E+02  0.45594000000E+02  0.51100000000E-03 0.  1.
         11   -1    0    0    0    0 -0.00000000000E+00 -0.00000000000E+00 -0.45593999997E+02  0.45594000000E+02  0.51100000000E-03 0. -1.
    9900012    2    1    2    0    0 -0.98296077788E+00  0.41729166452E+00 -0.50224902647E+00  0.90007915974E+02  0.90000179665E+02 0.  0.
        -12    1    1    2    0    0  0.98296077788E+00 -0.41729166452E+00  0.50224902647E+00  0.11800840261E+01  0.00000000000E+00 0.  1.
         11    1    3    3    0    0  0.35162093164E+01 -0.30144968801E+01  0.73507133826E+01  0.86881474948E+01  0.51100000000E-03 0. -1.
        -11    1    3    3    0    0  0.10788291695E+02 -0.28588343011E+02  0.19734313427E+02  0.36374767635E+02  0.51100000000E-03 0.  1.
         12    1    3    3    0    0 -0.15287461789E+02  0.32020131556E+02 -0.27587275836E+02  0.44945000844E+02  0.00000000000E+00 0. -1.
</event>
<event>
 7    1  0.2429906E-015  0.9000764E+02  0.7816164E-02  0.1186339E+00
        -11   -1    0    0    0    0  0.00000000000E+00  0.00000000000E+00  0.45593999997E+02  0.45594000000E+02  0.51100000000E-03 0.  1.
         11   -1    0    0    0    0 -0.00000000000E+00 -0.00000000000E+00 -0.45593999997E+02  0.45594000000E+02  0.51100000000E-03 0. -1.
    9900012    2    1    2    0    0 -0.93679711605E-01  0.11735908779E+01 -0.84615564858E-01  0.90007639364E+02  0.89999899404E+02 0.  0.
        -12    1    1    2    0    0  0.93679711605E-01 -0.11735908779E+01  0.84615564858E-01  0.11803606359E+01  0.00000000000E+00 0.  1.
         11    1    3    3    0    0 -0.28430495591E+01  0.48239036357E+01 -0.28048581582E+00  0.56063936390E+01  0.51100000000E-03 0. -1.
        -11    1    3    3    0    0  0.30791664753E+02  0.24504260726E+02  0.14831791229E+02  0.42054339173E+02  0.51100000000E-03 0.  1.
         12    1    3    3    0    0 -0.28042294905E+02 -0.28154573484E+02 -0.14635920978E+02  0.42346906552E+02  0.00000000000E+00 0. -1.
</event>
<event>
 7    1  0.2429906E-015  0.9000775E+02  0.7816164E-02  0.1186339E+00
        -11   -1    0    0    0    0  0.00000000000E+00  0.00000000000E+00  0.45593999997E+02  0.45594000000E+02  0.51100000000E-03 0.  1.
         11   -1    0    0    0    0 -0.00000000000E+00 -0.00000000000E+00 -0.45593999997E+02  0.45594000000E+02  0.51100000000E-03 0. -1.
    9900012    2    1    2    0    0  0.10575291846E+01 -0.48839149363E+00  0.18996101354E+00  0.90007754511E+02  0.90000016071E+02 0.  0.
        -12    1    1    2    0    0 -0.10575291846E+01  0.48839149363E+00 -0.18996101354E+00  0.11802454888E+01  0.00000000000E+00 0.  1.
         11    1    3    3    0    0  0.27681588950E+01 -0.64147799867E+01  0.56682044824E+01  0.89967020769E+01  0.51100000000E-03 0. -1.
        -11    1    3    3    0    0  0.70571835514E+00 -0.22620528064E+02  0.28612383265E+02  0.36480882729E+02  0.51100000000E-03 0.  1.
         12    1    3    3    0    0 -0.24163480655E+01  0.28546916557E+02 -0.34090626734E+02  0.44530169706E+02  0.00000000000E+00 0. -1.
</event>
<event>
 7    1  0.2429906E-015  0.9000778E+02  0.7816164E-02  0.1186339E+00
        -11   -1    0    0    0    0  0.00000000000E+00  0.00000000000E+00  0.45593999997E+02  0.45594000000E+02  0.51100000000E-03 0.  1.
         11   -1    0    0    0    0 -0.00000000000E+00 -0.00000000000E+00 -0.45593999997E+02  0.45594000000E+02  0.51100000000E-03 0. -1.
    9900012    2    1    2    0    0 -0.18501169422E+00  0.72481923051E+00 -0.91286144273E+00  0.90007784656E+02  0.90000046614E+02 0.  0.
        -12    1    1    2    0    0  0.18501169422E+00 -0.72481923051E+00  0.91286144273E+00  0.11802153437E+01  0.00000000000E+00 0.  1.
         11    1    3    3    0    0  0.25371511434E+02  0.53985386128E+01  0.24511064483E+02  0.35688234671E+02  0.51100000000E-03 0. -1.
        -11    1    3    3    0    0  0.90283491367E+01 -0.16021900355E+01  0.27857968392E+01  0.95832544229E+01  0.51100000000E-03 0.  1.
        -12    1    3    3    0    0 -0.34584872265E+02 -0.30715293468E+01 -0.28209722765E+02  0.44736295562E+02  0.00000000000E+00 0.  1.
</event>
<event>
 7    1  0.2429906E-015  0.9000768E+02  0.7816164E-02  0.1186339E+00
        -11   -1    0    0    0    0  0.00000000000E+00  0.00000000000E+00  0.45593999997E+02  0.45594000000E+02  0.51100000000E-03 0.  1.
         11   -1    0    0    0    0 -0.00000000000E+00 -0.00000000000E+00 -0.45593999997E+02  0.45594000000E+02  0.51100000000E-03 0. -1.
    9900012    2    1    2    0    0  0.99181328366E+00  0.20159381350E+00 -0.60729899136E+00  0.90007684059E+02  0.89999944689E+02 0.  0.
        -12    1    1    2    0    0 -0.99181328366E+00 -0.20159381350E+00  0.60729899136E+00  0.11803159408E+01  0.00000000000E+00 0.  1.
         11    1    3    3    0    0  0.18724703611E+00  0.82058833161E+01 -0.43865635131E+02  0.44626959656E+02  0.51100000000E-03 0. -1.
        -11    1    3    3    0    0  0.24657437311E+01  0.22112680388E+01  0.88461834091E+01  0.94458752720E+01  0.51100000000E-03 0.  1.
        -12    1    3    3    0    0 -0.16611774835E+01 -0.10215557541E+02  0.34412152731E+02  0.35934849131E+02  0.00000000000E+00 0.  1.
</event>
<event>
 7    1  0.2429906E-015  0.9000786E+02  0.7816164E-02  0.1186339E+00
        -11   -1    0    0    0    0  0.00000000000E+00  0.00000000000E+00  0.45593999997E+02  0.45594000000E+02  0.51100000000E-03 0. -1.
         11   -1    0    0    0    0 -0.00000000000E+00 -0.00000000000E+00 -0.45593999997E+02  0.45594000000E+02  0.51100000000E-03 0.  1.
    9900012    2    1    2    0    0  0.30724827744E+00 -0.66646892063E+00  0.92419710692E+00  0.90007863305E+02  0.90000126301E+02 0.  0.
        -12    1    1    2    0    0 -0.30724827744E+00  0.66646892063E+00 -0.92419710692E+00  0.11801366949E+01  0.00000000000E+00 0.  1.
         11    1    3    3    0    0 -0.29419031139E+01 -0.71932279394E+00  0.90105869763E+01  0.95059400973E+01  0.51100000000E-03 0. -1.
        -11    1    3    3    0    0 -0.26922049897E+02  0.13620420483E+02 -0.28603294743E+02  0.41574765125E+02  0.51100000000E-03 0.  1.
         12    1    3    3    0    0  0.30171201288E+02 -0.13567566609E+02  0.20516904873E+02  0.38927158083E+02  0.00000000000E+00 0. -1.
</event>
<event>
 7    1  0.2429906E-015  0.9000779E+02  0.7816164E-02  0.1186339E+00
        -11   -1    0    0    0    0  0.00000000000E+00  0.00000000000E+00  0.45593999997E+02  0.45594000000E+02  0.51100000000E-03 0. -1.
         11   -1    0    0    0    0 -0.00000000000E+00 -0.00000000000E+00 -0.45593999997E+02  0.45594000000E+02  0.51100000000E-03 0.  1.
    9900012    2    1    2    0    0 -0.78249067912E+00  0.52753112505E+00  0.70874234717E+00  0.90007789652E+02  0.90000051675E+02 0.  0.
        -12    1    1    2    0    0  0.78249067912E+00 -0.52753112505E+00 -0.70874234717E+00  0.11802103480E+01  0.00000000000E+00 0.  1.
         11    1    3    3    0    0 -0.12189958602E+02  0.27665928072E+02  0.16465307971E+02  0.34425354517E+02  0.51100000000E-03 0. -1.
        -11    1    3    3    0    0 -0.56927637279E+01  0.62030748086E+01  0.76715378892E+01  0.11390267327E+02  0.51100000000E-03 0.  1.
        -12    1    3    3    0    0  0.17100231650E+02 -0.33341471755E+02 -0.23428103513E+02  0.44192167808E+02  0.00000000000E+00 0.  1.
</event>
<event>
 7    1  0.2429906E-015  0.9000777E+02  0.7816164E-02  0.1186339E+00
        -11   -1    0    0    0    0  0.00000000000E+00  0.00000000000E+00  0.45593999997E+02  0.45594000000E+02  0.51100000000E-03 0.  1.
         11   -1    0    0    0    0 -0.00000000000E+00 -0.00000000000E+00 -0.45593999997E+02  0.45594000000E+02  0.51100000000E-03 0. -1.
    9900012    2    1    2    0    0 -0.66172593590E+00 -0.90644160205E+00 -0.36527888281E+00  0.90007768559E+02  0.90000030304E+02 0.  0.
        -12    1    1    2    0    0  0.66172593590E+00  0.90644160205E+00  0.36527888281E+00  0.11802314410E+01  0.00000000000E+00 0.  1.
         11    1    3    3    0    0 -0.19286428720E+02 -0.13857830068E+02 -0.29582001820E+02  0.37935479685E+02  0.51100000000E-03 0. -1.
        -11    1    3    3    0    0 -0.12715929690E+01  0.80278397210E+01 -0.68228597213E+01  0.10612001428E+02  0.51100000000E-03 0.  1.
        -12    1    3    3    0    0  0.19896295753E+02  0.49235487447E+01  0.36039582659E+02  0.41460287446E+02  0.00000000000E+00 0.  1.
</event>
<event>
 7    1  0.2429906E-015  0.9000773E+02  0.7816164E-02  0.1186339E+00
        -11   -1    0    0    0    0  0.00000000000E+00  0.00000000000E+00  0.45593999997E+02  0.45594000000E+02  0.51100000000E-03 0.  1.
         11   -1    0    0    0    0 -0.00000000000E+00 -0.00000000000E+00 -0.45593999997E+02  0.45594000000E+02  0.51100000000E-03 0. -1.
    9900012    2    1    2    0    0  0.26019267720E+00  0.95776166983E+00 -0.63876292960E+00  0.90007734892E+02  0.89999996192E+02 0.  0.
        -12    1    1    2    0    0 -0.26019267720E+00 -0.95776166983E+00  0.63876292960E+00  0.11802651082E+01  0.00000000000E+00 0.  1.
         11    1    3    3    0    0 -0.33887570788E+01  0.34688082776E+02  0.19420071889E+02  0.39898445504E+02  0.51100000000E-03 0. -1.
        -11    1    3    3    0    0 -0.80746862081E+01 -0.85692739104E+00  0.25664217496E+01  0.85159499042E+01  0.51100000000E-03 0.  1.
        -12    1    3    3    0    0  0.11723635964E+02 -0.32873393716E+02 -0.22625256568E+02  0.41593339483E+02  0.00000000000E+00 0.  1.
</event>
<event>
 7    1  0.2429906E-015  0.9000773E+02  0.7816164E-02  0.1186339E+00
        -11   -1    0    0    0    0  0.00000000000E+00  0.00000000000E+00  0.45593999997E+02  0.45594000000E+02  0.51100000000E-03 0.  1.
         11   -1    0    0    0    0 -0.00000000000E+00 -0.00000000000E+00 -0.45593999997E+02  0.45594000000E+02  0.51100000000E-03 0. -1.
    9900012    2    1    2    0    0  0.30504143100E+00  0.11334592719E+01 -0.12348156474E+00  0.90007733974E+02  0.89999995262E+02 0.  0.
        -12    1    1    2    0    0 -0.30504143100E+00 -0.11334592719E+01  0.12348156474E+00  0.11802660261E+01  0.00000000000E+00 0.  1.
         11    1    3    3    0    0  0.38523373992E+01  0.13082266708E+01  0.82258164421E+01  0.91769285090E+01  0.51100000000E-03 0. -1.
        -11    1    3    3    0    0  0.16606333215E+02  0.56562315399E+01  0.31352234938E+02  0.35926673850E+02  0.51100000000E-03 0.  1.
         12    1    3    3    0    0 -0.20153629183E+02 -0.58309989389E+01 -0.39701532945E+02  0.44904131614E+02  0.00000000000E+00 0. -1.
</event>
<event>
 7    1  0.2443790E-015  0.9000776E+02  0.7816164E-02  0.1186339E+00
        -11   -1    0    0    0    0  0.00000000000E+00  0.00000000000E+00  0.45593999997E+02  0.45594000000E+02  0.51100000000E-03 0.  1.
         11   -1    0    0    0    0 -0.00000000000E+00 -0.00000000000E+00 -0.45593999997E+02  0.45594000000E+02  0.51100000000E-03 0. -1.
    9900012    2    1    2    0    0 -0.70956970668E+00  0.77406924247E+00 -0.53879734701E+00  0.90007756406E+02  0.90000017990E+02 0.  0.
        -12    1    1    2    0    0  0.70956970668E+00 -0.77406924247E+00  0.53879734701E+00  0.11802435943E+01  0.00000000000E+00 0.  1.
         11    1    3    3    0    0 -0.18258292535E+02  0.33125206796E+02 -0.18649989962E+02  0.42171870926E+02  0.51100000000E-03 0. -1.
        -11    1    3    3    0    0 -0.29389761624E+01 -0.14903359173E+01  0.91496273196E+01  0.97249350835E+01  0.51100000000E-03 0.  1.
        -12    1    3    3    0    0  0.20487698991E+02 -0.30860801636E+02  0.89615652955E+01  0.38110950396E+02  0.00000000000E+00 0.  1.
</event>
<event>
 7    1  0.2429906E-015  0.9000772E+02  0.7816164E-02  0.1186339E+00
        -11   -1    0    0    0    0  0.00000000000E+00  0.00000000000E+00  0.45593999997E+02  0.45594000000E+02  0.51100000000E-03 0.  1.
         11   -1    0    0    0    0 -0.00000000000E+00 -0.00000000000E+00 -0.45593999997E+02  0.45594000000E+02  0.51100000000E-03 0. -1.
    9900012    2    1    2    0    0  0.86084541640E+00 -0.31935667124E+00  0.74162736756E+00  0.90007722631E+02  0.89999983770E+02 0.  0.
        -12    1    1    2    0    0 -0.86084541640E+00  0.31935667124E+00 -0.74162736756E+00  0.11802773686E+01  0.00000000000E+00 0.  1.
         11    1    3    3    0    0  0.78755591440E+01 -0.15244674305E+02 -0.33854396776E+02  0.37954508399E+02  0.51100000000E-03 0. -1.
        -11    1    3    3    0    0 -0.50297193101E+01 -0.82285707998E+01 -0.83601159523E+00  0.96802050285E+01  0.51100000000E-03 0.  1.
        -12    1    3    3    0    0 -0.19849944175E+01  0.23153888433E+02  0.35432035739E+02  0.42373009204E+02  0.00000000000E+00 0.  1.
</event>
<event>
 7    1  0.2429906E-015  0.9000771E+02  0.7816164E-02  0.1186339E+00
        -11   -1    0    0    0    0  0.00000000000E+00  0.00000000000E+00  0.45593999997E+02  0.45594000000E+02  0.51100000000E-03 0. -1.
         11   -1    0    0    0    0 -0.00000000000E+00 -0.00000000000E+00 -0.45593999997E+02  0.45594000000E+02  0.51100000000E-03 0.  1.
    9900012    2    1    2    0    0 -0.51136003648E+00  0.10414926209E+01 -0.21652499839E+00  0.90007712306E+02  0.89999973308E+02 0.  0.
        -12    1    1    2    0    0  0.51136003648E+00 -0.10414926209E+01  0.21652499839E+00  0.11802876943E+01  0.00000000000E+00 0.  1.
         11    1    3    3    0    0  0.62267844404E+00 -0.86764643312E+01  0.44453199554E+01  0.97688091138E+01  0.51100000000E-03 0. -1.
        -11    1    3    3    0    0  0.20523093268E+02  0.38770031739E+02 -0.24470704489E+01  0.43935189455E+02  0.51100000000E-03 0.  1.
         12    1    3    3    0    0 -0.21657131748E+02 -0.29052074787E+02 -0.22147745048E+01  0.36303713737E+02  0.00000000000E+00 0. -1.
</event>
<event>
 7    1  0.2429906E-015  0.9000831E+02  0.7816164E-02  0.1186338E+00
        -11   -1    0    0    0    0  0.00000000000E+00  0.00000000000E+00  0.45593999997E+02  0.45594000000E+02  0.51100000000E-03 0. -1.
         11   -1    0    0    0    0 -0.00000000000E+00 -0.00000000000E+00 -0.45593999997E+02  0.45594000000E+02  0.51100000000E-03 0.  1.
    9900012    2    1    2    0    0 -0.50263099650E+00  0.98907532513E+00  0.40095382983E+00  0.90008308561E+02  0.90000577432E+02 0.  0.
        -12    1    1    2    0    0  0.50263099650E+00 -0.98907532513E+00 -0.40095382983E+00  0.11796914389E+01  0.00000000000E+00 0.  1.
         11    1    3    3    0    0 -0.23056207051E+02 -0.25372129333E+02  0.82788474995E+01  0.35268582997E+02  0.51100000000E-03 0. -1.
        -11    1    3    3    0    0 -0.81826418175E+01 -0.29603111002E-02  0.78112035544E+01  0.11312406336E+02  0.51100000000E-03 0.  1.
        -12    1    3    3    0    0  0.30736217872E+02  0.26364164969E+02 -0.15689097224E+02  0.43427319228E+02  0.00000000000E+00 0.  1.
</event>
<event>
 7    1  0.2429906E-015  0.9000777E+02  0.7816164E-02  0.1186339E+00
        -11   -1    0    0    0    0  0.00000000000E+00  0.00000000000E+00  0.45593999997E+02  0.45594000000E+02  0.51100000000E-03 0. -1.
         11   -1    0    0    0    0 -0.00000000000E+00 -0.00000000000E+00 -0.45593999997E+02  0.45594000000E+02  0.51100000000E-03 0.  1.
    9900012    2    1    2    0    0  0.14977906303E+00 -0.16548636735E+00 -0.11589282428E+01  0.90007773675E+02  0.90000035488E+02 0.  0.
        -12    1    1    2    0    0 -0.14977906303E+00  0.16548636735E+00  0.11589282428E+01  0.11802263247E+01  0.00000000000E+00 0.  1.
         11    1    3    3    0    0 -0.21327320167E+01 -0.39747450345E+01  0.92266340721E+01  0.10270244423E+02  0.51100000000E-03 0. -1.
        -11    1    3    3    0    0  0.27607338328E+02  0.15226086167E+02  0.20955945221E+02  0.37856973861E+02  0.51100000000E-03 0.  1.
         12    1    3    3    0    0 -0.25324827248E+02 -0.11416827499E+02 -0.31341507536E+02  0.41880555392E+02  0.00000000000E+00 0. -1.
</event>
<event>
 7    1  0.2429906E-015  0.9000769E+02  0.7816164E-02  0.1186339E+00
        -11   -1    0    0    0    0  0.00000000000E+00  0.00000000000E+00  0.45593999997E+02  0.45594000000E+02  0.51100000000E-03 0.  1.
         11   -1    0    0    0    0 -0.00000000000E+00 -0.00000000000E+00 -0.45593999997E+02  0.45594000000E+02  0.51100000000E-03 0. -1.
    9900012    2    1    2    0    0  0.38723394924E-01 -0.11309320998E+01 -0.33559037849E+00  0.90007691643E+02  0.89999952373E+02 0.  0.
        -12    1    1    2    0    0 -0.38723394924E-01  0.11309320998E+01  0.33559037849E+00  0.11803083571E+01  0.00000000000E+00 0.  1.
         11    1    3    3    0    0  0.47588414539E+01 -0.23083751011E+01 -0.96547971885E+01  0.11008645539E+02  0.51100000000E-03 0. -1.
        -11    1    3    3    0    0 -0.38920805976E+02  0.10311561334E+02 -0.54719577903E+01  0.40633726844E+02  0.51100000000E-03 0.  1.
         12    1    3    3    0    0  0.34200687917E+02 -0.91341183322E+01  0.14791164600E+02  0.38365319260E+02  0.00000000000E+00 0. -1.
</event>
<event>
 7    1  0.2429906E-015  0.9000773E+02  0.7816164E-02  0.1186339E+00
        -11   -1    0    0    0    0  0.00000000000E+00  0.00000000000E+00  0.45593999997E+02  0.45594000000E+02  0.51100000000E-03 0.  1.
         11   -1    0    0    0    0 -0.00000000000E+00 -0.00000000000E+00 -0.45593999997E+02  0.45594000000E+02  0.51100000000E-03 0. -1.
    9900012    2    1    2    0    0  0.33661950315E+00 -0.11150144663E+01  0.19093693472E+00  0.90007734410E+02  0.89999995704E+02 0.  0.
        -12    1    1    2    0    0 -0.33661950315E+00  0.11150144663E+01 -0.19093693472E+00  0.11802655900E+01  0.00000000000E+00 0.  1.
         11    1    3    3    0    0 -0.19166974631E+00 -0.47045353780E+00 -0.12022068642E+02  0.12032796787E+02  0.51100000000E-03 0. -1.
        -11    1    3    3    0    0 -0.24377001025E+02 -0.70361354774E+01  0.35263804279E+02  0.43442850665E+02  0.51100000000E-03 0.  1.
         12    1    3    3    0    0  0.24905290274E+02  0.63915745489E+01 -0.23050798702E+02  0.34532086958E+02  0.00000000000E+00 0. -1.
</event>
<event>
 7    1  0.2429906E-015  0.9000730E+02  0.7816164E-02  0.1186340E+00
        -11   -1    0    0    0    0  0.00000000000E+00  0.00000000000E+00  0.45593999997E+02  0.45594000000E+02  0.51100000000E-03 0.  1.
         11   -1    0    0    0    0 -0.00000000000E+00 -0.00000000000E+00 -0.45593999997E+02  0.45594000000E+02  0.51100000000E-03 0. -1.
    9900012    2    1    2    0    0 -0.32135595649E-01 -0.80318152331E+00 -0.86482664120E+00  0.90007297508E+02  0.89999553034E+02 0.  0.
        -12    1    1    2    0    0  0.32135595649E-01  0.80318152331E+00  0.86482664120E+00  0.11807024923E+01  0.00000000000E+00 0.  1.
         11    1    3    3    0    0 -0.85785851331E+01  0.68695387141E+01 -0.15876801285E+01  0.11104207017E+02  0.51100000000E-03 0. -1.
        -11    1    3    3    0    0 -0.10238441101E+02 -0.31196476056E+02 -0.23406406377E+02  0.40322520436E+02  0.51100000000E-03 0.  1.
         12    1    3    3    0    0  0.18784890638E+02  0.23523755819E+02  0.24129259865E+02  0.38580570055E+02  0.00000000000E+00 0. -1.
</event>
<event>
 7    1  0.2429906E-015  0.9000782E+02  0.7816164E-02  0.1186339E+00
        -11   -1    0    0    0    0  0.00000000000E+00  0.00000000000E+00  0.45593999997E+02  0.45594000000E+02  0.51100000000E-03 0.  1.
         11   -1    0    0    0    0 -0.00000000000E+00 -0.00000000000E+00 -0.45593999997E+02  0.45594000000E+02  0.51100000000E-03 0. -1.
    9900012    2    1    2    0    0 -0.46412134392E+00  0.20471832341E+00 -0.10655979402E+01  0.90007823240E+02  0.90000085707E+02 0.  0.
        -12    1    1    2    0    0  0.46412134392E+00 -0.20471832341E+00  0.10655979402E+01  0.11801767597E+01  0.00000000000E+00 0.  1.
         11    1    3    3    0    0  0.26467214928E+02  0.17874762264E+02 -0.29526691456E+02  0.43495357231E+02  0.51100000000E-03 0. -1.
        -11    1    3    3    0    0 -0.72011711168E+01 -0.41378163295E+01 -0.12145355541E+01  0.83936575045E+01  0.51100000000E-03 0.  1.
        -12    1    3    3    0    0 -0.19730165156E+02 -0.13532227611E+02  0.29675629069E+02  0.38118808505E+02  0.00000000000E+00 0.  1.
</event>
<event>
 7    1  0.2429906E-015  0.9000766E+02  0.7816164E-02  0.1186339E+00
        -11   -1    0    0    0    0  0.00000000000E+00  0.00000000000E+00  0.45593999997E+02  0.45594000000E+02  0.51100000000E-03 0. -1.
         11   -1    0    0    0    0 -0.00000000000E+00 -0.00000000000E+00 -0.45593999997E+02  0.45594000000E+02  0.51100000000E-03 0.  1.
    9900012    2    1    2    0    0 -0.95654446222E+00 -0.58036874164E+00 -0.37601930404E+00  0.90007662887E+02  0.89999923237E+02 0.  0.
        -12    1    1    2    0    0  0.95654446222E+00  0.58036874164E+00  0.37601930404E+00  0.11803371135E+01  0.00000000000E+00 0.  1.
         11    1    3    3    0    0 -0.28311479291E+02  0.27886909925E+02  0.16587009015E+02  0.43062146639E+02  0.51100000000E-03 0. -1.
        -11    1    3    3    0    0  0.33627045438E+01 -0.73494058037E+01  0.36966832083E+01  0.88874638969E+01  0.51100000000E-03 0.  1.
        -12    1    3    3    0    0  0.23992230285E+02 -0.21117872863E+02 -0.20659711528E+02  0.38058052351E+02  0.00000000000E+00 0.  1.
</event>
<event>
 7    1  0.2429906E-015  0.9000764E+02  0.7816164E-02  0.1186339E+00
        -11   -1    0    0    0    0  0.00000000000E+00  0.00000000000E+00  0.45593999997E+02  0.45594000000E+02  0.51100000000E-03 0. -1.
         11   -1    0    0    0    0 -0.00000000000E+00 -0.00000000000E+00 -0.45593999997E+02  0.45594000000E+02  0.51100000000E-03 0.  1.
    9900012    2    1    2    0    0  0.81649955953E+00  0.56197171416E+00  0.64090676152E+00  0.90007641912E+02  0.89999901985E+02 0.  0.
        -12    1    1    2    0    0 -0.81649955953E+00 -0.56197171416E+00 -0.64090676152E+00  0.11803580877E+01  0.00000000000E+00 0.  1.
         11    1    3    3    0    0  0.17715700960E+01  0.88320475853E+01  0.45391028898E+01  0.10086970827E+02  0.51100000000E-03 0. -1.
        -11    1    3    3    0    0 -0.39329634223E+02 -0.22145565058E+01 -0.98835079644E+01  0.40612905813E+02  0.51100000000E-03 0.  1.
         12    1    3    3    0    0  0.38374563687E+02 -0.60555193654E+01  0.59853118362E+01  0.39307765272E+02  0.00000000000E+00 0. -1.
</event>
<event>
 7    1  0.2429906E-015  0.9000779E+02  0.7816164E-02  0.1186339E+00
        -11   -1    0    0    0    0  0.00000000000E+00  0.00000000000E+00  0.45593999997E+02  0.45594000000E+02  0.51100000000E-03 0. -1.
         11   -1    0    0    0    0 -0.00000000000E+00 -0.00000000000E+00 -0.45593999997E+02  0.45594000000E+02  0.51100000000E-03 0.  1.
    9900012    2    1    2    0    0 -0.10401240175E+00  0.47135162030E+00  0.10769897621E+01  0.90007789054E+02  0.90000051069E+02 0.  0.
        -12    1    1    2    0    0  0.10401240175E+00 -0.47135162030E+00 -0.10769897621E+01  0.11802109461E+01  0.00000000000E+00 0.  1.
         11    1    3    3    0    0 -0.54716312553E+01 -0.37153314623E+01 -0.47201433696E+01  0.81254039998E+01  0.51100000000E-03 0. -1.
        -11    1    3    3    0    0  0.33918023086E+01 -0.30567593530E+02 -0.21601096526E+02  0.37583100836E+02  0.51100000000E-03 0.  1.
         12    1    3    3    0    0  0.19758165450E+01  0.34754276612E+02  0.27398229658E+02  0.44299284218E+02  0.00000000000E+00 0. -1.
</event>
<event>
 7    1  0.2429906E-015  0.9000762E+02  0.7816164E-02  0.1186339E+00
        -11   -1    0    0    0    0  0.00000000000E+00  0.00000000000E+00  0.45593999997E+02  0.45594000000E+02  0.51100000000E-03 0.  1.
         11   -1    0    0    0    0 -0.00000000000E+00 -0.00000000000E+00 -0.45593999997E+02  0.45594000000E+02  0.51100000000E-03 0. -1.
    9900012    2    1    2    0    0 -0.33702491034E+00  0.20779435319E+00 -0.11119919167E+01  0.90007622812E+02  0.89999882633E+02 0.  0.
        -12    1    1    2    0    0  0.33702491034E+00 -0.20779435319E+00  0.11119919167E+01  0.11803771881E+01  0.00000000000E+00 0.  1.
         11    1    3    3    0    0  0.28590082300E+02 -0.23010548292E+02 -0.89760731531E+01  0.37781583187E+02  0.51100000000E-03 0. -1.
        -11    1    3    3    0    0  0.31605491987E+01 -0.11006941447E+01 -0.82161343207E+01  0.88716099032E+01  0.51100000000E-03 0.  1.
        -12    1    3    3    0    0 -0.32087656409E+02  0.24319036789E+02  0.16080215557E+02  0.43354429722E+02  0.00000000000E+00 0.  1.
</event>
<event>
 7    1  0.2429906E-015  0.9000776E+02  0.7816164E-02  0.1186339E+00
        -11   -1    0    0    0    0  0.00000000000E+00  0.00000000000E+00  0.45593999997E+02  0.45594000000E+02  0.51100000000E-03 0.  1.
         11   -1    0    0    0    0 -0.00000000000E+00 -0.00000000000E+00 -0.45593999997E+02  0.45594000000E+02  0.51100000000E-03 0. -1.
    9900012    2    1    2    0    0  0.98429513854E+00  0.50857426254E+00 -0.40680306906E+00  0.90007757043E+02  0.90000018636E+02 0.  0.
        -12    1    1    2    0    0 -0.98429513854E+00 -0.50857426254E+00  0.40680306906E+00  0.11802429569E+01  0.00000000000E+00 0.  1.
         11    1    3    3    0    0  0.51511286761E+01  0.31221124986E+02 -0.16082266185E+02  0.35495521661E+02  0.51100000000E-03 0. -1.
        -11    1    3    3    0    0  0.25191031353E+01  0.99674737574E+01 -0.33584237921E+00  0.10286360098E+02  0.51100000000E-03 0.  1.
        -12    1    3    3    0    0 -0.66859366729E+01 -0.40680024481E+02  0.16011305495E+02  0.44225875284E+02  0.00000000000E+00 0.  1.
</event>
<event>
 7    1  0.2429906E-015  0.9000767E+02  0.7816164E-02  0.1186339E+00
        -11   -1    0    0    0    0  0.00000000000E+00  0.00000000000E+00  0.45593999997E+02  0.45594000000E+02  0.51100000000E-03 0. -1.
         11   -1    0    0    0    0 -0.00000000000E+00 -0.00000000000E+00 -0.45593999997E+02  0.45594000000E+02  0.51100000000E-03 0.  1.
    9900012    2    1    2    0    0  0.95500060399E+00 -0.57167776969E+00  0.39285961256E+00  0.90007669410E+02  0.89999929846E+02 0.  0.
        -12    1    1    2    0    0 -0.95500060399E+00  0.57167776969E+00 -0.39285961256E+00  0.11803305898E+01  0.00000000000E+00 0.  1.
         11    1    3    3    0    0 -0.16608691327E+02  0.39619465041E+02 -0.96416941727E+01  0.44028546473E+02  0.51100000000E-03 0. -1.
        -11    1    3    3    0    0  0.25755355571E+01 -0.76103954452E+01  0.57092117534E+01  0.98562975475E+01  0.51100000000E-03 0.  1.
        -12    1    3    3    0    0  0.14988156374E+02 -0.32580747366E+02  0.43253420318E+01  0.36122825389E+02  0.00000000000E+00 0.  1.
</event>
<event>
 7    1  0.2429906E-015  0.9000774E+02  0.7816164E-02  0.1186339E+00
        -11   -1    0    0    0    0  0.00000000000E+00  0.00000000000E+00  0.45593999997E+02  0.45594000000E+02  0.51100000000E-03 0. -1.
         11   -1    0    0    0    0 -0.00000000000E+00 -0.00000000000E+00 -0.45593999997E+02  0.45594000000E+02  0.51100000000E-03 0.  1.
    9900012    2    1    2    0    0 -0.73125844656E+00 -0.79057810888E+00  0.48298142541E+00  0.90007735742E+02  0.89999997054E+02 0.  0.
        -12    1    1    2    0    0  0.73125844656E+00  0.79057810888E+00 -0.48298142541E+00  0.11802642582E+01  0.00000000000E+00 0.  1.
         11    1    3    3    0    0 -0.68154311394E+01 -0.93168309174E+00 -0.69065612078E+01  0.97477547659E+01  0.51100000000E-03 0. -1.
        -11    1    3    3    0    0 -0.29524424557E+01 -0.72448083938E+01 -0.35221311302E+02  0.36079702538E+02  0.51100000000E-03 0.  1.
         12    1    3    3    0    0  0.90366151485E+01  0.73859133767E+01  0.42610853935E+02  0.44180278438E+02  0.00000000000E+00 0. -1.
</event>
<event>
 8    1  0.2429906E-015  0.9000782E+02  0.7816164E-02  0.1186339E+00
        -11   -1    0    0    0    0  0.00000000000E+00  0.00000000000E+00  0.45593999997E+02  0.45594000000E+02  0.51100000000E-03 0.  1.
         11   -1    0    0    0    0 -0.00000000000E+00 -0.00000000000E+00 -0.45593999997E+02  0.45594000000E+02  0.51100000000E-03 0. -1.
    9900012    2    1    2    0    0  0.21816950784E+00  0.80576869157E+00 -0.83423872334E+00  0.90007824011E+02  0.90000086487E+02 0.  0.
         23    2    3    3    0    0  0.19174720843E+02 -0.19155405874E+02 -0.11306592618E+01  0.62478072946E+02  0.56281717415E+02 0.  0.
        -12    1    1    2    0    0 -0.21816950784E+00 -0.80576869157E+00  0.83423872334E+00  0.11801759894E+01  0.00000000000E+00 0.  1.
         11    1    4    4    0    0  0.21092985870E+02  0.12044173689E+02  0.13692511104E+02  0.27882988243E+02  0.51100000000E-03 0.  1.
        -11    1    4    4    0    0 -0.19182650278E+01 -0.31199579563E+02 -0.14823170366E+02  0.34595084703E+02  0.51100000000E-03 0. -1.
        -12    1    3    3    0    0 -0.18956551335E+02  0.19961174565E+02  0.29642053842E+00  0.27529751064E+02  0.00000000000E+00 0.  1.
</event>
<event>
 7    1  0.2429906E-015  0.9000774E+02  0.7816164E-02  0.1186339E+00
        -11   -1    0    0    0    0  0.00000000000E+00  0.00000000000E+00  0.45593999997E+02  0.45594000000E+02  0.51100000000E-03 0. -1.
         11   -1    0    0    0    0 -0.00000000000E+00 -0.00000000000E+00 -0.45593999997E+02  0.45594000000E+02  0.51100000000E-03 0.  1.
    9900012    2    1    2    0    0  0.90248150303E+00 -0.15669243706E+00 -0.74429718897E+00  0.90007744227E+02  0.90000005651E+02 0.  0.
        -12    1    1    2    0    0 -0.90248150303E+00  0.15669243706E+00  0.74429718897E+00  0.11802557726E+01  0.00000000000E+00 0.  1.
         11    1    3    3    0    0 -0.52698796209E+01  0.19339190593E+01  0.77126823345E+01  0.95392422761E+01  0.51100000000E-03 0. -1.
        -11    1    3    3    0    0 -0.26234205377E+02 -0.27813953712E+02  0.20336341958E-01  0.38234146606E+02  0.51100000000E-03 0.  1.
         12    1    3    3    0    0  0.32406566501E+02  0.25723342216E+02 -0.84773158655E+01  0.42234355345E+02  0.00000000000E+00 0. -1.
</event>
<event>
 7    1  0.2429906E-015  0.9000759E+02  0.7816164E-02  0.1186339E+00
        -11   -1    0    0    0    0  0.00000000000E+00  0.00000000000E+00  0.45593999997E+02  0.45594000000E+02  0.51100000000E-03 0.  1.
         11   -1    0    0    0    0 -0.00000000000E+00 -0.00000000000E+00 -0.45593999997E+02  0.45594000000E+02  0.51100000000E-03 0. -1.
    9900012    2    1    2    0    0 -0.33387392992E+00 -0.11292873515E+01  0.81308102853E-01  0.90007587898E+02  0.89999847258E+02 0.  0.
        -12    1    1    2    0    0  0.33387392992E+00  0.11292873515E+01 -0.81308102853E-01  0.11804121022E+01  0.00000000000E+00 0.  1.
         11    1    3    3    0    0  0.18623726268E+01  0.17314397206E+01 -0.83547153334E+01  0.87331313898E+01  0.51100000000E-03 0. -1.
        -11    1    3    3    0    0  0.19766258411E+01 -0.30428375556E+02  0.32412574213E+02  0.44501326452E+02  0.51100000000E-03 0.  1.
         12    1    3    3    0    0 -0.41728723978E+01  0.27567648483E+02 -0.23976550776E+02  0.36773130056E+02  0.00000000000E+00 0. -1.
</event>
<event>
 7    1  0.2429906E-015  0.9000722E+02  0.7816164E-02  0.1186340E+00
        -11   -1    0    0    0    0  0.00000000000E+00  0.00000000000E+00  0.45593999997E+02  0.45594000000E+02  0.51100000000E-03 0. -1.
         11   -1    0    0    0    0 -0.00000000000E+00 -0.00000000000E+00 -0.45593999997E+02  0.45594000000E+02  0.51100000000E-03 0.  1.
    9900012    2    1    2    0    0 -0.76331392468E+00 -0.45047618929E-01  0.89976377329E+00  0.90007215395E+02  0.89999469837E+02 0.  0.
        -12    1    1    2    0    0  0.76331392468E+00  0.45047618929E-01 -0.89976377329E+00  0.11807846050E+01  0.00000000000E+00 0.  1.
         11    1    3    3    0    0 -0.10037932163E+02 -0.20828799488E+01  0.34540564293E+02  0.36029835594E+02  0.51100000000E-03 0. -1.
        -11    1    3    3    0    0 -0.56045554899E+01  0.29906277275E+01  0.77279776099E+01  0.10003826000E+02  0.51100000000E-03 0.  1.
        -12    1    3    3    0    0  0.14879173728E+02 -0.95279539764E+00 -0.41368778130E+02  0.43973553801E+02  0.00000000000E+00 0.  1.
</event>
<event>
 7    1  0.3084689E-015  0.9000748E+02  0.7816164E-02  0.1186340E+00
        -11   -1    0    0    0    0  0.00000000000E+00  0.00000000000E+00  0.45593999997E+02  0.45594000000E+02  0.51100000000E-03 0.  1.
         11   -1    0    0    0    0 -0.00000000000E+00 -0.00000000000E+00 -0.45593999997E+02  0.45594000000E+02  0.51100000000E-03 0. -1.
    9900012    2    1    2    0    0  0.10517166722E+00  0.67646538723E+00 -0.96175359984E+00  0.90007476181E+02  0.89999734067E+02 0.  0.
        -12    1    1    2    0    0 -0.10517166722E+00 -0.67646538723E+00  0.96175359984E+00  0.11805238187E+01  0.00000000000E+00 0.  1.
         11    1    3    3    0    0  0.96038036750E+01  0.15033074691E+02 -0.37659928504E+02  0.41671292215E+02  0.51100000000E-03 0. -1.
        -11    1    3    3    0    0 -0.63624127044E+01  0.58019302252E+01  0.33432052047E+01  0.92368669505E+01  0.51100000000E-03 0.  1.
        -12    1    3    3    0    0 -0.31362193034E+01 -0.20158539529E+02  0.33354969699E+02  0.39099317016E+02  0.00000000000E+00 0.  1.
</event>
<event>
 7    1  0.2429906E-015  0.9000773E+02  0.7816164E-02  0.1186339E+00
        -11   -1    0    0    0    0  0.00000000000E+00  0.00000000000E+00  0.45593999997E+02  0.45594000000E+02  0.51100000000E-03 0.  1.
         11   -1    0    0    0    0 -0.00000000000E+00 -0.00000000000E+00 -0.45593999997E+02  0.45594000000E+02  0.51100000000E-03 0. -1.
    9900012    2    1    2    0    0  0.86929287021E+00  0.66524272995E+00 -0.44137526998E+00  0.90007733033E+02  0.89999994309E+02 0.  0.
        -12    1    1    2    0    0 -0.86929287021E+00 -0.66524272995E+00  0.44137526998E+00  0.11802669668E+01  0.00000000000E+00 0.  1.
         11    1    3    3    0    0  0.12060241526E+01  0.68670419218E+01 -0.61403055254E+01  0.92905388013E+01  0.51100000000E-03 0. -1.
        -11    1    3    3    0    0  0.39553855020E+02 -0.81567929553E+01  0.85975254492E-01  0.40386236644E+02  0.51100000000E-03 0.  1.
         12    1    3    3    0    0 -0.39890586302E+02  0.19549937635E+01  0.56129550009E+01  0.40330957588E+02  0.00000000000E+00 0. -1.
</event>
<event>
 7    1  0.2429906E-015  0.9000775E+02  0.7816164E-02  0.1186339E+00
        -11   -1    0    0    0    0  0.00000000000E+00  0.00000000000E+00  0.45593999997E+02  0.45594000000E+02  0.51100000000E-03 0. -1.
         11   -1    0    0    0    0 -0.00000000000E+00 -0.00000000000E+00 -0.45593999997E+02  0.45594000000E+02  0.51100000000E-03 0.  1.
    9900012    2    1    2    0    0  0.52740860538E+00  0.68191003660E+00  0.80611592963E+00  0.90007752557E+02  0.90000014091E+02 0.  0.
        -12    1    1    2    0    0 -0.52740860538E+00 -0.68191003660E+00 -0.80611592963E+00  0.11802474431E+01  0.00000000000E+00 0.  1.
         11    1    3    3    0    0 -0.18569061569E+02  0.12037718102E+02 -0.42998801614E+01  0.22543417539E+02  0.51100000000E-03 0. -1.
        -11    1    3    3    0    0 -0.12185167483E+02  0.22388472203E+01 -0.21088494992E+02  0.24458441585E+02  0.51100000000E-03 0.  1.
        -12    1    3    3    0    0  0.31281637658E+02 -0.13594655285E+02  0.26194491083E+02  0.43005893433E+02  0.00000000000E+00 0.  1.
</event>
<event>
 7    1  0.2429906E-015  0.9000781E+02  0.7816164E-02  0.1186339E+00
        -11   -1    0    0    0    0  0.00000000000E+00  0.00000000000E+00  0.45593999997E+02  0.45594000000E+02  0.51100000000E-03 0. -1.
         11   -1    0    0    0    0 -0.00000000000E+00 -0.00000000000E+00 -0.45593999997E+02  0.45594000000E+02  0.51100000000E-03 0.  1.
    9900012    2    1    2    0    0  0.58814183463E+00  0.16760543428E-01  0.10230576479E+01  0.90007814131E+02  0.90000076478E+02 0.  0.
        -12    1    1    2    0    0 -0.58814183463E+00 -0.16760543428E-01 -0.10230576479E+01  0.11801858686E+01  0.00000000000E+00 0.  1.
         11    1    3    3    0    0  0.13193621487E+02 -0.16116688886E+02  0.28703567112E+02  0.35464264743E+02  0.51100000000E-03 0. -1.
        -11    1    3    3    0    0  0.33822640923E+01 -0.66476580436E+01  0.68956226096E+01  0.10157789095E+02  0.51100000000E-03 0.  1.
        -12    1    3    3    0    0 -0.15987743744E+02  0.22781107473E+02 -0.34576132073E+02  0.44385760294E+02  0.00000000000E+00 0.  1.
</event>
<event>
 7    1  0.2429906E-015  0.9000753E+02  0.7816164E-02  0.1186339E+00
        -11   -1    0    0    0    0  0.00000000000E+00  0.00000000000E+00  0.45593999997E+02  0.45594000000E+02  0.51100000000E-03 0.  1.
         11   -1    0    0    0    0 -0.00000000000E+00 -0.00000000000E+00 -0.45593999997E+02  0.45594000000E+02  0.51100000000E-03 0. -1.
    9900012    2    1    2    0    0 -0.94745811932E-01  0.11496249932E+01 -0.25079415848E+00  0.90007528864E+02  0.89999787444E+02 0.  0.
        -12    1    1    2    0    0  0.94745811932E-01 -0.11496249932E+01  0.25079415848E+00  0.11804711363E+01  0.00000000000E+00 0.  1.
         11    1    3    3    0    0 -0.18750257484E+02  0.11907966900E+02 -0.29793928437E+02  0.37162481125E+02  0.51100000000E-03 0. -1.
        -11    1    3    3    0    0  0.24116259180E+00  0.10102615025E+02 -0.24963441858E+01  0.10409261468E+02  0.51100000000E-03 0.  1.
        -12    1    3    3    0    0  0.18414349080E+02 -0.20860956932E+02  0.32039478464E+02  0.42435786271E+02  0.00000000000E+00 0.  1.
</event>
<event>
 7    1  0.2429906E-015  0.9000837E+02  0.7816164E-02  0.1186338E+00
        -11   -1    0    0    0    0  0.00000000000E+00  0.00000000000E+00  0.45593999997E+02  0.45594000000E+02  0.51100000000E-03 0.  1.
         11   -1    0    0    0    0 -0.00000000000E+00 -0.00000000000E+00 -0.45593999997E+02  0.45594000000E+02  0.51100000000E-03 0. -1.
    9900012    2    1    2    0    0 -0.98694731918E+00 -0.63920042414E+00  0.94261723711E-01  0.90008369776E+02  0.90000639455E+02 0.  0.
        -12    1    1    2    0    0  0.98694731918E+00  0.63920042414E+00 -0.94261723711E-01  0.11796302241E+01  0.00000000000E+00 0.  1.
         11    1    3    3    0    0 -0.64076438760E+01  0.28055226422E+01  0.46622602688E+01  0.84062791063E+01  0.51100000000E-03 0. -1.
        -11    1    3    3    0    0 -0.26676998682E+02  0.16325036003E+01  0.25783002885E+02  0.37136108637E+02  0.51100000000E-03 0.  1.
         12    1    3    3    0    0  0.32097695239E+02 -0.50772266666E+01 -0.30351001430E+02  0.44465982032E+02  0.00000000000E+00 0. -1.
</event>
<event>
 7    1  0.2429906E-015  0.9000746E+02  0.7816164E-02  0.1186340E+00
        -11   -1    0    0    0    0  0.00000000000E+00  0.00000000000E+00  0.45593999997E+02  0.45594000000E+02  0.51100000000E-03 0. -1.
         11   -1    0    0    0    0 -0.00000000000E+00 -0.00000000000E+00 -0.45593999997E+02  0.45594000000E+02  0.51100000000E-03 0.  1.
    9900012    2    1    2    0    0  0.79710306136E+00 -0.76317063254E+00 -0.41937226283E+00  0.90007459531E+02  0.89999717196E+02 0.  0.
        -12    1    1    2    0    0 -0.79710306136E+00  0.76317063254E+00  0.41937226283E+00  0.11805404693E+01  0.00000000000E+00 0.  1.
         11    1    3    3    0    0 -0.17057523396E+02 -0.34011850961E+02 -0.48812234216E+01  0.38361327565E+02  0.51100000000E-03 0. -1.
        -11    1    3    3    0    0 -0.84334099488E+01  0.22208304961E+01 -0.47763253862E+01  0.99432276407E+01  0.51100000000E-03 0.  1.
        -12    1    3    3    0    0  0.26288036406E+02  0.31027849832E+02  0.92381765449E+01  0.41702904325E+02  0.00000000000E+00 0.  1.
</event>
<event>
 7    1  0.2429906E-015  0.9000750E+02  0.7816164E-02  0.1186340E+00
        -11   -1    0    0    0    0  0.00000000000E+00  0.00000000000E+00  0.45593999997E+02  0.45594000000E+02  0.51100000000E-03 0.  1.
         11   -1    0    0    0    0 -0.00000000000E+00 -0.00000000000E+00 -0.45593999997E+02  0.45594000000E+02  0.51100000000E-03 0. -1.
    9900012    2    1    2    0    0  0.20661502622E+00  0.47639725724E+00 -0.10601530297E+01  0.90007504950E+02  0.89999763215E+02 0.  0.
        -12    1    1    2    0    0 -0.20661502622E+00 -0.47639725724E+00  0.10601530297E+01  0.11804950496E+01  0.00000000000E+00 0.  1.
         11    1    3    3    0    0  0.23417393838E+02 -0.18152414100E+02 -0.29303785813E+02  0.41672488947E+02  0.51100000000E-03 0. -1.
        -11    1    3    3    0    0  0.37678535834E+01 -0.10602329756E+01  0.89383990097E+01  0.97578579467E+01  0.51100000000E-03 0.  1.
        -12    1    3    3    0    0 -0.26978632395E+02  0.19689044333E+02  0.19305233774E+02  0.38577158056E+02  0.00000000000E+00 0.  1.
</event>
<event>
 7    1  0.2429906E-015  0.9000787E+02  0.7816164E-02  0.1186339E+00
        -11   -1    0    0    0    0  0.00000000000E+00  0.00000000000E+00  0.45593999997E+02  0.45594000000E+02  0.51100000000E-03 0. -1.
         11   -1    0    0    0    0 -0.00000000000E+00 -0.00000000000E+00 -0.45593999997E+02  0.45594000000E+02  0.51100000000E-03 0.  1.
    9900012    2    1    2    0    0 -0.64725409205E+00 -0.96525770436E+00  0.20506351557E+00  0.90007868083E+02  0.90000131142E+02 0.  0.
        -12    1    1    2    0    0  0.64725409205E+00  0.96525770436E+00 -0.20506351557E+00  0.11801319167E+01  0.00000000000E+00 0.  1.
         11    1    3    3    0    0 -0.36115226039E+02  0.10739938914E+02  0.13418941317E+02  0.39996547677E+02  0.51100000000E-03 0. -1.
        -11    1    3    3    0    0  0.34053223147E+01  0.46310401935E+01  0.67451066219E+01  0.88622354371E+01  0.51100000000E-03 0.  1.
        -12    1    3    3    0    0  0.32062649632E+02 -0.16336236812E+02 -0.19958984424E+02  0.41149084969E+02  0.00000000000E+00 0.  1.
</event>
<event>
 7    1  0.2429906E-015  0.9000777E+02  0.7816164E-02  0.1186339E+00
        -11   -1    0    0    0    0  0.00000000000E+00  0.00000000000E+00  0.45593999997E+02  0.45594000000E+02  0.51100000000E-03 0.  1.
         11   -1    0    0    0    0 -0.00000000000E+00 -0.00000000000E+00 -0.45593999997E+02  0.45594000000E+02  0.51100000000E-03 0. -1.
    9900012    2    1    2    0    0  0.76472817318E+00  0.86521666986E+00 -0.24401148545E+00  0.90007766688E+02  0.90000028409E+02 0.  0.
        -12    1    1    2    0    0 -0.76472817318E+00 -0.86521666986E+00  0.24401148545E+00  0.11802333115E+01  0.00000000000E+00 0.  1.
         11    1    3    3    0    0  0.44813987621E+01  0.66673592532E+01  0.41448789888E+01  0.90397254587E+01  0.51100000000E-03 0. -1.
        -11    1    3    3    0    0 -0.35922610386E+02 -0.14154336877E+01  0.19247936168E+02  0.40778921472E+02  0.51100000000E-03 0.  1.
         12    1    3    3    0    0  0.32205939797E+02 -0.43867088956E+01 -0.23636826642E+02  0.40189119757E+02  0.00000000000E+00 0. -1.
</event>
<event>
 7    1  0.2429906E-015  0.9000776E+02  0.7816164E-02  0.1186339E+00
        -11   -1    0    0    0    0  0.00000000000E+00  0.00000000000E+00  0.45593999997E+02  0.45594000000E+02  0.51100000000E-03 0. -1.
         11   -1    0    0    0    0 -0.00000000000E+00 -0.00000000000E+00 -0.45593999997E+02  0.45594000000E+02  0.51100000000E-03 0.  1.
    9900012    2    1    2    0    0 -0.70687311505E+00  0.94506924018E+00 -0.11582474261E-01  0.90007762895E+02  0.90000024566E+02 0.  0.
        -12    1    1    2    0    0  0.70687311505E+00 -0.94506924018E+00  0.11582474261E-01  0.11802371047E+01  0.00000000000E+00 0.  1.
         11    1    3    3    0    0 -0.29434395398E+00 -0.85558673290E+01 -0.13369042177E+02  0.15875162774E+02  0.51100000000E-03 0. -1.
        -11    1    3    3    0    0  0.31643010821E+01 -0.27317590540E+02 -0.11240709447E+02  0.29708872469E+02  0.51100000000E-03 0.  1.
         12    1    3    3    0    0 -0.35768302432E+01  0.36818527109E+02  0.24598169150E+02  0.44423727653E+02  0.00000000000E+00 0. -1.
</event>
<event>
 7    1  0.2429906E-015  0.9000815E+02  0.7816164E-02  0.1186338E+00
        -11   -1    0    0    0    0  0.00000000000E+00  0.00000000000E+00  0.45593999997E+02  0.45594000000E+02  0.51100000000E-03 0.  1.
         11   -1    0    0    0    0 -0.00000000000E+00 -0.00000000000E+00 -0.45593999997E+02  0.45594000000E+02  0.51100000000E-03 0. -1.
    9900012    2    1    2    0    0 -0.74551518787E+00 -0.90114201855E+00 -0.15551783490E+00  0.90008154404E+02  0.90000421241E+02 0.  0.
        -12    1    1    2    0    0  0.74551518787E+00  0.90114201855E+00  0.15551783490E+00  0.11798455958E+01  0.00000000000E+00 0.  1.
         11    1    3    3    0    0  0.24645146740E+01  0.38729459757E+00 -0.10000992615E+02  0.10307457651E+02  0.51100000000E-03 0. -1.
        -11    1    3    3    0    0  0.24873430850E+02 -0.25509270934E+02 -0.10833644533E+02  0.37239472605E+02  0.51100000000E-03 0.  1.
         12    1    3    3    0    0 -0.28083460711E+02  0.24220834318E+02  0.20679119313E+02  0.42461224148E+02  0.00000000000E+00 0. -1.
</event>
<event>
 7    1  0.2429906E-015  0.9000770E+02  0.7816164E-02  0.1186339E+00
        -11   -1    0    0    0    0  0.00000000000E+00  0.00000000000E+00  0.45593999997E+02  0.45594000000E+02  0.51100000000E-03 0.  1.
         11   -1    0    0    0    0 -0.00000000000E+00 -0.00000000000E+00 -0.45593999997E+02  0.45594000000E+02  0.51100000000E-03 0. -1.
    9900012    2    1    2    0    0 -0.11478526846E+01 -0.27323269174E+00 -0.29580820197E-01  0.90007704734E+02  0.89999965637E+02 0.  0.
        -12    1    1    2    0    0  0.11478526846E+01  0.27323269174E+00  0.29580820197E-01  0.11802952657E+01  0.00000000000E+00 0.  1.
         11    1    3    3    0    0 -0.21149985733E+02 -0.11213132179E+02 -0.32150906626E+02  0.40084124375E+02  0.51100000000E-03 0. -1.
        -11    1    3    3    0    0 -0.33399394308E+01 -0.74200830422E+01  0.41804311623E+01  0.91481600729E+01  0.51100000000E-03 0.  1.
        -12    1    3    3    0    0  0.23342072479E+02  0.18359982530E+02  0.27940894643E+02  0.40775420287E+02  0.00000000000E+00 0.  1.
</event>
<event>
 7    1  0.2429906E-015  0.9000772E+02  0.7816164E-02  0.1186339E+00
        -11   -1    0    0    0    0  0.00000000000E+00  0.00000000000E+00  0.45593999997E+02  0.45594000000E+02  0.51100000000E-03 0. -1.
         11   -1    0    0    0    0 -0.00000000000E+00 -0.00000000000E+00 -0.45593999997E+02  0.45594000000E+02  0.51100000000E-03 0.  1.
    9900012    2    1    2    0    0 -0.48295999273E+00 -0.64464768689E+00  0.86269690127E+00  0.90007717433E+02  0.89999978503E+02 0.  0.
        -12    1    1    2    0    0  0.48295999273E+00  0.64464768689E+00 -0.86269690127E+00  0.11802825671E+01  0.00000000000E+00 0.  1.
         11    1    3    3    0    0 -0.30379775695E+01 -0.64211262981E+01  0.52779774081E+01  0.88497014882E+01  0.51100000000E-03 0. -1.
        -11    1    3    3    0    0 -0.96013486652E+01 -0.21329153574E+02 -0.32656686342E+02  0.40169364589E+02  0.51100000000E-03 0.  1.
         12    1    3    3    0    0  0.12156366242E+02  0.27105632186E+02  0.28241405835E+02  0.40988651355E+02  0.00000000000E+00 0. -1.
</event>
<event>
 7    1  0.2429906E-015  0.9000770E+02  0.7816164E-02  0.1186339E+00
        -11   -1    0    0    0    0  0.00000000000E+00  0.00000000000E+00  0.45593999997E+02  0.45594000000E+02  0.51100000000E-03 0.  1.
         11   -1    0    0    0    0 -0.00000000000E+00 -0.00000000000E+00 -0.45593999997E+02  0.45594000000E+02  0.51100000000E-03 0. -1.
    9900012    2    1    2    0    0  0.14351962273E+00  0.87900992104E+00 -0.77449641812E+00  0.90007702993E+02  0.89999963872E+02 0.  0.
        -12    1    1    2    0    0 -0.14351962273E+00 -0.87900992104E+00  0.77449641812E+00  0.11802970071E+01  0.00000000000E+00 0.  1.
         11    1    3    3    0    0  0.37374315890E+01  0.77408706692E+01 -0.36602572254E+01  0.93427488897E+01  0.51100000000E-03 0. -1.
        -11    1    3    3    0    0 -0.90554574939E+01  0.35883095969E+02  0.58636604885E+01  0.37469726464E+02  0.51100000000E-03 0.  1.
         12    1    3    3    0    0  0.54615455276E+01 -0.42744956717E+02 -0.29778996812E+01  0.43195227639E+02  0.00000000000E+00 0. -1.
</event>
<event>
 7    1  0.2429906E-015  0.9000779E+02  0.7816164E-02  0.1186339E+00
        -11   -1    0    0    0    0  0.00000000000E+00  0.00000000000E+00  0.45593999997E+02  0.45594000000E+02  0.51100000000E-03 0.  1.
         11   -1    0    0    0    0 -0.00000000000E+00 -0.00000000000E+00 -0.45593999997E+02  0.45594000000E+02  0.51100000000E-03 0. -1.
    9900012    2    1    2    0    0 -0.10612275040E+01  0.33697319164E+00 -0.39132936061E+00  0.90007790944E+02  0.90000052985E+02 0.  0.
        -12    1    1    2    0    0  0.10612275040E+01 -0.33697319164E+00  0.39132936061E+00  0.11802090559E+01  0.00000000000E+00 0.  1.
         11    1    3    3    0    0 -0.25604107492E+02 -0.80292648362E+01 -0.25043833453E+02  0.36704672843E+02  0.51100000000E-03 0. -1.
        -11    1    3    3    0    0 -0.23603297329E+01 -0.12730842404E+02  0.85181629136E+01  0.15498535558E+02  0.51100000000E-03 0.  1.
        -12    1    3    3    0    0  0.26903209721E+02  0.21097080431E+02  0.16134341179E+02  0.37804582543E+02  0.00000000000E+00 0.  1.
</event>
<event>
 7    1  0.2429906E-015  0.9000776E+02  0.7816164E-02  0.1186339E+00
        -11   -1    0    0    0    0  0.00000000000E+00  0.00000000000E+00  0.45593999997E+02  0.45594000000E+02  0.51100000000E-03 0.  1.
         11   -1    0    0    0    0 -0.00000000000E+00 -0.00000000000E+00 -0.45593999997E+02  0.45594000000E+02  0.51100000000E-03 0. -1.
    9900012    2    1    2    0    0  0.86729226047E+00  0.79807205127E+00  0.62014035037E-01  0.90007762480E+02  0.90000024144E+02 0.  0.
        -12    1    1    2    0    0 -0.86729226047E+00 -0.79807205127E+00 -0.62014035037E-01  0.11802375204E+01  0.00000000000E+00 0.  1.
         11    1    3    3    0    0 -0.44777789550E+01  0.34603513935E+01  0.64280895420E+01  0.85641620464E+01  0.51100000000E-03 0. -1.
        -11    1    3    3    0    0 -0.26063498575E+02 -0.20581140766E+01  0.25624162667E+02  0.36607915868E+02  0.51100000000E-03 0.  1.
         12    1    3    3    0    0  0.31408569791E+02 -0.60416526568E+00 -0.31990238174E+02  0.44835684565E+02  0.00000000000E+00 0. -1.
</event>
<event>
 7    1  0.2429906E-015  0.9000774E+02  0.7816164E-02  0.1186339E+00
        -11   -1    0    0    0    0  0.00000000000E+00  0.00000000000E+00  0.45593999997E+02  0.45594000000E+02  0.51100000000E-03 0. -1.
         11   -1    0    0    0    0 -0.00000000000E+00 -0.00000000000E+00 -0.45593999997E+02  0.45594000000E+02  0.51100000000E-03 0.  1.
    9900012    2    1    2    0    0 -0.19251893576E-01 -0.97957515170E+00  0.65809265900E+00  0.90007735597E+02  0.89999996907E+02 0.  0.
        -12    1    1    2    0    0  0.19251893576E-01  0.97957515170E+00 -0.65809265900E+00  0.11802644030E+01  0.00000000000E+00 0.  1.
         11    1    3    3    0    0  0.15961788976E+02 -0.27123112103E+02 -0.21181964342E+02  0.37935702591E+02  0.51100000000E-03 0. -1.
        -11    1    3    3    0    0  0.96674226999E+01  0.15011760201E+01  0.11360066857E+02  0.14992121610E+02  0.51100000000E-03 0.  1.
        -12    1    3    3    0    0 -0.25648463569E+02  0.24642360931E+02  0.10479990143E+02  0.37079911396E+02  0.00000000000E+00 0.  1.
</event>
<event>
 7    1  0.2429906E-015  0.9000900E+02  0.7816164E-02  0.1186337E+00
        -11   -1    0    0    0    0  0.00000000000E+00  0.00000000000E+00  0.45593999997E+02  0.45594000000E+02  0.51100000000E-03 0.  1.
         11   -1    0    0    0    0 -0.00000000000E+00 -0.00000000000E+00 -0.45593999997E+02  0.45594000000E+02  0.51100000000E-03 0. -1.
    9900012    2    1    2    0    0 -0.73994545359E+00 -0.82561592030E+00 -0.40110282968E+00  0.90008998557E+02  0.90001276529E+02 0.  0.
        -12    1    1    2    0    0  0.73994545359E+00  0.82561592030E+00  0.40110282968E+00  0.11790014428E+01  0.00000000000E+00 0.  1.
         11    1    3    3    0    0 -0.15054820258E+02 -0.33627374326E+02 -0.13665855949E+02  0.39296355252E+02  0.51100000000E-03 0. -1.
        -11    1    3    3    0    0 -0.80178407154E+00 -0.62232676676E+01  0.50707828847E+01  0.80675124719E+01  0.51100000000E-03 0.  1.
        -12    1    3    3    0    0  0.15116658876E+02  0.39025026073E+02  0.81939702345E+01  0.42645130833E+02  0.00000000000E+00 0.  1.
</event>
<event>
 7    1  0.2429906E-015  0.9000774E+02  0.7816164E-02  0.1186339E+00
        -11   -1    0    0    0    0  0.00000000000E+00  0.00000000000E+00  0.45593999997E+02  0.45594000000E+02  0.51100000000E-03 0. -1.
         11   -1    0    0    0    0 -0.00000000000E+00 -0.00000000000E+00 -0.45593999997E+02  0.45594000000E+02  0.51100000000E-03 0.  1.
    9900012    2    1    2    0    0 -0.20587017081E+00 -0.80451446783E+00 -0.83867663073E+00  0.90007743864E+02  0.90000005283E+02 0.  0.
        -12    1    1    2    0    0  0.20587017081E+00  0.80451446783E+00  0.83867663073E+00  0.11802561362E+01  0.00000000000E+00 0.  1.
         11    1    3    3    0    0  0.15700113684E+01 -0.27980619189E+01  0.88641490285E+01  0.94269414159E+01  0.51100000000E-03 0. -1.
        -11    1    3    3    0    0  0.90030966588E+00  0.34679068437E+02  0.16678525449E+02  0.38491837531E+02  0.51100000000E-03 0.  1.
         12    1    3    3    0    0 -0.26761912051E+01 -0.32685520985E+02 -0.26381351108E+02  0.42088964917E+02  0.00000000000E+00 0. -1.
</event>
<event>
 7    1  0.2429906E-015  0.9000772E+02  0.7816164E-02  0.1186339E+00
        -11   -1    0    0    0    0  0.00000000000E+00  0.00000000000E+00  0.45593999997E+02  0.45594000000E+02  0.51100000000E-03 0.  1.
         11   -1    0    0    0    0 -0.00000000000E+00 -0.00000000000E+00 -0.45593999997E+02  0.45594000000E+02  0.51100000000E-03 0. -1.
    9900012    2    1    2    0    0 -0.22023674554E-01 -0.16188109358E+00 -0.11689195050E+01  0.90007718957E+02  0.89999980047E+02 0.  0.
        -12    1    1    2    0    0  0.22023674554E-01  0.16188109358E+00  0.11689195050E+01  0.11802810427E+01  0.00000000000E+00 0.  1.
         11    1    3    3    0    0  0.42456619817E+01 -0.36095646961E+01  0.55357008328E+01  0.78548448062E+01  0.51100000000E-03 0. -1.
        -11    1    3    3    0    0  0.32225550566E+02  0.21810388587E+02 -0.12545255945E+02  0.40884747848E+02  0.51100000000E-03 0.  1.
         12    1    3    3    0    0 -0.36493236222E+02 -0.18362704985E+02  0.58406356070E+01  0.41268126303E+02  0.00000000000E+00 0. -1.
</event>
<event>
 7    1  0.2429906E-015  0.9000780E+02  0.7816164E-02  0.1186339E+00
        -11   -1    0    0    0    0  0.00000000000E+00  0.00000000000E+00  0.45593999997E+02  0.45594000000E+02  0.51100000000E-03 0.  1.
         11   -1    0    0    0    0 -0.00000000000E+00 -0.00000000000E+00 -0.45593999997E+02  0.45594000000E+02  0.51100000000E-03 0. -1.
    9900012    2    1    2    0    0 -0.42296976109E+00 -0.55684730979E+00 -0.95072579268E+00  0.90007804305E+02  0.90000066522E+02 0.  0.
        -12    1    1    2    0    0  0.42296976109E+00  0.55684730979E+00  0.95072579268E+00  0.11801956948E+01  0.00000000000E+00 0.  1.
         11    1    3    3    0    0 -0.32251148317E+02  0.16201383417E+02  0.96898646289E+01  0.37369972829E+02  0.51100000000E-03 0. -1.
        -11    1    3    3    0    0  0.34021424297E+00 -0.19172765290E+01  0.11315511154E+02  0.11481832953E+02  0.51100000000E-03 0.  1.
        -12    1    3    3    0    0  0.31487964313E+02 -0.14840954198E+02 -0.21956101576E+02  0.41155998524E+02  0.00000000000E+00 0.  1.
</event>
<event>
 7    1  0.2429906E-015  0.9000771E+02  0.7816164E-02  0.1186339E+00
        -11   -1    0    0    0    0  0.00000000000E+00  0.00000000000E+00  0.45593999997E+02  0.45594000000E+02  0.51100000000E-03 0. -1.
         11   -1    0    0    0    0 -0.00000000000E+00 -0.00000000000E+00 -0.45593999997E+02  0.45594000000E+02  0.51100000000E-03 0.  1.
    9900012    2    1    2    0    0  0.69331877867E+00 -0.58791875212E+00  0.75282254474E+00  0.90007711403E+02  0.89999972394E+02 0.  0.
        -12    1    1    2    0    0 -0.69331877867E+00  0.58791875212E+00 -0.75282254474E+00  0.11802885968E+01  0.00000000000E+00 0.  1.
         11    1    3    3    0    0 -0.28485569433E+00 -0.85406581165E+01  0.85729622079E+01  0.12104530768E+02  0.51100000000E-03 0. -1.
        -11    1    3    3    0    0 -0.16832800113E+02 -0.20287821065E+02 -0.28346653166E+02  0.38710096735E+02  0.51100000000E-03 0.  1.
         12    1    3    3    0    0  0.17810974586E+02  0.28240560429E+02  0.20526513503E+02  0.39193083901E+02  0.00000000000E+00 0. -1.
</event>
<event>
 7    1  0.2429906E-015  0.9000770E+02  0.7816164E-02  0.1186339E+00
        -11   -1    0    0    0    0  0.00000000000E+00  0.00000000000E+00  0.45593999997E+02  0.45594000000E+02  0.51100000000E-03 0. -1.
         11   -1    0    0    0    0 -0.00000000000E+00 -0.00000000000E+00 -0.45593999997E+02  0.45594000000E+02  0.51100000000E-03 0.  1.
    9900012    2    1    2    0    0  0.98012875725E+00  0.65758164095E+00  0.59748230042E-02  0.90007702710E+02  0.89999963585E+02 0.  0.
        -12    1    1    2    0    0 -0.98012875725E+00 -0.65758164095E+00 -0.59748230042E-02  0.11802972904E+01  0.00000000000E+00 0.  1.
         11    1    3    3    0    0 -0.55016632065E+01 -0.67753541980E+01  0.11966468031E+01  0.88094089687E+01  0.51100000000E-03 0. -1.
        -11    1    3    3    0    0 -0.35161806808E+02  0.14940542228E+02  0.46339707437E+01  0.38484362346E+02  0.51100000000E-03 0.  1.
         12    1    3    3    0    0  0.41643598772E+02 -0.75076063887E+01 -0.58246427238E+01  0.42713931395E+02  0.00000000000E+00 0. -1.
</event>
<event>
 7    1  0.2429906E-015  0.9000745E+02  0.7816164E-02  0.1186340E+00
        -11   -1    0    0    0    0  0.00000000000E+00  0.00000000000E+00  0.45593999997E+02  0.45594000000E+02  0.51100000000E-03 0.  1.
         11   -1    0    0    0    0 -0.00000000000E+00 -0.00000000000E+00 -0.45593999997E+02  0.45594000000E+02  0.51100000000E-03 0. -1.
    9900012    2    1    2    0    0 -0.54231902642E-01  0.84066280642E+00 -0.82706955006E+00  0.90007449665E+02  0.89999707200E+02 0.  0.
        -12    1    1    2    0    0  0.54231902642E-01 -0.84066280642E+00  0.82706955006E+00  0.11805503352E+01  0.00000000000E+00 0.  1.
         11    1    3    3    0    0 -0.29946866313E+02  0.26834448604E+02  0.68224925138E+01  0.40785399817E+02  0.51100000000E-03 0. -1.
        -11    1    3    3    0    0 -0.12848364617E+01 -0.24333030467E+01 -0.97069230824E+01  0.10089406545E+02  0.51100000000E-03 0.  1.
        -12    1    3    3    0    0  0.31177470872E+02 -0.23560482751E+02  0.20573610186E+01  0.39132643302E+02  0.00000000000E+00 0.  1.
</event>
<event>
 7    1  0.2429906E-015  0.9000780E+02  0.7816164E-02  0.1186339E+00
        -11   -1    0    0    0    0  0.00000000000E+00  0.00000000000E+00  0.45593999997E+02  0.45594000000E+02  0.51100000000E-03 0. -1.
         11   -1    0    0    0    0 -0.00000000000E+00 -0.00000000000E+00 -0.45593999997E+02  0.45594000000E+02  0.51100000000E-03 0.  1.
    9900012    2    1    2    0    0 -0.30482786095E-01  0.11595380422E+01  0.21773000579E+00  0.90007803395E+02  0.90000065600E+02 0.  0.
        -12    1    1    2    0    0  0.30482786095E-01 -0.11595380422E+01 -0.21773000579E+00  0.11801966052E+01  0.00000000000E+00 0.  1.
         11    1    3    3    0    0 -0.13374018890E+02 -0.43191743653E+01  0.35811073100E+02  0.38470152136E+02  0.51100000000E-03 0. -1.
        -11    1    3    3    0    0 -0.35310346130E+01 -0.67811231388E+01  0.25537256640E+01  0.80606049084E+01  0.51100000000E-03 0.  1.
        -12    1    3    3    0    0  0.16874570717E+02  0.12259835546E+02 -0.38147068759E+02  0.43477046351E+02  0.00000000000E+00 0.  1.
</event>
<event>
 7    1  0.2429906E-015  0.9000770E+02  0.7816164E-02  0.1186339E+00
        -11   -1    0    0    0    0  0.00000000000E+00  0.00000000000E+00  0.45593999997E+02  0.45594000000E+02  0.51100000000E-03 0.  1.
         11   -1    0    0    0    0 -0.00000000000E+00 -0.00000000000E+00 -0.45593999997E+02  0.45594000000E+02  0.51100000000E-03 0. -1.
    9900012    2    1    2    0    0  0.59851661219E+00 -0.96619890513E+00 -0.31835774717E+00  0.90007697448E+02  0.89999958254E+02 0.  0.
        -12    1    1    2    0    0 -0.59851661219E+00  0.96619890513E+00  0.31835774717E+00  0.11803025521E+01  0.00000000000E+00 0.  1.
         11    1    3    3    0    0  0.21027230021E+01 -0.32169675968E+02 -0.25957104604E+02  0.41389379986E+02  0.51100000000E-03 0. -1.
        -11    1    3    3    0    0 -0.16761781420E+01 -0.39053181165E+01 -0.12111700885E+01  0.44190514819E+01  0.51100000000E-03 0.  1.
        -12    1    3    3    0    0  0.17197175212E+00  0.35108795180E+02  0.26849916945E+02  0.44199265980E+02  0.00000000000E+00 0.  1.
</event>
<event>
 7    1  0.2429906E-015  0.9000774E+02  0.7816164E-02  0.1186339E+00
        -11   -1    0    0    0    0  0.00000000000E+00  0.00000000000E+00  0.45593999997E+02  0.45594000000E+02  0.51100000000E-03 0. -1.
         11   -1    0    0    0    0 -0.00000000000E+00 -0.00000000000E+00 -0.45593999997E+02  0.45594000000E+02  0.51100000000E-03 0.  1.
    9900012    2    1    2    0    0  0.63560820345E-01  0.56680113680E+00  0.10332988785E+01  0.90007741520E+02  0.90000002908E+02 0.  0.
        -12    1    1    2    0    0 -0.63560820345E-01 -0.56680113680E+00 -0.10332988785E+01  0.11802584797E+01  0.00000000000E+00 0.  1.
         11    1    3    3    0    0 -0.67084799280E+01  0.27024652540E+01 -0.48159463799E+01  0.86890943825E+01  0.51100000000E-03 0. -1.
        -11    1    3    3    0    0 -0.23700553129E+02  0.20977997677E+02 -0.17837195937E+02  0.36331228500E+02  0.51100000000E-03 0.  1.
         12    1    3    3    0    0  0.30472593878E+02 -0.23113661795E+02  0.23686441195E+02  0.44987418638E+02  0.00000000000E+00 0. -1.
</event>
<event>
 7    1  0.2429906E-015  0.9000773E+02  0.7816164E-02  0.1186339E+00
        -11   -1    0    0    0    0  0.00000000000E+00  0.00000000000E+00  0.45593999997E+02  0.45594000000E+02  0.51100000000E-03 0. -1.
         11   -1    0    0    0    0 -0.00000000000E+00 -0.00000000000E+00 -0.45593999997E+02  0.45594000000E+02  0.51100000000E-03 0.  1.
    9900012    2    1    2    0    0  0.80333460881E+00  0.85313411646E+00 -0.14090579237E+00  0.90007729371E+02  0.89999990599E+02 0.  0.
        -12    1    1    2    0    0 -0.80333460881E+00 -0.85313411646E+00  0.14090579237E+00  0.11802706286E+01  0.00000000000E+00 0.  1.
         11    1    3    3    0    0  0.18822435984E+02  0.30725896897E+02  0.15465693913E+02  0.39211637622E+02  0.51100000000E-03 0. -1.
        -11    1    3    3    0    0  0.87625210480E-01 -0.76990612746E+01  0.98397057477E+01  0.12494119903E+02  0.51100000000E-03 0.  1.
        -12    1    3    3    0    0 -0.18106726586E+02 -0.22173701506E+02 -0.25446305453E+02  0.38301971847E+02  0.00000000000E+00 0.  1.
</event>
<event>
 7    1  0.2429906E-015  0.9000760E+02  0.7816164E-02  0.1186339E+00
        -11   -1    0    0    0    0  0.00000000000E+00  0.00000000000E+00  0.45593999997E+02  0.45594000000E+02  0.51100000000E-03 0. -1.
         11   -1    0    0    0    0 -0.00000000000E+00 -0.00000000000E+00 -0.45593999997E+02  0.45594000000E+02  0.51100000000E-03 0.  1.
    9900012    2    1    2    0    0  0.10326271641E+01  0.53246563013E+00  0.20856277274E+00  0.90007603059E+02  0.89999862620E+02 0.  0.
        -12    1    1    2    0    0 -0.10326271641E+01 -0.53246563013E+00 -0.20856277274E+00  0.11803969407E+01  0.00000000000E+00 0.  1.
         11    1    3    3    0    0 -0.58699647064E+01 -0.43657865395E+01  0.66531040406E+01  0.98883957950E+01  0.51100000000E-03 0. -1.
        -11    1    3    3    0    0 -0.12193201889E+02  0.18782953335E+02 -0.35935309541E+02  0.42341704977E+02  0.51100000000E-03 0.  1.
         12    1    3    3    0    0  0.19095793759E+02 -0.13884701166E+02  0.29490768273E+02  0.37777502287E+02  0.00000000000E+00 0. -1.
</event>
<event>
 7    1  0.2429906E-015  0.9000778E+02  0.7816164E-02  0.1186339E+00
        -11   -1    0    0    0    0  0.00000000000E+00  0.00000000000E+00  0.45593999997E+02  0.45594000000E+02  0.51100000000E-03 0.  1.
         11   -1    0    0    0    0 -0.00000000000E+00 -0.00000000000E+00 -0.45593999997E+02  0.45594000000E+02  0.51100000000E-03 0. -1.
    9900012    2    1    2    0    0  0.53449445042E+00  0.95082635650E+00 -0.45074130109E+00  0.90007778496E+02  0.90000040372E+02 0.  0.
        -12    1    1    2    0    0 -0.53449445042E+00 -0.95082635650E+00  0.45074130109E+00  0.11802215039E+01  0.00000000000E+00 0.  1.
         11    1    3    3    0    0 -0.37265746352E+01  0.91419273697E+01 -0.81525052428E+00  0.99058986580E+01  0.51100000000E-03 0. -1.
        -11    1    3    3    0    0 -0.10261523867E+02 -0.25393824598E+02  0.31460224312E+02  0.41711999639E+02  0.51100000000E-03 0.  1.
         12    1    3    3    0    0  0.14522592953E+02  0.17202723585E+02 -0.31095715089E+02  0.38389880199E+02  0.00000000000E+00 0. -1.
</event>
<event>
 7    1  0.2429906E-015  0.9000778E+02  0.7816164E-02  0.1186339E+00
        -11   -1    0    0    0    0  0.00000000000E+00  0.00000000000E+00  0.45593999997E+02  0.45594000000E+02  0.51100000000E-03 0. -1.
         11   -1    0    0    0    0 -0.00000000000E+00 -0.00000000000E+00 -0.45593999997E+02  0.45594000000E+02  0.51100000000E-03 0.  1.
    9900012    2    1    2    0    0  0.86069125583E+00  0.18761983362E+00  0.78545427778E+00  0.90007775842E+02  0.90000037683E+02 0.  0.
        -12    1    1    2    0    0 -0.86069125583E+00 -0.18761983362E+00 -0.78545427778E+00  0.11802241577E+01  0.00000000000E+00 0.  1.
         11    1    3    3    0    0 -0.17286779749E+01 -0.67435041497E+01  0.47447167544E+01  0.84246966176E+01  0.51100000000E-03 0. -1.
        -11    1    3    3    0    0 -0.17957770980E+02 -0.31540841901E+02  0.61491086676E+01  0.36811924482E+02  0.51100000000E-03 0.  1.
         12    1    3    3    0    0  0.20547140211E+02  0.38471965884E+02 -0.10108371144E+02  0.44771154743E+02  0.00000000000E+00 0. -1.
</event>
<event>
 7    1  0.2429906E-015  0.9000772E+02  0.7816164E-02  0.1186339E+00
        -11   -1    0    0    0    0  0.00000000000E+00  0.00000000000E+00  0.45593999997E+02  0.45594000000E+02  0.51100000000E-03 0.  1.
         11   -1    0    0    0    0 -0.00000000000E+00 -0.00000000000E+00 -0.45593999997E+02  0.45594000000E+02  0.51100000000E-03 0. -1.
    9900012    2    1    2    0    0 -0.70166075332E+00 -0.33870374915E+00 -0.88657999463E+00  0.90007715234E+02  0.89999976275E+02 0.  0.
        -12    1    1    2    0    0  0.70166075332E+00  0.33870374915E+00  0.88657999463E+00  0.11802847662E+01  0.00000000000E+00 0.  1.
         11    1    3    3    0    0 -0.32357658415E+02  0.16432705922E+02 -0.11118099132E+02  0.37956080022E+02  0.51100000000E-03 0. -1.
        -11    1    3    3    0    0  0.11886291700E+01  0.58899821086E+01 -0.79393002287E+01  0.99567673934E+01  0.51100000000E-03 0.  1.
        -12    1    3    3    0    0  0.30467368492E+02 -0.22661391780E+02  0.18170819366E+02  0.42094867819E+02  0.00000000000E+00 0.  1.
</event>
<event>
 7    1  0.2429906E-015  0.9000776E+02  0.7816164E-02  0.1186339E+00
        -11   -1    0    0    0    0  0.00000000000E+00  0.00000000000E+00  0.45593999997E+02  0.45594000000E+02  0.51100000000E-03 0.  1.
         11   -1    0    0    0    0 -0.00000000000E+00 -0.00000000000E+00 -0.45593999997E+02  0.45594000000E+02  0.51100000000E-03 0. -1.
    9900012    2    1    2    0    0  0.65269990237E+00  0.30748874926E+00 -0.93402072815E+00  0.90007762221E+02  0.90000023883E+02 0.  0.
        -12    1    1    2    0    0 -0.65269990237E+00 -0.30748874926E+00  0.93402072815E+00  0.11802377786E+01  0.00000000000E+00 0.  1.
         11    1    3    3    0    0 -0.33097920083E+02 -0.41721419634E+01 -0.12143132470E+02  0.35501193626E+02  0.51100000000E-03 0. -1.
        -11    1    3    3    0    0 -0.83314016692E+01 -0.17670035167E+00 -0.43487637122E+01  0.93997458941E+01  0.51100000000E-03 0.  1.
        -12    1    3    3    0    0  0.42082021655E+02  0.46563310644E+01  0.15557875454E+02  0.45106822701E+02  0.00000000000E+00 0.  1.
</event>
<event>
 7    1  0.2429906E-015  0.9000770E+02  0.7816164E-02  0.1186339E+00
        -11   -1    0    0    0    0  0.00000000000E+00  0.00000000000E+00  0.45593999997E+02  0.45594000000E+02  0.51100000000E-03 0. -1.
         11   -1    0    0    0    0 -0.00000000000E+00 -0.00000000000E+00 -0.45593999997E+02  0.45594000000E+02  0.51100000000E-03 0.  1.
    9900012    2    1    2    0    0  0.58314489012E+00 -0.10109446879E+01  0.17619596959E+00  0.90007698282E+02  0.89999959100E+02 0.  0.
        -12    1    1    2    0    0 -0.58314489012E+00  0.10109446879E+01 -0.17619596959E+00  0.11803017176E+01  0.00000000000E+00 0.  1.
         11    1    3    3    0    0  0.78560151840E+01 -0.39558086548E+01  0.39574398375E+01  0.96450363925E+01  0.51100000000E-03 0. -1.
        -11    1    3    3    0    0  0.33665018600E+02 -0.64854214477E+00 -0.16291387206E+02  0.37405392413E+02  0.51100000000E-03 0.  1.
         12    1    3    3    0    0 -0.40937888893E+02  0.35934061117E+01  0.12510143339E+02  0.42957269477E+02  0.00000000000E+00 0. -1.
</event>
<event>
 7    1  0.2429906E-015  0.9000775E+02  0.7816164E-02  0.1186339E+00
        -11   -1    0    0    0    0  0.00000000000E+00  0.00000000000E+00  0.45593999997E+02  0.45594000000E+02  0.51100000000E-03 0. -1.
         11   -1    0    0    0    0 -0.00000000000E+00 -0.00000000000E+00 -0.45593999997E+02  0.45594000000E+02  0.51100000000E-03 0.  1.
    9900012    2    1    2    0    0  0.13262018902E+00  0.81372653901E+00  0.84453598568E+00  0.90007754252E+02  0.90000015808E+02 0.  0.
        -12    1    1    2    0    0 -0.13262018902E+00 -0.81372653901E+00 -0.84453598568E+00  0.11802457481E+01  0.00000000000E+00 0.  1.
         11    1    3    3    0    0  0.18298188455E+02 -0.21439725517E+01  0.56261959370E+01  0.19263291516E+02  0.51100000000E-03 0. -1.
        -11    1    3    3    0    0  0.30166693180E+00  0.52657394850E+01  0.30447803719E+02  0.30901258337E+02  0.51100000000E-03 0.  1.
        -12    1    3    3    0    0 -0.18467235198E+02 -0.23080403943E+01 -0.35229463670E+02  0.39843204399E+02  0.00000000000E+00 0.  1.
</event>
<event>
 7    1  0.2429906E-015  0.9000779E+02  0.7816164E-02  0.1186339E+00
        -11   -1    0    0    0    0  0.00000000000E+00  0.00000000000E+00  0.45593999997E+02  0.45594000000E+02  0.51100000000E-03 0.  1.
         11   -1    0    0    0    0 -0.00000000000E+00 -0.00000000000E+00 -0.45593999997E+02  0.45594000000E+02  0.51100000000E-03 0. -1.
    9900012    2    1    2    0    0 -0.11069459665E+01 -0.49502128378E-02 -0.40932018313E+00  0.90007789472E+02  0.90000051493E+02 0.  0.
        -12    1    1    2    0    0  0.11069459665E+01  0.49502128378E-02  0.40932018313E+00  0.11802105277E+01  0.00000000000E+00 0.  1.
         11    1    3    3    0    0  0.22781716400E+02  0.18142214023E+01 -0.28227745144E+02  0.36319465822E+02  0.51100000000E-03 0. -1.
        -11    1    3    3    0    0  0.13819161765E+01  0.84266067050E+01 -0.58585645881E+01  0.10355683086E+02  0.51100000000E-03 0.  1.
        -12    1    3    3    0    0 -0.25270578543E+02 -0.10245778320E+02  0.33676989548E+02  0.43332640565E+02  0.00000000000E+00 0.  1.
</event>
<event>
 7    1  0.2429906E-015  0.9000801E+02  0.7816164E-02  0.1186338E+00
        -11   -1    0    0    0    0  0.00000000000E+00  0.00000000000E+00  0.45593999997E+02  0.45594000000E+02  0.51100000000E-03 0. -1.
         11   -1    0    0    0    0 -0.00000000000E+00 -0.00000000000E+00 -0.45593999997E+02  0.45594000000E+02  0.51100000000E-03 0.  1.
    9900012    2    1    2    0    0  0.11079894312E+01 -0.18258047746E+00 -0.36247716119E+00  0.90008014448E+02  0.90000279438E+02 0.  0.
        -12    1    1    2    0    0 -0.11079894312E+01  0.18258047746E+00  0.36247716119E+00  0.11799855520E+01  0.00000000000E+00 0.  1.
         11    1    3    3    0    0  0.25867406564E+02 -0.13515096162E+02  0.13953980186E+02  0.32349561201E+02  0.51100000000E-03 0. -1.
        -11    1    3    3    0    0 -0.43355214737E+01 -0.11339110509E+02 -0.21631597588E+02  0.24805204858E+02  0.51100000000E-03 0.  1.
        -12    1    3    3    0    0 -0.20423895660E+02  0.24671626194E+02  0.73151402410E+01  0.32853248389E+02  0.00000000000E+00 0.  1.
</event>
<event>
 7    1  0.2429906E-015  0.9000773E+02  0.7816164E-02  0.1186339E+00
        -11   -1    0    0    0    0  0.00000000000E+00  0.00000000000E+00  0.45593999997E+02  0.45594000000E+02  0.51100000000E-03 0. -1.
         11   -1    0    0    0    0 -0.00000000000E+00 -0.00000000000E+00 -0.45593999997E+02  0.45594000000E+02  0.51100000000E-03 0.  1.
    9900012    2    1    2    0    0 -0.89189115715E-02  0.39968259159E+00  0.11104972510E+01  0.90007733138E+02  0.89999994415E+02 0.  0.
        -12    1    1    2    0    0  0.89189115715E-02 -0.39968259159E+00 -0.11104972510E+01  0.11802668620E+01  0.00000000000E+00 0.  1.
         11    1    3    3    0    0 -0.34845654351E+01  0.12736842153E+01  0.10358593306E+02  0.11002950663E+02  0.51100000000E-03 0. -1.
        -11    1    3    3    0    0  0.86310552790E+01 -0.24176723391E+02 -0.35316877946E+02  0.43661091801E+02  0.51100000000E-03 0.  1.
         12    1    3    3    0    0 -0.51554087554E+01  0.23302721767E+02  0.26068781891E+02  0.35343690674E+02  0.00000000000E+00 0. -1.
</event>
<event>
 7    1  0.2429906E-015  0.9000763E+02  0.7816164E-02  0.1186339E+00
        -11   -1    0    0    0    0  0.00000000000E+00  0.00000000000E+00  0.45593999997E+02  0.45594000000E+02  0.51100000000E-03 0.  1.
         11   -1    0    0    0    0 -0.00000000000E+00 -0.00000000000E+00 -0.45593999997E+02  0.45594000000E+02  0.51100000000E-03 0. -1.
    9900012    2    1    2    0    0 -0.46891022367E+00  0.10820137175E+01  0.51479549888E-01  0.90007626912E+02  0.89999886787E+02 0.  0.
        -12    1    1    2    0    0  0.46891022367E+00 -0.10820137175E+01 -0.51479549888E-01  0.11803730879E+01  0.00000000000E+00 0.  1.
         11    1    3    3    0    0  0.18064695296E+02  0.31352650322E+02 -0.24024758164E+02  0.43433983279E+02  0.51100000000E-03 0. -1.
        -11    1    3    3    0    0 -0.88510281677E+01 -0.13838519560E+01  0.27015502826E+01  0.93570358582E+01  0.51100000000E-03 0.  1.
        -12    1    3    3    0    0 -0.96825773517E+01 -0.28886784648E+02  0.21374687432E+02  0.37216607775E+02  0.00000000000E+00 0.  1.
</event>
<event>
 7    1  0.2429906E-015  0.9000773E+02  0.7816164E-02  0.1186339E+00
        -11   -1    0    0    0    0  0.00000000000E+00  0.00000000000E+00  0.45593999997E+02  0.45594000000E+02  0.51100000000E-03 0.  1.
         11   -1    0    0    0    0 -0.00000000000E+00 -0.00000000000E+00 -0.45593999997E+02  0.45594000000E+02  0.51100000000E-03 0. -1.
    9900012    2    1    2    0    0  0.45577764024E+00 -0.12144453547E+00 -0.10819188222E+01  0.90007732924E+02  0.89999994199E+02 0.  0.
        -12    1    1    2    0    0 -0.45577764024E+00  0.12144453547E+00  0.10819188222E+01  0.11802670759E+01  0.00000000000E+00 0.  1.
         11    1    3    3    0    0 -0.28952580771E+02  0.18727847569E+02  0.89979560915E+01  0.35636321667E+02  0.51100000000E-03 0. -1.
        -11    1    3    3    0    0 -0.22295275260E+01  0.88957156589E+01  0.39901590353E+01  0.10001295889E+02  0.51100000000E-03 0.  1.
        -12    1    3    3    0    0  0.31637885938E+02 -0.27745007764E+02 -0.14070033949E+02  0.44370115368E+02  0.00000000000E+00 0.  1.
</event>
<event>
 7    1  0.2429906E-015  0.9000782E+02  0.7816164E-02  0.1186339E+00
        -11   -1    0    0    0    0  0.00000000000E+00  0.00000000000E+00  0.45593999997E+02  0.45594000000E+02  0.51100000000E-03 0. -1.
         11   -1    0    0    0    0 -0.00000000000E+00 -0.00000000000E+00 -0.45593999997E+02  0.45594000000E+02  0.51100000000E-03 0.  1.
    9900012    2    1    2    0    0  0.74801281847E+00 -0.38626319754E+00 -0.82710233277E+00  0.90007821749E+02  0.90000084196E+02 0.  0.
        -12    1    1    2    0    0 -0.74801281847E+00  0.38626319754E+00  0.82710233277E+00  0.11801782506E+01  0.00000000000E+00 0.  1.
         11    1    3    3    0    0  0.32783071564E+02 -0.25344189095E+02 -0.12887398674E+02  0.43395192670E+02  0.51100000000E-03 0. -1.
        -11    1    3    3    0    0 -0.79399707680E+01  0.26228144166E+01 -0.48445568400E+01  0.96639548063E+01  0.51100000000E-03 0.  1.
        -12    1    3    3    0    0 -0.24095087977E+02  0.22335111480E+02  0.16904853182E+02  0.36948674273E+02  0.00000000000E+00 0.  1.
</event>
<event>
 7    1  0.2429906E-015  0.9000773E+02  0.7816164E-02  0.1186339E+00
        -11   -1    0    0    0    0  0.00000000000E+00  0.00000000000E+00  0.45593999997E+02  0.45594000000E+02  0.51100000000E-03 0.  1.
         11   -1    0    0    0    0 -0.00000000000E+00 -0.00000000000E+00 -0.45593999997E+02  0.45594000000E+02  0.51100000000E-03 0. -1.
    9900012    2    1    2    0    0  0.10907327560E+01 -0.43950359788E+00  0.10086880017E+00  0.90007730593E+02  0.89999991837E+02 0.  0.
        -12    1    1    2    0    0 -0.10907327560E+01  0.43950359788E+00 -0.10086880017E+00  0.11802694067E+01  0.00000000000E+00 0.  1.
         11    1    3    3    0    0  0.34294829337E+01  0.88384147827E+01 -0.30339692860E+01  0.99540895592E+01  0.51100000000E-03 0. -1.
        -11    1    3    3    0    0 -0.18889288254E+02  0.22853919961E+02  0.24153515787E+02  0.38242635807E+02  0.51100000000E-03 0.  1.
         12    1    3    3    0    0  0.16550538077E+02 -0.32131838341E+02 -0.21018677701E+02  0.41811005227E+02  0.00000000000E+00 0. -1.
</event>
<event>
 7    1  0.2429906E-015  0.9000779E+02  0.7816164E-02  0.1186339E+00
        -11   -1    0    0    0    0  0.00000000000E+00  0.00000000000E+00  0.45593999997E+02  0.45594000000E+02  0.51100000000E-03 0. -1.
         11   -1    0    0    0    0 -0.00000000000E+00 -0.00000000000E+00 -0.45593999997E+02  0.45594000000E+02  0.51100000000E-03 0.  1.
    9900012    2    1    2    0    0  0.99764635556E+00  0.61518795755E+00 -0.13837743273E+00  0.90007786974E+02  0.90000048962E+02 0.  0.
        -12    1    1    2    0    0 -0.99764635556E+00 -0.61518795755E+00  0.13837743273E+00  0.11802130264E+01  0.00000000000E+00 0.  1.
         11    1    3    3    0    0 -0.53828013102E+01  0.80358054301E+01  0.20453453851E+01  0.98859575591E+01  0.51100000000E-03 0. -1.
        -11    1    3    3    0    0 -0.11438963286E+02  0.32984077671E+02 -0.73014644890E+01  0.35666660130E+02  0.51100000000E-03 0.  1.
         12    1    3    3    0    0  0.17819410952E+02 -0.40404695143E+02  0.51177416713E+01  0.44455169285E+02  0.00000000000E+00 0. -1.
</event>
<event>
 7    1  0.2429906E-015  0.9000774E+02  0.7816164E-02  0.1186339E+00
        -11   -1    0    0    0    0  0.00000000000E+00  0.00000000000E+00  0.45593999997E+02  0.45594000000E+02  0.51100000000E-03 0.  1.
         11   -1    0    0    0    0 -0.00000000000E+00 -0.00000000000E+00 -0.45593999997E+02  0.45594000000E+02  0.51100000000E-03 0. -1.
    9900012    2    1    2    0    0 -0.11037003380E+01  0.28681991360E+00 -0.30429406884E+00  0.90007739444E+02  0.90000000805E+02 0.  0.
        -12    1    1    2    0    0  0.11037003380E+01 -0.28681991360E+00  0.30429406884E+00  0.11802605557E+01  0.00000000000E+00 0.  1.
         11    1    3    3    0    0 -0.20850912982E+01 -0.10370605962E+00  0.91498250013E+01  0.93849698180E+01  0.51100000000E-03 0. -1.
        -11    1    3    3    0    0 -0.29391327824E+02  0.39603292487E+01  0.21867537356E+02  0.36847300434E+02  0.51100000000E-03 0.  1.
         12    1    3    3    0    0  0.30372718784E+02 -0.35698032755E+01 -0.31321656426E+02  0.43775469192E+02  0.00000000000E+00 0. -1.
</event>
<event>
 7    1  0.2429906E-015  0.9000785E+02  0.7816164E-02  0.1186339E+00
        -11   -1    0    0    0    0  0.00000000000E+00  0.00000000000E+00  0.45593999997E+02  0.45594000000E+02  0.51100000000E-03 0. -1.
         11   -1    0    0    0    0 -0.00000000000E+00 -0.00000000000E+00 -0.45593999997E+02  0.45594000000E+02  0.51100000000E-03 0.  1.
    9900012    2    1    2    0    0  0.55582123040E+00 -0.96963138395E+00  0.37899450107E+00  0.90007847852E+02  0.90000110643E+02 0.  0.
        -12    1    1    2    0    0 -0.55582123040E+00  0.96963138395E+00 -0.37899450107E+00  0.11801521481E+01  0.00000000000E+00 0.  1.
         11    1    3    3    0    0  0.25561168557E+02 -0.13896710444E+02  0.52284413147E+01  0.29560590285E+02  0.51100000000E-03 0. -1.
        -11    1    3    3    0    0 -0.14473243830E+02  0.12191218475E+02  0.23513790017E+02  0.30182758590E+02  0.51100000000E-03 0.  1.
        -12    1    3    3    0    0 -0.10532103496E+02  0.73586058424E+00 -0.28363236830E+02  0.30264498977E+02  0.00000000000E+00 0.  1.
</event>
<event>
 7    1  0.2429906E-015  0.9000775E+02  0.7816164E-02  0.1186339E+00
        -11   -1    0    0    0    0  0.00000000000E+00  0.00000000000E+00  0.45593999997E+02  0.45594000000E+02  0.51100000000E-03 0.  1.
         11   -1    0    0    0    0 -0.00000000000E+00 -0.00000000000E+00 -0.45593999997E+02  0.45594000000E+02  0.51100000000E-03 0. -1.
    9900012    2    1    2    0    0 -0.86773346757E+00 -0.56632635099E+00  0.56506196103E+00  0.90007753447E+02  0.90000014992E+02 0.  0.
        -12    1    1    2    0    0  0.86773346757E+00  0.56632635099E+00 -0.56506196103E+00  0.11802465532E+01  0.00000000000E+00 0.  1.
         11    1    3    3    0    0  0.99126539159E+01 -0.17904144009E+02 -0.29676680878E+02  0.36048917717E+02  0.51100000000E-03 0. -1.
        -11    1    3    3    0    0  0.32651802321E+00 -0.73760713127E+01 -0.54289657454E+01  0.91644264062E+01  0.51100000000E-03 0.  1.
        -12    1    3    3    0    0 -0.11106905407E+02  0.24713888971E+02  0.35670708584E+02  0.44794409324E+02  0.00000000000E+00 0.  1.
</event>
<event>
 7    1  0.2429906E-015  0.9000778E+02  0.7816164E-02  0.1186339E+00
        -11   -1    0    0    0    0  0.00000000000E+00  0.00000000000E+00  0.45593999997E+02  0.45594000000E+02  0.51100000000E-03 0. -1.
         11   -1    0    0    0    0 -0.00000000000E+00 -0.00000000000E+00 -0.45593999997E+02  0.45594000000E+02  0.51100000000E-03 0.  1.
    9900012    2    1    2    0    0 -0.11388291530E+01  0.64998925284E-01 -0.30293708932E+00  0.90007776470E+02  0.90000038320E+02 0.  0.
        -12    1    1    2    0    0  0.11388291530E+01 -0.64998925284E-01  0.30293708932E+00  0.11802235298E+01  0.00000000000E+00 0.  1.
         11    1    3    3    0    0 -0.18213404262E+02  0.21119307219E+02  0.25745155056E+02  0.37954792073E+02  0.51100000000E-03 0. -1.
        -11    1    3    3    0    0 -0.10878415078E+02 -0.51474624897E+01 -0.27664255530E+01  0.12348659656E+02  0.51100000000E-03 0.  1.
        -12    1    3    3    0    0  0.27952990187E+02 -0.15906845804E+02 -0.23281666592E+02  0.39704324741E+02  0.00000000000E+00 0.  1.
</event>
<event>
 7    1  0.2429906E-015  0.9000775E+02  0.7816164E-02  0.1186339E+00
        -11   -1    0    0    0    0  0.00000000000E+00  0.00000000000E+00  0.45593999997E+02  0.45594000000E+02  0.51100000000E-03 0.  1.
         11   -1    0    0    0    0 -0.00000000000E+00 -0.00000000000E+00 -0.45593999997E+02  0.45594000000E+02  0.51100000000E-03 0. -1.
    9900012    2    1    2    0    0 -0.42483540475E+00 -0.91571809688E+00 -0.61152221491E+00  0.90007752495E+02  0.90000014028E+02 0.  0.
        -12    1    1    2    0    0  0.42483540475E+00  0.91571809688E+00  0.61152221491E+00  0.11802475052E+01  0.00000000000E+00 0.  1.
         11    1    3    3    0    0  0.31615188305E+02 -0.93839322953E+00 -0.98922566920E+01  0.33139967654E+02  0.51100000000E-03 0. -1.
        -11    1    3    3    0    0  0.86843574698E+01  0.98815773025E+01 -0.23930020918E+01  0.13371241301E+02  0.51100000000E-03 0.  1.
        -12    1    3    3    0    0 -0.40724381179E+02 -0.98589021698E+01  0.11673736569E+02  0.43496543540E+02  0.00000000000E+00 0.  1.
</event>
<event>
 7    1  0.2429906E-015  0.9000774E+02  0.7816164E-02  0.1186339E+00
        -11   -1    0    0    0    0  0.00000000000E+00  0.00000000000E+00  0.45593999997E+02  0.45594000000E+02  0.51100000000E-03 0. -1.
         11   -1    0    0    0    0 -0.00000000000E+00 -0.00000000000E+00 -0.45593999997E+02  0.45594000000E+02  0.51100000000E-03 0.  1.
    9900012    2    1    2    0    0  0.35572839004E+00  0.37873191201E+00  0.10597319131E+01  0.90007740589E+02  0.90000001965E+02 0.  0.
        -12    1    1    2    0    0 -0.35572839004E+00 -0.37873191201E+00 -0.10597319131E+01  0.11802594106E+01  0.00000000000E+00 0.  1.
         11    1    3    3    0    0 -0.21317590098E+02 -0.27893749435E+02  0.27208555098E+02  0.44416285030E+02  0.51100000000E-03 0. -1.
        -11    1    3    3    0    0  0.12183862427E+01  0.72917637523E+01 -0.21024202736E+01  0.76859908225E+01  0.51100000000E-03 0.  1.
        -12    1    3    3    0    0  0.20454932245E+02  0.20980717594E+02 -0.24046402911E+02  0.37905464737E+02  0.00000000000E+00 0.  1.
</event>
<event>
 7    1  0.2429906E-015  0.9000778E+02  0.7816164E-02  0.1186339E+00
        -11   -1    0    0    0    0  0.00000000000E+00  0.00000000000E+00  0.45593999997E+02  0.45594000000E+02  0.51100000000E-03 0. -1.
         11   -1    0    0    0    0 -0.00000000000E+00 -0.00000000000E+00 -0.45593999997E+02  0.45594000000E+02  0.51100000000E-03 0.  1.
    9900012    2    1    2    0    0 -0.26387385976E+00 -0.11167028593E+01 -0.27614835628E+00  0.90007782815E+02  0.90000044748E+02 0.  0.
        -12    1    1    2    0    0  0.26387385976E+00  0.11167028593E+01  0.27614835628E+00  0.11802171853E+01  0.00000000000E+00 0.  1.
         11    1    3    3    0    0 -0.29017491207E+02  0.64033995661E-01  0.25630489514E+02  0.38716157988E+02  0.51100000000E-03 0. -1.
        -11    1    3    3    0    0  0.59278649505E+00  0.68167690185E+01  0.51864478553E+01  0.85859756171E+01  0.51100000000E-03 0.  1.
        -12    1    3    3    0    0  0.28160830852E+02 -0.79975058735E+01 -0.31093085726E+02  0.42705649210E+02  0.00000000000E+00 0.  1.
</event>
<event>
 7    1  0.2429906E-015  0.9000761E+02  0.7816164E-02  0.1186339E+00
        -11   -1    0    0    0    0  0.00000000000E+00  0.00000000000E+00  0.45593999997E+02  0.45594000000E+02  0.51100000000E-03 0.  1.
         11   -1    0    0    0    0 -0.00000000000E+00 -0.00000000000E+00 -0.45593999997E+02  0.45594000000E+02  0.51100000000E-03 0. -1.
    9900012    2    1    2    0    0 -0.20816437574E+00  0.11183939139E+01 -0.31493509128E+00  0.90007609613E+02  0.89999869260E+02 0.  0.
        -12    1    1    2    0    0  0.20816437574E+00 -0.11183939139E+01  0.31493509128E+00  0.11803903870E+01  0.00000000000E+00 0.  1.
         11    1    3    3    0    0 -0.45175870069E+01  0.40817497233E+02  0.16821904899E+01  0.41101173193E+02  0.51100000000E-03 0. -1.
        -11    1    3    3    0    0  0.98622780640E+00  0.34023490137E+01 -0.43538141493E+01  0.56128711017E+01  0.51100000000E-03 0.  1.
        -12    1    3    3    0    0  0.33231948248E+01 -0.43101452332E+02  0.23566885681E+01  0.43293565319E+02  0.00000000000E+00 0.  1.
</event>
<event>
 7    1  0.2429906E-015  0.9000774E+02  0.7816164E-02  0.1186339E+00
        -11   -1    0    0    0    0  0.00000000000E+00  0.00000000000E+00  0.45593999997E+02  0.45594000000E+02  0.51100000000E-03 0.  1.
         11   -1    0    0    0    0 -0.00000000000E+00 -0.00000000000E+00 -0.45593999997E+02  0.45594000000E+02  0.51100000000E-03 0. -1.
    9900012    2    1    2    0    0 -0.98748743592E+00  0.40226668619E+00 -0.50603176151E+00  0.90007738136E+02  0.89999999480E+02 0.  0.
        -12    1    1    2    0    0  0.98748743592E+00 -0.40226668619E+00  0.50603176151E+00  0.11802618636E+01  0.00000000000E+00 0.  1.
         11    1    3    3    0    0 -0.64062016457E+01  0.35698416764E+02  0.12944655651E+02  0.38509485703E+02  0.51100000000E-03 0. -1.
        -11    1    3    3    0    0 -0.99658299823E+01  0.96836938275E-01  0.15639504244E+01  0.10088264758E+02  0.51100000000E-03 0.  1.
        -12    1    3    3    0    0  0.15384544192E+02 -0.35392987016E+02 -0.15014637837E+02  0.41409987675E+02  0.00000000000E+00 0.  1.
</event>
<event>
 7    1  0.2429906E-015  0.9000770E+02  0.7816164E-02  0.1186339E+00
        -11   -1    0    0    0    0  0.00000000000E+00  0.00000000000E+00  0.45593999997E+02  0.45594000000E+02  0.51100000000E-03 0. -1.
         11   -1    0    0    0    0 -0.00000000000E+00 -0.00000000000E+00 -0.45593999997E+02  0.45594000000E+02  0.51100000000E-03 0.  1.
    9900012    2    1    2    0    0 -0.80910646642E+00  0.22381745237E-01  0.85903916771E+00  0.90007702365E+02  0.89999963236E+02 0.  0.
        -12    1    1    2    0    0  0.80910646642E+00 -0.22381745237E-01 -0.85903916771E+00  0.11802976354E+01  0.00000000000E+00 0.  1.
         11    1    3    3    0    0 -0.10071038265E+02 -0.70005269334E+01  0.35952859334E+02  0.37987383217E+02  0.51100000000E-03 0. -1.
        -11    1    3    3    0    0 -0.50403770318E+01 -0.92894846062E+01  0.22443517401E+00  0.10571201270E+02  0.51100000000E-03 0.  1.
        -12    1    3    3    0    0  0.14302308831E+02  0.16312393285E+02 -0.35318255341E+02  0.41449117878E+02  0.00000000000E+00 0.  1.
</event>
<event>
 7    1  0.2429906E-015  0.9000769E+02  0.7816164E-02  0.1186339E+00
        -11   -1    0    0    0    0  0.00000000000E+00  0.00000000000E+00  0.45593999997E+02  0.45594000000E+02  0.51100000000E-03 0.  1.
         11   -1    0    0    0    0 -0.00000000000E+00 -0.00000000000E+00 -0.45593999997E+02  0.45594000000E+02  0.51100000000E-03 0. -1.
    9900012    2    1    2    0    0  0.40287543076E+00  0.69873433561E+00 -0.86173556320E+00  0.90007692216E+02  0.89999952953E+02 0.  0.
        -12    1    1    2    0    0 -0.40287543076E+00 -0.69873433561E+00  0.86173556320E+00  0.11803077842E+01  0.00000000000E+00 0.  1.
         11    1    3    3    0    0  0.54836714907E+01 -0.12969108623E+01  0.55077317277E+01  0.78795773902E+01  0.51100000000E-03 0. -1.
        -11    1    3    3    0    0  0.27078116187E+02 -0.99228286166E+01  0.23068572412E+02  0.36930284827E+02  0.51100000000E-03 0.  1.
         12    1    3    3    0    0 -0.32158912247E+02  0.11918473815E+02 -0.29438039703E+02  0.45197829998E+02  0.00000000000E+00 0. -1.
</event>
<event>
 7    1  0.2429906E-015  0.9000771E+02  0.7816164E-02  0.1186339E+00
        -11   -1    0    0    0    0  0.00000000000E+00  0.00000000000E+00  0.45593999997E+02  0.45594000000E+02  0.51100000000E-03 0.  1.
         11   -1    0    0    0    0 -0.00000000000E+00 -0.00000000000E+00 -0.45593999997E+02  0.45594000000E+02  0.51100000000E-03 0. -1.
    9900012    2    1    2    0    0 -0.20204153368E+00 -0.10597138117E+01  0.47882406205E+00  0.90007709092E+02  0.89999970052E+02 0.  0.
        -12    1    1    2    0    0  0.20204153368E+00  0.10597138117E+01 -0.47882406205E+00  0.11802909076E+01  0.00000000000E+00 0.  1.
         11    1    3    3    0    0 -0.72543172953E+01 -0.34096660965E+02 -0.82547216617E+01  0.35823844550E+02  0.51100000000E-03 0. -1.
        -11    1    3    3    0    0 -0.17340752360E+01 -0.80010502019E+01 -0.55057783365E+01  0.98659726641E+01  0.51100000000E-03 0.  1.
        -12    1    3    3    0    0  0.87863509977E+01  0.41037997355E+02  0.14239324060E+02  0.44317891878E+02  0.00000000000E+00 0.  1.
</event>
<event>
 7    1  0.2429906E-015  0.9000778E+02  0.7816164E-02  0.1186339E+00
        -11   -1    0    0    0    0  0.00000000000E+00  0.00000000000E+00  0.45593999997E+02  0.45594000000E+02  0.51100000000E-03 0. -1.
         11   -1    0    0    0    0 -0.00000000000E+00 -0.00000000000E+00 -0.45593999997E+02  0.45594000000E+02  0.51100000000E-03 0.  1.
    9900012    2    1    2    0    0 -0.52372374805E+00 -0.94661055336E+00  0.47176551727E+00  0.90007779340E+02  0.90000041227E+02 0.  0.
        -12    1    1    2    0    0  0.52372374805E+00  0.94661055336E+00 -0.47176551727E+00  0.11802206604E+01  0.00000000000E+00 0.  1.
         11    1    3    3    0    0 -0.48020143903E+01  0.11255263619E+01  0.25302993363E+01  0.55433353487E+01  0.51100000000E-03 0. -1.
        -11    1    3    3    0    0 -0.39544412212E+02  0.49885020628E+01 -0.38288258262E+01  0.40041298649E+02  0.51100000000E-03 0.  1.
         12    1    3    3    0    0  0.43822702855E+02 -0.70606389781E+01  0.17702920073E+01  0.44423145342E+02  0.00000000000E+00 0. -1.
</event>
<event>
 7    1  0.2429906E-015  0.9000769E+02  0.7816164E-02  0.1186339E+00
        -11   -1    0    0    0    0  0.00000000000E+00  0.00000000000E+00  0.45593999997E+02  0.45594000000E+02  0.51100000000E-03 0.  1.
         11   -1    0    0    0    0 -0.00000000000E+00 -0.00000000000E+00 -0.45593999997E+02  0.45594000000E+02  0.51100000000E-03 0. -1.
    9900012    2    1    2    0    0  0.73326826780E+00 -0.79718993471E+00 -0.46898103306E+00  0.90007687603E+02  0.89999948280E+02 0.  0.
        -12    1    1    2    0    0 -0.73326826780E+00  0.79718993471E+00  0.46898103306E+00  0.11803123968E+01  0.00000000000E+00 0.  1.
         11    1    3    3    0    0  0.38327553958E+01  0.10766575698E+01  0.15101338174E+02  0.15617285947E+02  0.51100000000E-03 0. -1.
        -11    1    3    3    0    0  0.33284596905E+02 -0.79823654417E+01  0.29689078510E+00  0.34229675627E+02  0.51100000000E-03 0.  1.
         12    1    3    3    0    0 -0.36384084033E+02  0.61085179372E+01 -0.15867209992E+02  0.40160726029E+02  0.00000000000E+00 0. -1.
</event>
<event>
 7    1  0.2429906E-015  0.9000773E+02  0.7816164E-02  0.1186339E+00
        -11   -1    0    0    0    0  0.00000000000E+00  0.00000000000E+00  0.45593999997E+02  0.45594000000E+02  0.51100000000E-03 0.  1.
         11   -1    0    0    0    0 -0.00000000000E+00 -0.00000000000E+00 -0.45593999997E+02  0.45594000000E+02  0.51100000000E-03 0. -1.
    9900012    2    1    2    0    0 -0.11746086744E+00 -0.11627663677E+01  0.16493670039E+00  0.90007734438E+02  0.89999995733E+02 0.  0.
        -12    1    1    2    0    0  0.11746086744E+00  0.11627663677E+01 -0.16493670039E+00  0.11802655618E+01  0.00000000000E+00 0.  1.
         11    1    3    3    0    0 -0.57179877759E+01 -0.14387297032E+02 -0.32548833531E+01  0.15820365546E+02  0.51100000000E-03 0. -1.
        -11    1    3    3    0    0 -0.37925240275E+01 -0.23202066962E+02  0.22029047866E+02  0.32217977900E+02  0.51100000000E-03 0.  1.
         12    1    3    3    0    0  0.93930509360E+01  0.36426597627E+02 -0.18609227812E+02  0.41969390993E+02  0.00000000000E+00 0. -1.
</event>
<event>
 7    1  0.2429906E-015  0.9000678E+02  0.7816164E-02  0.1186341E+00
        -11   -1    0    0    0    0  0.00000000000E+00  0.00000000000E+00  0.45593999997E+02  0.45594000000E+02  0.51100000000E-03 0. -1.
         11   -1    0    0    0    0 -0.00000000000E+00 -0.00000000000E+00 -0.45593999997E+02  0.45594000000E+02  0.51100000000E-03 0.  1.
    9900012    2    1    2    0    0  0.73970403187E-01  0.56773964026E+00  0.10331935059E+01  0.90006776592E+02  0.89999025237E+02 0.  0.
        -12    1    1    2    0    0 -0.73970403187E-01 -0.56773964026E+00 -0.10331935059E+01  0.11812234083E+01  0.00000000000E+00 0.  1.
         11    1    3    3    0    0 -0.13843555490E+02  0.18790654512E+02  0.27900977240E+02  0.36375778436E+02  0.51100000000E-03 0. -1.
        -11    1    3    3    0    0  0.65901230888E+01  0.12741637075E+02 -0.10982936682E+02  0.18066652598E+02  0.51100000000E-03 0.  1.
        -12    1    3    3    0    0  0.73274028048E+01 -0.30964551946E+02 -0.15884847053E+02  0.35564345558E+02  0.00000000000E+00 0.  1.
</event>
<event>
 7    1  0.2429906E-015  0.9000773E+02  0.7816164E-02  0.1186339E+00
        -11   -1    0    0    0    0  0.00000000000E+00  0.00000000000E+00  0.45593999997E+02  0.45594000000E+02  0.51100000000E-03 0. -1.
         11   -1    0    0    0    0 -0.00000000000E+00 -0.00000000000E+00 -0.45593999997E+02  0.45594000000E+02  0.51100000000E-03 0.  1.
    9900012    2    1    2    0    0  0.35333223314E-01 -0.14186720305E+00  0.11711758539E+01  0.90007734089E+02  0.89999995379E+02 0.  0.
        -12    1    1    2    0    0 -0.35333223314E-01  0.14186720305E+00 -0.11711758539E+01  0.11802659110E+01  0.00000000000E+00 0.  1.
         11    1    3    3    0    0  0.27251487142E+01  0.11543701489E+01  0.79266543901E+01  0.84611379871E+01  0.51100000000E-03 0. -1.
        -11    1    3    3    0    0 -0.28437762280E+02  0.24372311236E+02  0.13640320265E+02  0.39859430700E+02  0.51100000000E-03 0.  1.
         12    1    3    3    0    0  0.25747946789E+02 -0.25668548588E+02 -0.20395798802E+02  0.41687165402E+02  0.00000000000E+00 0. -1.
</event>
<event>
 7    1  0.2429906E-015  0.9000768E+02  0.7816164E-02  0.1186339E+00
        -11   -1    0    0    0    0  0.00000000000E+00  0.00000000000E+00  0.45593999997E+02  0.45594000000E+02  0.51100000000E-03 0.  1.
         11   -1    0    0    0    0 -0.00000000000E+00 -0.00000000000E+00 -0.45593999997E+02  0.45594000000E+02  0.51100000000E-03 0. -1.
    9900012    2    1    2    0    0 -0.32078878550E+00  0.77737951250E+00 -0.82820260149E+00  0.90007684830E+02  0.89999945470E+02 0.  0.
        -12    1    1    2    0    0  0.32078878550E+00 -0.77737951250E+00  0.82820260149E+00  0.11803151700E+01  0.00000000000E+00 0.  1.
         11    1    3    3    0    0 -0.36251033535E+02  0.13592351700E+02  0.43441010069E+01  0.38958448005E+02  0.51100000000E-03 0. -1.
        -11    1    3    3    0    0 -0.24837483491E+01  0.51782413197E+01  0.47870279831E+01  0.74765517586E+01  0.51100000000E-03 0.  1.
        -12    1    3    3    0    0  0.38413993099E+02 -0.17993213508E+02 -0.99593315916E+01  0.43572685066E+02  0.00000000000E+00 0.  1.
</event>
<event>
 7    1  0.2429906E-015  0.9000775E+02  0.7816164E-02  0.1186339E+00
        -11   -1    0    0    0    0  0.00000000000E+00  0.00000000000E+00  0.45593999997E+02  0.45594000000E+02  0.51100000000E-03 0.  1.
         11   -1    0    0    0    0 -0.00000000000E+00 -0.00000000000E+00 -0.45593999997E+02  0.45594000000E+02  0.51100000000E-03 0. -1.
    9900012    2    1    2    0    0 -0.11078071403E+01  0.39982057080E+00  0.76861228724E-01  0.90007745452E+02  0.90000006892E+02 0.  0.
        -12    1    1    2    0    0  0.11078071403E+01 -0.39982057080E+00 -0.76861228724E-01  0.11802545477E+01  0.00000000000E+00 0.  1.
         11    1    3    3    0    0 -0.27865481540E+02 -0.90482134856E+01 -0.24743680213E+02  0.38348467238E+02  0.51100000000E-03 0. -1.
        -11    1    3    3    0    0 -0.80313903769E+01 -0.25097590817E+01  0.60245323230E+01  0.10348773454E+02  0.51100000000E-03 0.  1.
        -12    1    3    3    0    0  0.34789064777E+02  0.11957793138E+02  0.18796009118E+02  0.41310504760E+02  0.00000000000E+00 0.  1.
</event>
<event>
 7    1  0.2429906E-015  0.9000783E+02  0.7816164E-02  0.1186339E+00
        -11   -1    0    0    0    0  0.00000000000E+00  0.00000000000E+00  0.45593999997E+02  0.45594000000E+02  0.51100000000E-03 0.  1.
         11   -1    0    0    0    0 -0.00000000000E+00 -0.00000000000E+00 -0.45593999997E+02  0.45594000000E+02  0.51100000000E-03 0. -1.
    9900012    2    1    2    0    0  0.10483234639E+01 -0.26219699755E+00 -0.47440644504E+00  0.90007834408E+02  0.90000097022E+02 0.  0.
        -12    1    1    2    0    0 -0.10483234639E+01  0.26219699755E+00  0.47440644504E+00  0.11801655924E+01  0.00000000000E+00 0.  1.
         11    1    3    3    0    0  0.67909377369E+01  0.72496528267E+01  0.96246078818E+00  0.99800116475E+01  0.51100000000E-03 0. -1.
        -11    1    3    3    0    0  0.26082492600E+02 -0.25057759447E+02 -0.17636051673E+02  0.40239508540E+02  0.51100000000E-03 0.  1.
         12    1    3    3    0    0 -0.31825106873E+02  0.17545909623E+02  0.16199184440E+02  0.39788314220E+02  0.00000000000E+00 0. -1.
</event>
<event>
 7    1  0.2547472E-015  0.9000771E+02  0.7816164E-02  0.1186339E+00
        -11   -1    0    0    0    0  0.00000000000E+00  0.00000000000E+00  0.45593999997E+02  0.45594000000E+02  0.51100000000E-03 0. -1.
         11   -1    0    0    0    0 -0.00000000000E+00 -0.00000000000E+00 -0.45593999997E+02  0.45594000000E+02  0.51100000000E-03 0.  1.
    9900012    2    1    2    0    0  0.53719433963E-01 -0.11702099753E+01  0.14423283705E+00  0.90007711783E+02  0.89999972779E+02 0.  0.
        -12    1    1    2    0    0 -0.53719433963E-01  0.11702099753E+01 -0.14423283705E+00  0.11802882170E+01  0.00000000000E+00 0.  1.
         11    1    3    3    0    0 -0.18644633703E+02  0.11308065563E+02  0.36975346171E+02  0.42926343163E+02  0.51100000000E-03 0. -1.
        -11    1    3    3    0    0  0.12965519035E+01  0.45939946618E+01 -0.80973107723E+01  0.93995891291E+01  0.51100000000E-03 0.  1.
        -12    1    3    3    0    0  0.17401801233E+02 -0.17072270200E+02 -0.28733802561E+02  0.37681779490E+02  0.00000000000E+00 0.  1.
</event>
<event>
 7    1  0.2429906E-015  0.9000775E+02  0.7816164E-02  0.1186339E+00
        -11   -1    0    0    0    0  0.00000000000E+00  0.00000000000E+00  0.45593999997E+02  0.45594000000E+02  0.51100000000E-03 0.  1.
         11   -1    0    0    0    0 -0.00000000000E+00 -0.00000000000E+00 -0.45593999997E+02  0.45594000000E+02  0.51100000000E-03 0. -1.
    9900012    2    1    2    0    0 -0.70875596769E+00 -0.13445229259E+00  0.93412261696E+00  0.90007746847E+02  0.90000008306E+02 0.  0.
        -12    1    1    2    0    0  0.70875596769E+00  0.13445229259E+00 -0.93412261696E+00  0.11802531526E+01  0.00000000000E+00 0.  1.
         11    1    3    3    0    0  0.71795412042E+01  0.68701411266E+01  0.61807532746E+00  0.99562376615E+01  0.51100000000E-03 0. -1.
        -11    1    3    3    0    0 -0.61572874868E+01  0.14672859180E+02 -0.35073547391E+02  0.38514396173E+02  0.51100000000E-03 0.  1.
         12    1    3    3    0    0 -0.17310096850E+01 -0.21677452599E+02  0.35389594681E+02  0.41537113012E+02  0.00000000000E+00 0. -1.
</event>
<event>
 7    1  0.2429906E-015  0.9000794E+02  0.7816164E-02  0.1186339E+00
        -11   -1    0    0    0    0  0.00000000000E+00  0.00000000000E+00  0.45593999997E+02  0.45594000000E+02  0.51100000000E-03 0. -1.
         11   -1    0    0    0    0 -0.00000000000E+00 -0.00000000000E+00 -0.45593999997E+02  0.45594000000E+02  0.51100000000E-03 0.  1.
    9900012    2    1    2    0    0 -0.11179479387E+01  0.77976720629E-02 -0.37773277369E+00  0.90007936254E+02  0.90000200212E+02 0.  0.
        -12    1    1    2    0    0  0.11179479387E+01 -0.77976720629E-02  0.37773277369E+00  0.11800637465E+01  0.00000000000E+00 0.  1.
         11    1    3    3    0    0  0.34189495185E+02  0.11796519797E+02  0.14357684472E+02  0.38913012785E+02  0.51100000000E-03 0. -1.
        -11    1    3    3    0    0 -0.41071540081E+01  0.97420184762E+01 -0.44224115106E+00  0.10581645219E+02  0.51100000000E-03 0.  1.
        -12    1    3    3    0    0 -0.31200289115E+02 -0.21530740601E+02 -0.14293176095E+02  0.40513278250E+02  0.00000000000E+00 0.  1.
</event>
<event>
 7    1  0.2429906E-015  0.9000784E+02  0.7816164E-02  0.1186339E+00
        -11   -1    0    0    0    0  0.00000000000E+00  0.00000000000E+00  0.45593999997E+02  0.45594000000E+02  0.51100000000E-03 0.  1.
         11   -1    0    0    0    0 -0.00000000000E+00 -0.00000000000E+00 -0.45593999997E+02  0.45594000000E+02  0.51100000000E-03 0. -1.
    9900012    2    1    2    0    0  0.63686973520E+00 -0.30945577291E+00 -0.94414070509E+00  0.90007844245E+02  0.90000106989E+02 0.  0.
        -12    1    1    2    0    0 -0.63686973520E+00  0.30945577291E+00  0.94414070509E+00  0.11801557550E+01  0.00000000000E+00 0.  1.
         11    1    3    3    0    0 -0.15151445521E+02  0.33006779143E+02  0.68019237500E+01  0.36949694690E+02  0.51100000000E-03 0. -1.
        -11    1    3    3    0    0  0.47412439797E+01  0.81920325696E+01 -0.24704085027E+01  0.97822139890E+01  0.51100000000E-03 0.  1.
        -12    1    3    3    0    0  0.11047071276E+02 -0.41508267485E+02 -0.52756559523E+01  0.43275935566E+02  0.00000000000E+00 0.  1.
</event>
<event>
 7    1  0.2429906E-015  0.9000777E+02  0.7816164E-02  0.1186339E+00
        -11   -1    0    0    0    0  0.00000000000E+00  0.00000000000E+00  0.45593999997E+02  0.45594000000E+02  0.51100000000E-03 0. -1.
         11   -1    0    0    0    0 -0.00000000000E+00 -0.00000000000E+00 -0.45593999997E+02  0.45594000000E+02  0.51100000000E-03 0.  1.
    9900012    2    1    2    0    0  0.99188788518E-01  0.46358914241E+00  0.10808262135E+01  0.90007771796E+02  0.90000033584E+02 0.  0.
        -12    1    1    2    0    0 -0.99188788518E-01 -0.46358914241E+00 -0.10808262135E+01  0.11802282036E+01  0.00000000000E+00 0.  1.
         11    1    3    3    0    0 -0.27810073721E+01 -0.90270282506E+01  0.54325475835E+01  0.10896504694E+02  0.51100000000E-03 0. -1.
        -11    1    3    3    0    0  0.36433685457E+02 -0.12140280284E+02  0.29933768164E+01  0.38519607298E+02  0.51100000000E-03 0.  1.
         12    1    3    3    0    0 -0.33553489297E+02  0.21630897677E+02 -0.73450981863E+01  0.40591659804E+02  0.00000000000E+00 0. -1.
</event>
<event>
 7    1  0.2429906E-015  0.9000773E+02  0.7816164E-02  0.1186339E+00
        -11   -1    0    0    0    0  0.00000000000E+00  0.00000000000E+00  0.45593999997E+02  0.45594000000E+02  0.51100000000E-03 0.  1.
         11   -1    0    0    0    0 -0.00000000000E+00 -0.00000000000E+00 -0.45593999997E+02  0.45594000000E+02  0.51100000000E-03 0. -1.
    9900012    2    1    2    0    0  0.30427969998E+00  0.66029290075E+00 -0.92977047509E+00  0.90007726308E+02  0.89999987496E+02 0.  0.
        -12    1    1    2    0    0 -0.30427969998E+00 -0.66029290075E+00  0.92977047509E+00  0.11802736915E+01  0.00000000000E+00 0.  1.
         11    1    3    3    0    0  0.18788757795E+02  0.37161735712E+02  0.21697230857E+01  0.41697958213E+02  0.51100000000E-03 0. -1.
        -11    1    3    3    0    0  0.29634174009E+01 -0.57276310370E+01  0.69453017833E+01  0.94775955342E+01  0.51100000000E-03 0.  1.
        -12    1    3    3    0    0 -0.21447895496E+02 -0.30773811774E+02 -0.10044795344E+02  0.38832172561E+02  0.00000000000E+00 0.  1.
</event>
<event>
 7    1  0.2429906E-015  0.9000765E+02  0.7816164E-02  0.1186339E+00
        -11   -1    0    0    0    0  0.00000000000E+00  0.00000000000E+00  0.45593999997E+02  0.45594000000E+02  0.51100000000E-03 0. -1.
         11   -1    0    0    0    0 -0.00000000000E+00 -0.00000000000E+00 -0.45593999997E+02  0.45594000000E+02  0.51100000000E-03 0.  1.
    9900012    2    1    2    0    0 -0.52858346043E+00 -0.89308075938E+00  0.56234295659E+00  0.90007651188E+02  0.89999911384E+02 0.  0.
        -12    1    1    2    0    0  0.52858346043E+00  0.89308075938E+00 -0.56234295659E+00  0.11803488121E+01  0.00000000000E+00 0.  1.
         11    1    3    3    0    0 -0.95029142907E+01 -0.65311924989E+01 -0.19712944270E+01  0.11698198898E+02  0.51100000000E-03 0. -1.
        -11    1    3    3    0    0 -0.25293604282E+02 -0.20104717827E+02  0.11910192219E+02  0.34435719470E+02  0.51100000000E-03 0.  1.
         12    1    3    3    0    0  0.34267935113E+02  0.25742829566E+02 -0.93765548349E+01  0.43873732820E+02  0.00000000000E+00 0. -1.
</event>
<event>
 7    1  0.2439670E-015  0.9000773E+02  0.7816164E-02  0.1186339E+00
        -11   -1    0    0    0    0  0.00000000000E+00  0.00000000000E+00  0.45593999997E+02  0.45594000000E+02  0.51100000000E-03 0. -1.
         11   -1    0    0    0    0 -0.00000000000E+00 -0.00000000000E+00 -0.45593999997E+02  0.45594000000E+02  0.51100000000E-03 0.  1.
    9900012    2    1    2    0    0 -0.10229813517E+00 -0.59572987174E+00  0.10137500508E+01  0.90007725390E+02  0.89999986566E+02 0.  0.
        -12    1    1    2    0    0  0.10229813517E+00  0.59572987174E+00 -0.10137500508E+01  0.11802746096E+01  0.00000000000E+00 0.  1.
         11    1    3    3    0    0  0.22702246739E+02  0.22600372985E+02  0.22494148725E+02  0.39142759141E+02  0.51100000000E-03 0. -1.
        -11    1    3    3    0    0 -0.15990244057E+01  0.80019222294E+01 -0.58093776739E+01  0.10016811251E+02  0.51100000000E-03 0.  1.
        -12    1    3    3    0    0 -0.21205520468E+02 -0.31198025086E+02 -0.15671021000E+02  0.40848154999E+02  0.00000000000E+00 0.  1.
</event>
<event>
 7    1  0.2429906E-015  0.9000777E+02  0.7816164E-02  0.1186339E+00
        -11   -1    0    0    0    0  0.00000000000E+00  0.00000000000E+00  0.45593999997E+02  0.45594000000E+02  0.51100000000E-03 0.  1.
         11   -1    0    0    0    0 -0.00000000000E+00 -0.00000000000E+00 -0.45593999997E+02  0.45594000000E+02  0.51100000000E-03 0. -1.
    9900012    2    1    2    0    0  0.42483685477E+00 -0.66730861594E+00  0.87587246557E+00  0.90007771328E+02  0.90000033110E+02 0.  0.
        -12    1    1    2    0    0 -0.42483685477E+00  0.66730861594E+00 -0.87587246557E+00  0.11802286719E+01  0.00000000000E+00 0.  1.
         11    1    3    3    0    0 -0.36242856317E+02 -0.32244268523E+01 -0.45247718043E+01  0.36666266822E+02  0.51100000000E-03 0. -1.
        -11    1    3    3    0    0 -0.48622830885E+01  0.47429542276E+01 -0.71888460091E+01  0.98902436189E+01  0.51100000000E-03 0.  1.
        -12    1    3    3    0    0  0.41529976260E+02 -0.21858359912E+01  0.12589490279E+02  0.43451260887E+02  0.00000000000E+00 0.  1.
</event>
<event>
 7    1  0.2429906E-015  0.9000769E+02  0.7816164E-02  0.1186339E+00
        -11   -1    0    0    0    0  0.00000000000E+00  0.00000000000E+00  0.45593999997E+02  0.45594000000E+02  0.51100000000E-03 0. -1.
         11   -1    0    0    0    0 -0.00000000000E+00 -0.00000000000E+00 -0.45593999997E+02  0.45594000000E+02  0.51100000000E-03 0.  1.
    9900012    2    1    2    0    0 -0.11556373736E+01 -0.91113661722E-01 -0.22209324980E+00  0.90007692900E+02  0.89999953646E+02 0.  0.
        -12    1    1    2    0    0  0.11556373736E+01  0.91113661722E-01  0.22209324980E+00  0.11803071000E+01  0.00000000000E+00 0.  1.
         11    1    3    3    0    0 -0.27722453741E+02 -0.24954076118E+02 -0.14305292402E+02  0.39948488673E+02  0.51100000000E-03 0. -1.
        -11    1    3    3    0    0 -0.49294077668E+01  0.10923217894E+02  0.95403872135E+01  0.15317791569E+02  0.51100000000E-03 0.  1.
        -12    1    3    3    0    0  0.31496224134E+02  0.13939744562E+02  0.45428119387E+01  0.34741412658E+02  0.00000000000E+00 0.  1.
</event>
<event>
 7    1  0.2429906E-015  0.9000776E+02  0.7816164E-02  0.1186339E+00
        -11   -1    0    0    0    0  0.00000000000E+00  0.00000000000E+00  0.45593999997E+02  0.45594000000E+02  0.51100000000E-03 0. -1.
         11   -1    0    0    0    0 -0.00000000000E+00 -0.00000000000E+00 -0.45593999997E+02  0.45594000000E+02  0.51100000000E-03 0.  1.
    9900012    2    1    2    0    0  0.53508351618E+00  0.79673295961E+00 -0.68693100301E+00  0.90007757660E+02  0.90000019261E+02 0.  0.
        -12    1    1    2    0    0 -0.53508351618E+00 -0.79673295961E+00  0.68693100301E+00  0.11802423400E+01  0.00000000000E+00 0.  1.
         11    1    3    3    0    0 -0.12586929947E+02  0.23793364212E+02 -0.14438750742E+02  0.30545580847E+02  0.51100000000E-03 0. -1.
        -11    1    3    3    0    0 -0.13041693440E+02  0.91137731028E+01  0.30293134098E+00  0.15913465858E+02  0.51100000000E-03 0.  1.
        -12    1    3    3    0    0  0.26163706903E+02 -0.32110404355E+02  0.13448888398E+02  0.43548710956E+02  0.00000000000E+00 0.  1.
</event>
<event>
 7    1  0.2429906E-015  0.9000743E+02  0.7816164E-02  0.1186340E+00
        -11   -1    0    0    0    0  0.00000000000E+00  0.00000000000E+00  0.45593999997E+02  0.45594000000E+02  0.51100000000E-03 0. -1.
         11   -1    0    0    0    0 -0.00000000000E+00 -0.00000000000E+00 -0.45593999997E+02  0.45594000000E+02  0.51100000000E-03 0.  1.
    9900012    2    1    2    0    0 -0.60273334477E+00  0.26062118591E+00  0.98109111755E+00  0.90007427822E+02  0.89999685068E+02 0.  0.
        -12    1    1    2    0    0  0.60273334477E+00 -0.26062118591E+00 -0.98109111755E+00  0.11805721784E+01  0.00000000000E+00 0.  1.
         11    1    3    3    0    0 -0.20200762842E+00 -0.91575931472E+01  0.71524472782E+01  0.11621524068E+02  0.51100000000E-03 0. -1.
        -11    1    3    3    0    0  0.26132125243E+02 -0.10706540515E+02 -0.27029747361E+02  0.39091242269E+02  0.51100000000E-03 0.  1.
         12    1    3    3    0    0 -0.26532850960E+02  0.20124754848E+02  0.20858391200E+02  0.39294661484E+02  0.00000000000E+00 0. -1.
</event>
<event>
 7    1  0.2429906E-015  0.9000776E+02  0.7816164E-02  0.1186339E+00
        -11   -1    0    0    0    0  0.00000000000E+00  0.00000000000E+00  0.45593999997E+02  0.45594000000E+02  0.51100000000E-03 0.  1.
         11   -1    0    0    0    0 -0.00000000000E+00 -0.00000000000E+00 -0.45593999997E+02  0.45594000000E+02  0.51100000000E-03 0. -1.
    9900012    2    1    2    0    0 -0.94386342486E+00  0.57855771704E+00 -0.40908154028E+00  0.90007764895E+02  0.90000026592E+02 0.  0.
        -12    1    1    2    0    0  0.94386342486E+00 -0.57855771704E+00  0.40908154028E+00  0.11802351051E+01  0.00000000000E+00 0.  1.
         11    1    3    3    0    0  0.41040935232E+01  0.28043219137E+01 -0.30244928332E+00  0.49798876365E+01  0.51100000000E-03 0. -1.
        -11    1    3    3    0    0  0.34431293895E+02 -0.21055222417E+02  0.62121282943E+01  0.40834139253E+02  0.51100000000E-03 0.  1.
         12    1    3    3    0    0 -0.39479250843E+02  0.18829458220E+02 -0.63187605512E+01  0.44193738006E+02  0.00000000000E+00 0. -1.
</event>
<event>
 7    1  0.2429906E-015  0.9000761E+02  0.7816164E-02  0.1186339E+00
        -11   -1    0    0    0    0  0.00000000000E+00  0.00000000000E+00  0.45593999997E+02  0.45594000000E+02  0.51100000000E-03 0.  1.
         11   -1    0    0    0    0 -0.00000000000E+00 -0.00000000000E+00 -0.45593999997E+02  0.45594000000E+02  0.51100000000E-03 0. -1.
    9900012    2    1    2    0    0  0.11129133584E+01 -0.37702137248E+00 -0.11228846948E+00  0.90007606015E+02  0.89999865615E+02 0.  0.
        -12    1    1    2    0    0 -0.11129133584E+01  0.37702137248E+00  0.11228846948E+00  0.11803939847E+01  0.00000000000E+00 0.  1.
         11    1    3    3    0    0  0.25813258242E+02 -0.22868402826E+02 -0.17553057799E+02  0.38696227041E+02  0.51100000000E-03 0. -1.
        -11    1    3    3    0    0 -0.66310904189E+00  0.67031204901E+01 -0.96725386928E+01  0.11786837699E+02  0.51100000000E-03 0.  1.
        -12    1    3    3    0    0 -0.24037235841E+02  0.15788260963E+02  0.27113308023E+02  0.39524541276E+02  0.00000000000E+00 0.  1.
</event>
<event>
 7    1  0.2429906E-015  0.9000763E+02  0.7816164E-02  0.1186339E+00
        -11   -1    0    0    0    0  0.00000000000E+00  0.00000000000E+00  0.45593999997E+02  0.45594000000E+02  0.51100000000E-03 0. -1.
         11   -1    0    0    0    0 -0.00000000000E+00 -0.00000000000E+00 -0.45593999997E+02  0.45594000000E+02  0.51100000000E-03 0.  1.
    9900012    2    1    2    0    0  0.52334674227E-01  0.11201484288E+01  0.36850102205E+00  0.90007633775E+02  0.89999893741E+02 0.  0.
        -12    1    1    2    0    0 -0.52334674227E-01 -0.11201484288E+01 -0.36850102205E+00  0.11803662245E+01  0.00000000000E+00 0.  1.
         11    1    3    3    0    0 -0.15021406297E+02  0.11594390221E+02 -0.37078038526E+02  0.41651572275E+02  0.51100000000E-03 0. -1.
        -11    1    3    3    0    0  0.71341060597E+01  0.64818519340E+01  0.49109218410E+01  0.10817903094E+02  0.51100000000E-03 0.  1.
        -12    1    3    3    0    0  0.79396349111E+01 -0.16956093726E+02  0.32535617708E+02  0.37538158407E+02  0.00000000000E+00 0.  1.
</event>
<event>
 7    1  0.2429906E-015  0.9000786E+02  0.7816164E-02  0.1186339E+00
        -11   -1    0    0    0    0  0.00000000000E+00  0.00000000000E+00  0.45593999997E+02  0.45594000000E+02  0.51100000000E-03 0. -1.
         11   -1    0    0    0    0 -0.00000000000E+00 -0.00000000000E+00 -0.45593999997E+02  0.45594000000E+02  0.51100000000E-03 0.  1.
    9900012    2    1    2    0    0  0.45288861266E-01 -0.11050431166E+01  0.41178327271E+00  0.90007857282E+02  0.90000120198E+02 0.  0.
        -12    1    1    2    0    0 -0.45288861266E-01  0.11050431166E+01 -0.41178327271E+00  0.11801427177E+01  0.00000000000E+00 0.  1.
         11    1    3    3    0    0 -0.12575970229E+02  0.11446117830E+02  0.30928715717E+02  0.35295241843E+02  0.51100000000E-03 0. -1.
        -11    1    3    3    0    0 -0.55762594947E+01  0.59559039418E+01  0.58458282687E+01  0.10036990093E+02  0.51100000000E-03 0.  1.
        -12    1    3    3    0    0  0.18197518585E+02 -0.18507064888E+02 -0.36362760713E+02  0.44675625347E+02  0.00000000000E+00 0.  1.
</event>
<event>
 7    1  0.2429906E-015  0.9000785E+02  0.7816164E-02  0.1186339E+00
        -11   -1    0    0    0    0  0.00000000000E+00  0.00000000000E+00  0.45593999997E+02  0.45594000000E+02  0.51100000000E-03 0.  1.
         11   -1    0    0    0    0 -0.00000000000E+00 -0.00000000000E+00 -0.45593999997E+02  0.45594000000E+02  0.51100000000E-03 0. -1.
    9900012    2    1    2    0    0 -0.46331858900E+00 -0.86555488490E+00 -0.65491308894E+00  0.90007847244E+02  0.90000110027E+02 0.  0.
        -12    1    1    2    0    0  0.46331858900E+00  0.86555488490E+00  0.65491308894E+00  0.11801527561E+01  0.00000000000E+00 0.  1.
         11    1    3    3    0    0  0.29824850943E+01 -0.35303158845E+02 -0.38518610176E+01  0.35637691779E+02  0.51100000000E-03 0. -1.
        -11    1    3    3    0    0  0.38076592999E+01 -0.85137306475E+01 -0.41278951240E+01  0.10199088062E+02  0.51100000000E-03 0.  1.
        -12    1    3    3    0    0 -0.72534629832E+01  0.42951334607E+02  0.73248430526E+01  0.44171067403E+02  0.00000000000E+00 0.  1.
</event>
<event>
 7    1  0.2429906E-015  0.9000892E+02  0.7816164E-02  0.1186337E+00
        -11   -1    0    0    0    0  0.00000000000E+00  0.00000000000E+00  0.45593999997E+02  0.45594000000E+02  0.51100000000E-03 0.  1.
         11   -1    0    0    0    0 -0.00000000000E+00 -0.00000000000E+00 -0.45593999997E+02  0.45594000000E+02  0.51100000000E-03 0. -1.
    9900012    2    1    2    0    0 -0.37148982872E+00  0.77466603123E+00  0.80753525391E+00  0.90008921827E+02  0.90001198787E+02 0.  0.
        -12    1    1    2    0    0  0.37148982872E+00 -0.77466603123E+00 -0.80753525391E+00  0.11790781734E+01  0.00000000000E+00 0.  1.
         11    1    3    3    0    0  0.26569491581E+02 -0.24228143763E+02 -0.14820801181E+02  0.38892119780E+02  0.51100000000E-03 0. -1.
        -11    1    3    3    0    0  0.73625645429E+01  0.56571841457E+01  0.31424660557E+01  0.98023559555E+01  0.51100000000E-03 0.  1.
        -12    1    3    3    0    0 -0.34303545953E+02  0.19345625648E+02  0.12485870379E+02  0.41314446091E+02  0.00000000000E+00 0.  1.
</event>
<event>
 7    1  0.2429906E-015  0.9000771E+02  0.7816164E-02  0.1186339E+00
        -11   -1    0    0    0    0  0.00000000000E+00  0.00000000000E+00  0.45593999997E+02  0.45594000000E+02  0.51100000000E-03 0. -1.
         11   -1    0    0    0    0 -0.00000000000E+00 -0.00000000000E+00 -0.45593999997E+02  0.45594000000E+02  0.51100000000E-03 0.  1.
    9900012    2    1    2    0    0 -0.68367153324E+00  0.94504126007E+00  0.18048242673E+00  0.90007710351E+02  0.89999971328E+02 0.  0.
        -12    1    1    2    0    0  0.68367153324E+00 -0.94504126007E+00 -0.18048242673E+00  0.11802896488E+01  0.00000000000E+00 0.  1.
         11    1    3    3    0    0  0.17390565136E+01 -0.48507649431E+01 -0.10499287541E+02  0.11695694816E+02  0.51100000000E-03 0. -1.
        -11    1    3    3    0    0  0.51462489338E+01 -0.13086856564E+02 -0.29831507357E+02  0.32979819955E+02  0.51100000000E-03 0.  1.
         12    1    3    3    0    0 -0.75689769806E+01  0.18882662767E+02  0.40511277325E+02  0.45332195581E+02  0.00000000000E+00 0. -1.
</event>
<event>
 7    1  0.2710035E-015  0.9000775E+02  0.7816164E-02  0.1186339E+00
        -11   -1    0    0    0    0  0.00000000000E+00  0.00000000000E+00  0.45593999997E+02  0.45594000000E+02  0.51100000000E-03 0.  1.
         11   -1    0    0    0    0 -0.00000000000E+00 -0.00000000000E+00 -0.45593999997E+02  0.45594000000E+02  0.51100000000E-03 0. -1.
    9900012    2    1    2    0    0  0.30652669286E+00  0.88286030846E+00 -0.72082222688E+00  0.90007751882E+02  0.90000013407E+02 0.  0.
        -12    1    1    2    0    0 -0.30652669286E+00 -0.88286030846E+00  0.72082222688E+00  0.11802481182E+01  0.00000000000E+00 0.  1.
         11    1    3    3    0    0 -0.56756964229E+01  0.86446283383E+01 -0.34582950039E+02  0.36096032506E+02  0.51100000000E-03 0. -1.
        -11    1    3    3    0    0  0.25112741227E+01  0.90655558568E+00 -0.93389350307E+01  0.97130864568E+01  0.51100000000E-03 0.  1.
        -12    1    3    3    0    0  0.34709489931E+01 -0.86683236156E+01  0.43201062843E+02  0.44198632919E+02  0.00000000000E+00 0.  1.
</event>
<event>
 7    1  0.2429906E-015  0.9000775E+02  0.7816164E-02  0.1186339E+00
        -11   -1    0    0    0    0  0.00000000000E+00  0.00000000000E+00  0.45593999997E+02  0.45594000000E+02  0.51100000000E-03 0.  1.
         11   -1    0    0    0    0 -0.00000000000E+00 -0.00000000000E+00 -0.45593999997E+02  0.45594000000E+02  0.51100000000E-03 0. -1.
    9900012    2    1    2    0    0 -0.61155655378E+00 -0.10068403654E+01  0.72576890854E-01  0.90007747339E+02  0.90000008803E+02 0.  0.
        -12    1    1    2    0    0  0.61155655378E+00  0.10068403654E+01 -0.72576890854E-01  0.11802526615E+01  0.00000000000E+00 0.  1.
         11    1    3    3    0    0  0.40247103808E+01  0.15674342853E+01 -0.14323597802E+02  0.14960634952E+02  0.51100000000E-03 0. -1.
        -11    1    3    3    0    0 -0.31200583373E+02 -0.17506106888E+02 -0.86897519245E+01  0.36816463300E+02  0.51100000000E-03 0.  1.
         12    1    3    3    0    0  0.26564316438E+02  0.14931832237E+02  0.23085926618E+02  0.38230649087E+02  0.00000000000E+00 0. -1.
</event>
<event>
 7    1  0.2429906E-015  0.9000780E+02  0.7816164E-02  0.1186339E+00
        -11   -1    0    0    0    0  0.00000000000E+00  0.00000000000E+00  0.45593999997E+02  0.45594000000E+02  0.51100000000E-03 0.  1.
         11   -1    0    0    0    0 -0.00000000000E+00 -0.00000000000E+00 -0.45593999997E+02  0.45594000000E+02  0.51100000000E-03 0. -1.
    9900012    2    1    2    0    0  0.40484882790E+00  0.10157617567E+01 -0.44406348180E+00  0.90007802179E+02  0.90000064368E+02 0.  0.
        -12    1    1    2    0    0 -0.40484882790E+00 -0.10157617567E+01  0.44406348180E+00  0.11801978206E+01  0.00000000000E+00 0.  1.
         11    1    3    3    0    0  0.38798701242E+02 -0.19441914603E+01 -0.89849467538E+01  0.39872902665E+02  0.51100000000E-03 0. -1.
        -11    1    3    3    0    0  0.16233513565E+01  0.73221001005E+01 -0.32728580357E+01  0.81829102092E+01  0.51100000000E-03 0.  1.
        -12    1    3    3    0    0 -0.40017203770E+02 -0.43621468836E+01  0.11813741308E+02  0.41951989306E+02  0.00000000000E+00 0.  1.
</event>
<event>
 7    1  0.2429906E-015  0.9000763E+02  0.7816164E-02  0.1186339E+00
        -11   -1    0    0    0    0  0.00000000000E+00  0.00000000000E+00  0.45593999997E+02  0.45594000000E+02  0.51100000000E-03 0. -1.
         11   -1    0    0    0    0 -0.00000000000E+00 -0.00000000000E+00 -0.45593999997E+02  0.45594000000E+02  0.51100000000E-03 0.  1.
    9900012    2    1    2    0    0  0.85708614277E+00 -0.41065605675E+00 -0.70002434712E+00  0.90007631778E+02  0.89999891717E+02 0.  0.
        -12    1    1    2    0    0 -0.85708614277E+00  0.41065605675E+00  0.70002434712E+00  0.11803682221E+01  0.00000000000E+00 0.  1.
         11    1    3    3    0    0  0.53615958621E+01  0.48946618559E+01 -0.62186023650E+01  0.95590501885E+01  0.51100000000E-03 0. -1.
        -11    1    3    3    0    0  0.17957501073E+01  0.36940051437E+02 -0.21794799186E+01  0.37047837340E+02  0.51100000000E-03 0.  1.
         12    1    3    3    0    0 -0.63002598266E+01 -0.42245369350E+02  0.76980579365E+01  0.43400744249E+02  0.00000000000E+00 0. -1.
</event>
<event>
 7    1  0.2429906E-015  0.9000774E+02  0.7816164E-02  0.1186339E+00
        -11   -1    0    0    0    0  0.00000000000E+00  0.00000000000E+00  0.45593999997E+02  0.45594000000E+02  0.51100000000E-03 0. -1.
         11   -1    0    0    0    0 -0.00000000000E+00 -0.00000000000E+00 -0.45593999997E+02  0.45594000000E+02  0.51100000000E-03 0.  1.
    9900012    2    1    2    0    0  0.95264375340E+00 -0.57041723908E+00  0.40014516604E+00  0.90007736427E+02  0.89999997748E+02 0.  0.
        -12    1    1    2    0    0 -0.95264375340E+00  0.57041723908E+00 -0.40014516604E+00  0.11802635729E+01  0.00000000000E+00 0.  1.
         11    1    3    3    0    0 -0.77622880579E+01  0.22118521933E+01  0.59956519561E+01  0.10054513845E+02  0.51100000000E-03 0. -1.
        -11    1    3    3    0    0 -0.31384456513E+02  0.12313021111E+02  0.86413791025E+01  0.34803276176E+02  0.51100000000E-03 0.  1.
         12    1    3    3    0    0  0.40099388325E+02 -0.15095290543E+02 -0.14236885893E+02  0.45149946406E+02  0.00000000000E+00 0. -1.
</event>
<event>
 7    1  0.2429906E-015  0.9000772E+02  0.7816164E-02  0.1186339E+00
        -11   -1    0    0    0    0  0.00000000000E+00  0.00000000000E+00  0.45593999997E+02  0.45594000000E+02  0.51100000000E-03 0. -1.
         11   -1    0    0    0    0 -0.00000000000E+00 -0.00000000000E+00 -0.45593999997E+02  0.45594000000E+02  0.51100000000E-03 0.  1.
    9900012    2    1    2    0    0  0.68198986678E+00 -0.30998322379E+00  0.91206860506E+00  0.90007716594E+02  0.89999977653E+02 0.  0.
        -12    1    1    2    0    0 -0.68198986678E+00  0.30998322379E+00 -0.91206860506E+00  0.11802834057E+01  0.00000000000E+00 0.  1.
         11    1    3    3    0    0  0.63892317270E+01 -0.19775750733E+01 -0.96237027386E+01  0.11719587872E+02  0.51100000000E-03 0. -1.
        -11    1    3    3    0    0 -0.66917497228E+01  0.32503268335E+02 -0.16686216355E+02  0.37143933332E+02  0.51100000000E-03 0.  1.
         12    1    3    3    0    0  0.98450786260E+00 -0.30835676486E+02  0.27221987699E+02  0.41144195391E+02  0.00000000000E+00 0. -1.
</event>
<event>
 7    1  0.2429906E-015  0.9000772E+02  0.7816164E-02  0.1186339E+00
        -11   -1    0    0    0    0  0.00000000000E+00  0.00000000000E+00  0.45593999997E+02  0.45594000000E+02  0.51100000000E-03 0.  1.
         11   -1    0    0    0    0 -0.00000000000E+00 -0.00000000000E+00 -0.45593999997E+02  0.45594000000E+02  0.51100000000E-03 0. -1.
    9900012    2    1    2    0    0  0.12093895742E+00  0.98877727204E-01 -0.11698936708E+01  0.90007722813E+02  0.89999983955E+02 0.  0.
        -12    1    1    2    0    0 -0.12093895742E+00 -0.98877727204E-01  0.11698936708E+01  0.11802771866E+01  0.00000000000E+00 0.  1.
         11    1    3    3    0    0 -0.86981897408E+01 -0.36698157534E+02  0.27143749712E+01  0.37812446402E+02  0.51100000000E-03 0. -1.
        -11    1    3    3    0    0 -0.14145441208E+00 -0.38013520154E+01 -0.95084187298E+01  0.10241108997E+02  0.51100000000E-03 0.  1.
        -12    1    3    3    0    0  0.89605831103E+01  0.40598387277E+02  0.56241500878E+01  0.41954167414E+02  0.00000000000E+00 0.  1.
</event>
<event>
 7    1  0.2429906E-015  0.9000771E+02  0.7816164E-02  0.1186339E+00
        -11   -1    0    0    0    0  0.00000000000E+00  0.00000000000E+00  0.45593999997E+02  0.45594000000E+02  0.51100000000E-03 0. -1.
         11   -1    0    0    0    0 -0.00000000000E+00 -0.00000000000E+00 -0.45593999997E+02  0.45594000000E+02  0.51100000000E-03 0.  1.
    9900012    2    1    2    0    0  0.77458294749E+00 -0.86807394063E+00  0.19890344083E+00  0.90007706101E+02  0.89999967022E+02 0.  0.
        -12    1    1    2    0    0 -0.77458294749E+00  0.86807394063E+00 -0.19890344083E+00  0.11802938989E+01  0.00000000000E+00 0.  1.
         11    1    3    3    0    0  0.31303248192E+01 -0.81750126227E+01 -0.41918499760E+01  0.97057390927E+01  0.51100000000E-03 0. -1.
        -11    1    3    3    0    0 -0.13678993611E+02  0.28988064478E+02 -0.26012829390E+02  0.41280625498E+02  0.51100000000E-03 0.  1.
         12    1    3    3    0    0  0.11323251739E+02 -0.21681125796E+02  0.30403582807E+02  0.39021341510E+02  0.00000000000E+00 0. -1.
</event>
<event>
 7    1  0.2429906E-015  0.9000773E+02  0.7816164E-02  0.1186339E+00
        -11   -1    0    0    0    0  0.00000000000E+00  0.00000000000E+00  0.45593999997E+02  0.45594000000E+02  0.51100000000E-03 0. -1.
         11   -1    0    0    0    0 -0.00000000000E+00 -0.00000000000E+00 -0.45593999997E+02  0.45594000000E+02  0.51100000000E-03 0.  1.
    9900012    2    1    2    0    0  0.47885636519E+00  0.10221744527E+01  0.34482390776E+00  0.90007725643E+02  0.89999986822E+02 0.  0.
        -12    1    1    2    0    0 -0.47885636519E+00 -0.10221744527E+01 -0.34482390776E+00  0.11802743569E+01  0.00000000000E+00 0.  1.
         11    1    3    3    0    0  0.55053775966E+01 -0.65943718930E+01  0.59918552658E+01  0.10473645637E+02  0.51100000000E-03 0. -1.
        -11    1    3    3    0    0  0.18815772083E+02 -0.20533074094E+02 -0.25395805234E+02  0.37690679678E+02  0.51100000000E-03 0.  1.
         12    1    3    3    0    0 -0.23842293314E+02  0.28149620440E+02  0.19748773876E+02  0.41843400328E+02  0.00000000000E+00 0. -1.
</event>
<event>
 7    1  0.2429906E-015  0.9000753E+02  0.7816164E-02  0.1186339E+00
        -11   -1    0    0    0    0  0.00000000000E+00  0.00000000000E+00  0.45593999997E+02  0.45594000000E+02  0.51100000000E-03 0. -1.
         11   -1    0    0    0    0 -0.00000000000E+00 -0.00000000000E+00 -0.45593999997E+02  0.45594000000E+02  0.51100000000E-03 0.  1.
    9900012    2    1    2    0    0  0.36057362867E+00 -0.47663741340E-01  0.11230408094E+01  0.90007531520E+02  0.89999790135E+02 0.  0.
        -12    1    1    2    0    0 -0.36057362867E+00  0.47663741340E-01 -0.11230408094E+01  0.11804684805E+01  0.00000000000E+00 0.  1.
         11    1    3    3    0    0  0.95282096360E+01  0.35281805591E+01 -0.35247972303E+01  0.10754488956E+02  0.51100000000E-03 0. -1.
        -11    1    3    3    0    0  0.23337098182E+02  0.38350713534E+01 -0.25160974908E+02  0.34531182754E+02  0.51100000000E-03 0.  1.
         12    1    3    3    0    0 -0.32504734189E+02 -0.74109156538E+01  0.29808812947E+02  0.44721859810E+02  0.00000000000E+00 0. -1.
</event>
<event>
 7    1  0.2429906E-015  0.9000776E+02  0.7816164E-02  0.1186339E+00
        -11   -1    0    0    0    0  0.00000000000E+00  0.00000000000E+00  0.45593999997E+02  0.45594000000E+02  0.51100000000E-03 0.  1.
         11   -1    0    0    0    0 -0.00000000000E+00 -0.00000000000E+00 -0.45593999997E+02  0.45594000000E+02  0.51100000000E-03 0. -1.
    9900012    2    1    2    0    0 -0.11107200170E+01 -0.11415125664E+00  0.38240453245E+00  0.90007761595E+02  0.90000023248E+02 0.  0.
        -12    1    1    2    0    0  0.11107200170E+01  0.11415125664E+00 -0.38240453245E+00  0.11802384048E+01  0.00000000000E+00 0.  1.
         11    1    3    3    0    0  0.80547255589E+01  0.18928326237E+02  0.97269692383E+01  0.22754649388E+02  0.51100000000E-03 0. -1.
        -11    1    3    3    0    0  0.25462943073E+02  0.25130249594E+01 -0.62971413673E+01  0.26350156623E+02  0.51100000000E-03 0.  1.
         12    1    3    3    0    0 -0.34628388649E+02 -0.21555502453E+02 -0.30474233386E+01  0.40902955584E+02  0.00000000000E+00 0. -1.
</event>
<event>
 7    1  0.2429906E-015  0.9000768E+02  0.7816164E-02  0.1186339E+00
        -11   -1    0    0    0    0  0.00000000000E+00  0.00000000000E+00  0.45593999997E+02  0.45594000000E+02  0.51100000000E-03 0.  1.
         11   -1    0    0    0    0 -0.00000000000E+00 -0.00000000000E+00 -0.45593999997E+02  0.45594000000E+02  0.51100000000E-03 0. -1.
    9900012    2    1    2    0    0 -0.82808521363E+00  0.83940394891E+00 -0.53313009826E-01  0.90007675304E+02  0.89999935818E+02 0.  0.
        -12    1    1    2    0    0  0.82808521363E+00 -0.83940394891E+00  0.53313009826E-01  0.11803246958E+01  0.00000000000E+00 0.  1.
         11    1    3    3    0    0  0.29679863245E+01  0.16681528691E+01  0.13839742997E+02  0.14252373953E+02  0.51100000000E-03 0. -1.
        -11    1    3    3    0    0  0.12549951470E+01  0.76582482830E+01  0.29885442061E+02  0.30876583798E+02  0.51100000000E-03 0.  1.
         12    1    3    3    0    0 -0.50510666852E+01 -0.84869972033E+01 -0.43778498068E+02  0.44878717553E+02  0.00000000000E+00 0. -1.
</event>
<event>
 7    1  0.2429906E-015  0.9000780E+02  0.7816164E-02  0.1186339E+00
        -11   -1    0    0    0    0  0.00000000000E+00  0.00000000000E+00  0.45593999997E+02  0.45594000000E+02  0.51100000000E-03 0.  1.
         11   -1    0    0    0    0 -0.00000000000E+00 -0.00000000000E+00 -0.45593999997E+02  0.45594000000E+02  0.51100000000E-03 0. -1.
    9900012    2    1    2    0    0 -0.11289528326E+01 -0.34397915698E+00  0.47864641163E-02  0.90007797022E+02  0.90000059143E+02 0.  0.
        -12    1    1    2    0    0  0.11289528326E+01  0.34397915698E+00 -0.47864641163E-02  0.11802029778E+01  0.00000000000E+00 0.  1.
         11    1    3    3    0    0  0.10383145337E+02  0.16013173734E+01  0.39960187974E+00  0.10513496390E+02  0.51100000000E-03 0. -1.
        -11    1    3    3    0    0  0.28134873240E+02  0.18950633576E+02  0.52423412889E+01  0.34324623052E+02  0.51100000000E-03 0.  1.
         12    1    3    3    0    0 -0.39646971410E+02 -0.20895930106E+02 -0.56371567045E+01  0.45169677580E+02  0.00000000000E+00 0. -1.
</event>
<event>
 7    1  0.2429906E-015  0.9000771E+02  0.7816164E-02  0.1186339E+00
        -11   -1    0    0    0    0  0.00000000000E+00  0.00000000000E+00  0.45593999997E+02  0.45594000000E+02  0.51100000000E-03 0. -1.
         11   -1    0    0    0    0 -0.00000000000E+00 -0.00000000000E+00 -0.45593999997E+02  0.45594000000E+02  0.51100000000E-03 0.  1.
    9900012    2    1    2    0    0 -0.24628394054E+00 -0.69751240453E+00 -0.91973741864E+00  0.90007705014E+02  0.89999965921E+02 0.  0.
        -12    1    1    2    0    0  0.24628394054E+00  0.69751240453E+00  0.91973741864E+00  0.11802949856E+01  0.00000000000E+00 0.  1.
         11    1    3    3    0    0 -0.27355904662E+02  0.16457917977E+02  0.25097152014E+02  0.40608812141E+02  0.51100000000E-03 0. -1.
        -11    1    3    3    0    0 -0.28303356997E+01  0.14493849738E+01 -0.10344420746E+02  0.10822132776E+02  0.51100000000E-03 0.  1.
        -12    1    3    3    0    0  0.29939956421E+02 -0.18604815356E+02 -0.15672468686E+02  0.38576760098E+02  0.00000000000E+00 0.  1.
</event>
<event>
 7    1  0.2429906E-015  0.9000770E+02  0.7816164E-02  0.1186339E+00
        -11   -1    0    0    0    0  0.00000000000E+00  0.00000000000E+00  0.45593999997E+02  0.45594000000E+02  0.51100000000E-03 0.  1.
         11   -1    0    0    0    0 -0.00000000000E+00 -0.00000000000E+00 -0.45593999997E+02  0.45594000000E+02  0.51100000000E-03 0. -1.
    9900012    2    1    2    0    0 -0.49383151026E+00  0.15856021398E+00 -0.10602291067E+01  0.90007704842E+02  0.89999965746E+02 0.  0.
        -12    1    1    2    0    0  0.49383151026E+00 -0.15856021398E+00  0.10602291067E+01  0.11802951583E+01  0.00000000000E+00 0.  1.
         11    1    3    3    0    0 -0.86039546738E+01 -0.51091478411E+01 -0.27902166908E+01  0.10388298086E+02  0.51100000000E-03 0. -1.
        -11    1    3    3    0    0 -0.17671924889E+02  0.11065936655E+02  0.32778106202E+02  0.38847858754E+02  0.51100000000E-03 0.  1.
         12    1    3    3    0    0  0.25782048053E+02 -0.57982286004E+01 -0.31048118618E+02  0.40771548001E+02  0.00000000000E+00 0. -1.
</event>
<event>
 7    1  0.2429906E-015  0.9000761E+02  0.7816164E-02  0.1186339E+00
        -11   -1    0    0    0    0  0.00000000000E+00  0.00000000000E+00  0.45593999997E+02  0.45594000000E+02  0.51100000000E-03 0.  1.
         11   -1    0    0    0    0 -0.00000000000E+00 -0.00000000000E+00 -0.45593999997E+02  0.45594000000E+02  0.51100000000E-03 0. -1.
    9900012    2    1    2    0    0  0.22793081997E-01  0.12493301324E+00 -0.11735388816E+01  0.90007609688E+02  0.89999869336E+02 0.  0.
        -12    1    1    2    0    0 -0.22793081997E-01 -0.12493301324E+00  0.11735388816E+01  0.11803903121E+01  0.00000000000E+00 0.  1.
         11    1    3    3    0    0 -0.49357741988E+01  0.31491454687E+01  0.65919714131E+01  0.88166360647E+01  0.51100000000E-03 0. -1.
        -11    1    3    3    0    0 -0.36009236227E+02 -0.12736170903E+02 -0.82897769604E+01  0.39084466802E+02  0.51100000000E-03 0.  1.
         12    1    3    3    0    0  0.40967803508E+02  0.97119584473E+01  0.52426666567E+00  0.42106506821E+02  0.00000000000E+00 0. -1.
</event>
<event>
 7    1  0.2429906E-015  0.9000772E+02  0.7816164E-02  0.1186339E+00
        -11   -1    0    0    0    0  0.00000000000E+00  0.00000000000E+00  0.45593999997E+02  0.45594000000E+02  0.51100000000E-03 0.  1.
         11   -1    0    0    0    0 -0.00000000000E+00 -0.00000000000E+00 -0.45593999997E+02  0.45594000000E+02  0.51100000000E-03 0. -1.
    9900012    2    1    2    0    0 -0.11676034721E+01 -0.76010848062E-01 -0.15487927417E+00  0.90007719056E+02  0.89999980148E+02 0.  0.
        -12    1    1    2    0    0  0.11676034721E+01  0.76010848062E-01  0.15487927417E+00  0.11802809439E+01  0.00000000000E+00 0.  1.
         11    1    3    3    0    0  0.16714351576E+00  0.39963560106E+02 -0.62076915849E+01  0.40443163927E+02  0.51100000000E-03 0. -1.
        -11    1    3    3    0    0 -0.10803392838E+01 -0.62215273650E-01  0.93855388522E+01  0.94477163122E+01  0.51100000000E-03 0.  1.
        -12    1    3    3    0    0 -0.25440770398E+00 -0.39977355681E+02 -0.33327265415E+01  0.40116838817E+02  0.00000000000E+00 0.  1.
</event>
<event>
 7    1  0.2429906E-015  0.9000770E+02  0.7816164E-02  0.1186339E+00
        -11   -1    0    0    0    0  0.00000000000E+00  0.00000000000E+00  0.45593999997E+02  0.45594000000E+02  0.51100000000E-03 0.  1.
         11   -1    0    0    0    0 -0.00000000000E+00 -0.00000000000E+00 -0.45593999997E+02  0.45594000000E+02  0.51100000000E-03 0. -1.
    9900012    2    1    2    0    0 -0.83459974453E+00 -0.59773371049E+00 -0.58246107413E+00  0.90007702061E+02  0.89999962928E+02 0.  0.
        -12    1    1    2    0    0  0.83459974453E+00  0.59773371049E+00  0.58246107413E+00  0.11802979391E+01  0.00000000000E+00 0.  1.
         11    1    3    3    0    0  0.19974485400E+02 -0.91643277490E+01 -0.15776167194E+01  0.22033017153E+02  0.51100000000E-03 0. -1.
        -11    1    3    3    0    0  0.97354035878E+01 -0.34722459572E+01 -0.24379733507E+02  0.26480294205E+02  0.51100000000E-03 0.  1.
        -12    1    3    3    0    0 -0.30544488732E+02  0.12038839996E+02  0.25374889153E+02  0.41494390704E+02  0.00000000000E+00 0.  1.
</event>
<event>
 7    1  0.2429906E-015  0.9000752E+02  0.7816164E-02  0.1186339E+00
        -11   -1    0    0    0    0  0.00000000000E+00  0.00000000000E+00  0.45593999997E+02  0.45594000000E+02  0.51100000000E-03 0.  1.
         11   -1    0    0    0    0 -0.00000000000E+00 -0.00000000000E+00 -0.45593999997E+02  0.45594000000E+02  0.51100000000E-03 0. -1.
    9900012    2    1    2    0    0 -0.25121572998E+00 -0.94734230755E+00 -0.65800603479E+00  0.90007517585E+02  0.89999776017E+02 0.  0.
        -12    1    1    2    0    0  0.25121572998E+00  0.94734230755E+00  0.65800603479E+00  0.11804824152E+01  0.00000000000E+00 0.  1.
         11    1    3    3    0    0  0.31089783988E+01  0.15713848934E+02 -0.40809706915E+02  0.43840882447E+02  0.51100000000E-03 0. -1.
        -11    1    3    3    0    0 -0.59718084194E+01 -0.35214543954E+01  0.49973705374E+01  0.85461599217E+01  0.51100000000E-03 0.  1.
        -12    1    3    3    0    0  0.26116142906E+01 -0.13139736846E+02  0.35154330343E+02  0.37620475216E+02  0.00000000000E+00 0.  1.
</event>
<event>
 7    1  0.2429906E-015  0.9000759E+02  0.7816164E-02  0.1186339E+00
        -11   -1    0    0    0    0  0.00000000000E+00  0.00000000000E+00  0.45593999997E+02  0.45594000000E+02  0.51100000000E-03 0.  1.
         11   -1    0    0    0    0 -0.00000000000E+00 -0.00000000000E+00 -0.45593999997E+02  0.45594000000E+02  0.51100000000E-03 0. -1.
    9900012    2    1    2    0    0 -0.10902884832E+01 -0.24511507711E+00 -0.38019567360E+00  0.90007593660E+02  0.89999853096E+02 0.  0.
        -12    1    1    2    0    0  0.10902884832E+01  0.24511507711E+00  0.38019567360E+00  0.11804063401E+01  0.00000000000E+00 0.  1.
         11    1    3    3    0    0 -0.74737114677E+01 -0.42953368089E+01 -0.61038034971E+00  0.86416923017E+01  0.51100000000E-03 0. -1.
        -11    1    3    3    0    0  0.28072146868E+01 -0.34686771433E+02  0.17324484594E+02  0.38874031608E+02  0.51100000000E-03 0.  1.
         12    1    3    3    0    0  0.35762082978E+01  0.38736993164E+02 -0.17094299918E+02  0.42491869751E+02  0.00000000000E+00 0. -1.
</event>
<event>
 7    1  0.2429906E-015  0.9000791E+02  0.7816164E-02  0.1186339E+00
        -11   -1    0    0    0    0  0.00000000000E+00  0.00000000000E+00  0.45593999997E+02  0.45594000000E+02  0.51100000000E-03 0. -1.
         11   -1    0    0    0    0 -0.00000000000E+00 -0.00000000000E+00 -0.45593999997E+02  0.45594000000E+02  0.51100000000E-03 0.  1.
    9900012    2    1    2    0    0 -0.83432532006E+00 -0.12460662923E+00  0.82521380354E+00  0.90007913828E+02  0.90000177490E+02 0.  0.
        -12    1    1    2    0    0  0.83432532006E+00  0.12460662923E+00 -0.82521380354E+00  0.11800861720E+01  0.00000000000E+00 0.  1.
         11    1    3    3    0    0 -0.54699087557E+01 -0.38772240769E+02 -0.85030844712E+01  0.40068803349E+02  0.51100000000E-03 0. -1.
        -11    1    3    3    0    0 -0.13707952543E+01  0.20557562086E+01 -0.84587312085E+01  0.88122271383E+01  0.51100000000E-03 0.  1.
        -12    1    3    3    0    0  0.60063786899E+01  0.36591877931E+02  0.17787029483E+02  0.41126883341E+02  0.00000000000E+00 0.  1.
</event>
<event>
 7    1  0.2429906E-015  0.9000789E+02  0.7816164E-02  0.1186339E+00
        -11   -1    0    0    0    0  0.00000000000E+00  0.00000000000E+00  0.45593999997E+02  0.45594000000E+02  0.51100000000E-03 0. -1.
         11   -1    0    0    0    0 -0.00000000000E+00 -0.00000000000E+00 -0.45593999997E+02  0.45594000000E+02  0.51100000000E-03 0.  1.
    9900012    2    1    2    0    0  0.32360810533E+00  0.95336743631E+00 -0.61565447946E+00  0.90007888941E+02  0.90000152274E+02 0.  0.
        -12    1    1    2    0    0 -0.32360810533E+00 -0.95336743631E+00  0.61565447946E+00  0.11801110594E+01  0.00000000000E+00 0.  1.
         11    1    3    3    0    0  0.23251591955E+00  0.58935576853E+01  0.77548171886E+01  0.97429603167E+01  0.51100000000E-03 0. -1.
        -11    1    3    3    0    0  0.25427641737E+02 -0.98300980817E+00 -0.35014933884E+02  0.43284834154E+02  0.51100000000E-03 0.  1.
         12    1    3    3    0    0 -0.25336549552E+02 -0.39571804408E+01  0.26644462216E+02  0.36980094470E+02  0.00000000000E+00 0. -1.
</event>
<event>
 7    1  0.2429906E-015  0.9000776E+02  0.7816164E-02  0.1186339E+00
        -11   -1    0    0    0    0  0.00000000000E+00  0.00000000000E+00  0.45593999997E+02  0.45594000000E+02  0.51100000000E-03 0.  1.
         11   -1    0    0    0    0 -0.00000000000E+00 -0.00000000000E+00 -0.45593999997E+02  0.45594000000E+02  0.51100000000E-03 0. -1.
    9900012    2    1    2    0    0 -0.96565035063E+00  0.64636513726E+00 -0.20661062653E+00  0.90007764243E+02  0.90000025931E+02 0.  0.
        -12    1    1    2    0    0  0.96565035063E+00 -0.64636513726E+00  0.20661062653E+00  0.11802357567E+01  0.00000000000E+00 0.  1.
         11    1    3    3    0    0 -0.87177761993E+01  0.54693003195E+01 -0.20900014395E+01  0.10501474855E+02  0.51100000000E-03 0. -1.
        -11    1    3    3    0    0  0.20864752615E+01 -0.23072548172E+02  0.34587239108E+02  0.41628991911E+02  0.51100000000E-03 0.  1.
         12    1    3    3    0    0  0.56656505872E+01  0.18249612990E+02 -0.32703848295E+02  0.37877297477E+02  0.00000000000E+00 0. -1.
</event>
<event>
 7    1  0.2429906E-015  0.9000771E+02  0.7816164E-02  0.1186339E+00
        -11   -1    0    0    0    0  0.00000000000E+00  0.00000000000E+00  0.45593999997E+02  0.45594000000E+02  0.51100000000E-03 0.  1.
         11   -1    0    0    0    0 -0.00000000000E+00 -0.00000000000E+00 -0.45593999997E+02  0.45594000000E+02  0.51100000000E-03 0. -1.
    9900012    2    1    2    0    0  0.61344441334E-01 -0.10774691057E+01 -0.47789814173E+00  0.90007707897E+02  0.89999968841E+02 0.  0.
        -12    1    1    2    0    0 -0.61344441334E-01  0.10774691057E+01  0.47789814173E+00  0.11802921028E+01  0.00000000000E+00 0.  1.
         11    1    3    3    0    0  0.36436976512E+02  0.12744023440E+02 -0.87890908332E+01  0.39589285276E+02  0.51100000000E-03 0. -1.
        -11    1    3    3    0    0 -0.31377212805E+01  0.36838304037E+01 -0.80911765896E+01  0.94277802341E+01  0.51100000000E-03 0.  1.
        -12    1    3    3    0    0 -0.33237910790E+02 -0.17505322949E+02  0.16402369281E+02  0.40990642387E+02  0.00000000000E+00 0.  1.
</event>
<event>
 7    1  0.2429906E-015  0.9000779E+02  0.7816164E-02  0.1186339E+00
        -11   -1    0    0    0    0  0.00000000000E+00  0.00000000000E+00  0.45593999997E+02  0.45594000000E+02  0.51100000000E-03 0.  1.
         11   -1    0    0    0    0 -0.00000000000E+00 -0.00000000000E+00 -0.45593999997E+02  0.45594000000E+02  0.51100000000E-03 0. -1.
    9900012    2    1    2    0    0  0.51400257422E+00 -0.10575204705E+01 -0.10169185741E+00  0.90007792634E+02  0.90000054697E+02 0.  0.
        -12    1    1    2    0    0 -0.51400257422E+00  0.10575204705E+01  0.10169185741E+00  0.11802073656E+01  0.00000000000E+00 0.  1.
         11    1    3    3    0    0 -0.33764532080E+02  0.29685538029E+01 -0.79697389442E+01  0.34819142398E+02  0.51100000000E-03 0. -1.
        -11    1    3    3    0    0 -0.97890505488E+01 -0.15595153794E+01 -0.16194079531E+01  0.10043907668E+02  0.51100000000E-03 0.  1.
        -12    1    3    3    0    0  0.44067585203E+02 -0.24665588941E+01  0.94874550399E+01  0.45144742568E+02  0.00000000000E+00 0.  1.
</event>
<event>
 7    1  0.2429906E-015  0.9000757E+02  0.7816164E-02  0.1186339E+00
        -11   -1    0    0    0    0  0.00000000000E+00  0.00000000000E+00  0.45593999997E+02  0.45594000000E+02  0.51100000000E-03 0.  1.
         11   -1    0    0    0    0 -0.00000000000E+00 -0.00000000000E+00 -0.45593999997E+02  0.45594000000E+02  0.51100000000E-03 0. -1.
    9900012    2    1    2    0    0  0.51078313171E+00 -0.10602537591E+01 -0.91576678082E-01  0.90007566296E+02  0.89999825371E+02 0.  0.
        -12    1    1    2    0    0 -0.51078313171E+00  0.10602537591E+01  0.91576678082E-01  0.11804337039E+01  0.00000000000E+00 0.  1.
         11    1    3    3    0    0  0.31837979584E+01 -0.55850504448E+01  0.70049751035E+01  0.95078406788E+01  0.51100000000E-03 0. -1.
        -11    1    3    3    0    0  0.12933280615E+02 -0.28492977282E+02  0.18083289376E+02  0.36140349428E+02  0.51100000000E-03 0.  1.
         12    1    3    3    0    0 -0.15606295442E+02  0.33017773967E+02 -0.25179841158E+02  0.44359376189E+02  0.00000000000E+00 0. -1.
</event>
<event>
 7    1  0.2429906E-015  0.9000772E+02  0.7816164E-02  0.1186339E+00
        -11   -1    0    0    0    0  0.00000000000E+00  0.00000000000E+00  0.45593999997E+02  0.45594000000E+02  0.51100000000E-03 0.  1.
         11   -1    0    0    0    0 -0.00000000000E+00 -0.00000000000E+00 -0.45593999997E+02  0.45594000000E+02  0.51100000000E-03 0. -1.
    9900012    2    1    2    0    0  0.64525139734E+00  0.31393271699E+00 -0.93709990345E+00  0.90007720649E+02  0.89999981762E+02 0.  0.
        -12    1    1    2    0    0 -0.64525139734E+00 -0.31393271699E+00  0.93709990345E+00  0.11802793507E+01  0.00000000000E+00 0.  1.
         11    1    3    3    0    0 -0.27692399195E+01 -0.54776768227E+01  0.48236086463E+01  0.78064610253E+01  0.51100000000E-03 0. -1.
        -11    1    3    3    0    0  0.42001264269E+01 -0.19648840064E+02  0.31328729487E+02  0.37218372740E+02  0.51100000000E-03 0.  1.
         12    1    3    3    0    0 -0.78563511011E+00  0.25440449603E+02 -0.37089438037E+02  0.44982886884E+02  0.00000000000E+00 0. -1.
</event>
<event>
 7    1  0.2429906E-015  0.9000779E+02  0.7816164E-02  0.1186339E+00
        -11   -1    0    0    0    0  0.00000000000E+00  0.00000000000E+00  0.45593999997E+02  0.45594000000E+02  0.51100000000E-03 0. -1.
         11   -1    0    0    0    0 -0.00000000000E+00 -0.00000000000E+00 -0.45593999997E+02  0.45594000000E+02  0.51100000000E-03 0.  1.
    9900012    2    1    2    0    0 -0.34553230165E-01  0.13139331330E+00  0.11723641051E+01  0.90007789966E+02  0.90000051994E+02 0.  0.
        -12    1    1    2    0    0  0.34553230165E-01 -0.13139331330E+00 -0.11723641051E+01  0.11802100336E+01  0.00000000000E+00 0.  1.
         11    1    3    3    0    0  0.53605189788E+01 -0.16833812401E+02  0.29141135951E+02  0.34078119204E+02  0.51100000000E-03 0. -1.
        -11    1    3    3    0    0  0.13426778686E+01 -0.96878684133E+01  0.65723696613E+01  0.11783616655E+02  0.51100000000E-03 0.  1.
        -12    1    3    3    0    0 -0.67377500775E+01  0.26653074128E+02 -0.34541141508E+02  0.44146054107E+02  0.00000000000E+00 0.  1.
</event>
<event>
 7    1  0.2429906E-015  0.9000764E+02  0.7816164E-02  0.1186339E+00
        -11   -1    0    0    0    0  0.00000000000E+00  0.00000000000E+00  0.45593999997E+02  0.45594000000E+02  0.51100000000E-03 0. -1.
         11   -1    0    0    0    0 -0.00000000000E+00 -0.00000000000E+00 -0.45593999997E+02  0.45594000000E+02  0.51100000000E-03 0.  1.
    9900012    2    1    2    0    0 -0.97817174465E-01  0.41076888254E-01  0.11755867589E+01  0.90007635760E+02  0.89999895752E+02 0.  0.
        -12    1    1    2    0    0  0.97817174465E-01 -0.41076888254E-01 -0.11755867589E+01  0.11803642396E+01  0.00000000000E+00 0.  1.
         11    1    3    3    0    0 -0.28033864846E+01 -0.15130876623E+01 -0.93796408393E+01  0.99058605174E+01  0.51100000000E-03 0. -1.
        -11    1    3    3    0    0 -0.10341881698E+02 -0.16381542126E+02 -0.28927808321E+02  0.34815621982E+02  0.51100000000E-03 0.  1.
         12    1    3    3    0    0  0.13047451008E+02  0.17935706677E+02  0.39483035919E+02  0.45286153261E+02  0.00000000000E+00 0. -1.
</event>
<event>
 7    1  0.2429906E-015  0.9000761E+02  0.7816164E-02  0.1186339E+00
        -11   -1    0    0    0    0  0.00000000000E+00  0.00000000000E+00  0.45593999997E+02  0.45594000000E+02  0.51100000000E-03 0.  1.
         11   -1    0    0    0    0 -0.00000000000E+00 -0.00000000000E+00 -0.45593999997E+02  0.45594000000E+02  0.51100000000E-03 0. -1.
    9900012    2    1    2    0    0  0.76140614366E-01 -0.37413735407E+00 -0.11169393102E+01  0.90007606178E+02  0.89999865779E+02 0.  0.
        -12    1    1    2    0    0 -0.76140614366E-01  0.37413735407E+00  0.11169393102E+01  0.11803938223E+01  0.00000000000E+00 0.  1.
         11    1    3    3    0    0  0.88463391788E+01  0.31004867846E+00  0.23283259238E+01  0.91528656124E+01  0.51100000000E-03 0. -1.
        -11    1    3    3    0    0 -0.26293979403E+02  0.27314031573E+02  0.17485470500E+02  0.41751303602E+02  0.51100000000E-03 0.  1.
         12    1    3    3    0    0  0.17523780838E+02 -0.27998217606E+02 -0.20930735734E+02  0.39103436963E+02  0.00000000000E+00 0. -1.
</event>
<event>
 7    1  0.2429906E-015  0.9000782E+02  0.7816164E-02  0.1186339E+00
        -11   -1    0    0    0    0  0.00000000000E+00  0.00000000000E+00  0.45593999997E+02  0.45594000000E+02  0.51100000000E-03 0. -1.
         11   -1    0    0    0    0 -0.00000000000E+00 -0.00000000000E+00 -0.45593999997E+02  0.45594000000E+02  0.51100000000E-03 0.  1.
    9900012    2    1    2    0    0 -0.47043257830E-01 -0.11750937388E+01  0.98883671681E-01  0.90007815123E+02  0.90000077483E+02 0.  0.
        -12    1    1    2    0    0  0.47043257830E-01  0.11750937388E+01 -0.98883671681E-01  0.11801848768E+01  0.00000000000E+00 0.  1.
         11    1    3    3    0    0  0.75125570583E+00  0.54932650956E+01  0.73374584516E+01  0.91966647941E+01  0.51100000000E-03 0. -1.
        -11    1    3    3    0    0  0.19019602091E+02  0.23268711142E+01  0.31214342680E+02  0.36626421912E+02  0.51100000000E-03 0.  1.
         12    1    3    3    0    0 -0.19817901055E+02 -0.89952299485E+01 -0.38452917460E+02  0.44184728417E+02  0.00000000000E+00 0. -1.
</event>
<event>
 7    1  0.2429906E-015  0.9000768E+02  0.7816164E-02  0.1186339E+00
        -11   -1    0    0    0    0  0.00000000000E+00  0.00000000000E+00  0.45593999997E+02  0.45594000000E+02  0.51100000000E-03 0. -1.
         11   -1    0    0    0    0 -0.00000000000E+00 -0.00000000000E+00 -0.45593999997E+02  0.45594000000E+02  0.51100000000E-03 0.  1.
    9900012    2    1    2    0    0  0.25878616663E+00 -0.25628211347E-01  0.11513150394E+01  0.90007680804E+02  0.89999941390E+02 0.  0.
        -12    1    1    2    0    0 -0.25878616663E+00  0.25628211347E-01 -0.11513150394E+01  0.11803191963E+01  0.00000000000E+00 0.  1.
         11    1    3    3    0    0 -0.55265225130E+01 -0.50582050819E+01  0.45636447976E+01  0.87723852992E+01  0.51100000000E-03 0. -1.
        -11    1    3    3    0    0 -0.98902209717E+01 -0.35930889894E+02 -0.36101961636E+00  0.37268963695E+02  0.51100000000E-03 0.  1.
         12    1    3    3    0    0  0.15675529651E+02  0.40963466765E+02 -0.30513101418E+01  0.43966331810E+02  0.00000000000E+00 0. -1.
</event>
<event>
 7    1  0.2429906E-015  0.9000774E+02  0.7816164E-02  0.1186339E+00
        -11   -1    0    0    0    0  0.00000000000E+00  0.00000000000E+00  0.45593999997E+02  0.45594000000E+02  0.51100000000E-03 0. -1.
         11   -1    0    0    0    0 -0.00000000000E+00 -0.00000000000E+00 -0.45593999997E+02  0.45594000000E+02  0.51100000000E-03 0.  1.
    9900012    2    1    2    0    0 -0.44211903566E+00 -0.47390008474E+00  0.98638362310E+00  0.90007744441E+02  0.90000005868E+02 0.  0.
        -12    1    1    2    0    0  0.44211903566E+00  0.47390008474E+00 -0.98638362310E+00  0.11802555587E+01  0.00000000000E+00 0.  1.
         11    1    3    3    0    0  0.16104854201E+01  0.10226443290E+02 -0.21897944470E+01  0.10581540797E+02  0.51100000000E-03 0. -1.
        -11    1    3    3    0    0 -0.20304730104E+02  0.49554968927E+01 -0.31151850345E+02  0.37513688091E+02  0.51100000000E-03 0.  1.
         12    1    3    3    0    0  0.18252125649E+02 -0.15655840267E+02  0.34328028415E+02  0.41912515553E+02  0.00000000000E+00 0. -1.
</event>
<event>
 7    1  0.2429906E-015  0.9000756E+02  0.7816164E-02  0.1186339E+00
        -11   -1    0    0    0    0  0.00000000000E+00  0.00000000000E+00  0.45593999997E+02  0.45594000000E+02  0.51100000000E-03 0. -1.
         11   -1    0    0    0    0 -0.00000000000E+00 -0.00000000000E+00 -0.45593999997E+02  0.45594000000E+02  0.51100000000E-03 0.  1.
    9900012    2    1    2    0    0  0.68999524630E+00  0.95227261308E+00  0.10262026628E+00  0.90007556232E+02  0.89999815174E+02 0.  0.
        -12    1    1    2    0    0 -0.68999524630E+00 -0.95227261308E+00 -0.10262026628E+00  0.11804437677E+01  0.00000000000E+00 0.  1.
         11    1    3    3    0    0 -0.18639231877E+01 -0.26663796873E+02 -0.17101346760E+02  0.31731503819E+02  0.51100000000E-03 0. -1.
        -11    1    3    3    0    0  0.19932568742E+01  0.28422957536E+01 -0.16265370146E+02  0.16631716218E+02  0.51100000000E-03 0.  1.
        -12    1    3    3    0    0  0.56066155979E+00  0.24773773733E+02  0.33469337173E+02  0.41644336195E+02  0.00000000000E+00 0.  1.
</event>
<event>
 7    1  0.2429906E-015  0.9000791E+02  0.7816164E-02  0.1186339E+00
        -11   -1    0    0    0    0  0.00000000000E+00  0.00000000000E+00  0.45593999997E+02  0.45594000000E+02  0.51100000000E-03 0.  1.
         11   -1    0    0    0    0 -0.00000000000E+00 -0.00000000000E+00 -0.45593999997E+02  0.45594000000E+02  0.51100000000E-03 0. -1.
    9900012    2    1    2    0    0 -0.11770270841E+01 -0.47776846647E-01 -0.70180302806E-01  0.90007914978E+02  0.90000178656E+02 0.  0.
        -12    1    1    2    0    0  0.11770270841E+01  0.47776846647E-01  0.70180302806E-01  0.11800850218E+01  0.00000000000E+00 0.  1.
         11    1    3    3    0    0 -0.10372135387E+02  0.11818002085E+02 -0.24197606282E+02  0.28857763527E+02  0.51100000000E-03 0. -1.
        -11    1    3    3    0    0 -0.10107116615E+01  0.19040310612E+02 -0.23256183764E+01  0.19208421782E+02  0.51100000000E-03 0.  1.
        -12    1    3    3    0    0  0.10205819965E+02 -0.30906089543E+02  0.26453044355E+02  0.41941729669E+02  0.00000000000E+00 0.  1.
</event>
<event>
 7    1  0.2429906E-015  0.9000723E+02  0.7816164E-02  0.1186340E+00
        -11   -1    0    0    0    0  0.00000000000E+00  0.00000000000E+00  0.45593999997E+02  0.45594000000E+02  0.51100000000E-03 0.  1.
         11   -1    0    0    0    0 -0.00000000000E+00 -0.00000000000E+00 -0.45593999997E+02  0.45594000000E+02  0.51100000000E-03 0. -1.
    9900012    2    1    2    0    0  0.43959571315E+00 -0.58819458361E+00 -0.92466287452E+00  0.90007229620E+02  0.89999484249E+02 0.  0.
        -12    1    1    2    0    0 -0.43959571315E+00  0.58819458361E+00  0.92466287452E+00  0.11807703802E+01  0.00000000000E+00 0.  1.
         11    1    3    3    0    0 -0.43143457673E+01 -0.18319949187E+01  0.70002781661E+01  0.84245877909E+01  0.51100000000E-03 0. -1.
        -11    1    3    3    0    0 -0.31400833562E+02 -0.11700414820E+02  0.15156139439E+02  0.36777990949E+02  0.51100000000E-03 0.  1.
         12    1    3    3    0    0  0.36154775042E+02  0.12944215155E+02 -0.23081080479E+02  0.44804650879E+02  0.00000000000E+00 0. -1.
</event>
<event>
 7    1  0.2429906E-015  0.9000772E+02  0.7816164E-02  0.1186339E+00
        -11   -1    0    0    0    0  0.00000000000E+00  0.00000000000E+00  0.45593999997E+02  0.45594000000E+02  0.51100000000E-03 0.  1.
         11   -1    0    0    0    0 -0.00000000000E+00 -0.00000000000E+00 -0.45593999997E+02  0.45594000000E+02  0.51100000000E-03 0. -1.
    9900012    2    1    2    0    0 -0.27599837453E+00 -0.16472458685E+00 -0.11356672086E+01  0.90007724905E+02  0.89999986073E+02 0.  0.
        -12    1    1    2    0    0  0.27599837453E+00  0.16472458685E+00  0.11356672086E+01  0.11802750954E+01  0.00000000000E+00 0.  1.
         11    1    3    3    0    0 -0.36366880660E+01 -0.23757124492E+01  0.81690421297E+01  0.92521759229E+01  0.51100000000E-03 0. -1.
        -11    1    3    3    0    0 -0.69032048693E+00 -0.10734861595E+02  0.33850527686E+02  0.35518615130E+02  0.51100000000E-03 0.  1.
         12    1    3    3    0    0  0.40510101784E+01  0.12945849458E+02 -0.43155237025E+02  0.45236933852E+02  0.00000000000E+00 0. -1.
</event>
<event>
 7    1  0.2429906E-015  0.9000774E+02  0.7816164E-02  0.1186339E+00
        -11   -1    0    0    0    0  0.00000000000E+00  0.00000000000E+00  0.45593999997E+02  0.45594000000E+02  0.51100000000E-03 0. -1.
         11   -1    0    0    0    0 -0.00000000000E+00 -0.00000000000E+00 -0.45593999997E+02  0.45594000000E+02  0.51100000000E-03 0.  1.
    9900012    2    1    2    0    0  0.91085621493E+00  0.45383136902E+00 -0.59782323777E+00  0.90007739614E+02  0.90000000977E+02 0.  0.
        -12    1    1    2    0    0 -0.91085621493E+00 -0.45383136902E+00  0.59782323777E+00  0.11802603863E+01  0.00000000000E+00 0.  1.
         11    1    3    3    0    0 -0.64900256572E+01  0.41713729274E+02  0.83964383790E+01  0.43042488551E+02  0.51100000000E-03 0. -1.
        -11    1    3    3    0    0  0.16405655043E+01 -0.37082278424E+01 -0.79911789081E+01  0.89611020253E+01  0.51100000000E-03 0.  1.
        -12    1    3    3    0    0  0.57603163678E+01 -0.37551670062E+02 -0.10030827086E+01  0.38004149037E+02  0.00000000000E+00 0.  1.
</event>
<event>
 7    1  0.2429906E-015  0.9000774E+02  0.7816164E-02  0.1186339E+00
        -11   -1    0    0    0    0  0.00000000000E+00  0.00000000000E+00  0.45593999997E+02  0.45594000000E+02  0.51100000000E-03 0.  1.
         11   -1    0    0    0    0 -0.00000000000E+00 -0.00000000000E+00 -0.45593999997E+02  0.45594000000E+02  0.51100000000E-03 0. -1.
    9900012    2    1    2    0    0  0.72770083146E+00  0.69277253632E+00  0.61929543777E+00  0.90007741924E+02  0.90000003317E+02 0.  0.
        -12    1    1    2    0    0 -0.72770083146E+00 -0.69277253632E+00 -0.61929543777E+00  0.11802580762E+01  0.00000000000E+00 0.  1.
         11    1    3    3    0    0 -0.85441277693E+01 -0.33842828661E+01 -0.49000519822E+00  0.92030209829E+01  0.51100000000E-03 0. -1.
        -11    1    3    3    0    0  0.60576631344E+00  0.19102753211E+02  0.36606893335E+02  0.41295844500E+02  0.51100000000E-03 0.  1.
         12    1    3    3    0    0  0.86660622873E+01 -0.15025697809E+02 -0.35497592699E+02  0.39508876441E+02  0.00000000000E+00 0. -1.
</event>
<event>
 7    1  0.2429906E-015  0.9000780E+02  0.7816164E-02  0.1186339E+00
        -11   -1    0    0    0    0  0.00000000000E+00  0.00000000000E+00  0.45593999997E+02  0.45594000000E+02  0.51100000000E-03 0.  1.
         11   -1    0    0    0    0 -0.00000000000E+00 -0.00000000000E+00 -0.45593999997E+02  0.45594000000E+02  0.51100000000E-03 0. -1.
    9900012    2    1    2    0    0 -0.10684684608E+01 -0.49988218900E+00 -0.36879818480E-01  0.90007802061E+02  0.90000064248E+02 0.  0.
        -12    1    1    2    0    0  0.10684684608E+01  0.49988218900E+00  0.36879818480E-01  0.11801979392E+01  0.00000000000E+00 0.  1.
         11    1    3    3    0    0  0.66963914369E+01  0.26122588618E+01  0.79160433398E+01  0.10692487880E+02  0.51100000000E-03 0. -1.
        -11    1    3    3    0    0  0.71480049918E+01  0.20970369588E+02  0.26611456613E+02  0.34626868171E+02  0.51100000000E-03 0.  1.
         12    1    3    3    0    0 -0.14912864889E+02 -0.24082510639E+02 -0.34564379771E+02  0.44688446010E+02  0.00000000000E+00 0. -1.
</event>
<event>
 7    1  0.2429906E-015  0.9000772E+02  0.7816164E-02  0.1186339E+00
        -11   -1    0    0    0    0  0.00000000000E+00  0.00000000000E+00  0.45593999997E+02  0.45594000000E+02  0.51100000000E-03 0.  1.
         11   -1    0    0    0    0 -0.00000000000E+00 -0.00000000000E+00 -0.45593999997E+02  0.45594000000E+02  0.51100000000E-03 0. -1.
    9900012    2    1    2    0    0 -0.32147542391E+00 -0.82429441840E+00 -0.78117966882E+00  0.90007724858E+02  0.89999986026E+02 0.  0.
        -12    1    1    2    0    0  0.32147542391E+00  0.82429441840E+00  0.78117966882E+00  0.11802751422E+01  0.00000000000E+00 0.  1.
         11    1    3    3    0    0 -0.19774883856E+02  0.23737757300E+02 -0.18540272629E+02  0.36031498200E+02  0.51100000000E-03 0. -1.
        -11    1    3    3    0    0 -0.78088357355E+01  0.49114764293E+01 -0.16675645582E+01  0.93745020175E+01  0.51100000000E-03 0.  1.
        -12    1    3    3    0    0  0.27262244167E+02 -0.29473528148E+02  0.19426657518E+02  0.44601724640E+02  0.00000000000E+00 0.  1.
</event>
<event>
 7    1  0.2429906E-015  0.9000773E+02  0.7816164E-02  0.1186339E+00
        -11   -1    0    0    0    0  0.00000000000E+00  0.00000000000E+00  0.45593999997E+02  0.45594000000E+02  0.51100000000E-03 0.  1.
         11   -1    0    0    0    0 -0.00000000000E+00 -0.00000000000E+00 -0.45593999997E+02  0.45594000000E+02  0.51100000000E-03 0. -1.
    9900012    2    1    2    0    0  0.15859453610E+00 -0.35907549328E+00 -0.11130794162E+01  0.90007731715E+02  0.89999992974E+02 0.  0.
        -12    1    1    2    0    0 -0.15859453610E+00  0.35907549328E+00  0.11130794162E+01  0.11802682845E+01  0.00000000000E+00 0.  1.
         11    1    3    3    0    0 -0.28982157955E+02 -0.11992558742E+02 -0.20503387119E+02  0.37472334175E+02  0.51100000000E-03 0. -1.
        -11    1    3    3    0    0 -0.48130639188E+01 -0.78107042385E+01  0.77963780308E+00  0.92076338086E+01  0.51100000000E-03 0.  1.
        -12    1    3    3    0    0  0.33953816410E+02  0.19444187487E+02  0.18610669900E+02  0.43327763732E+02  0.00000000000E+00 0.  1.
</event>
<event>
 7    1  0.2429906E-015  0.9000772E+02  0.7816164E-02  0.1186339E+00
        -11   -1    0    0    0    0  0.00000000000E+00  0.00000000000E+00  0.45593999997E+02  0.45594000000E+02  0.51100000000E-03 0. -1.
         11   -1    0    0    0    0 -0.00000000000E+00 -0.00000000000E+00 -0.45593999997E+02  0.45594000000E+02  0.51100000000E-03 0.  1.
    9900012    2    1    2    0    0 -0.78318725194E-01 -0.11776773604E+01  0.17071693928E-03  0.90007721297E+02  0.89999982418E+02 0.  0.
        -12    1    1    2    0    0  0.78318725194E-01  0.11776773604E+01 -0.17071693928E-03  0.11802787031E+01  0.00000000000E+00 0.  1.
         11    1    3    3    0    0  0.34374954736E+01  0.35711106031E+01 -0.56628065685E+01  0.75257281750E+01  0.51100000000E-03 0. -1.
        -11    1    3    3    0    0 -0.15423489666E+02 -0.17091997980E+02 -0.32970406398E+02  0.40212785613E+02  0.51100000000E-03 0.  1.
         12    1    3    3    0    0  0.11907675467E+02  0.12343210017E+02  0.38633383684E+02  0.42269207509E+02  0.00000000000E+00 0. -1.
</event>
<event>
 7    1  0.2805929E-015  0.9000778E+02  0.7816164E-02  0.1186339E+00
        -11   -1    0    0    0    0  0.00000000000E+00  0.00000000000E+00  0.45593999997E+02  0.45594000000E+02  0.51100000000E-03 0. -1.
         11   -1    0    0    0    0 -0.00000000000E+00 -0.00000000000E+00 -0.45593999997E+02  0.45594000000E+02  0.51100000000E-03 0.  1.
    9900012    2    1    2    0    0 -0.25313652661E-01  0.11731065661E+01  0.12686462492E+00  0.90007782042E+02  0.90000043964E+02 0.  0.
        -12    1    1    2    0    0  0.25313652661E-01 -0.11731065661E+01 -0.12686462492E+00  0.11802179585E+01  0.00000000000E+00 0.  1.
         11    1    3    3    0    0 -0.16549686912E+02  0.31296558427E+02 -0.12356288183E+02  0.37497260755E+02  0.51100000000E-03 0. -1.
        -11    1    3    3    0    0  0.40925375500E+01  0.63438701304E+01 -0.61273454915E+01  0.97230609822E+01  0.51100000000E-03 0.  1.
        -12    1    3    3    0    0  0.12431835709E+02 -0.36467321991E+02  0.18610498299E+02  0.42787460304E+02  0.00000000000E+00 0.  1.
</event>
<event>
 7    1  0.2429906E-015  0.9000774E+02  0.7816164E-02  0.1186339E+00
        -11   -1    0    0    0    0  0.00000000000E+00  0.00000000000E+00  0.45593999997E+02  0.45594000000E+02  0.51100000000E-03 0. -1.
         11   -1    0    0    0    0 -0.00000000000E+00 -0.00000000000E+00 -0.45593999997E+02  0.45594000000E+02  0.51100000000E-03 0.  1.
    9900012    2    1    2    0    0  0.11037600889E+01  0.34232604297E+00 -0.23985494058E+00  0.90007744161E+02  0.90000005584E+02 0.  0.
        -12    1    1    2    0    0 -0.11037600889E+01 -0.34232604297E+00  0.23985494058E+00  0.11802558392E+01  0.00000000000E+00 0.  1.
         11    1    3    3    0    0 -0.18207111505E+02  0.11416639724E+02 -0.17709542940E+02  0.27847198843E+02  0.51100000000E-03 0. -1.
        -11    1    3    3    0    0 -0.87256879739E+01  0.68268028422E+00 -0.15195998610E+02  0.17536306824E+02  0.51100000000E-03 0.  1.
         12    1    3    3    0    0  0.28036559568E+02 -0.11756993966E+02  0.32665686610E+02  0.44624238495E+02  0.00000000000E+00 0. -1.
</event>
<event>
 7    1  0.2429906E-015  0.9000777E+02  0.7816164E-02  0.1186339E+00
        -11   -1    0    0    0    0  0.00000000000E+00  0.00000000000E+00  0.45593999997E+02  0.45594000000E+02  0.51100000000E-03 0. -1.
         11   -1    0    0    0    0 -0.00000000000E+00 -0.00000000000E+00 -0.45593999997E+02  0.45594000000E+02  0.51100000000E-03 0.  1.
    9900012    2    1    2    0    0 -0.10299537121E+01 -0.55228557807E+00  0.16467506461E+00  0.90007770410E+02  0.90000032179E+02 0.  0.
        -12    1    1    2    0    0  0.10299537121E+01  0.55228557807E+00 -0.16467506461E+00  0.11802295903E+01  0.00000000000E+00 0.  1.
         11    1    3    3    0    0 -0.15340639257E+02  0.36634595145E+01  0.35194142495E+02  0.38566615286E+02  0.51100000000E-03 0. -1.
        -11    1    3    3    0    0 -0.94315776173E+01 -0.37570378726E+01 -0.13644823499E+01  0.10243622517E+02  0.51100000000E-03 0.  1.
        -12    1    3    3    0    0  0.23742263162E+02 -0.45870721997E+00 -0.33664985081E+02  0.41197532606E+02  0.00000000000E+00 0.  1.
</event>
<event>
 7    1  0.2429906E-015  0.9000778E+02  0.7816164E-02  0.1186339E+00
        -11   -1    0    0    0    0  0.00000000000E+00  0.00000000000E+00  0.45593999997E+02  0.45594000000E+02  0.51100000000E-03 0. -1.
         11   -1    0    0    0    0 -0.00000000000E+00 -0.00000000000E+00 -0.45593999997E+02  0.45594000000E+02  0.51100000000E-03 0.  1.
    9900012    2    1    2    0    0 -0.18570827089E+00  0.52386892980E+00  0.10411516337E+01  0.90007778435E+02  0.90000040311E+02 0.  0.
        -12    1    1    2    0    0  0.18570827089E+00 -0.52386892980E+00 -0.10411516337E+01  0.11802215647E+01  0.00000000000E+00 0.  1.
         11    1    3    3    0    0  0.52874397298E+01 -0.25331752921E+02 -0.24525825507E+02  0.35653482887E+02  0.51100000000E-03 0. -1.
        -11    1    3    3    0    0  0.91683330047E+00 -0.75461580924E+01 -0.46082831862E+01  0.88893958986E+01  0.51100000000E-03 0.  1.
        -12    1    3    3    0    0 -0.63899813012E+01  0.33401779943E+02  0.30175260327E+02  0.45464899650E+02  0.00000000000E+00 0.  1.
</event>
<event>
 7    1  0.2429906E-015  0.9000783E+02  0.7816164E-02  0.1186339E+00
        -11   -1    0    0    0    0  0.00000000000E+00  0.00000000000E+00  0.45593999997E+02  0.45594000000E+02  0.51100000000E-03 0. -1.
         11   -1    0    0    0    0 -0.00000000000E+00 -0.00000000000E+00 -0.45593999997E+02  0.45594000000E+02  0.51100000000E-03 0.  1.
    9900012    2    1    2    0    0 -0.74403018455E-02 -0.10523123374E+01  0.53420768082E+00  0.90007832868E+02  0.90000095462E+02 0.  0.
        -12    1    1    2    0    0  0.74403018455E-02  0.10523123374E+01 -0.53420768082E+00  0.11801671321E+01  0.00000000000E+00 0.  1.
         11    1    3    3    0    0  0.17682733459E+02 -0.14988720600E+02 -0.68295159798E+01  0.24165742211E+02  0.51100000000E-03 0. -1.
        -11    1    3    3    0    0  0.27287142046E+01  0.16635962405E+02 -0.23387738924E+02  0.28830321861E+02  0.51100000000E-03 0.  1.
        -12    1    3    3    0    0 -0.20418887965E+02 -0.26995541426E+01  0.30751462585E+02  0.37011768796E+02  0.00000000000E+00 0.  1.
</event>
<event>
 7    1  0.2429906E-015  0.9000753E+02  0.7816164E-02  0.1186339E+00
        -11   -1    0    0    0    0  0.00000000000E+00  0.00000000000E+00  0.45593999997E+02  0.45594000000E+02  0.51100000000E-03 0. -1.
         11   -1    0    0    0    0 -0.00000000000E+00 -0.00000000000E+00 -0.45593999997E+02  0.45594000000E+02  0.51100000000E-03 0.  1.
    9900012    2    1    2    0    0 -0.10321792812E+01 -0.44608744678E+00  0.35933521471E+00  0.90007529808E+02  0.89999788401E+02 0.  0.
        -12    1    1    2    0    0  0.10321792812E+01  0.44608744678E+00 -0.35933521471E+00  0.11804701924E+01  0.00000000000E+00 0.  1.
         11    1    3    3    0    0 -0.33661060570E+01 -0.92343019204E+01 -0.28616837245E+01  0.10236807898E+02  0.51100000000E-03 0. -1.
        -11    1    3    3    0    0 -0.13040243636E+02 -0.29771210175E+02 -0.13266184390E+02  0.35105050319E+02  0.51100000000E-03 0.  1.
         12    1    3    3    0    0  0.15374170411E+02  0.38559424648E+02  0.16487203329E+02  0.44665671591E+02  0.00000000000E+00 0. -1.
</event>
<event>
 7    1  0.2429906E-015  0.9000773E+02  0.7816164E-02  0.1186339E+00
        -11   -1    0    0    0    0  0.00000000000E+00  0.00000000000E+00  0.45593999997E+02  0.45594000000E+02  0.51100000000E-03 0.  1.
         11   -1    0    0    0    0 -0.00000000000E+00 -0.00000000000E+00 -0.45593999997E+02  0.45594000000E+02  0.51100000000E-03 0. -1.
    9900012    2    1    2    0    0  0.56944749390E+00  0.63459434195E+00 -0.81612069058E+00  0.90007731637E+02  0.89999992895E+02 0.  0.
        -12    1    1    2    0    0 -0.56944749390E+00 -0.63459434195E+00  0.81612069058E+00  0.11802683630E+01  0.00000000000E+00 0.  1.
         11    1    3    3    0    0  0.35483594086E+01 -0.86674686917E+01 -0.40265027559E+01  0.10194537396E+02  0.51100000000E-03 0. -1.
        -11    1    3    3    0    0  0.36978758020E+02 -0.17165965714E+01 -0.55953538231E+01  0.37439060260E+02  0.51100000000E-03 0.  1.
         12    1    3    3    0    0 -0.39957669935E+02  0.11018659605E+02  0.88057358885E+01  0.42374133981E+02  0.00000000000E+00 0. -1.
</event>
<event>
 7    1  0.2429906E-015  0.9000773E+02  0.7816164E-02  0.1186339E+00
        -11   -1    0    0    0    0  0.00000000000E+00  0.00000000000E+00  0.45593999997E+02  0.45594000000E+02  0.51100000000E-03 0.  1.
         11   -1    0    0    0    0 -0.00000000000E+00 -0.00000000000E+00 -0.45593999997E+02  0.45594000000E+02  0.51100000000E-03 0. -1.
    9900012    2    1    2    0    0  0.84650016413E+00 -0.21584435816E+00 -0.79365504751E+00  0.90007728993E+02  0.89999990216E+02 0.  0.
        -12    1    1    2    0    0 -0.84650016413E+00  0.21584435816E+00  0.79365504751E+00  0.11802710067E+01  0.00000000000E+00 0.  1.
         11    1    3    3    0    0 -0.13073601155E+02 -0.26893202157E+02 -0.29470518864E+02  0.41984221462E+02  0.51100000000E-03 0. -1.
        -11    1    3    3    0    0  0.98747845206E+01  0.33153833750E+01 -0.49920082657E+00  0.10428438904E+02  0.51100000000E-03 0.  1.
        -12    1    3    3    0    0  0.40453167985E+01  0.23361974424E+02  0.29176064643E+02  0.37595068627E+02  0.00000000000E+00 0.  1.
</event>
<event>
 7    1  0.2429906E-015  0.9000794E+02  0.7816164E-02  0.1186339E+00
        -11   -1    0    0    0    0  0.00000000000E+00  0.00000000000E+00  0.45593999997E+02  0.45594000000E+02  0.51100000000E-03 0.  1.
         11   -1    0    0    0    0 -0.00000000000E+00 -0.00000000000E+00 -0.45593999997E+02  0.45594000000E+02  0.51100000000E-03 0. -1.
    9900012    2    1    2    0    0  0.33916301349E+00  0.87317332102E+00 -0.71769729089E+00  0.90007935341E+02  0.90000199287E+02 0.  0.
        -12    1    1    2    0    0 -0.33916301349E+00 -0.87317332102E+00  0.71769729089E+00  0.11800646591E+01  0.00000000000E+00 0.  1.
         11    1    3    3    0    0  0.92601858517E+01 -0.42919143317E+00  0.12172760429E+01  0.93497063334E+01  0.51100000000E-03 0. -1.
        -11    1    3    3    0    0  0.35500253863E+02  0.21649211703E+01 -0.58990180430E+01  0.36052091786E+02  0.51100000000E-03 0.  1.
         12    1    3    3    0    0 -0.44421276701E+02 -0.86255641606E+00  0.39640447092E+01  0.44606137221E+02  0.00000000000E+00 0. -1.
</event>
<event>
 7    1  0.2429906E-015  0.9000777E+02  0.7816164E-02  0.1186339E+00
        -11   -1    0    0    0    0  0.00000000000E+00  0.00000000000E+00  0.45593999997E+02  0.45594000000E+02  0.51100000000E-03 0.  1.
         11   -1    0    0    0    0 -0.00000000000E+00 -0.00000000000E+00 -0.45593999997E+02  0.45594000000E+02  0.51100000000E-03 0. -1.
    9900012    2    1    2    0    0 -0.40887270439E+00 -0.27114070844E+00 -0.10734315195E+01  0.90007767227E+02  0.90000028954E+02 0.  0.
        -12    1    1    2    0    0  0.40887270439E+00  0.27114070844E+00  0.10734315195E+01  0.11802327734E+01  0.00000000000E+00 0.  1.
         11    1    3    3    0    0 -0.59227094081E+01  0.52816115837E+01 -0.11298426284E+02  0.13806822387E+02  0.51100000000E-03 0. -1.
        -11    1    3    3    0    0  0.34699816690E+02  0.16515894583E+02  0.89651391018E+00  0.38440288626E+02  0.51100000000E-03 0.  1.
         12    1    3    3    0    0 -0.29185979986E+02 -0.22068646875E+02  0.93284808545E+01  0.37760656214E+02  0.00000000000E+00 0. -1.
</event>
<event>
 7    1  0.2429906E-015  0.9000778E+02  0.7816164E-02  0.1186339E+00
        -11   -1    0    0    0    0  0.00000000000E+00  0.00000000000E+00  0.45593999997E+02  0.45594000000E+02  0.51100000000E-03 0.  1.
         11   -1    0    0    0    0 -0.00000000000E+00 -0.00000000000E+00 -0.45593999997E+02  0.45594000000E+02  0.51100000000E-03 0. -1.
    9900012    2    1    2    0    0 -0.52601146883E+00 -0.54128009311E+00 -0.90733567051E+00  0.90007775350E+02  0.90000037185E+02 0.  0.
        -12    1    1    2    0    0  0.52601146883E+00  0.54128009311E+00  0.90733567051E+00  0.11802246496E+01  0.00000000000E+00 0.  1.
         11    1    3    3    0    0  0.25353980797E+02  0.49678232221E+01 -0.30193259711E+02  0.39738351023E+02  0.51100000000E-03 0. -1.
        -11    1    3    3    0    0 -0.25114449723E+01 -0.76837411454E+01 -0.44078562106E+01  0.92074117141E+01  0.51100000000E-03 0.  1.
        -12    1    3    3    0    0 -0.23368547293E+02  0.21746378303E+01  0.33693780251E+02  0.41062012613E+02  0.00000000000E+00 0.  1.
</event>
<event>
 7    1  0.2429906E-015  0.9000774E+02  0.7816164E-02  0.1186339E+00
        -11   -1    0    0    0    0  0.00000000000E+00  0.00000000000E+00  0.45593999997E+02  0.45594000000E+02  0.51100000000E-03 0.  1.
         11   -1    0    0    0    0 -0.00000000000E+00 -0.00000000000E+00 -0.45593999997E+02  0.45594000000E+02  0.51100000000E-03 0. -1.
    9900012    2    1    2    0    0  0.16416616203E+00  0.94979758907E+00 -0.68113941410E+00  0.90007738635E+02  0.89999999985E+02 0.  0.
        -12    1    1    2    0    0 -0.16416616203E+00 -0.94979758907E+00  0.68113941410E+00  0.11802613653E+01  0.00000000000E+00 0.  1.
         11    1    3    3    0    0 -0.62115856780E+01  0.21266756485E+01 -0.16067061360E+02  0.17356756810E+02  0.51100000000E-03 0. -1.
        -11    1    3    3    0    0 -0.29409398309E+01  0.33428576537E+02 -0.23088900294E+00  0.33558488738E+02  0.51100000000E-03 0.  1.
         12    1    3    3    0    0  0.93166916709E+01 -0.34605454597E+02  0.15616810949E+02  0.39092493087E+02  0.00000000000E+00 0. -1.
</event>
<event>
 7    1  0.2429906E-015  0.9000771E+02  0.7816164E-02  0.1186339E+00
        -11   -1    0    0    0    0  0.00000000000E+00  0.00000000000E+00  0.45593999997E+02  0.45594000000E+02  0.51100000000E-03 0.  1.
         11   -1    0    0    0    0 -0.00000000000E+00 -0.00000000000E+00 -0.45593999997E+02  0.45594000000E+02  0.51100000000E-03 0. -1.
    9900012    2    1    2    0    0  0.75566996223E+00 -0.90632240438E+00 -0.25094419422E-01  0.90007708882E+02  0.89999969840E+02 0.  0.
        -12    1    1    2    0    0 -0.75566996223E+00  0.90632240438E+00  0.25094419422E-01  0.11802911176E+01  0.00000000000E+00 0.  1.
         11    1    3    3    0    0 -0.58260477331E+00 -0.25952269122E+02 -0.34187423855E+02  0.42925978743E+02  0.51100000000E-03 0. -1.
        -11    1    3    3    0    0  0.58540387919E+01 -0.10145255757E+01  0.58720492192E+01  0.83534420818E+01  0.51100000000E-03 0.  1.
        -12    1    3    3    0    0 -0.45157640563E+01  0.26060472294E+02  0.28290280216E+02  0.38728288058E+02  0.00000000000E+00 0.  1.
</event>
<event>
 7    1  0.2429906E-015  0.9000757E+02  0.7816164E-02  0.1186339E+00
        -11   -1    0    0    0    0  0.00000000000E+00  0.00000000000E+00  0.45593999997E+02  0.45594000000E+02  0.51100000000E-03 0.  1.
         11   -1    0    0    0    0 -0.00000000000E+00 -0.00000000000E+00 -0.45593999997E+02  0.45594000000E+02  0.51100000000E-03 0. -1.
    9900012    2    1    2    0    0 -0.25772867702E+00 -0.86213441567E+00 -0.76401653442E+00  0.90007567416E+02  0.89999826505E+02 0.  0.
        -12    1    1    2    0    0  0.25772867702E+00  0.86213441567E+00  0.76401653442E+00  0.11804325845E+01  0.00000000000E+00 0.  1.
         11    1    3    3    0    0 -0.10338856934E+02  0.49045882972E+01  0.16611242621E+02  0.20171274892E+02  0.51100000000E-03 0. -1.
        -11    1    3    3    0    0 -0.69167689778E+01 -0.49471588759E+00  0.23901119791E+02  0.24886742745E+02  0.51100000000E-03 0.  1.
         12    1    3    3    0    0  0.16997897235E+02 -0.52720068253E+01 -0.41276378947E+02  0.44949549779E+02  0.00000000000E+00 0. -1.
</event>
<event>
 7    1  0.2429906E-015  0.9000758E+02  0.7816164E-02  0.1186339E+00
        -11   -1    0    0    0    0  0.00000000000E+00  0.00000000000E+00  0.45593999997E+02  0.45594000000E+02  0.51100000000E-03 0.  1.
         11   -1    0    0    0    0 -0.00000000000E+00 -0.00000000000E+00 -0.45593999997E+02  0.45594000000E+02  0.51100000000E-03 0. -1.
    9900012    2    1    2    0    0 -0.25745838243E+00 -0.38154076177E+00 -0.10869819755E+01  0.90007581436E+02  0.89999840711E+02 0.  0.
        -12    1    1    2    0    0  0.25745838243E+00  0.38154076177E+00  0.10869819755E+01  0.11804185641E+01  0.00000000000E+00 0.  1.
         11    1    3    3    0    0  0.84161196551E+01  0.14678368321E+01 -0.40387271754E+02  0.41280956082E+02  0.51100000000E-03 0. -1.
        -11    1    3    3    0    0  0.88310753302E+01  0.32911789345E+01  0.74181944626E+01  0.11993721675E+02  0.51100000000E-03 0.  1.
        -12    1    3    3    0    0 -0.17504653368E+02 -0.51405565284E+01  0.31882095316E+02  0.36732903679E+02  0.00000000000E+00 0.  1.
</event>
<event>
 7    1  0.2429906E-015  0.9000777E+02  0.7816164E-02  0.1186339E+00
        -11   -1    0    0    0    0  0.00000000000E+00  0.00000000000E+00  0.45593999997E+02  0.45594000000E+02  0.51100000000E-03 0.  1.
         11   -1    0    0    0    0 -0.00000000000E+00 -0.00000000000E+00 -0.45593999997E+02  0.45594000000E+02  0.51100000000E-03 0. -1.
    9900012    2    1    2    0    0 -0.98193692830E+00  0.22599535055E+00  0.61455115148E+00  0.90007768181E+02  0.90000029921E+02 0.  0.
        -12    1    1    2    0    0  0.98193692830E+00 -0.22599535055E+00 -0.61455115148E+00  0.11802318193E+01  0.00000000000E+00 0.  1.
         11    1    3    3    0    0 -0.43359634625E+01  0.34794939772E+01  0.84820244650E+01  0.10141607209E+02  0.51100000000E-03 0. -1.
        -11    1    3    3    0    0 -0.27103723595E+02  0.53937927400E+01  0.22770509864E+02  0.35807833676E+02  0.51100000000E-03 0.  1.
         12    1    3    3    0    0  0.30457750130E+02 -0.86472913667E+01 -0.30637983178E+02  0.44058327296E+02  0.00000000000E+00 0. -1.
</event>
<event>
 7    1  0.2429906E-015  0.9000778E+02  0.7816164E-02  0.1186339E+00
        -11   -1    0    0    0    0  0.00000000000E+00  0.00000000000E+00  0.45593999997E+02  0.45594000000E+02  0.51100000000E-03 0. -1.
         11   -1    0    0    0    0 -0.00000000000E+00 -0.00000000000E+00 -0.45593999997E+02  0.45594000000E+02  0.51100000000E-03 0.  1.
    9900012    2    1    2    0    0  0.11422178406E+01 -0.25939312160E+00 -0.14478283510E+00  0.90007784572E+02  0.90000046528E+02 0.  0.
        -12    1    1    2    0    0 -0.11422178406E+01  0.25939312160E+00  0.14478283510E+00  0.11802154279E+01  0.00000000000E+00 0.  1.
         11    1    3    3    0    0 -0.53556286725E+01 -0.67990024641E+01 -0.58982303496E+01  0.10473696315E+02  0.51100000000E-03 0. -1.
        -11    1    3    3    0    0 -0.27452433282E+02  0.19770576205E+02  0.21236396255E+02  0.39943664112E+02  0.51100000000E-03 0.  1.
         12    1    3    3    0    0  0.33950279795E+02 -0.13230966863E+02 -0.15482948740E+02  0.39590424145E+02  0.00000000000E+00 0. -1.
</event>
<event>
 7    1  0.2429906E-015  0.9000781E+02  0.7816164E-02  0.1186339E+00
        -11   -1    0    0    0    0  0.00000000000E+00  0.00000000000E+00  0.45593999997E+02  0.45594000000E+02  0.51100000000E-03 0.  1.
         11   -1    0    0    0    0 -0.00000000000E+00 -0.00000000000E+00 -0.45593999997E+02  0.45594000000E+02  0.51100000000E-03 0. -1.
    9900012    2    1    2    0    0 -0.49173887217E+00  0.86662752386E+00 -0.63244789952E+00  0.90007813265E+02  0.90000075600E+02 0.  0.
        -12    1    1    2    0    0  0.49173887217E+00 -0.86662752386E+00  0.63244789952E+00  0.11801867349E+01  0.00000000000E+00 0.  1.
         11    1    3    3    0    0 -0.30553288053E+02  0.16260774426E+01 -0.22021026714E+02  0.37697123982E+02  0.51100000000E-03 0. -1.
        -11    1    3    3    0    0 -0.85882172271E+01  0.18756572501E+01  0.59139981866E+01  0.10594854415E+02  0.51100000000E-03 0.  1.
        -12    1    3    3    0    0  0.38649766408E+02 -0.26351071688E+01  0.15474580628E+02  0.41715834869E+02  0.00000000000E+00 0.  1.
</event>
<event>
 7    1  0.2429906E-015  0.9000775E+02  0.7816164E-02  0.1186339E+00
        -11   -1    0    0    0    0  0.00000000000E+00  0.00000000000E+00  0.45593999997E+02  0.45594000000E+02  0.51100000000E-03 0.  1.
         11   -1    0    0    0    0 -0.00000000000E+00 -0.00000000000E+00 -0.45593999997E+02  0.45594000000E+02  0.51100000000E-03 0. -1.
    9900012    2    1    2    0    0  0.44110855856E+00  0.77424492192E+00 -0.77392120643E+00  0.90007751724E+02  0.90000013247E+02 0.  0.
        -12    1    1    2    0    0 -0.44110855856E+00 -0.77424492192E+00  0.77392120643E+00  0.11802482761E+01  0.00000000000E+00 0.  1.
         11    1    3    3    0    0 -0.44438165357E+01  0.50342154834E+01 -0.82861124738E+01  0.10665387528E+02  0.51100000000E-03 0. -1.
        -11    1    3    3    0    0  0.33178823498E+02 -0.11425442045E+02  0.26975254597E+02  0.44261037216E+02  0.51100000000E-03 0.  1.
         12    1    3    3    0    0 -0.28293898404E+02  0.71654714836E+01 -0.19463063329E+02  0.35081326979E+02  0.00000000000E+00 0. -1.
</event>
<event>
 7    1  0.2429906E-015  0.9000780E+02  0.7816164E-02  0.1186339E+00
        -11   -1    0    0    0    0  0.00000000000E+00  0.00000000000E+00  0.45593999997E+02  0.45594000000E+02  0.51100000000E-03 0. -1.
         11   -1    0    0    0    0 -0.00000000000E+00 -0.00000000000E+00 -0.45593999997E+02  0.45594000000E+02  0.51100000000E-03 0.  1.
    9900012    2    1    2    0    0 -0.42164010715E-01  0.51052309676E+00  0.10632258605E+01  0.90007804734E+02  0.90000066956E+02 0.  0.
        -12    1    1    2    0    0  0.42164010715E-01 -0.51052309676E+00 -0.10632258605E+01  0.11801952663E+01  0.00000000000E+00 0.  1.
         11    1    3    3    0    0 -0.71009048766E+00 -0.67229679688E+01 -0.55487079724E+01  0.87458954507E+01  0.51100000000E-03 0. -1.
        -11    1    3    3    0    0 -0.29320436204E+02 -0.31653208540E+01 -0.23348684235E+02  0.37614735026E+02  0.51100000000E-03 0.  1.
         12    1    3    3    0    0  0.29988362681E+02  0.10398811920E+02  0.29960618068E+02  0.43647174257E+02  0.00000000000E+00 0. -1.
</event>
<event>
 7    1  0.2429906E-015  0.9000775E+02  0.7816164E-02  0.1186339E+00
        -11   -1    0    0    0    0  0.00000000000E+00  0.00000000000E+00  0.45593999997E+02  0.45594000000E+02  0.51100000000E-03 0.  1.
         11   -1    0    0    0    0 -0.00000000000E+00 -0.00000000000E+00 -0.45593999997E+02  0.45594000000E+02  0.51100000000E-03 0. -1.
    9900012    2    1    2    0    0  0.12466129090E+00  0.11334276568E+01  0.30461719085E+00  0.90007749889E+02  0.90000011388E+02 0.  0.
        -12    1    1    2    0    0 -0.12466129090E+00 -0.11334276568E+01 -0.30461719085E+00  0.11802501106E+01  0.00000000000E+00 0.  1.
         11    1    3    3    0    0  0.19995477772E+02 -0.17757484105E+02 -0.24074280264E+02  0.35982194813E+02  0.51100000000E-03 0. -1.
        -11    1    3    3    0    0  0.71336524277E+00 -0.59419545907E+01 -0.68733213505E+01  0.91136305047E+01  0.51100000000E-03 0.  1.
        -12    1    3    3    0    0 -0.20584181724E+02  0.24832866353E+02  0.31252218805E+02  0.44911924572E+02  0.00000000000E+00 0.  1.
</event>
<event>
 7    1  0.2429906E-015  0.9000764E+02  0.7816164E-02  0.1186339E+00
        -11   -1    0    0    0    0  0.00000000000E+00  0.00000000000E+00  0.45593999997E+02  0.45594000000E+02  0.51100000000E-03 0.  1.
         11   -1    0    0    0    0 -0.00000000000E+00 -0.00000000000E+00 -0.45593999997E+02  0.45594000000E+02  0.51100000000E-03 0. -1.
    9900012    2    1    2    0    0 -0.21191494136E+00 -0.25920525580E+00 -0.11318764474E+01  0.90007644291E+02  0.89999904396E+02 0.  0.
        -12    1    1    2    0    0  0.21191494136E+00  0.25920525580E+00  0.11318764474E+01  0.11803557088E+01  0.00000000000E+00 0.  1.
         11    1    3    3    0    0  0.35412018895E+02  0.15619452571E+02 -0.44660745187E+01  0.38960546745E+02  0.51100000000E-03 0. -1.
        -11    1    3    3    0    0  0.51829381146E+01 -0.72576010722E+01 -0.15587656286E+01  0.90534728899E+01  0.51100000000E-03 0.  1.
        -12    1    3    3    0    0 -0.40806871951E+02 -0.86210567549E+01  0.48929636999E+01  0.41993624656E+02  0.00000000000E+00 0.  1.
</event>
<event>
 7    1  0.2429906E-015  0.9000775E+02  0.7816164E-02  0.1186339E+00
        -11   -1    0    0    0    0  0.00000000000E+00  0.00000000000E+00  0.45593999997E+02  0.45594000000E+02  0.51100000000E-03 0.  1.
         11   -1    0    0    0    0 -0.00000000000E+00 -0.00000000000E+00 -0.45593999997E+02  0.45594000000E+02  0.51100000000E-03 0. -1.
    9900012    2    1    2    0    0 -0.80129153806E+00 -0.79767990320E+00 -0.33856517549E+00  0.90007750986E+02  0.90000012499E+02 0.  0.
        -12    1    1    2    0    0  0.80129153806E+00  0.79767990320E+00  0.33856517549E+00  0.11802490140E+01  0.00000000000E+00 0.  1.
         11    1    3    3    0    0 -0.16846316453E+02  0.14342653779E+02  0.12437232154E+02  0.25380993664E+02  0.51100000000E-03 0. -1.
        -11    1    3    3    0    0 -0.22135597509E+01 -0.34619414682E+02  0.74858372569E+00  0.34698185796E+02  0.51100000000E-03 0.  1.
         12    1    3    3    0    0  0.18258584666E+02  0.19479081000E+02 -0.13524381056E+02  0.29928571525E+02  0.00000000000E+00 0. -1.
</event>
<event>
 7    1  0.2429906E-015  0.9000772E+02  0.7816164E-02  0.1186339E+00
        -11   -1    0    0    0    0  0.00000000000E+00  0.00000000000E+00  0.45593999997E+02  0.45594000000E+02  0.51100000000E-03 0.  1.
         11   -1    0    0    0    0 -0.00000000000E+00 -0.00000000000E+00 -0.45593999997E+02  0.45594000000E+02  0.51100000000E-03 0. -1.
    9900012    2    1    2    0    0 -0.11568272144E+01  0.18338994272E+00  0.14554620275E+00  0.90007718350E+02  0.89999979433E+02 0.  0.
        -12    1    1    2    0    0  0.11568272144E+01 -0.18338994272E+00 -0.14554620275E+00  0.11802816496E+01  0.00000000000E+00 0.  1.
         11    1    3    3    0    0  0.31484317854E+01 -0.24290999738E+02 -0.27473760214E+02  0.36807238303E+02  0.51100000000E-03 0. -1.
        -11    1    3    3    0    0 -0.34072975241E+01 -0.10193958182E+02  0.75091554788E+01  0.13111593194E+02  0.51100000000E-03 0.  1.
        -12    1    3    3    0    0 -0.89796147573E+00  0.34668347863E+02  0.20110150938E+02  0.40088886853E+02  0.00000000000E+00 0.  1.
</event>
<event>
 7    1  0.2429906E-015  0.9000775E+02  0.7816164E-02  0.1186339E+00
        -11   -1    0    0    0    0  0.00000000000E+00  0.00000000000E+00  0.45593999997E+02  0.45594000000E+02  0.51100000000E-03 0. -1.
         11   -1    0    0    0    0 -0.00000000000E+00 -0.00000000000E+00 -0.45593999997E+02  0.45594000000E+02  0.51100000000E-03 0.  1.
    9900012    2    1    2    0    0 -0.46169924052E+00 -0.10831192095E+01  0.81721243946E-01  0.90007749276E+02  0.90000010766E+02 0.  0.
        -12    1    1    2    0    0  0.46169924052E+00  0.10831192095E+01 -0.81721243946E-01  0.11802507244E+01  0.00000000000E+00 0.  1.
         11    1    3    3    0    0 -0.27275178043E+02 -0.16864479896E+02  0.23912556791E+02  0.40001954852E+02  0.51100000000E-03 0. -1.
        -11    1    3    3    0    0  0.46206638996E+01 -0.75311987554E+01  0.16067430617E+01  0.89805964777E+01  0.51100000000E-03 0.  1.
        -12    1    3    3    0    0  0.22192814903E+02  0.23312559442E+02 -0.25437578608E+02  0.41025197946E+02  0.00000000000E+00 0.  1.
</event>
<event>
 7    1  0.2429906E-015  0.9000794E+02  0.7816164E-02  0.1186339E+00
        -11   -1    0    0    0    0  0.00000000000E+00  0.00000000000E+00  0.45593999997E+02  0.45594000000E+02  0.51100000000E-03 0.  1.
         11   -1    0    0    0    0 -0.00000000000E+00 -0.00000000000E+00 -0.45593999997E+02  0.45594000000E+02  0.51100000000E-03 0. -1.
    9900012    2    1    2    0    0 -0.18306973237E+00  0.86372545365E+00 -0.78294004882E+00  0.90007944363E+02  0.90000208428E+02 0.  0.
        -12    1    1    2    0    0  0.18306973237E+00 -0.86372545365E+00  0.78294004882E+00  0.11800556369E+01  0.00000000000E+00 0.  1.
         11    1    3    3    0    0 -0.28193747138E+02 -0.18213309492E+02 -0.17766678928E+02  0.37977189215E+02  0.51100000000E-03 0. -1.
        -11    1    3    3    0    0 -0.43154340266E+01 -0.65933170547E+01  0.32977079466E+01  0.85422291343E+01  0.51100000000E-03 0.  1.
        -12    1    3    3    0    0  0.32326111432E+02  0.25670352000E+02  0.13686030933E+02  0.43488526013E+02  0.00000000000E+00 0.  1.
</event>
<event>
 7    1  0.2429906E-015  0.9000767E+02  0.7816164E-02  0.1186339E+00
        -11   -1    0    0    0    0  0.00000000000E+00  0.00000000000E+00  0.45593999997E+02  0.45594000000E+02  0.51100000000E-03 0.  1.
         11   -1    0    0    0    0 -0.00000000000E+00 -0.00000000000E+00 -0.45593999997E+02  0.45594000000E+02  0.51100000000E-03 0. -1.
    9900012    2    1    2    0    0 -0.43546623492E+00  0.88701175125E+00 -0.64556707639E+00  0.90007670580E+02  0.89999931032E+02 0.  0.
        -12    1    1    2    0    0  0.43546623492E+00 -0.88701175125E+00  0.64556707639E+00  0.11803294196E+01  0.00000000000E+00 0.  1.
         11    1    3    3    0    0 -0.77921994191E+00  0.12066461267E+02 -0.32716736136E+01  0.12526392925E+02  0.51100000000E-03 0. -1.
        -11    1    3    3    0    0  0.35909194636E+02 -0.16786418322E+02  0.96525215269E+01  0.40797368440E+02  0.51100000000E-03 0.  1.
         12    1    3    3    0    0 -0.35565440929E+02  0.56069688065E+01 -0.70264149897E+01  0.36683909215E+02  0.00000000000E+00 0. -1.
</event>
<event>
 7    1  0.2429906E-015  0.9000757E+02  0.7816164E-02  0.1186339E+00
        -11   -1    0    0    0    0  0.00000000000E+00  0.00000000000E+00  0.45593999997E+02  0.45594000000E+02  0.51100000000E-03 0. -1.
         11   -1    0    0    0    0 -0.00000000000E+00 -0.00000000000E+00 -0.45593999997E+02  0.45594000000E+02  0.51100000000E-03 0.  1.
    9900012    2    1    2    0    0  0.11002315828E-01 -0.13274363287E+00  0.11728930848E+01  0.90007567829E+02  0.89999826924E+02 0.  0.
        -12    1    1    2    0    0 -0.11002315828E-01  0.13274363287E+00 -0.11728930848E+01  0.11804321714E+01  0.00000000000E+00 0.  1.
         11    1    3    3    0    0 -0.26216844564E+02  0.14160162221E+02  0.24089992009E+02  0.38316587116E+02  0.51100000000E-03 0. -1.
        -11    1    3    3    0    0 -0.80801930291E+01  0.19996221019E+00 -0.23909515396E+00  0.80862025096E+01  0.51100000000E-03 0.  1.
        -12    1    3    3    0    0  0.34308039909E+02 -0.14492868064E+02 -0.22678003770E+02  0.43604778203E+02  0.00000000000E+00 0.  1.
</event>
<event>
 7    1  0.2429906E-015  0.9000766E+02  0.7816164E-02  0.1186339E+00
        -11   -1    0    0    0    0  0.00000000000E+00  0.00000000000E+00  0.45593999997E+02  0.45594000000E+02  0.51100000000E-03 0.  1.
         11   -1    0    0    0    0 -0.00000000000E+00 -0.00000000000E+00 -0.45593999997E+02  0.45594000000E+02  0.51100000000E-03 0. -1.
    9900012    2    1    2    0    0 -0.82976348293E+00 -0.83118257813E+00  0.11764384108E+00  0.90007655987E+02  0.89999916246E+02 0.  0.
        -12    1    1    2    0    0  0.82976348293E+00  0.83118257813E+00 -0.11764384108E+00  0.11803440130E+01  0.00000000000E+00 0.  1.
         11    1    3    3    0    0  0.21951700448E+02 -0.34372875963E+02 -0.60365909870E+01  0.41228778608E+02  0.51100000000E-03 0. -1.
        -11    1    3    3    0    0 -0.48424135255E+01 -0.30187145521E+01  0.56806156383E+01  0.80517700284E+01  0.51100000000E-03 0.  1.
        -12    1    3    3    0    0 -0.17939050405E+02  0.36560407937E+02  0.47361918975E+00  0.40727107350E+02  0.00000000000E+00 0.  1.
</event>
<event>
 7    1  0.2429906E-015  0.9000771E+02  0.7816164E-02  0.1186339E+00
        -11   -1    0    0    0    0  0.00000000000E+00  0.00000000000E+00  0.45593999997E+02  0.45594000000E+02  0.51100000000E-03 0.  1.
         11   -1    0    0    0    0 -0.00000000000E+00 -0.00000000000E+00 -0.45593999997E+02  0.45594000000E+02  0.51100000000E-03 0. -1.
    9900012    2    1    2    0    0 -0.81692162733E+00  0.11881783199E+00 -0.84357193177E+00  0.90007706720E+02  0.89999967649E+02 0.  0.
        -12    1    1    2    0    0  0.81692162733E+00 -0.11881783199E+00  0.84357193177E+00  0.11802932799E+01  0.00000000000E+00 0.  1.
         11    1    3    3    0    0  0.62093080714E+01 -0.33710901414E+01 -0.56865049886E+01  0.90695145798E+01  0.51100000000E-03 0. -1.
        -11    1    3    3    0    0  0.18562338470E+02 -0.15374046711E+02 -0.26827675588E+02  0.36064468657E+02  0.51100000000E-03 0.  1.
         12    1    3    3    0    0 -0.25588568169E+02  0.18863954685E+02  0.31670608645E+02  0.44873723483E+02  0.00000000000E+00 0. -1.
</event>
<event>
 7    1  0.2429906E-015  0.9000766E+02  0.7816164E-02  0.1186339E+00
        -11   -1    0    0    0    0  0.00000000000E+00  0.00000000000E+00  0.45593999997E+02  0.45594000000E+02  0.51100000000E-03 0. -1.
         11   -1    0    0    0    0 -0.00000000000E+00 -0.00000000000E+00 -0.45593999997E+02  0.45594000000E+02  0.51100000000E-03 0.  1.
    9900012    2    1    2    0    0  0.26870354089E+00  0.64901427789E+00  0.94857279522E+00  0.90007656205E+02  0.89999916467E+02 0.  0.
        -12    1    1    2    0    0 -0.26870354089E+00 -0.64901427789E+00 -0.94857279522E+00  0.11803437947E+01  0.00000000000E+00 0.  1.
         11    1    3    3    0    0  0.25312723208E+00 -0.67636005068E+01 -0.78614351050E+01  0.10373645810E+02  0.51100000000E-03 0. -1.
        -11    1    3    3    0    0  0.28557395148E+02 -0.21461114562E+02  0.14662651767E+02  0.38614733107E+02  0.51100000000E-03 0.  1.
         12    1    3    3    0    0 -0.28541818839E+02  0.28873729347E+02 -0.58526438664E+01  0.41019277288E+02  0.00000000000E+00 0. -1.
</event>
<event>
 7    1  0.2429906E-015  0.9000739E+02  0.7816164E-02  0.1186340E+00
        -11   -1    0    0    0    0  0.00000000000E+00  0.00000000000E+00  0.45593999997E+02  0.45594000000E+02  0.51100000000E-03 0. -1.
         11   -1    0    0    0    0 -0.00000000000E+00 -0.00000000000E+00 -0.45593999997E+02  0.45594000000E+02  0.51100000000E-03 0.  1.
    9900012    2    1    2    0    0 -0.10536301965E+01  0.23760623450E+00  0.47669454500E+00  0.90007393799E+02  0.89999650596E+02 0.  0.
        -12    1    1    2    0    0  0.10536301965E+01 -0.23760623450E+00 -0.47669454500E+00  0.11806062015E+01  0.00000000000E+00 0.  1.
         11    1    3    3    0    0 -0.43173949535E+01 -0.89118785268E+01 -0.36282822060E+01  0.10546369522E+02  0.51100000000E-03 0. -1.
        -11    1    3    3    0    0 -0.19364011123E+02 -0.28860906448E+02 -0.19655489327E+01  0.34810633873E+02  0.51100000000E-03 0.  1.
         12    1    3    3    0    0  0.22627775880E+02  0.38010391209E+02  0.60705256837E+01  0.44650390404E+02  0.00000000000E+00 0. -1.
</event>
<event>
 7    1  0.2429906E-015  0.9000772E+02  0.7816164E-02  0.1186339E+00
        -11   -1    0    0    0    0  0.00000000000E+00  0.00000000000E+00  0.45593999997E+02  0.45594000000E+02  0.51100000000E-03 0.  1.
         11   -1    0    0    0    0 -0.00000000000E+00 -0.00000000000E+00 -0.45593999997E+02  0.45594000000E+02  0.51100000000E-03 0. -1.
    9900012    2    1    2    0    0 -0.53910162206E+00 -0.16133606639E+00 -0.10375012226E+01  0.90007716698E+02  0.89999977759E+02 0.  0.
        -12    1    1    2    0    0  0.53910162206E+00  0.16133606639E+00  0.10375012226E+01  0.11802833017E+01  0.00000000000E+00 0.  1.
         11    1    3    3    0    0 -0.39500383981E+02  0.19906151842E+01  0.79446576320E+01  0.40340556127E+02  0.51100000000E-03 0. -1.
        -11    1    3    3    0    0  0.67330894846E+01  0.28879667094E+01  0.96384144807E+01  0.12106769994E+02  0.51100000000E-03 0.  1.
        -12    1    3    3    0    0  0.32228192875E+02 -0.50399179599E+01 -0.18620573335E+02  0.37560390578E+02  0.00000000000E+00 0.  1.
</event>
<event>
 7    1  0.2429906E-015  0.9000768E+02  0.7816164E-02  0.1186339E+00
        -11   -1    0    0    0    0  0.00000000000E+00  0.00000000000E+00  0.45593999997E+02  0.45594000000E+02  0.51100000000E-03 0.  1.
         11   -1    0    0    0    0 -0.00000000000E+00 -0.00000000000E+00 -0.45593999997E+02  0.45594000000E+02  0.51100000000E-03 0. -1.
    9900012    2    1    2    0    0  0.23771542863E+00 -0.11636704327E+00 -0.11502584827E+01  0.90007684580E+02  0.89999945216E+02 0.  0.
        -12    1    1    2    0    0 -0.23771542863E+00  0.11636704327E+00  0.11502584827E+01  0.11803154201E+01  0.00000000000E+00 0.  1.
         11    1    3    3    0    0 -0.27889468845E+02 -0.35215585640E+01 -0.29141442085E+02  0.40490091309E+02  0.51100000000E-03 0. -1.
        -11    1    3    3    0    0  0.42880606653E+01  0.87001827243E-01 -0.63006921437E+01  0.76219259599E+01  0.51100000000E-03 0.  1.
        -12    1    3    3    0    0  0.23839123608E+02  0.33181896935E+01  0.34291875746E+02  0.41895667311E+02  0.00000000000E+00 0.  1.
</event>
<event>
 7    1  0.2429906E-015  0.9000773E+02  0.7816164E-02  0.1186339E+00
        -11   -1    0    0    0    0  0.00000000000E+00  0.00000000000E+00  0.45593999997E+02  0.45594000000E+02  0.51100000000E-03 0.  1.
         11   -1    0    0    0    0 -0.00000000000E+00 -0.00000000000E+00 -0.45593999997E+02  0.45594000000E+02  0.51100000000E-03 0. -1.
    9900012    2    1    2    0    0  0.12762806182E+00  0.26888211333E+00 -0.11421240421E+01  0.90007731454E+02  0.89999992709E+02 0.  0.
        -12    1    1    2    0    0 -0.12762806182E+00 -0.26888211333E+00  0.11421240421E+01  0.11802685460E+01  0.00000000000E+00 0.  1.
         11    1    3    3    0    0  0.34007509917E+02  0.19485189744E+02  0.11007248408E+02  0.40710476144E+02  0.51100000000E-03 0. -1.
        -11    1    3    3    0    0 -0.61466300251E+01  0.31229490017E+01  0.61681484388E+01  0.92509419281E+01  0.51100000000E-03 0.  1.
        -12    1    3    3    0    0 -0.27733251830E+02 -0.22339256633E+02 -0.18317520889E+02  0.40046313382E+02  0.00000000000E+00 0.  1.
</event>
<event>
 7    1  0.2429906E-015  0.9000785E+02  0.7816164E-02  0.1186339E+00
        -11   -1    0    0    0    0  0.00000000000E+00  0.00000000000E+00  0.45593999997E+02  0.45594000000E+02  0.51100000000E-03 0.  1.
         11   -1    0    0    0    0 -0.00000000000E+00 -0.00000000000E+00 -0.45593999997E+02  0.45594000000E+02  0.51100000000E-03 0. -1.
    9900012    2    1    2    0    0  0.12878918572E+00  0.92198283940E+00 -0.72533622936E+00  0.90007851003E+02  0.90000113836E+02 0.  0.
        -12    1    1    2    0    0 -0.12878918572E+00 -0.92198283940E+00  0.72533622936E+00  0.11801489974E+01  0.00000000000E+00 0.  1.
         11    1    3    3    0    0  0.20351581682E+02  0.24164129838E+02 -0.13123807545E+02  0.34210033214E+02  0.51100000000E-03 0. -1.
        -11    1    3    3    0    0  0.33110049812E+00  0.12162133060E+02 -0.21428083257E+01  0.12353895575E+02  0.51100000000E-03 0.  1.
        -12    1    3    3    0    0 -0.20553892994E+02 -0.35404280058E+02  0.14541279641E+02  0.43443922213E+02  0.00000000000E+00 0.  1.
</event>
<event>
 7    1  0.2429906E-015  0.9000837E+02  0.7816164E-02  0.1186338E+00
        -11   -1    0    0    0    0  0.00000000000E+00  0.00000000000E+00  0.45593999997E+02  0.45594000000E+02  0.51100000000E-03 0.  1.
         11   -1    0    0    0    0 -0.00000000000E+00 -0.00000000000E+00 -0.45593999997E+02  0.45594000000E+02  0.51100000000E-03 0. -1.
    9900012    2    1    2    0    0  0.15265181752E+00  0.11655832221E+01 -0.98142499770E-01  0.90008373459E+02  0.90000643187E+02 0.  0.
        -12    1    1    2    0    0 -0.15265181752E+00 -0.11655832221E+01  0.98142499770E-01  0.11796265406E+01  0.00000000000E+00 0.  1.
         11    1    3    3    0    0  0.63017451617E+01 -0.27067170113E+01  0.30484943558E+01  0.75054398379E+01  0.51100000000E-03 0. -1.
        -11    1    3    3    0    0 -0.25376013673E+02  0.17342235052E+02  0.29293541829E+02  0.42459472202E+02  0.51100000000E-03 0.  1.
         12    1    3    3    0    0  0.19226920329E+02 -0.13469934818E+02 -0.32440178685E+02  0.40043461419E+02  0.00000000000E+00 0. -1.
</event>
<event>
 7    1  0.2429906E-015  0.9000771E+02  0.7816164E-02  0.1186339E+00
        -11   -1    0    0    0    0  0.00000000000E+00  0.00000000000E+00  0.45593999997E+02  0.45594000000E+02  0.51100000000E-03 0.  1.
         11   -1    0    0    0    0 -0.00000000000E+00 -0.00000000000E+00 -0.45593999997E+02  0.45594000000E+02  0.51100000000E-03 0. -1.
    9900012    2    1    2    0    0 -0.10471630393E+01 -0.53164900812E+00 -0.11786551595E+00  0.90007706232E+02  0.89999967154E+02 0.  0.
        -12    1    1    2    0    0  0.10471630393E+01  0.53164900812E+00  0.11786551595E+00  0.11802937679E+01  0.00000000000E+00 0.  1.
         11    1    3    3    0    0 -0.67628593486E+01  0.14824867959E+00  0.72344368638E+01  0.99043082160E+01  0.51100000000E-03 0. -1.
        -11    1    3    3    0    0 -0.12806382051E+02  0.36053984049E+02 -0.73691390964E+01  0.38964052643E+02  0.51100000000E-03 0.  1.
         12    1    3    3    0    0  0.18522078360E+02 -0.36733881737E+02  0.16836716674E-01  0.41139345373E+02  0.00000000000E+00 0. -1.
</event>
<event>
 7    1  0.2429906E-015  0.9000800E+02  0.7816164E-02  0.1186339E+00
        -11   -1    0    0    0    0  0.00000000000E+00  0.00000000000E+00  0.45593999997E+02  0.45594000000E+02  0.51100000000E-03 0. -1.
         11   -1    0    0    0    0 -0.00000000000E+00 -0.00000000000E+00 -0.45593999997E+02  0.45594000000E+02  0.51100000000E-03 0.  1.
    9900012    2    1    2    0    0 -0.27328862985E+00 -0.11255134027E+01  0.22568242764E+00  0.90008000147E+02  0.90000264949E+02 0.  0.
        -12    1    1    2    0    0  0.27328862985E+00  0.11255134027E+01 -0.22568242764E+00  0.11799998530E+01  0.00000000000E+00 0.  1.
         11    1    3    3    0    0 -0.52755183067E+01 -0.18407954276E+01  0.35735892910E+01  0.66325079640E+01  0.51100000000E-03 0. -1.
        -11    1    3    3    0    0 -0.37429631194E+02 -0.11214037845E+02  0.98761773587E+00  0.39085896756E+02  0.51100000000E-03 0.  1.
         12    1    3    3    0    0  0.42431860871E+02  0.11929319870E+02 -0.43355245992E+01  0.44289595427E+02  0.00000000000E+00 0. -1.
</event>
<event>
 7    1  0.2429906E-015  0.9000772E+02  0.7816164E-02  0.1186339E+00
        -11   -1    0    0    0    0  0.00000000000E+00  0.00000000000E+00  0.45593999997E+02  0.45594000000E+02  0.51100000000E-03 0. -1.
         11   -1    0    0    0    0 -0.00000000000E+00 -0.00000000000E+00 -0.45593999997E+02  0.45594000000E+02  0.51100000000E-03 0.  1.
    9900012    2    1    2    0    0  0.48419482474E+00 -0.10455398163E+01 -0.25583746976E+00  0.90007724207E+02  0.89999985367E+02 0.  0.
        -12    1    1    2    0    0 -0.48419482474E+00  0.10455398163E+01  0.25583746976E+00  0.11802757926E+01  0.00000000000E+00 0.  1.
         11    1    3    3    0    0 -0.14397192031E+02  0.15227489441E+02  0.27284177897E+02  0.34403225675E+02  0.51100000000E-03 0. -1.
        -11    1    3    3    0    0  0.48495425101E+01 -0.12275416325E+02  0.99891283098E+01  0.16552540384E+02  0.51100000000E-03 0.  1.
        -12    1    3    3    0    0  0.10031844345E+02 -0.39976129323E+01 -0.37529143677E+02  0.39051958149E+02  0.00000000000E+00 0.  1.
</event>
<event>
 7    1  0.2429906E-015  0.9000778E+02  0.7816164E-02  0.1186339E+00
        -11   -1    0    0    0    0  0.00000000000E+00  0.00000000000E+00  0.45593999997E+02  0.45594000000E+02  0.51100000000E-03 0. -1.
         11   -1    0    0    0    0 -0.00000000000E+00 -0.00000000000E+00 -0.45593999997E+02  0.45594000000E+02  0.51100000000E-03 0.  1.
    9900012    2    1    2    0    0  0.52059347649E+00 -0.75372616110E+00  0.74416908086E+00  0.90007784632E+02  0.90000046589E+02 0.  0.
        -12    1    1    2    0    0 -0.52059347649E+00  0.75372616110E+00 -0.74416908086E+00  0.11802153679E+01  0.00000000000E+00 0.  1.
         11    1    3    3    0    0 -0.14303465991E+01  0.19298435235E+01  0.10313135684E+02  0.10589190494E+02  0.51100000000E-03 0. -1.
        -11    1    3    3    0    0 -0.34789003842E+02  0.15146233324E+02 -0.61447120621E+01  0.38437490278E+02  0.51100000000E-03 0.  1.
         12    1    3    3    0    0  0.36739943918E+02 -0.17829803009E+02 -0.34242545415E+01  0.40981103860E+02  0.00000000000E+00 0. -1.
</event>
<event>
 7    1  0.2429906E-015  0.9000751E+02  0.7816164E-02  0.1186340E+00
        -11   -1    0    0    0    0  0.00000000000E+00  0.00000000000E+00  0.45593999997E+02  0.45594000000E+02  0.51100000000E-03 0.  1.
         11   -1    0    0    0    0 -0.00000000000E+00 -0.00000000000E+00 -0.45593999997E+02  0.45594000000E+02  0.51100000000E-03 0. -1.
    9900012    2    1    2    0    0  0.54863837430E+00  0.42803732667E+00 -0.95359646363E+00  0.90007505936E+02  0.89999764214E+02 0.  0.
        -12    1    1    2    0    0 -0.54863837430E+00 -0.42803732667E+00  0.95359646363E+00  0.11804940636E+01  0.00000000000E+00 0.  1.
         11    1    3    3    0    0  0.32711363502E+02  0.24362755533E+02 -0.10153914976E+02  0.42031882529E+02  0.51100000000E-03 0. -1.
        -11    1    3    3    0    0 -0.11443957789E+02  0.39832021992E+01  0.45192656655E+00  0.12125770389E+02  0.51100000000E-03 0.  1.
        -12    1    3    3    0    0 -0.20718767339E+02 -0.27917920406E+02  0.87483919453E+01  0.35849853018E+02  0.00000000000E+00 0.  1.
</event>
<event>
 7    1  0.2429906E-015  0.9000778E+02  0.7816164E-02  0.1186339E+00
        -11   -1    0    0    0    0  0.00000000000E+00  0.00000000000E+00  0.45593999997E+02  0.45594000000E+02  0.51100000000E-03 0. -1.
         11   -1    0    0    0    0 -0.00000000000E+00 -0.00000000000E+00 -0.45593999997E+02  0.45594000000E+02  0.51100000000E-03 0.  1.
    9900012    2    1    2    0    0  0.68497494256E+00 -0.70438331612E+00  0.65389660625E+00  0.90007776589E+02  0.90000038440E+02 0.  0.
        -12    1    1    2    0    0 -0.68497494256E+00  0.70438331612E+00 -0.65389660625E+00  0.11802234109E+01  0.00000000000E+00 0.  1.
         11    1    3    3    0    0 -0.36850128631E+02 -0.10019135547E+02 -0.96866799987E+01  0.39397294664E+02  0.51100000000E-03 0. -1.
        -11    1    3    3    0    0  0.24873321754E+01 -0.11870432514E+01 -0.88686471055E+01  0.92870229232E+01  0.51100000000E-03 0.  1.
        -12    1    3    3    0    0  0.35047771398E+02  0.10501795482E+02  0.19209223711E+02  0.41323459002E+02  0.00000000000E+00 0.  1.
</event>
<event>
 7    1  0.2429906E-015  0.9000752E+02  0.7816164E-02  0.1186339E+00
        -11   -1    0    0    0    0  0.00000000000E+00  0.00000000000E+00  0.45593999997E+02  0.45594000000E+02  0.51100000000E-03 0. -1.
         11   -1    0    0    0    0 -0.00000000000E+00 -0.00000000000E+00 -0.45593999997E+02  0.45594000000E+02  0.51100000000E-03 0.  1.
    9900012    2    1    2    0    0 -0.60023730160E+00 -0.10163901810E+01  0.14359222356E-01  0.90007517046E+02  0.89999775470E+02 0.  0.
        -12    1    1    2    0    0  0.60023730160E+00  0.10163901810E+01 -0.14359222356E-01  0.11804829544E+01  0.00000000000E+00 0.  1.
         11    1    3    3    0    0 -0.15076514445E+02 -0.53937011495E+01 -0.54389900609E+01  0.16910822365E+02  0.51100000000E-03 0. -1.
        -11    1    3    3    0    0 -0.29017091403E+02  0.11052391605E+01  0.50780634927E+01  0.29478803846E+02  0.51100000000E-03 0.  1.
         12    1    3    3    0    0  0.43493368547E+02  0.32720718080E+01  0.37528579052E+00  0.43617890835E+02  0.00000000000E+00 0. -1.
</event>
<event>
 7    1  0.2429906E-015  0.9000766E+02  0.7816164E-02  0.1186339E+00
        -11   -1    0    0    0    0  0.00000000000E+00  0.00000000000E+00  0.45593999997E+02  0.45594000000E+02  0.51100000000E-03 0.  1.
         11   -1    0    0    0    0 -0.00000000000E+00 -0.00000000000E+00 -0.45593999997E+02  0.45594000000E+02  0.51100000000E-03 0. -1.
    9900012    2    1    2    0    0  0.86731566069E+00 -0.43809272290E+00 -0.67010645427E+00  0.90007659223E+02  0.89999919525E+02 0.  0.
        -12    1    1    2    0    0 -0.86731566069E+00  0.43809272290E+00  0.67010645427E+00  0.11803407767E+01  0.00000000000E+00 0.  1.
         11    1    3    3    0    0  0.73747978437E+01  0.90913803682E+01 -0.23999885220E+01  0.11949928259E+02  0.51100000000E-03 0. -1.
        -11    1    3    3    0    0 -0.36395443004E+02 -0.11587371246E+02  0.19849856398E+02  0.43045467161E+02  0.51100000000E-03 0.  1.
         12    1    3    3    0    0  0.29887960821E+02  0.20578981552E+01 -0.18119974330E+02  0.35012263803E+02  0.00000000000E+00 0. -1.
</event>
<event>
 7    1  0.2429906E-015  0.9000756E+02  0.7816164E-02  0.1186339E+00
        -11   -1    0    0    0    0  0.00000000000E+00  0.00000000000E+00  0.45593999997E+02  0.45594000000E+02  0.51100000000E-03 0.  1.
         11   -1    0    0    0    0 -0.00000000000E+00 -0.00000000000E+00 -0.45593999997E+02  0.45594000000E+02  0.51100000000E-03 0. -1.
    9900012    2    1    2    0    0 -0.10935664218E+01 -0.21620432025E+00 -0.38834759361E+00  0.90007556998E+02  0.89999815950E+02 0.  0.
        -12    1    1    2    0    0  0.10935664218E+01  0.21620432025E+00  0.38834759361E+00  0.11804430018E+01  0.00000000000E+00 0.  1.
         11    1    3    3    0    0  0.17474406728E+02  0.20561492421E+02 -0.23253461959E+02  0.35620967904E+02  0.51100000000E-03 0. -1.
        -11    1    3    3    0    0  0.25156655114E+01  0.62428873269E+01 -0.64234109151E+01  0.93038929049E+01  0.51100000000E-03 0.  1.
        -12    1    3    3    0    0 -0.21083638661E+02 -0.27020584069E+02  0.29288525281E+02  0.45082696189E+02  0.00000000000E+00 0.  1.
</event>
<event>
 7    1  0.2429906E-015  0.9000814E+02  0.7816164E-02  0.1186338E+00
        -11   -1    0    0    0    0  0.00000000000E+00  0.00000000000E+00  0.45593999997E+02  0.45594000000E+02  0.51100000000E-03 0. -1.
         11   -1    0    0    0    0 -0.00000000000E+00 -0.00000000000E+00 -0.45593999997E+02  0.45594000000E+02  0.51100000000E-03 0.  1.
    9900012    2    1    2    0    0 -0.29543977772E+00 -0.10985893028E+01  0.31286351686E+00  0.90008141238E+02  0.90000407901E+02 0.  0.
        -12    1    1    2    0    0  0.29543977772E+00  0.10985893028E+01 -0.31286351686E+00  0.11798587622E+01  0.00000000000E+00 0.  1.
         11    1    3    3    0    0  0.27226570112E+01  0.72435582818E+01 -0.55779803917E+01  0.95391751893E+01  0.51100000000E-03 0. -1.
        -11    1    3    3    0    0  0.23324711103E+02 -0.82846915082E+01 -0.28111717458E+02  0.37455933043E+02  0.51100000000E-03 0.  1.
         12    1    3    3    0    0 -0.26342807892E+02 -0.57456076355E-01  0.34002561367E+02  0.43013033005E+02  0.00000000000E+00 0. -1.
</event>
<event>
 7    1  0.2429906E-015  0.9000773E+02  0.7816164E-02  0.1186339E+00
        -11   -1    0    0    0    0  0.00000000000E+00  0.00000000000E+00  0.45593999997E+02  0.45594000000E+02  0.51100000000E-03 0. -1.
         11   -1    0    0    0    0 -0.00000000000E+00 -0.00000000000E+00 -0.45593999997E+02  0.45594000000E+02  0.51100000000E-03 0.  1.
    9900012    2    1    2    0    0  0.10830327324E+01  0.17265791500E+00  0.43618795282E+00  0.90007732833E+02  0.89999994106E+02 0.  0.
        -12    1    1    2    0    0 -0.10830327324E+01 -0.17265791500E+00 -0.43618795282E+00  0.11802671669E+01  0.00000000000E+00 0.  1.
         11    1    3    3    0    0 -0.22146263915E+02 -0.31562579006E+01 -0.10290523062E+02  0.24623440752E+02  0.51100000000E-03 0. -1.
        -11    1    3    3    0    0 -0.94742019907E+00  0.11515281521E+02 -0.21419229863E+02  0.24336859324E+02  0.51100000000E-03 0.  1.
        -12    1    3    3    0    0  0.24176716847E+02 -0.81863657058E+01  0.32145940878E+02  0.41047432757E+02  0.00000000000E+00 0.  1.
</event>
<event>
 7    1  0.2429906E-015  0.9000770E+02  0.7816164E-02  0.1186339E+00
        -11   -1    0    0    0    0  0.00000000000E+00  0.00000000000E+00  0.45593999997E+02  0.45594000000E+02  0.51100000000E-03 0. -1.
         11   -1    0    0    0    0 -0.00000000000E+00 -0.00000000000E+00 -0.45593999997E+02  0.45594000000E+02  0.51100000000E-03 0.  1.
    9900012    2    1    2    0    0  0.95021584287E-01  0.83952089127E+00  0.82418000571E+00  0.90007704651E+02  0.89999965553E+02 0.  0.
        -12    1    1    2    0    0 -0.95021584287E-01 -0.83952089127E+00 -0.82418000571E+00  0.11802953487E+01  0.00000000000E+00 0.  1.
         11    1    3    3    0    0  0.31339632394E+02  0.66760270020E+01 -0.18724651727E+02  0.37112726627E+02  0.51100000000E-03 0. -1.
        -11    1    3    3    0    0 -0.55463479431E+00 -0.83182289021E+00 -0.99698657565E+01  0.10019868888E+02  0.51100000000E-03 0.  1.
        -12    1    3    3    0    0 -0.30689976016E+02 -0.50046832205E+01  0.29518697489E+02  0.42875109136E+02  0.00000000000E+00 0.  1.
</event>
<event>
 7    1  0.2429906E-015  0.9000773E+02  0.7816164E-02  0.1186339E+00
        -11   -1    0    0    0    0  0.00000000000E+00  0.00000000000E+00  0.45593999997E+02  0.45594000000E+02  0.51100000000E-03 0.  1.
         11   -1    0    0    0    0 -0.00000000000E+00 -0.00000000000E+00 -0.45593999997E+02  0.45594000000E+02  0.51100000000E-03 0. -1.
    9900012    2    1    2    0    0 -0.28376118839E+00 -0.48606150415E+00 -0.10374284246E+01  0.90007731414E+02  0.89999992669E+02 0.  0.
        -12    1    1    2    0    0  0.28376118839E+00  0.48606150415E+00  0.10374284246E+01  0.11802685856E+01  0.00000000000E+00 0.  1.
         11    1    3    3    0    0 -0.31718275819E+02 -0.16815139694E+02  0.46647804082E+01  0.36201631460E+02  0.51100000000E-03 0. -1.
        -11    1    3    3    0    0 -0.78948476884E+01 -0.43730968957E+01 -0.25935455037E+00  0.90288350038E+01  0.51100000000E-03 0.  1.
        -12    1    3    3    0    0  0.39329362319E+02  0.20702175085E+02 -0.54428542825E+01  0.44777264950E+02  0.00000000000E+00 0.  1.
</event>
<event>
 7    1  0.2429906E-015  0.9000774E+02  0.7816164E-02  0.1186339E+00
        -11   -1    0    0    0    0  0.00000000000E+00  0.00000000000E+00  0.45593999997E+02  0.45594000000E+02  0.51100000000E-03 0. -1.
         11   -1    0    0    0    0 -0.00000000000E+00 -0.00000000000E+00 -0.45593999997E+02  0.45594000000E+02  0.51100000000E-03 0.  1.
    9900012    2    1    2    0    0  0.19465125250E+00  0.27059461660E+00  0.11322067952E+01  0.90007744611E+02  0.90000006040E+02 0.  0.
        -12    1    1    2    0    0 -0.19465125250E+00 -0.27059461660E+00 -0.11322067952E+01  0.11802553892E+01  0.00000000000E+00 0.  1.
         11    1    3    3    0    0 -0.27901541499E+00 -0.46572041857E+01 -0.70210609007E+01  0.84298693265E+01  0.51100000000E-03 0. -1.
        -11    1    3    3    0    0 -0.37278731389E+02  0.84871810557E+00  0.19322131841E+02  0.41997248904E+02  0.51100000000E-03 0.  1.
         12    1    3    3    0    0  0.37752398056E+02  0.40790806968E+01 -0.11168864145E+02  0.39580626380E+02  0.00000000000E+00 0. -1.
</event>
<event>
 7    1  0.2429906E-015  0.9000782E+02  0.7816164E-02  0.1186339E+00
        -11   -1    0    0    0    0  0.00000000000E+00  0.00000000000E+00  0.45593999997E+02  0.45594000000E+02  0.51100000000E-03 0.  1.
         11   -1    0    0    0    0 -0.00000000000E+00 -0.00000000000E+00 -0.45593999997E+02  0.45594000000E+02  0.51100000000E-03 0. -1.
    9900012    2    1    2    0    0  0.54065319750E-01 -0.10615609551E+01 -0.51283591830E+00  0.90007815523E+02  0.90000077888E+02 0.  0.
        -12    1    1    2    0    0 -0.54065319750E-01  0.10615609551E+01  0.51283591830E+00  0.11801844768E+01  0.00000000000E+00 0.  1.
         11    1    3    3    0    0  0.25494984525E+02 -0.37127801849E+01 -0.31771002330E+02  0.40904468728E+02  0.51100000000E-03 0. -1.
        -11    1    3    3    0    0 -0.73072572397E+01  0.63593166915E+01 -0.30204474933E+01  0.10146921724E+02  0.51100000000E-03 0.  1.
        -12    1    3    3    0    0 -0.18133661966E+02 -0.37080974617E+01  0.34278613905E+02  0.38956425071E+02  0.00000000000E+00 0.  1.
</event>
<event>
 7    1  0.2429906E-015  0.9000870E+02  0.7816164E-02  0.1186337E+00
        -11   -1    0    0    0    0  0.00000000000E+00  0.00000000000E+00  0.45593999997E+02  0.45594000000E+02  0.51100000000E-03 0. -1.
         11   -1    0    0    0    0 -0.00000000000E+00 -0.00000000000E+00 -0.45593999997E+02  0.45594000000E+02  0.51100000000E-03 0.  1.
    9900012    2    1    2    0    0 -0.75260054102E+00 -0.85806649408E-01  0.90386428569E+00  0.90008703175E+02  0.90000977251E+02 0.  0.
        -12    1    1    2    0    0  0.75260054102E+00  0.85806649408E-01 -0.90386428569E+00  0.11792968254E+01  0.00000000000E+00 0.  1.
         11    1    3    3    0    0 -0.10731912729E+01 -0.42396988507E+00  0.89490324789E+01  0.90231187813E+01  0.51100000000E-03 0. -1.
        -11    1    3    3    0    0  0.33428563642E+02  0.22880051156E+02 -0.50075520214E+01  0.40817167780E+02  0.51100000000E-03 0.  1.
         12    1    3    3    0    0 -0.33107972910E+02 -0.22541887921E+02 -0.30376161719E+01  0.40168416613E+02  0.00000000000E+00 0. -1.
</event>
<event>
 7    1  0.2429906E-015  0.9000772E+02  0.7816164E-02  0.1186339E+00
        -11   -1    0    0    0    0  0.00000000000E+00  0.00000000000E+00  0.45593999997E+02  0.45594000000E+02  0.51100000000E-03 0. -1.
         11   -1    0    0    0    0 -0.00000000000E+00 -0.00000000000E+00 -0.45593999997E+02  0.45594000000E+02  0.51100000000E-03 0.  1.
    9900012    2    1    2    0    0 -0.10855125550E+01  0.44606200081E+00  0.12549844571E+00  0.90007720933E+02  0.89999982050E+02 0.  0.
        -12    1    1    2    0    0  0.10855125550E+01 -0.44606200081E+00 -0.12549844571E+00  0.11802790668E+01  0.00000000000E+00 0.  1.
         11    1    3    3    0    0 -0.69260145774E+01 -0.12354238021E+02 -0.13664598257E+01  0.14228987586E+02  0.51100000000E-03 0. -1.
        -11    1    3    3    0    0  0.17373055839E+02  0.16360062426E+02 -0.32149175300E+02  0.40038034223E+02  0.51100000000E-03 0.  1.
         12    1    3    3    0    0 -0.11532553816E+02 -0.35597624038E+01  0.33641133571E+02  0.35740699124E+02  0.00000000000E+00 0. -1.
</event>
<event>
 7    1  0.2429906E-015  0.9000783E+02  0.7816164E-02  0.1186339E+00
        -11   -1    0    0    0    0  0.00000000000E+00  0.00000000000E+00  0.45593999997E+02  0.45594000000E+02  0.51100000000E-03 0. -1.
         11   -1    0    0    0    0 -0.00000000000E+00 -0.00000000000E+00 -0.45593999997E+02  0.45594000000E+02  0.51100000000E-03 0.  1.
    9900012    2    1    2    0    0 -0.14053116518E+00 -0.11667069006E+01 -0.10881606722E+00  0.90007832666E+02  0.90000095257E+02 0.  0.
        -12    1    1    2    0    0  0.14053116518E+00  0.11667069006E+01  0.10881606722E+00  0.11801673342E+01  0.00000000000E+00 0.  1.
         11    1    3    3    0    0  0.53068014398E+01 -0.89752826808E+01 -0.34097267955E+01  0.10970144840E+02  0.51100000000E-03 0. -1.
        -11    1    3    3    0    0  0.15784109218E+02 -0.10972737572E+01 -0.32687044979E+02  0.36315079832E+02  0.51100000000E-03 0.  1.
         12    1    3    3    0    0 -0.21231441823E+02  0.89058495374E+01  0.35987955707E+02  0.42722607994E+02  0.00000000000E+00 0. -1.
</event>
<event>
 7    1  0.2429906E-015  0.9000771E+02  0.7816164E-02  0.1186339E+00
        -11   -1    0    0    0    0  0.00000000000E+00  0.00000000000E+00  0.45593999997E+02  0.45594000000E+02  0.51100000000E-03 0.  1.
         11   -1    0    0    0    0 -0.00000000000E+00 -0.00000000000E+00 -0.45593999997E+02  0.45594000000E+02  0.51100000000E-03 0. -1.
    9900012    2    1    2    0    0 -0.83941407277E-01  0.44463682749E+00 -0.10901066222E+01  0.90007711681E+02  0.89999972675E+02 0.  0.
        -12    1    1    2    0    0  0.83941407277E-01 -0.44463682749E+00  0.10901066222E+01  0.11802883190E+01  0.00000000000E+00 0.  1.
         11    1    3    3    0    0 -0.16167819226E+02  0.20483271315E+02 -0.86787085708E+01  0.27500595721E+02  0.51100000000E-03 0. -1.
        -11    1    3    3    0    0 -0.17004552495E+02 -0.35238312528E+01 -0.11561162987E+02  0.20862230996E+02  0.51100000000E-03 0.  1.
         12    1    3    3    0    0  0.33088430314E+02 -0.16514803235E+02  0.19149764936E+02  0.41644884964E+02  0.00000000000E+00 0. -1.
</event>
<event>
 7    1  0.2429906E-015  0.9000776E+02  0.7816164E-02  0.1186339E+00
        -11   -1    0    0    0    0  0.00000000000E+00  0.00000000000E+00  0.45593999997E+02  0.45594000000E+02  0.51100000000E-03 0.  1.
         11   -1    0    0    0    0 -0.00000000000E+00 -0.00000000000E+00 -0.45593999997E+02  0.45594000000E+02  0.51100000000E-03 0. -1.
    9900012    2    1    2    0    0 -0.80700267980E+00  0.11971874124E+00 -0.85286067271E+00  0.90007763910E+02  0.90000025593E+02 0.  0.
        -12    1    1    2    0    0  0.80700267980E+00 -0.11971874124E+00  0.85286067271E+00  0.11802360905E+01  0.00000000000E+00 0.  1.
         11    1    3    3    0    0  0.14327764703E+02  0.32757276084E+02 -0.80932416818E+01  0.36658212436E+02  0.51100000000E-03 0. -1.
        -11    1    3    3    0    0  0.11367983188E+02 -0.12602527501E+02  0.10514415064E+02  0.19965161296E+02  0.51100000000E-03 0.  1.
        -12    1    3    3    0    0 -0.26502750571E+02 -0.20035029842E+02 -0.32740340547E+01  0.33384390178E+02  0.00000000000E+00 0.  1.
</event>
<event>
 7    1  0.2429906E-015  0.9000758E+02  0.7816164E-02  0.1186339E+00
        -11   -1    0    0    0    0  0.00000000000E+00  0.00000000000E+00  0.45593999997E+02  0.45594000000E+02  0.51100000000E-03 0. -1.
         11   -1    0    0    0    0 -0.00000000000E+00 -0.00000000000E+00 -0.45593999997E+02  0.45594000000E+02  0.51100000000E-03 0.  1.
    9900012    2    1    2    0    0 -0.45498244790E+00  0.46983474882E+00  0.98267093433E+00  0.90007578091E+02  0.89999837321E+02 0.  0.
        -12    1    1    2    0    0  0.45498244790E+00 -0.46983474882E+00 -0.98267093433E+00  0.11804219094E+01  0.00000000000E+00 0.  1.
         11    1    3    3    0    0  0.35373495542E+02 -0.18182544649E+02  0.81104304509E+01  0.40591479391E+02  0.51100000000E-03 0. -1.
        -11    1    3    3    0    0  0.23890624116E+01  0.91490980420E+01 -0.40118950778E+00  0.94643841570E+01  0.51100000000E-03 0.  1.
        -12    1    3    3    0    0 -0.38217540401E+02  0.95032813554E+01 -0.67265700088E+01  0.39951714543E+02  0.00000000000E+00 0.  1.
</event>
<event>
 7    1  0.2429906E-015  0.9000775E+02  0.7816164E-02  0.1186339E+00
        -11   -1    0    0    0    0  0.00000000000E+00  0.00000000000E+00  0.45593999997E+02  0.45594000000E+02  0.51100000000E-03 0.  1.
         11   -1    0    0    0    0 -0.00000000000E+00 -0.00000000000E+00 -0.45593999997E+02  0.45594000000E+02  0.51100000000E-03 0. -1.
    9900012    2    1    2    0    0  0.89405277314E+00 -0.20218534196E-01 -0.77022417965E+00  0.90007752383E+02  0.90000013915E+02 0.  0.
        -12    1    1    2    0    0 -0.89405277314E+00  0.20218534196E-01  0.77022417965E+00  0.11802476169E+01  0.00000000000E+00 0.  1.
         11    1    3    3    0    0 -0.41978707441E+01  0.65043536413E+00  0.78706956393E+01  0.89438825492E+01  0.51100000000E-03 0. -1.
        -11    1    3    3    0    0 -0.12997623642E+02  0.32986969902E+02  0.12253961116E+02  0.37513170579E+02  0.51100000000E-03 0.  1.
         12    1    3    3    0    0  0.18089547159E+02 -0.33657623800E+02 -0.20894880935E+02  0.43550699255E+02  0.00000000000E+00 0. -1.
</event>
<event>
 7    1  0.2429906E-015  0.9000776E+02  0.7816164E-02  0.1186339E+00
        -11   -1    0    0    0    0  0.00000000000E+00  0.00000000000E+00  0.45593999997E+02  0.45594000000E+02  0.51100000000E-03 0. -1.
         11   -1    0    0    0    0 -0.00000000000E+00 -0.00000000000E+00 -0.45593999997E+02  0.45594000000E+02  0.51100000000E-03 0.  1.
    9900012    2    1    2    0    0 -0.10625242939E+01  0.41127152337E+00 -0.30801155895E+00  0.90007757118E+02  0.90000018711E+02 0.  0.
        -12    1    1    2    0    0  0.10625242939E+01 -0.41127152337E+00  0.30801155895E+00  0.11802428825E+01  0.00000000000E+00 0.  1.
         11    1    3    3    0    0 -0.77662031894E+01  0.39350221996E+01 -0.54642678402E+01  0.10278936471E+02  0.51100000000E-03 0. -1.
        -11    1    3    3    0    0 -0.12563589180E+02  0.23874010410E+02 -0.23401086556E+02  0.35713064814E+02  0.51100000000E-03 0.  1.
         12    1    3    3    0    0  0.19267268075E+02 -0.27397761086E+02  0.28557342837E+02  0.44015755833E+02  0.00000000000E+00 0. -1.
</event>
<event>
 7    1  0.2429906E-015  0.9000769E+02  0.7816164E-02  0.1186339E+00
        -11   -1    0    0    0    0  0.00000000000E+00  0.00000000000E+00  0.45593999997E+02  0.45594000000E+02  0.51100000000E-03 0.  1.
         11   -1    0    0    0    0 -0.00000000000E+00 -0.00000000000E+00 -0.45593999997E+02  0.45594000000E+02  0.51100000000E-03 0. -1.
    9900012    2    1    2    0    0 -0.49886129496E+00 -0.42963399638E+00 -0.97963116850E+00  0.90007692757E+02  0.89999953501E+02 0.  0.
        -12    1    1    2    0    0  0.49886129496E+00  0.42963399638E+00  0.97963116850E+00  0.11803072434E+01  0.00000000000E+00 0.  1.
         11    1    3    3    0    0 -0.35085619711E+01 -0.77161045012E+01  0.11479246525E+02  0.14269596239E+02  0.51100000000E-03 0. -1.
        -11    1    3    3    0    0  0.19529573859E+02 -0.28228029666E+02 -0.12612449444E+02  0.36569109849E+02  0.51100000000E-03 0.  1.
         12    1    3    3    0    0 -0.16519873183E+02  0.35514500171E+02  0.15357175066E+00  0.39168986669E+02  0.00000000000E+00 0. -1.
</event>
<event>
 7    1  0.2429906E-015  0.9000794E+02  0.7816164E-02  0.1186339E+00
        -11   -1    0    0    0    0  0.00000000000E+00  0.00000000000E+00  0.45593999997E+02  0.45594000000E+02  0.51100000000E-03 0.  1.
         11   -1    0    0    0    0 -0.00000000000E+00 -0.00000000000E+00 -0.45593999997E+02  0.45594000000E+02  0.51100000000E-03 0. -1.
    9900012    2    1    2    0    0 -0.38261770531E+00 -0.86294889234E+00 -0.70813732552E+00  0.90007942556E+02  0.90000206598E+02 0.  0.
        -12    1    1    2    0    0  0.38261770531E+00  0.86294889234E+00  0.70813732552E+00  0.11800574439E+01  0.00000000000E+00 0.  1.
         11    1    3    3    0    0 -0.30876157491E+01  0.11481434509E+02  0.37397773407E+01  0.12463652924E+02  0.51100000000E-03 0. -1.
        -11    1    3    3    0    0 -0.28043508163E+02 -0.30687648028E+02 -0.36489557038E+01  0.41731103143E+02  0.51100000000E-03 0.  1.
         12    1    3    3    0    0  0.30748506206E+02  0.18343264626E+02 -0.79895896236E+00  0.35813186489E+02  0.00000000000E+00 0. -1.
</event>
<event>
 7    1  0.2429906E-015  0.9000801E+02  0.7816164E-02  0.1186339E+00
        -11   -1    0    0    0    0  0.00000000000E+00  0.00000000000E+00  0.45593999997E+02  0.45594000000E+02  0.51100000000E-03 0.  1.
         11   -1    0    0    0    0 -0.00000000000E+00 -0.00000000000E+00 -0.45593999997E+02  0.45594000000E+02  0.51100000000E-03 0. -1.
    9900012    2    1    2    0    0 -0.84864500853E+00  0.60110920455E+00  0.55753767578E+00  0.90008008947E+02  0.90000273864E+02 0.  0.
        -12    1    1    2    0    0  0.84864500853E+00 -0.60110920455E+00 -0.55753767578E+00  0.11799910534E+01  0.00000000000E+00 0.  1.
         11    1    3    3    0    0 -0.68812952621E+01  0.72311388471E+01 -0.10885288406E+01  0.10041239406E+02  0.51100000000E-03 0. -1.
        -11    1    3    3    0    0 -0.33073791687E+02  0.75857864072E+00  0.17139842859E+02  0.37258896274E+02  0.51100000000E-03 0.  1.
         12    1    3    3    0    0  0.39106441940E+02 -0.73886082833E+01 -0.15493776342E+02  0.42707873266E+02  0.00000000000E+00 0. -1.
</event>
<event>
 7    1  0.2429906E-015  0.9000776E+02  0.7816164E-02  0.1186339E+00
        -11   -1    0    0    0    0  0.00000000000E+00  0.00000000000E+00  0.45593999997E+02  0.45594000000E+02  0.51100000000E-03 0.  1.
         11   -1    0    0    0    0 -0.00000000000E+00 -0.00000000000E+00 -0.45593999997E+02  0.45594000000E+02  0.51100000000E-03 0. -1.
    9900012    2    1    2    0    0  0.87527933289E+00  0.44088199277E+00  0.65762007513E+00  0.90007764852E+02  0.90000026548E+02 0.  0.
        -12    1    1    2    0    0 -0.87527933289E+00 -0.44088199277E+00 -0.65762007513E+00  0.11802351483E+01  0.00000000000E+00 0.  1.
         11    1    3    3    0    0 -0.22686890045E+02 -0.28203592346E+02 -0.13524579199E+01  0.36221081483E+02  0.51100000000E-03 0. -1.
        -11    1    3    3    0    0 -0.96031900687E+01 -0.24026276658E+00 -0.12426571211E+01  0.96862367654E+01  0.51100000000E-03 0.  1.
        -12    1    3    3    0    0  0.33165359447E+02  0.28884737105E+02  0.32527351161E+01  0.44100446603E+02  0.00000000000E+00 0.  1.
</event>
<event>
 7    1  0.2429906E-015  0.9000768E+02  0.7816164E-02  0.1186339E+00
        -11   -1    0    0    0    0  0.00000000000E+00  0.00000000000E+00  0.45593999997E+02  0.45594000000E+02  0.51100000000E-03 0.  1.
         11   -1    0    0    0    0 -0.00000000000E+00 -0.00000000000E+00 -0.45593999997E+02  0.45594000000E+02  0.51100000000E-03 0. -1.
    9900012    2    1    2    0    0 -0.25151278374E+00  0.78681526020E+00 -0.84309772621E+00  0.90007681945E+02  0.89999942547E+02 0.  0.
        -12    1    1    2    0    0  0.25151278374E+00 -0.78681526020E+00  0.84309772621E+00  0.11803180546E+01  0.00000000000E+00 0.  1.
         11    1    3    3    0    0 -0.40053265888E+01  0.82688185499E+01  0.50870057807E+01  0.10502077383E+02  0.51100000000E-03 0. -1.
        -11    1    3    3    0    0  0.13271062331E+02 -0.48254008330E+01  0.34820104802E+02  0.37574529768E+02  0.51100000000E-03 0.  1.
         12    1    3    3    0    0 -0.95172485258E+01 -0.26566024568E+01 -0.40750208309E+02  0.41931074794E+02  0.00000000000E+00 0. -1.
</event>
<event>
 7    1  0.2429906E-015  0.9000774E+02  0.7816164E-02  0.1186339E+00
        -11   -1    0    0    0    0  0.00000000000E+00  0.00000000000E+00  0.45593999997E+02  0.45594000000E+02  0.51100000000E-03 0. -1.
         11   -1    0    0    0    0 -0.00000000000E+00 -0.00000000000E+00 -0.45593999997E+02  0.45594000000E+02  0.51100000000E-03 0.  1.
    9900012    2    1    2    0    0 -0.59320302063E+00 -0.97456322468E+00  0.30222839650E+00  0.90007743542E+02  0.90000004957E+02 0.  0.
        -12    1    1    2    0    0  0.59320302063E+00  0.97456322468E+00 -0.30222839650E+00  0.11802564578E+01  0.00000000000E+00 0.  1.
         11    1    3    3    0    0  0.39980139021E+01  0.39088890878E+01  0.49618251069E+01  0.74755091944E+01  0.51100000000E-03 0. -1.
        -11    1    3    3    0    0  0.25566477221E+02  0.26156621134E+02 -0.12292323344E+02  0.38586458766E+02  0.51100000000E-03 0.  1.
         12    1    3    3    0    0 -0.30157694144E+02 -0.31040073447E+02  0.76327266331E+01  0.43945775582E+02  0.00000000000E+00 0. -1.
</event>
<event>
 7    1  0.2429906E-015  0.9000772E+02  0.7816164E-02  0.1186339E+00
        -11   -1    0    0    0    0  0.00000000000E+00  0.00000000000E+00  0.45593999997E+02  0.45594000000E+02  0.51100000000E-03 0. -1.
         11   -1    0    0    0    0 -0.00000000000E+00 -0.00000000000E+00 -0.45593999997E+02  0.45594000000E+02  0.51100000000E-03 0.  1.
    9900012    2    1    2    0    0 -0.39220220256E+00 -0.66634104881E+00  0.89175226051E+00  0.90007722467E+02  0.89999983603E+02 0.  0.
        -12    1    1    2    0    0  0.39220220256E+00  0.66634104881E+00 -0.89175226051E+00  0.11802775331E+01  0.00000000000E+00 0.  1.
         11    1    3    3    0    0 -0.11063397694E+02 -0.26582126810E+02  0.23031961169E+02  0.36871119725E+02  0.51100000000E-03 0. -1.
        -11    1    3    3    0    0 -0.30633749303E+01 -0.94478209272E+01 -0.18105912012E+01  0.10095733108E+02  0.51100000000E-03 0.  1.
        -12    1    3    3    0    0  0.13734570422E+02  0.35363606688E+02 -0.20329617707E+02  0.43040869633E+02  0.00000000000E+00 0.  1.
</event>
<event>
 7    1  0.2429906E-015  0.9000775E+02  0.7816164E-02  0.1186339E+00
        -11   -1    0    0    0    0  0.00000000000E+00  0.00000000000E+00  0.45593999997E+02  0.45594000000E+02  0.51100000000E-03 0.  1.
         11   -1    0    0    0    0 -0.00000000000E+00 -0.00000000000E+00 -0.45593999997E+02  0.45594000000E+02  0.51100000000E-03 0. -1.
    9900012    2    1    2    0    0 -0.11281436177E+01 -0.34298788976E+00  0.51415141107E-01  0.90007749081E+02  0.90000010569E+02 0.  0.
        -12    1    1    2    0    0  0.11281436177E+01  0.34298788976E+00 -0.51415141107E-01  0.11802509188E+01  0.00000000000E+00 0.  1.
         11    1    3    3    0    0  0.36502056839E+02  0.77583545699E+01  0.75872382372E+01  0.38080945412E+02  0.51100000000E-03 0. -1.
        -11    1    3    3    0    0  0.36627299390E+01 -0.31069864387E+01 -0.91149484188E+01  0.10302972400E+02  0.51100000000E-03 0.  1.
        -12    1    3    3    0    0 -0.41292930396E+02 -0.49943560210E+01  0.15791253227E+01  0.41623831269E+02  0.00000000000E+00 0.  1.
</event>
<event>
 7    1  0.2429906E-015  0.9000814E+02  0.7816164E-02  0.1186338E+00
        -11   -1    0    0    0    0  0.00000000000E+00  0.00000000000E+00  0.45593999997E+02  0.45594000000E+02  0.51100000000E-03 0.  1.
         11   -1    0    0    0    0 -0.00000000000E+00 -0.00000000000E+00 -0.45593999997E+02  0.45594000000E+02  0.51100000000E-03 0. -1.
    9900012    2    1    2    0    0  0.10971795420E+01  0.22170087036E+00 -0.37297923631E+00  0.90008140799E+02  0.90000407457E+02 0.  0.
        -12    1    1    2    0    0 -0.10971795420E+01 -0.22170087036E+00  0.37297923631E+00  0.11798592009E+01  0.00000000000E+00 0.  1.
         11    1    3    3    0    0 -0.10881202404E+02 -0.37113622238E+02  0.36043178290E+01  0.38843437395E+02  0.51100000000E-03 0. -1.
        -11    1    3    3    0    0  0.95772413124E+01 -0.33546359479E+01  0.49189774617E+00  0.10159679973E+02  0.51100000000E-03 0.  1.
        -12    1    3    3    0    0  0.24011406334E+01  0.40689959056E+02 -0.44691948115E+01  0.41005023431E+02  0.00000000000E+00 0.  1.
</event>
<event>
 7    1  0.2429906E-015  0.9000784E+02  0.7816164E-02  0.1186339E+00
        -11   -1    0    0    0    0  0.00000000000E+00  0.00000000000E+00  0.45593999997E+02  0.45594000000E+02  0.51100000000E-03 0.  1.
         11   -1    0    0    0    0 -0.00000000000E+00 -0.00000000000E+00 -0.45593999997E+02  0.45594000000E+02  0.51100000000E-03 0. -1.
    9900012    2    1    2    0    0  0.69173372284E-01  0.11781205765E+01  0.45095837811E-02  0.90007841797E+02  0.90000104509E+02 0.  0.
        -12    1    1    2    0    0 -0.69173372284E-01 -0.11781205765E+01 -0.45095837811E-02  0.11801582032E+01  0.00000000000E+00 0.  1.
         11    1    3    3    0    0 -0.74737902325E+01  0.31780089051E+02 -0.21947448918E+02  0.39338557610E+02  0.51100000000E-03 0. -1.
        -11    1    3    3    0    0  0.49236771394E+01 -0.15386679993E+01 -0.75691849825E+01  0.91598393734E+01  0.51100000000E-03 0.  1.
        -12    1    3    3    0    0  0.26192864653E+01 -0.29063300476E+02  0.29521143484E+02  0.41509444814E+02  0.00000000000E+00 0.  1.
</event>
<event>
 7    1  0.2429906E-015  0.9000767E+02  0.7816164E-02  0.1186339E+00
        -11   -1    0    0    0    0  0.00000000000E+00  0.00000000000E+00  0.45593999997E+02  0.45594000000E+02  0.51100000000E-03 0. -1.
         11   -1    0    0    0    0 -0.00000000000E+00 -0.00000000000E+00 -0.45593999997E+02  0.45594000000E+02  0.51100000000E-03 0.  1.
    9900012    2    1    2    0    0  0.16440438619E+00 -0.43213551798E+00  0.10860063897E+01  0.90007669628E+02  0.89999930067E+02 0.  0.
        -12    1    1    2    0    0 -0.16440438619E+00  0.43213551798E+00 -0.10860063897E+01  0.11803303718E+01  0.00000000000E+00 0.  1.
         11    1    3    3    0    0  0.11028109466E+02 -0.35639772322E+02 -0.29580735741E+01  0.37424093430E+02  0.51100000000E-03 0. -1.
        -11    1    3    3    0    0 -0.35342483192E+01  0.53760407190E+00 -0.12841523805E+02  0.13329841080E+02  0.51100000000E-03 0.  1.
        -12    1    3    3    0    0 -0.73294567608E+01  0.34670032732E+02  0.16885603769E+02  0.39253735118E+02  0.00000000000E+00 0.  1.
</event>
<event>
 7    1  0.2429906E-015  0.9000697E+02  0.7816164E-02  0.1186341E+00
        -11   -1    0    0    0    0  0.00000000000E+00  0.00000000000E+00  0.45593999997E+02  0.45594000000E+02  0.51100000000E-03 0.  1.
         11   -1    0    0    0    0 -0.00000000000E+00 -0.00000000000E+00 -0.45593999997E+02  0.45594000000E+02  0.51100000000E-03 0. -1.
    9900012    2    1    2    0    0 -0.25437847492E+00  0.94783699899E+00 -0.65705291817E+00  0.90006974208E+02  0.89999225464E+02 0.  0.
        -12    1    1    2    0    0  0.25437847492E+00 -0.94783699899E+00  0.65705291817E+00  0.11810257924E+01  0.00000000000E+00 0.  1.
         11    1    3    3    0    0  0.32473688871E+01 -0.65586510331E+01 -0.27073435219E+01  0.78032696525E+01  0.51100000000E-03 0. -1.
        -11    1    3    3    0    0  0.17477935449E+02 -0.20142318764E+02  0.28151104197E+02  0.38777260096E+02  0.51100000000E-03 0.  1.
         12    1    3    3    0    0 -0.20979682812E+02  0.27648806796E+02 -0.26100813594E+02  0.43426444459E+02  0.00000000000E+00 0. -1.
</event>
<event>
 7    1  0.2429906E-015  0.9000777E+02  0.7816164E-02  0.1186339E+00
        -11   -1    0    0    0    0  0.00000000000E+00  0.00000000000E+00  0.45593999997E+02  0.45594000000E+02  0.51100000000E-03 0. -1.
         11   -1    0    0    0    0 -0.00000000000E+00 -0.00000000000E+00 -0.45593999997E+02  0.45594000000E+02  0.51100000000E-03 0.  1.
    9900012    2    1    2    0    0 -0.71602607522E+00 -0.93290299268E+00 -0.99760991519E-01  0.90007765451E+02  0.90000027155E+02 0.  0.
        -12    1    1    2    0    0  0.71602607522E+00  0.93290299268E+00  0.99760991519E-01  0.11802345485E+01  0.00000000000E+00 0.  1.
         11    1    3    3    0    0 -0.90013409745E+01  0.17660369930E+01 -0.56323811808E+01  0.10764141583E+02  0.51100000000E-03 0. -1.
        -11    1    3    3    0    0 -0.23612429693E+02  0.19297264768E+02 -0.16498275653E+02  0.34671665136E+02  0.51100000000E-03 0.  1.
         12    1    3    3    0    0  0.31897744592E+02 -0.21996204754E+02  0.22030895842E+02  0.44571958732E+02  0.00000000000E+00 0. -1.
</event>
<event>
 7    1  0.2429906E-015  0.9000872E+02  0.7816164E-02  0.1186337E+00
        -11   -1    0    0    0    0  0.00000000000E+00  0.00000000000E+00  0.45593999997E+02  0.45594000000E+02  0.51100000000E-03 0.  1.
         11   -1    0    0    0    0 -0.00000000000E+00 -0.00000000000E+00 -0.45593999997E+02  0.45594000000E+02  0.51100000000E-03 0. -1.
    9900012    2    1    2    0    0 -0.50349148458E+00 -0.66719233993E+00 -0.83189560168E+00  0.90008720735E+02  0.90000995043E+02 0.  0.
        -12    1    1    2    0    0  0.50349148458E+00  0.66719233993E+00  0.83189560168E+00  0.11792792653E+01  0.00000000000E+00 0.  1.
         11    1    3    3    0    0 -0.28888085368E+01  0.37666259797E+02  0.16833164072E+01  0.37814360979E+02  0.51100000000E-03 0. -1.
        -11    1    3    3    0    0  0.81242958676E+01  0.42407811487E+01 -0.55197084146E-01  0.91646852142E+01  0.51100000000E-03 0.  1.
        -12    1    3    3    0    0 -0.57389788154E+01 -0.42574233286E+02 -0.24600149247E+01  0.43029674541E+02  0.00000000000E+00 0.  1.
</event>
<event>
 7    1  0.2429906E-015  0.9000779E+02  0.7816164E-02  0.1186339E+00
        -11   -1    0    0    0    0  0.00000000000E+00  0.00000000000E+00  0.45593999997E+02  0.45594000000E+02  0.51100000000E-03 0. -1.
         11   -1    0    0    0    0 -0.00000000000E+00 -0.00000000000E+00 -0.45593999997E+02  0.45594000000E+02  0.51100000000E-03 0.  1.
    9900012    2    1    2    0    0 -0.70775483921E+00 -0.94294332200E+00  0.53360210175E-01  0.90007785472E+02  0.90000047440E+02 0.  0.
        -12    1    1    2    0    0  0.70775483921E+00  0.94294332200E+00 -0.53360210175E-01  0.11802145284E+01  0.00000000000E+00 0.  1.
         11    1    3    3    0    0  0.18393873708E-01  0.56194719269E+01  0.72725368825E+01  0.91906798465E+01  0.51100000000E-03 0. -1.
        -11    1    3    3    0    0  0.21368629547E+02  0.25397761377E+02 -0.21359359825E+02  0.39470075552E+02  0.51100000000E-03 0.  1.
         12    1    3    3    0    0 -0.22094778260E+02 -0.31960176625E+02  0.14140183153E+02  0.41347030073E+02  0.00000000000E+00 0. -1.
</event>
<event>
 7    1  0.2429906E-015  0.9000771E+02  0.7816164E-02  0.1186339E+00
        -11   -1    0    0    0    0  0.00000000000E+00  0.00000000000E+00  0.45593999997E+02  0.45594000000E+02  0.51100000000E-03 0. -1.
         11   -1    0    0    0    0 -0.00000000000E+00 -0.00000000000E+00 -0.45593999997E+02  0.45594000000E+02  0.51100000000E-03 0.  1.
    9900012    2    1    2    0    0 -0.41504732488E+00 -0.10108720745E+01 -0.44603527710E+00  0.90007714398E+02  0.89999975428E+02 0.  0.
        -12    1    1    2    0    0  0.41504732488E+00  0.10108720745E+01  0.44603527710E+00  0.11802856016E+01  0.00000000000E+00 0.  1.
         11    1    3    3    0    0 -0.20324221336E+02 -0.26020300020E+02 -0.18482583496E+02  0.37838285889E+02  0.51100000000E-03 0. -1.
        -11    1    3    3    0    0 -0.42248389915E+01 -0.59703323958E+01  0.94865004977E+01  0.11978640381E+02  0.51100000000E-03 0.  1.
        -12    1    3    3    0    0  0.24134013002E+02  0.30979760341E+02  0.85500477216E+01  0.40190788129E+02  0.00000000000E+00 0.  1.
</event>
<event>
 7    1  0.2429906E-015  0.9000793E+02  0.7816164E-02  0.1186339E+00
        -11   -1    0    0    0    0  0.00000000000E+00  0.00000000000E+00  0.45593999997E+02  0.45594000000E+02  0.51100000000E-03 0. -1.
         11   -1    0    0    0    0 -0.00000000000E+00 -0.00000000000E+00 -0.45593999997E+02  0.45594000000E+02  0.51100000000E-03 0.  1.
    9900012    2    1    2    0    0 -0.10347305692E+00 -0.76744900843E+00  0.89043604620E+00  0.90007931779E+02  0.90000195678E+02 0.  0.
        -12    1    1    2    0    0  0.10347305692E+00  0.76744900843E+00 -0.89043604620E+00  0.11800682211E+01  0.00000000000E+00 0.  1.
         11    1    3    3    0    0 -0.26116572836E+01  0.59853111995E+01 -0.76708449736E+01  0.10074054139E+02  0.51100000000E-03 0. -1.
        -11    1    3    3    0    0  0.70827156307E+01 -0.18303365330E+02 -0.31985420411E+02  0.37526592734E+02  0.51100000000E-03 0.  1.
         12    1    3    3    0    0 -0.45745314040E+01  0.11550605122E+02  0.40546701430E+02  0.42407284906E+02  0.00000000000E+00 0. -1.
</event>
<event>
 7    1  0.2429906E-015  0.9000774E+02  0.7816164E-02  0.1186339E+00
        -11   -1    0    0    0    0  0.00000000000E+00  0.00000000000E+00  0.45593999997E+02  0.45594000000E+02  0.51100000000E-03 0. -1.
         11   -1    0    0    0    0 -0.00000000000E+00 -0.00000000000E+00 -0.45593999997E+02  0.45594000000E+02  0.51100000000E-03 0.  1.
    9900012    2    1    2    0    0 -0.11776128531E+01  0.76564444527E-02  0.78599597560E-01  0.90007742168E+02  0.90000003565E+02 0.  0.
        -12    1    1    2    0    0  0.11776128531E+01 -0.76564444527E-02 -0.78599597560E-01  0.11802578318E+01  0.00000000000E+00 0.  1.
         11    1    3    3    0    0 -0.25376483977E+01  0.78388395987E+01  0.77077701797E+01  0.11282587782E+02  0.51100000000E-03 0. -1.
        -11    1    3    3    0    0 -0.11487827299E+02 -0.37237683127E+02 -0.20639233598E+02  0.44097541706E+02  0.51100000000E-03 0.  1.
         12    1    3    3    0    0  0.12847862844E+02  0.29406499973E+02  0.13010063016E+02  0.34627612681E+02  0.00000000000E+00 0. -1.
</event>
<event>
 7    1  0.2429906E-015  0.9000772E+02  0.7816164E-02  0.1186339E+00
        -11   -1    0    0    0    0  0.00000000000E+00  0.00000000000E+00  0.45593999997E+02  0.45594000000E+02  0.51100000000E-03 0. -1.
         11   -1    0    0    0    0 -0.00000000000E+00 -0.00000000000E+00 -0.45593999997E+02  0.45594000000E+02  0.51100000000E-03 0.  1.
    9900012    2    1    2    0    0  0.49138681256E+00  0.72255761579E+00  0.79341221095E+00  0.90007723149E+02  0.89999984295E+02 0.  0.
        -12    1    1    2    0    0 -0.49138681256E+00 -0.72255761579E+00 -0.79341221095E+00  0.11802768506E+01  0.00000000000E+00 0.  1.
         11    1    3    3    0    0  0.32995178445E+01  0.36266439942E+02 -0.30838326619E+01  0.36546566298E+02  0.51100000000E-03 0. -1.
        -11    1    3    3    0    0 -0.92074757645E+00  0.84056089320E+01 -0.29267692316E+01  0.89480733129E+01  0.51100000000E-03 0.  1.
        -12    1    3    3    0    0 -0.18873834555E+01 -0.43949491258E+02  0.68040141044E+01  0.44513083538E+02  0.00000000000E+00 0.  1.
</event>
<event>
 7    1  0.2429906E-015  0.9000749E+02  0.7816164E-02  0.1186340E+00
        -11   -1    0    0    0    0  0.00000000000E+00  0.00000000000E+00  0.45593999997E+02  0.45594000000E+02  0.51100000000E-03 0. -1.
         11   -1    0    0    0    0 -0.00000000000E+00 -0.00000000000E+00 -0.45593999997E+02  0.45594000000E+02  0.51100000000E-03 0.  1.
    9900012    2    1    2    0    0  0.59050319423E+00 -0.86205766078E+00  0.54934041774E+00  0.90007486414E+02  0.89999744434E+02 0.  0.
        -12    1    1    2    0    0 -0.59050319423E+00  0.86205766078E+00 -0.54934041774E+00  0.11805135863E+01  0.00000000000E+00 0.  1.
         11    1    3    3    0    0 -0.17305401413E+02 -0.11894429233E+02  0.28217291686E+02  0.35173426265E+02  0.51100000000E-03 0. -1.
        -11    1    3    3    0    0 -0.11607966772E+02 -0.11554734627E+01  0.12873226291E+01  0.11736149765E+02  0.51100000000E-03 0.  1.
        -12    1    3    3    0    0  0.29503871380E+02  0.12187845035E+02 -0.28955273897E+02  0.43097910384E+02  0.00000000000E+00 0.  1.
</event>
<event>
 7    1  0.2429906E-015  0.9000776E+02  0.7816164E-02  0.1186339E+00
        -11   -1    0    0    0    0  0.00000000000E+00  0.00000000000E+00  0.45593999997E+02  0.45594000000E+02  0.51100000000E-03 0.  1.
         11   -1    0    0    0    0 -0.00000000000E+00 -0.00000000000E+00 -0.45593999997E+02  0.45594000000E+02  0.51100000000E-03 0. -1.
    9900012    2    1    2    0    0 -0.18010437751E+00  0.87963572595E+00 -0.76600856036E+00  0.90007760316E+02  0.90000021952E+02 0.  0.
        -12    1    1    2    0    0  0.18010437751E+00 -0.87963572595E+00  0.76600856036E+00  0.11802396840E+01  0.00000000000E+00 0.  1.
         11    1    3    3    0    0 -0.23112997548E+02 -0.18652986815E+01 -0.29411752313E+02  0.37453186369E+02  0.51100000000E-03 0. -1.
        -11    1    3    3    0    0 -0.93789611490E+01  0.55543129984E+01  0.32901874803E+01  0.11385984324E+02  0.51100000000E-03 0.  1.
        -12    1    3    3    0    0  0.32311854319E+02 -0.28093785909E+01  0.25355556273E+02  0.41168589622E+02  0.00000000000E+00 0.  1.
</event>
<event>
 7    1  0.2429906E-015  0.9000778E+02  0.7816164E-02  0.1186339E+00
        -11   -1    0    0    0    0  0.00000000000E+00  0.00000000000E+00  0.45593999997E+02  0.45594000000E+02  0.51100000000E-03 0.  1.
         11   -1    0    0    0    0 -0.00000000000E+00 -0.00000000000E+00 -0.45593999997E+02  0.45594000000E+02  0.51100000000E-03 0. -1.
    9900012    2    1    2    0    0  0.70593901377E+00  0.88511594946E+00 -0.33337148602E+00  0.90007781087E+02  0.90000042997E+02 0.  0.
        -12    1    1    2    0    0 -0.70593901377E+00 -0.88511594946E+00  0.33337148602E+00  0.11802189131E+01  0.00000000000E+00 0.  1.
         11    1    3    3    0    0 -0.15818890806E+02 -0.12700983284E+02 -0.28787353197E+02  0.35217381888E+02  0.51100000000E-03 0. -1.
        -11    1    3    3    0    0 -0.33099381349E+01  0.71403554145E+00 -0.94932745810E+01  0.10079077326E+02  0.51100000000E-03 0.  1.
        -12    1    3    3    0    0  0.19834767954E+02  0.12872063692E+02  0.37947256292E+02  0.44711321873E+02  0.00000000000E+00 0.  1.
</event>
<event>
 7    1  0.2429906E-015  0.9000779E+02  0.7816164E-02  0.1186339E+00
        -11   -1    0    0    0    0  0.00000000000E+00  0.00000000000E+00  0.45593999997E+02  0.45594000000E+02  0.51100000000E-03 0.  1.
         11   -1    0    0    0    0 -0.00000000000E+00 -0.00000000000E+00 -0.45593999997E+02  0.45594000000E+02  0.51100000000E-03 0. -1.
    9900012    2    1    2    0    0 -0.44204196416E+00  0.88979193491E-01 -0.10906800616E+01  0.90007787565E+02  0.90000049561E+02 0.  0.
        -12    1    1    2    0    0  0.44204196416E+00 -0.88979193491E-01  0.10906800616E+01  0.11802124350E+01  0.00000000000E+00 0.  1.
         11    1    3    3    0    0 -0.12588107520E+01 -0.20481193070E+02 -0.28256340177E+02  0.34921120178E+02  0.51100000000E-03 0. -1.
        -11    1    3    3    0    0  0.28856021328E+01 -0.50538865004E+01 -0.89985047009E+01  0.10716415237E+02  0.51100000000E-03 0.  1.
        -12    1    3    3    0    0 -0.20688333450E+01  0.25624058763E+02  0.36164164816E+02  0.44370252149E+02  0.00000000000E+00 0.  1.
</event>
<event>
 7    1  0.2429906E-015  0.9000777E+02  0.7816164E-02  0.1186339E+00
        -11   -1    0    0    0    0  0.00000000000E+00  0.00000000000E+00  0.45593999997E+02  0.45594000000E+02  0.51100000000E-03 0. -1.
         11   -1    0    0    0    0 -0.00000000000E+00 -0.00000000000E+00 -0.45593999997E+02  0.45594000000E+02  0.51100000000E-03 0.  1.
    9900012    2    1    2    0    0  0.10944459468E+00  0.32860727893E-01  0.11746890722E+01  0.90007765971E+02  0.90000027682E+02 0.  0.
        -12    1    1    2    0    0 -0.10944459468E+00 -0.32860727893E-01 -0.11746890722E+01  0.11802340289E+01  0.00000000000E+00 0.  1.
         11    1    3    3    0    0  0.19279004381E+01 -0.70687307604E+01  0.67403817336E+01  0.99557270371E+01  0.51100000000E-03 0. -1.
        -11    1    3    3    0    0 -0.10184041561E+02 -0.33339615762E+02 -0.14572931370E+02  0.37783792963E+02  0.51100000000E-03 0.  1.
         12    1    3    3    0    0  0.83655857179E+01  0.40441207251E+02  0.90072387090E+01  0.42268245971E+02  0.00000000000E+00 0. -1.
</event>
<event>
 7    1  0.2429906E-015  0.9000777E+02  0.7816164E-02  0.1186339E+00
        -11   -1    0    0    0    0  0.00000000000E+00  0.00000000000E+00  0.45593999997E+02  0.45594000000E+02  0.51100000000E-03 0. -1.
         11   -1    0    0    0    0 -0.00000000000E+00 -0.00000000000E+00 -0.45593999997E+02  0.45594000000E+02  0.51100000000E-03 0.  1.
    9900012    2    1    2    0    0 -0.11459634897E+01  0.29165348851E-01  0.28083460155E+00  0.90007766544E+02  0.90000028262E+02 0.  0.
        -12    1    1    2    0    0  0.11459634897E+01 -0.29165348851E-01 -0.28083460155E+00  0.11802334560E+01  0.00000000000E+00 0.  1.
         11    1    3    3    0    0  0.18623536516E+01  0.54324686658E+01  0.88343902318E+01  0.10536912639E+02  0.51100000000E-03 0. -1.
        -11    1    3    3    0    0 -0.76182409886E+01  0.16282784143E+02 -0.38336361234E+02  0.42341979739E+02  0.51100000000E-03 0.  1.
         12    1    3    3    0    0  0.46099238473E+01 -0.21686087460E+02  0.29782805604E+02  0.37128874167E+02  0.00000000000E+00 0. -1.
</event>
<event>
 7    1  0.2429906E-015  0.9000768E+02  0.7816164E-02  0.1186339E+00
        -11   -1    0    0    0    0  0.00000000000E+00  0.00000000000E+00  0.45593999997E+02  0.45594000000E+02  0.51100000000E-03 0.  1.
         11   -1    0    0    0    0 -0.00000000000E+00 -0.00000000000E+00 -0.45593999997E+02  0.45594000000E+02  0.51100000000E-03 0. -1.
    9900012    2    1    2    0    0  0.32656749565E+00 -0.72000493916E+00 -0.87640914809E+00  0.90007683756E+02  0.89999944381E+02 0.  0.
        -12    1    1    2    0    0 -0.32656749565E+00  0.72000493916E+00  0.87640914809E+00  0.11803162443E+01  0.00000000000E+00 0.  1.
         11    1    3    3    0    0  0.14214373475E+02  0.36548220869E+02  0.11748345442E+02  0.40937079560E+02  0.51100000000E-03 0. -1.
        -11    1    3    3    0    0  0.30208959049E+01 -0.25501125767E-01 -0.72036987959E+01  0.78115132323E+01  0.51100000000E-03 0.  1.
        -12    1    3    3    0    0 -0.16908701885E+02 -0.37242724683E+02 -0.54210557941E+01  0.41259090964E+02  0.00000000000E+00 0.  1.
</event>
<event>
 7    1  0.2429906E-015  0.9000808E+02  0.7816164E-02  0.1186338E+00
        -11   -1    0    0    0    0  0.00000000000E+00  0.00000000000E+00  0.45593999997E+02  0.45594000000E+02  0.51100000000E-03 0.  1.
         11   -1    0    0    0    0 -0.00000000000E+00 -0.00000000000E+00 -0.45593999997E+02  0.45594000000E+02  0.51100000000E-03 0. -1.
    9900012    2    1    2    0    0  0.72239494042E+00  0.74686355937E+00  0.55906365521E+00  0.90008079750E+02  0.90000345602E+02 0.  0.
        -12    1    1    2    0    0 -0.72239494042E+00 -0.74686355937E+00 -0.55906365521E+00  0.11799202502E+01  0.00000000000E+00 0.  1.
         11    1    3    3    0    0  0.13655476082E+02 -0.14276351720E+02 -0.33335317210E+02  0.38749575730E+02  0.51100000000E-03 0. -1.
        -11    1    3    3    0    0 -0.69069389969E+01  0.18648273150E+01 -0.56709632361E+01  0.91292503256E+01  0.51100000000E-03 0.  1.
        -12    1    3    3    0    0 -0.60261421448E+01  0.13158387964E+02  0.39565344102E+02  0.42129253694E+02  0.00000000000E+00 0.  1.
</event>
<event>
 7    1  0.2429906E-015  0.9000776E+02  0.7816164E-02  0.1186339E+00
        -11   -1    0    0    0    0  0.00000000000E+00  0.00000000000E+00  0.45593999997E+02  0.45594000000E+02  0.51100000000E-03 0.  1.
         11   -1    0    0    0    0 -0.00000000000E+00 -0.00000000000E+00 -0.45593999997E+02  0.45594000000E+02  0.51100000000E-03 0. -1.
    9900012    2    1    2    0    0 -0.59048245276E+00 -0.92794933925E+00 -0.42803839508E+00  0.90007755800E+02  0.90000017377E+02 0.  0.
        -12    1    1    2    0    0  0.59048245276E+00  0.92794933925E+00  0.42803839508E+00  0.11802441997E+01  0.00000000000E+00 0.  1.
         11    1    3    3    0    0 -0.19191010162E+01 -0.25667139768E+01 -0.87207727993E+01  0.92910089779E+01  0.51100000000E-03 0. -1.
        -11    1    3    3    0    0 -0.63719455196E+01  0.39442889485E+02  0.12606451589E+02  0.41895892908E+02  0.51100000000E-03 0.  1.
         12    1    3    3    0    0  0.77005640830E+01 -0.37804124848E+02 -0.43137171845E+01  0.38820853914E+02  0.00000000000E+00 0. -1.
</event>
<event>
 7    1  0.2429906E-015  0.9000782E+02  0.7816164E-02  0.1186339E+00
        -11   -1    0    0    0    0  0.00000000000E+00  0.00000000000E+00  0.45593999997E+02  0.45594000000E+02  0.51100000000E-03 0. -1.
         11   -1    0    0    0    0 -0.00000000000E+00 -0.00000000000E+00 -0.45593999997E+02  0.45594000000E+02  0.51100000000E-03 0.  1.
    9900012    2    1    2    0    0 -0.93361131080E+00  0.44226387267E+00  0.57060259358E+00  0.90007824279E+02  0.90000086759E+02 0.  0.
        -12    1    1    2    0    0  0.93361131080E+00 -0.44226387267E+00 -0.57060259358E+00  0.11801757210E+01  0.00000000000E+00 0.  1.
         11    1    3    3    0    0 -0.41113112016E+02 -0.43539533928E+01  0.11279877886E+02  0.42854177570E+02  0.51100000000E-03 0. -1.
        -11    1    3    3    0    0 -0.12403443590E+01  0.41693738368E+01 -0.21572380709E+01  0.48554926295E+01  0.51100000000E-03 0.  1.
        -12    1    3    3    0    0  0.41419845065E+02  0.62684342866E+00 -0.85520372219E+01  0.42298154079E+02  0.00000000000E+00 0.  1.
</event>
<event>
 7    1  0.2429906E-015  0.9000746E+02  0.7816164E-02  0.1186340E+00
        -11   -1    0    0    0    0  0.00000000000E+00  0.00000000000E+00  0.45593999997E+02  0.45594000000E+02  0.51100000000E-03 0.  1.
         11   -1    0    0    0    0 -0.00000000000E+00 -0.00000000000E+00 -0.45593999997E+02  0.45594000000E+02  0.51100000000E-03 0. -1.
    9900012    2    1    2    0    0 -0.36913383572E+00 -0.93778224420E+00  0.61479679195E+00  0.90007461808E+02  0.89999719504E+02 0.  0.
        -12    1    1    2    0    0  0.36913383572E+00  0.93778224420E+00 -0.61479679195E+00  0.11805381915E+01  0.00000000000E+00 0.  1.
         11    1    3    3    0    0  0.27924656994E+02 -0.22620621905E+02  0.11175476547E+02  0.37634695162E+02  0.51100000000E-03 0. -1.
        -11    1    3    3    0    0  0.14638400089E+01 -0.48105461741E+01 -0.11465972802E+02  0.12520092436E+02  0.51100000000E-03 0.  1.
        -12    1    3    3    0    0 -0.29757630839E+02  0.26493385835E+02  0.90529304651E+00  0.39852674210E+02  0.00000000000E+00 0.  1.
</event>
<event>
 7    1  0.2429906E-015  0.9000754E+02  0.7816164E-02  0.1186339E+00
        -11   -1    0    0    0    0  0.00000000000E+00  0.00000000000E+00  0.45593999997E+02  0.45594000000E+02  0.51100000000E-03 0.  1.
         11   -1    0    0    0    0 -0.00000000000E+00 -0.00000000000E+00 -0.45593999997E+02  0.45594000000E+02  0.51100000000E-03 0. -1.
    9900012    2    1    2    0    0  0.34184037529E+00  0.22761285650E+00 -0.11067206645E+01  0.90007536920E+02  0.89999795607E+02 0.  0.
        -12    1    1    2    0    0 -0.34184037529E+00 -0.22761285650E+00  0.11067206645E+01  0.11804630803E+01  0.00000000000E+00 0.  1.
         11    1    3    3    0    0  0.30306645843E+01 -0.43895727736E+01  0.78677142664E+01  0.95054828912E+01  0.51100000000E-03 0. -1.
        -11    1    3    3    0    0  0.74648421405E+01  0.12981463783E+02  0.33147822993E+02  0.36373347929E+02  0.51100000000E-03 0.  1.
         12    1    3    3    0    0 -0.10153666350E+02 -0.83642781530E+01 -0.42122257924E+02  0.44128706099E+02  0.00000000000E+00 0. -1.
</event>
<event>
 7    1  0.2429906E-015  0.9000764E+02  0.7816164E-02  0.1186339E+00
        -11   -1    0    0    0    0  0.00000000000E+00  0.00000000000E+00  0.45593999997E+02  0.45594000000E+02  0.51100000000E-03 0. -1.
         11   -1    0    0    0    0 -0.00000000000E+00 -0.00000000000E+00 -0.45593999997E+02  0.45594000000E+02  0.51100000000E-03 0.  1.
    9900012    2    1    2    0    0 -0.11169447188E+01  0.38167363663E+00 -0.14943962607E-02  0.90007643061E+02  0.89999903150E+02 0.  0.
        -12    1    1    2    0    0  0.11169447188E+01 -0.38167363663E+00  0.14943962607E-02  0.11803569388E+01  0.00000000000E+00 0.  1.
         11    1    3    3    0    0  0.76140915920E-01  0.65423797037E+00 -0.98564401903E+01  0.98784228623E+01  0.51100000000E-03 0. -1.
        -11    1    3    3    0    0 -0.35378746535E+02  0.14374008694E+02 -0.77754666110E+01  0.38970831574E+02  0.51100000000E-03 0.  1.
         12    1    3    3    0    0  0.34185660900E+02 -0.14646573028E+02  0.17630412405E+02  0.41158388625E+02  0.00000000000E+00 0. -1.
</event>
<event>
 7    1  0.2429906E-015  0.9000772E+02  0.7816164E-02  0.1186339E+00
        -11   -1    0    0    0    0  0.00000000000E+00  0.00000000000E+00  0.45593999997E+02  0.45594000000E+02  0.51100000000E-03 0.  1.
         11   -1    0    0    0    0 -0.00000000000E+00 -0.00000000000E+00 -0.45593999997E+02  0.45594000000E+02  0.51100000000E-03 0. -1.
    9900012    2    1    2    0    0  0.82646799389E+00  0.99293372033E-01 -0.83675005746E+00  0.90007720721E+02  0.89999981834E+02 0.  0.
        -12    1    1    2    0    0 -0.82646799389E+00 -0.99293372033E-01  0.83675005746E+00  0.11802792794E+01  0.00000000000E+00 0.  1.
         11    1    3    3    0    0 -0.12307421379E+02  0.20666013216E+01  0.23728424354E+01  0.12703300497E+02  0.51100000000E-03 0. -1.
        -11    1    3    3    0    0 -0.90008474198E+01 -0.34279558357E+02  0.84580173189E+01  0.36436814250E+02  0.51100000000E-03 0.  1.
         12    1    3    3    0    0  0.22134736793E+02  0.32312250408E+02 -0.11667609812E+02  0.40867605974E+02  0.00000000000E+00 0. -1.
</event>
<event>
 7    1  0.2429906E-015  0.9000777E+02  0.7816164E-02  0.1186339E+00
        -11   -1    0    0    0    0  0.00000000000E+00  0.00000000000E+00  0.45593999997E+02  0.45594000000E+02  0.51100000000E-03 0. -1.
         11   -1    0    0    0    0 -0.00000000000E+00 -0.00000000000E+00 -0.45593999997E+02  0.45594000000E+02  0.51100000000E-03 0.  1.
    9900012    2    1    2    0    0  0.53652863690E+00 -0.33345816569E+00 -0.99693271026E+00  0.90007774532E+02  0.90000036356E+02 0.  0.
        -12    1    1    2    0    0 -0.53652863690E+00  0.33345816569E+00  0.99693271026E+00  0.11802254680E+01  0.00000000000E+00 0.  1.
         11    1    3    3    0    0 -0.43650381339E+01 -0.95966476658E+01  0.31033222635E+01  0.10989986973E+02  0.51100000000E-03 0. -1.
        -11    1    3    3    0    0 -0.29340062622E+02 -0.15395799997E+02 -0.13513662975E+02  0.35783921242E+02  0.51100000000E-03 0.  1.
         12    1    3    3    0    0  0.34241629393E+02  0.24658989497E+02  0.94134080016E+01  0.43233866317E+02  0.00000000000E+00 0. -1.
</event>
<event>
 7    1  0.2429906E-015  0.9000777E+02  0.7816164E-02  0.1186339E+00
        -11   -1    0    0    0    0  0.00000000000E+00  0.00000000000E+00  0.45593999997E+02  0.45594000000E+02  0.51100000000E-03 0. -1.
         11   -1    0    0    0    0 -0.00000000000E+00 -0.00000000000E+00 -0.45593999997E+02  0.45594000000E+02  0.51100000000E-03 0.  1.
    9900012    2    1    2    0    0  0.10687870281E+01 -0.33364905384E+00 -0.37323908141E+00  0.90007773405E+02  0.90000035214E+02 0.  0.
        -12    1    1    2    0    0 -0.10687870281E+01  0.33364905384E+00  0.37323908141E+00  0.11802265945E+01  0.00000000000E+00 0.  1.
         11    1    3    3    0    0 -0.71848080671E+01  0.65890662012E+01  0.54131015932E+01  0.11150736724E+02  0.51100000000E-03 0. -1.
        -11    1    3    3    0    0 -0.24585501588E+02 -0.71315587641E+01 -0.28969058572E+02  0.38658923595E+02  0.51100000000E-03 0.  1.
         12    1    3    3    0    0  0.32839096683E+02  0.20884350905E+00  0.23182717897E+02  0.40198113086E+02  0.00000000000E+00 0. -1.
</event>
<event>
 7    1  0.2429906E-015  0.9000774E+02  0.7816164E-02  0.1186339E+00
        -11   -1    0    0    0    0  0.00000000000E+00  0.00000000000E+00  0.45593999997E+02  0.45594000000E+02  0.51100000000E-03 0.  1.
         11   -1    0    0    0    0 -0.00000000000E+00 -0.00000000000E+00 -0.45593999997E+02  0.45594000000E+02  0.51100000000E-03 0. -1.
    9900012    2    1    2    0    0  0.92011498864E+00  0.27758292654E+00 -0.68509775013E+00  0.90007736131E+02  0.89999997448E+02 0.  0.
        -12    1    1    2    0    0 -0.92011498864E+00 -0.27758292654E+00  0.68509775013E+00  0.11802638691E+01  0.00000000000E+00 0.  1.
         11    1    3    3    0    0 -0.16836249641E+02  0.34249471058E+01 -0.32306746897E+02  0.36591193749E+02  0.51100000000E-03 0. -1.
        -11    1    3    3    0    0 -0.71246947201E+01 -0.10555239117E+01 -0.52311429442E+01  0.89016999695E+01  0.51100000000E-03 0.  1.
        -12    1    3    3    0    0  0.24881059350E+02 -0.20918402675E+01  0.36852792091E+02  0.44514842412E+02  0.00000000000E+00 0.  1.
</event>
<event>
 7    1  0.2429906E-015  0.9000776E+02  0.7816164E-02  0.1186339E+00
        -11   -1    0    0    0    0  0.00000000000E+00  0.00000000000E+00  0.45593999997E+02  0.45594000000E+02  0.51100000000E-03 0. -1.
         11   -1    0    0    0    0 -0.00000000000E+00 -0.00000000000E+00 -0.45593999997E+02  0.45594000000E+02  0.51100000000E-03 0.  1.
    9900012    2    1    2    0    0  0.65084713858E+00 -0.19946750112E+00  0.96414257789E+00  0.90007762654E+02  0.90000024321E+02 0.  0.
        -12    1    1    2    0    0 -0.65084713858E+00  0.19946750112E+00 -0.96414257789E+00  0.11802373457E+01  0.00000000000E+00 0.  1.
         11    1    3    3    0    0 -0.62252367861E+01  0.49972076617E+01 -0.42542613324E+01  0.90456838991E+01  0.51100000000E-03 0. -1.
        -11    1    3    3    0    0 -0.35450643299E+02  0.77253719137E+01  0.55555566339E+01  0.36705499469E+02  0.51100000000E-03 0.  1.
         12    1    3    3    0    0  0.42326727224E+02 -0.12922047076E+02 -0.33715272359E+00  0.44256579286E+02  0.00000000000E+00 0. -1.
</event>
<event>
 7    1  0.2429906E-015  0.9000778E+02  0.7816164E-02  0.1186339E+00
        -11   -1    0    0    0    0  0.00000000000E+00  0.00000000000E+00  0.45593999997E+02  0.45594000000E+02  0.51100000000E-03 0. -1.
         11   -1    0    0    0    0 -0.00000000000E+00 -0.00000000000E+00 -0.45593999997E+02  0.45594000000E+02  0.51100000000E-03 0.  1.
    9900012    2    1    2    0    0 -0.38086493451E+00  0.11809372890E+00  0.11108149925E+01  0.90007782149E+02  0.90000044074E+02 0.  0.
        -12    1    1    2    0    0  0.38086493451E+00 -0.11809372890E+00 -0.11108149925E+01  0.11802178506E+01  0.00000000000E+00 0.  1.
         11    1    3    3    0    0  0.50401618883E+01 -0.93166020593E+01 -0.79944764959E+00  0.10622684340E+02  0.51100000000E-03 0. -1.
        -11    1    3    3    0    0  0.28857567389E+02 -0.60725923283E+01 -0.20201415052E+02  0.35745387724E+02  0.51100000000E-03 0.  1.
         12    1    3    3    0    0 -0.34278594211E+02  0.15507288117E+02  0.22111677694E+02  0.43639710085E+02  0.00000000000E+00 0. -1.
</event>
<event>
 7    1  0.2429906E-015  0.9000777E+02  0.7816164E-02  0.1186339E+00
        -11   -1    0    0    0    0  0.00000000000E+00  0.00000000000E+00  0.45593999997E+02  0.45594000000E+02  0.51100000000E-03 0.  1.
         11   -1    0    0    0    0 -0.00000000000E+00 -0.00000000000E+00 -0.45593999997E+02  0.45594000000E+02  0.51100000000E-03 0. -1.
    9900012    2    1    2    0    0 -0.64706002168E+00 -0.93425454974E+00 -0.31846195100E+00  0.90007772797E+02  0.90000034598E+02 0.  0.
        -12    1    1    2    0    0  0.64706002168E+00  0.93425454974E+00  0.31846195100E+00  0.11802272025E+01  0.00000000000E+00 0.  1.
         11    1    3    3    0    0  0.15732758839E+02 -0.31338857489E+02  0.12719648744E+02  0.37301918903E+02  0.51100000000E-03 0. -1.
        -11    1    3    3    0    0  0.64495751520E+01 -0.51375667359E+01 -0.51826642189E+01  0.97391796510E+01  0.51100000000E-03 0.  1.
        -12    1    3    3    0    0 -0.22829394012E+02  0.35542169675E+02 -0.78554464764E+01  0.42966674244E+02  0.00000000000E+00 0.  1.
</event>
<event>
 7    1  0.2429906E-015  0.9000770E+02  0.7816164E-02  0.1186339E+00
        -11   -1    0    0    0    0  0.00000000000E+00  0.00000000000E+00  0.45593999997E+02  0.45594000000E+02  0.51100000000E-03 0. -1.
         11   -1    0    0    0    0 -0.00000000000E+00 -0.00000000000E+00 -0.45593999997E+02  0.45594000000E+02  0.51100000000E-03 0.  1.
    9900012    2    1    2    0    0  0.93497992222E+00  0.69672453045E+00 -0.18299764364E+00  0.90007703146E+02  0.89999964027E+02 0.  0.
        -12    1    1    2    0    0 -0.93497992222E+00 -0.69672453045E+00  0.18299764364E+00  0.11802968541E+01  0.00000000000E+00 0.  1.
         11    1    3    3    0    0 -0.53719425372E+01 -0.28483165999E+00  0.66716406252E+01  0.85702791431E+01  0.51100000000E-03 0. -1.
        -11    1    3    3    0    0  0.21121268366E+02 -0.22564497161E+02 -0.31602491037E+02  0.44203868039E+02  0.51100000000E-03 0.  1.
         12    1    3    3    0    0 -0.14814345907E+02  0.23546053352E+02  0.24747852768E+02  0.37233555964E+02  0.00000000000E+00 0. -1.
</event>
<event>
 7    1  0.2429906E-015  0.9000771E+02  0.7816164E-02  0.1186339E+00
        -11   -1    0    0    0    0  0.00000000000E+00  0.00000000000E+00  0.45593999997E+02  0.45594000000E+02  0.51100000000E-03 0. -1.
         11   -1    0    0    0    0 -0.00000000000E+00 -0.00000000000E+00 -0.45593999997E+02  0.45594000000E+02  0.51100000000E-03 0.  1.
    9900012    2    1    2    0    0  0.10665130581E+01 -0.40645632125E+00 -0.30070810267E+00  0.90007710965E+02  0.89999971949E+02 0.  0.
        -12    1    1    2    0    0 -0.10665130581E+01  0.40645632125E+00  0.30070810267E+00  0.11802890354E+01  0.00000000000E+00 0.  1.
         11    1    3    3    0    0  0.56090454131E+01 -0.45622967609E+01  0.46166146630E+01  0.85784073923E+01  0.51100000000E-03 0. -1.
        -11    1    3    3    0    0 -0.36445361750E+01 -0.32557006642E+02 -0.23455718451E+02  0.40291587878E+02  0.51100000000E-03 0.  1.
         12    1    3    3    0    0 -0.89799618000E+00  0.36712847082E+02  0.18538395685E+02  0.41137715694E+02  0.00000000000E+00 0. -1.
</event>
<event>
 7    1  0.2429906E-015  0.9000773E+02  0.7816164E-02  0.1186339E+00
        -11   -1    0    0    0    0  0.00000000000E+00  0.00000000000E+00  0.45593999997E+02  0.45594000000E+02  0.51100000000E-03 0. -1.
         11   -1    0    0    0    0 -0.00000000000E+00 -0.00000000000E+00 -0.45593999997E+02  0.45594000000E+02  0.51100000000E-03 0.  1.
    9900012    2    1    2    0    0 -0.73725512753E+00 -0.38814556114E+00  0.83596029003E+00  0.90007732358E+02  0.89999993625E+02 0.  0.
        -12    1    1    2    0    0  0.73725512753E+00  0.38814556114E+00 -0.83596029003E+00  0.11802676418E+01  0.00000000000E+00 0.  1.
         11    1    3    3    0    0 -0.22171338569E+01 -0.81295976936E+01 -0.65368663942E+01  0.10664739271E+02  0.51100000000E-03 0. -1.
        -11    1    3    3    0    0 -0.23277148841E+02 -0.89418306023E+01 -0.24997480854E+02  0.35308016682E+02  0.51100000000E-03 0.  1.
         12    1    3    3    0    0  0.24757027571E+02  0.16683282735E+02  0.32370307538E+02  0.44034976406E+02  0.00000000000E+00 0. -1.
</event>
<event>
 7    1  0.2429906E-015  0.9000729E+02  0.7816164E-02  0.1186340E+00
        -11   -1    0    0    0    0  0.00000000000E+00  0.00000000000E+00  0.45593999997E+02  0.45594000000E+02  0.51100000000E-03 0. -1.
         11   -1    0    0    0    0 -0.00000000000E+00 -0.00000000000E+00 -0.45593999997E+02  0.45594000000E+02  0.51100000000E-03 0.  1.
    9900012    2    1    2    0    0 -0.37356835077E+00  0.10154759117E+01  0.47259190334E+00  0.90007285070E+02  0.89999540431E+02 0.  0.
        -12    1    1    2    0    0  0.37356835077E+00 -0.10154759117E+01 -0.47259190334E+00  0.11807149305E+01  0.00000000000E+00 0.  1.
         11    1    3    3    0    0 -0.42978003182E+01 -0.49423108577E+01 -0.16165610454E+01  0.67461688434E+01  0.51100000000E-03 0. -1.
        -11    1    3    3    0    0 -0.29770307456E+02  0.11961314958E+02 -0.24132037844E+02  0.40145977536E+02  0.51100000000E-03 0.  1.
         12    1    3    3    0    0  0.33694539423E+02 -0.60035281890E+01  0.26221190793E+02  0.43115138690E+02  0.00000000000E+00 0. -1.
</event>
<event>
 7    1  0.2429906E-015  0.9000787E+02  0.7816164E-02  0.1186339E+00
        -11   -1    0    0    0    0  0.00000000000E+00  0.00000000000E+00  0.45593999997E+02  0.45594000000E+02  0.51100000000E-03 0. -1.
         11   -1    0    0    0    0 -0.00000000000E+00 -0.00000000000E+00 -0.45593999997E+02  0.45594000000E+02  0.51100000000E-03 0.  1.
    9900012    2    1    2    0    0  0.44571772614E+00  0.86362855962E+00  0.66947515853E+00  0.90007866292E+02  0.90000129327E+02 0.  0.
        -12    1    1    2    0    0 -0.44571772614E+00 -0.86362855962E+00 -0.66947515853E+00  0.11801337078E+01  0.00000000000E+00 0.  1.
         11    1    3    3    0    0  0.93871691422E+01 -0.43536565748E+01  0.42195904681E+01  0.11174892127E+02  0.51100000000E-03 0. -1.
        -11    1    3    3    0    0 -0.39918875157E+02 -0.12508185937E+02 -0.88296845303E+01  0.42754352275E+02  0.51100000000E-03 0.  1.
         12    1    3    3    0    0  0.30977423741E+02  0.17725471072E+02  0.52795692207E+01  0.36078621890E+02  0.00000000000E+00 0. -1.
</event>
<event>
 7    1  0.2429906E-015  0.9000773E+02  0.7816164E-02  0.1186339E+00
        -11   -1    0    0    0    0  0.00000000000E+00  0.00000000000E+00  0.45593999997E+02  0.45594000000E+02  0.51100000000E-03 0.  1.
         11   -1    0    0    0    0 -0.00000000000E+00 -0.00000000000E+00 -0.45593999997E+02  0.45594000000E+02  0.51100000000E-03 0. -1.
    9900012    2    1    2    0    0  0.86378338350E+00 -0.75577265754E+00  0.27519916794E+00  0.90007725191E+02  0.89999986363E+02 0.  0.
        -12    1    1    2    0    0 -0.86378338350E+00  0.75577265754E+00 -0.27519916794E+00  0.11802748093E+01  0.00000000000E+00 0.  1.
         11    1    3    3    0    0  0.10489801317E+02  0.18757598481E+02 -0.20429020932E+02  0.29651784583E+02  0.51100000000E-03 0. -1.
        -11    1    3    3    0    0  0.50066676479E+01  0.10563466520E+02 -0.96729099711E+01  0.15172960602E+02  0.51100000000E-03 0.  1.
        -12    1    3    3    0    0 -0.14632685582E+02 -0.30076837658E+02  0.30377130071E+02  0.45182980006E+02  0.00000000000E+00 0.  1.
</event>
<event>
 7    1  0.2429906E-015  0.9000777E+02  0.7816164E-02  0.1186339E+00
        -11   -1    0    0    0    0  0.00000000000E+00  0.00000000000E+00  0.45593999997E+02  0.45594000000E+02  0.51100000000E-03 0.  1.
         11   -1    0    0    0    0 -0.00000000000E+00 -0.00000000000E+00 -0.45593999997E+02  0.45594000000E+02  0.51100000000E-03 0. -1.
    9900012    2    1    2    0    0 -0.10870378306E+01  0.34702682762E+00 -0.30142761037E+00  0.90007772281E+02  0.90000034075E+02 0.  0.
        -12    1    1    2    0    0  0.10870378306E+01 -0.34702682762E+00  0.30142761037E+00  0.11802277190E+01  0.00000000000E+00 0.  1.
         11    1    3    3    0    0  0.69337593734E+01  0.52871938821E+01  0.39539798820E+01  0.95742046857E+01  0.51100000000E-03 0. -1.
        -11    1    3    3    0    0  0.16560276109E+02 -0.29752260174E+02  0.18496544678E+02  0.38749992200E+02  0.51100000000E-03 0.  1.
         12    1    3    3    0    0 -0.24581073313E+02  0.24812093119E+02 -0.22751952170E+02  0.41683575395E+02  0.00000000000E+00 0. -1.
</event>
<event>
 7    1  0.2429906E-015  0.9000689E+02  0.7816164E-02  0.1186341E+00
        -11   -1    0    0    0    0  0.00000000000E+00  0.00000000000E+00  0.45593999997E+02  0.45594000000E+02  0.51100000000E-03 0. -1.
         11   -1    0    0    0    0 -0.00000000000E+00 -0.00000000000E+00 -0.45593999997E+02  0.45594000000E+02  0.51100000000E-03 0.  1.
    9900012    2    1    2    0    0  0.86913087976E+00 -0.79445760000E+00 -0.92064095756E-01  0.90006887320E+02  0.89999137429E+02 0.  0.
        -12    1    1    2    0    0 -0.86913087976E+00  0.79445760000E+00  0.92064095756E-01  0.11811126797E+01  0.00000000000E+00 0.  1.
         11    1    3    3    0    0 -0.24820964349E+02  0.23361124327E+02 -0.68304876566E+01  0.34763169633E+02  0.51100000000E-03 0. -1.
        -11    1    3    3    0    0  0.10379174708E+02  0.82449448977E+01  0.13338691879E+02  0.18804975015E+02  0.51100000000E-03 0.  1.
        -12    1    3    3    0    0  0.15310920520E+02 -0.32400526825E+02 -0.66002683186E+01  0.36438742673E+02  0.00000000000E+00 0.  1.
</event>
<event>
 7    1  0.4219745E-015  0.9000763E+02  0.7816164E-02  0.1186339E+00
        -11   -1    0    0    0    0  0.00000000000E+00  0.00000000000E+00  0.45593999997E+02  0.45594000000E+02  0.51100000000E-03 0. -1.
         11   -1    0    0    0    0 -0.00000000000E+00 -0.00000000000E+00 -0.45593999997E+02  0.45594000000E+02  0.51100000000E-03 0.  1.
    9900012    2    1    2    0    0  0.46584996806E+00 -0.63802356005E-01  0.10826729509E+01  0.90007632408E+02  0.89999892356E+02 0.  0.
        -12    1    1    2    0    0 -0.46584996806E+00  0.63802356005E-01 -0.10826729509E+01  0.11803675919E+01  0.00000000000E+00 0.  1.
         11    1    3    3    0    0 -0.10881687428E+01 -0.16212488699E+02  0.37876324901E+02  0.41214619849E+02  0.51100000000E-03 0. -1.
        -11    1    3    3    0    0 -0.67769022083E+01  0.72082712006E+01  0.13530929968E+00  0.98946392612E+01  0.51100000000E-03 0.  1.
        -12    1    3    3    0    0  0.83309209191E+01  0.89404151420E+01 -0.36928961250E+02  0.38898373298E+02  0.00000000000E+00 0.  1.
</event>
<event>
 7    1  0.2429906E-015  0.9000779E+02  0.7816164E-02  0.1186339E+00
        -11   -1    0    0    0    0  0.00000000000E+00  0.00000000000E+00  0.45593999997E+02  0.45594000000E+02  0.51100000000E-03 0. -1.
         11   -1    0    0    0    0 -0.00000000000E+00 -0.00000000000E+00 -0.45593999997E+02  0.45594000000E+02  0.51100000000E-03 0.  1.
    9900012    2    1    2    0    0  0.64888951888E+00 -0.88105478123E+00 -0.44223196146E+00  0.90007794830E+02  0.90000056922E+02 0.  0.
        -12    1    1    2    0    0 -0.64888951888E+00  0.88105478123E+00  0.44223196146E+00  0.11802051699E+01  0.00000000000E+00 0.  1.
         11    1    3    3    0    0  0.97126380436E+01 -0.29697387754E+01  0.56385821336E+01  0.11616724792E+02  0.51100000000E-03 0. -1.
        -11    1    3    3    0    0  0.31580636363E+02 -0.12771732771E+02 -0.82873877345E+01  0.35059015199E+02  0.51100000000E-03 0.  1.
         12    1    3    3    0    0 -0.40644384887E+02  0.14860416765E+02  0.22065736395E+01  0.43332054838E+02  0.00000000000E+00 0. -1.
</event>
<event>
 7    1  0.2429906E-015  0.9000772E+02  0.7816164E-02  0.1186339E+00
        -11   -1    0    0    0    0  0.00000000000E+00  0.00000000000E+00  0.45593999997E+02  0.45594000000E+02  0.51100000000E-03 0. -1.
         11   -1    0    0    0    0 -0.00000000000E+00 -0.00000000000E+00 -0.45593999997E+02  0.45594000000E+02  0.51100000000E-03 0.  1.
    9900012    2    1    2    0    0 -0.10867718256E+01 -0.32432402302E-01  0.45928817966E+00  0.90007715927E+02  0.89999976977E+02 0.  0.
        -12    1    1    2    0    0  0.10867718256E+01  0.32432402302E-01 -0.45928817966E+00  0.11802840733E+01  0.00000000000E+00 0.  1.
         11    1    3    3    0    0 -0.74590282762E+01  0.24828620961E+01 -0.47134833378E+01  0.91661678170E+01  0.51100000000E-03 0. -1.
        -11    1    3    3    0    0  0.12958555923E+02  0.54365947007E+01 -0.35867582147E+02  0.38522255683E+02  0.51100000000E-03 0.  1.
         12    1    3    3    0    0 -0.65862994727E+01 -0.79518891992E+01  0.41040353665E+02  0.42319292427E+02  0.00000000000E+00 0. -1.
</event>
<event>
 7    1  0.3406716E-015  0.9000768E+02  0.7816164E-02  0.1186339E+00
        -11   -1    0    0    0    0  0.00000000000E+00  0.00000000000E+00  0.45593999997E+02  0.45594000000E+02  0.51100000000E-03 0. -1.
         11   -1    0    0    0    0 -0.00000000000E+00 -0.00000000000E+00 -0.45593999997E+02  0.45594000000E+02  0.51100000000E-03 0.  1.
    9900012    2    1    2    0    0  0.41594442053E+00  0.33952307593E+00  0.10511221845E+01  0.90007684988E+02  0.89999945630E+02 0.  0.
        -12    1    1    2    0    0 -0.41594442053E+00 -0.33952307593E+00 -0.10511221845E+01  0.11803150116E+01  0.00000000000E+00 0.  1.
         11    1    3    3    0    0 -0.67420688333E+01  0.36518868251E+02  0.18785132426E+02  0.41616876757E+02  0.51100000000E-03 0. -1.
        -11    1    3    3    0    0 -0.50965074554E+01 -0.60766423384E+01  0.43986279693E+01  0.90690627204E+01  0.51100000000E-03 0.  1.
        -12    1    3    3    0    0  0.12254520709E+02 -0.30102702836E+02 -0.22132638211E+02  0.39321745511E+02  0.00000000000E+00 0.  1.
</event>
<event>
 7    1  0.2429906E-015  0.9000772E+02  0.7816164E-02  0.1186339E+00
        -11   -1    0    0    0    0  0.00000000000E+00  0.00000000000E+00  0.45593999997E+02  0.45594000000E+02  0.51100000000E-03 0. -1.
         11   -1    0    0    0    0 -0.00000000000E+00 -0.00000000000E+00 -0.45593999997E+02  0.45594000000E+02  0.51100000000E-03 0.  1.
    9900012    2    1    2    0    0  0.46563182616E+00 -0.82523104700E+00  0.70373381417E+00  0.90007720135E+02  0.89999981241E+02 0.  0.
        -12    1    1    2    0    0 -0.46563182616E+00  0.82523104700E+00 -0.70373381417E+00  0.11802798650E+01  0.00000000000E+00 0.  1.
         11    1    3    3    0    0  0.10870816953E+02  0.24308839344E+01 -0.33512215408E+01  0.11632477982E+02  0.51100000000E-03 0. -1.
        -11    1    3    3    0    0  0.20800268609E+02  0.13017578599E+02 -0.23271332919E+02  0.33818093720E+02  0.51100000000E-03 0.  1.
         12    1    3    3    0    0 -0.31205453736E+02 -0.16273693581E+02  0.27326288274E+02  0.44557148433E+02  0.00000000000E+00 0. -1.
</event>
<event>
 7    1  0.2429906E-015  0.9000771E+02  0.7816164E-02  0.1186339E+00
        -11   -1    0    0    0    0  0.00000000000E+00  0.00000000000E+00  0.45593999997E+02  0.45594000000E+02  0.51100000000E-03 0.  1.
         11   -1    0    0    0    0 -0.00000000000E+00 -0.00000000000E+00 -0.45593999997E+02  0.45594000000E+02  0.51100000000E-03 0. -1.
    9900012    2    1    2    0    0  0.96560919647E+00  0.56562694899E+00 -0.37517725422E+00  0.90007706419E+02  0.89999967344E+02 0.  0.
        -12    1    1    2    0    0 -0.96560919647E+00 -0.56562694899E+00  0.37517725422E+00  0.11802935812E+01  0.00000000000E+00 0.  1.
         11    1    3    3    0    0 -0.10446364838E+02  0.38704475041E+00 -0.77636016497E+01  0.13021131011E+02  0.51100000000E-03 0. -1.
        -11    1    3    3    0    0 -0.29059261820E+02 -0.60894258393E+01  0.17947602263E+02  0.34693489761E+02  0.51100000000E-03 0.  1.
         12    1    3    3    0    0  0.40471235854E+02  0.62680080379E+01 -0.10559177868E+02  0.42293085647E+02  0.00000000000E+00 0. -1.
</event>
<event>
 7    1  0.2429906E-015  0.9000775E+02  0.7816164E-02  0.1186339E+00
        -11   -1    0    0    0    0  0.00000000000E+00  0.00000000000E+00  0.45593999997E+02  0.45594000000E+02  0.51100000000E-03 0.  1.
         11   -1    0    0    0    0 -0.00000000000E+00 -0.00000000000E+00 -0.45593999997E+02  0.45594000000E+02  0.51100000000E-03 0. -1.
    9900012    2    1    2    0    0  0.71701837154E+00 -0.93417524189E+00 -0.78661511783E-01  0.90007751568E+02  0.90000013089E+02 0.  0.
        -12    1    1    2    0    0 -0.71701837154E+00  0.93417524189E+00  0.78661511783E-01  0.11802484320E+01  0.00000000000E+00 0.  1.
         11    1    3    3    0    0  0.15273643426E+02  0.24924797754E+02 -0.33302455859E+00  0.29234237329E+02  0.51100000000E-03 0. -1.
        -11    1    3    3    0    0 -0.24215120523E+02 -0.58738813239E+01 -0.19043257791E+02  0.31361125797E+02  0.51100000000E-03 0.  1.
        -12    1    3    3    0    0  0.96584954682E+01 -0.19985091672E+02  0.19297620838E+02  0.29412388442E+02  0.00000000000E+00 0.  1.
</event>
<event>
 7    1  0.2429906E-015  0.9000778E+02  0.7816164E-02  0.1186339E+00
        -11   -1    0    0    0    0  0.00000000000E+00  0.00000000000E+00  0.45593999997E+02  0.45594000000E+02  0.51100000000E-03 0. -1.
         11   -1    0    0    0    0 -0.00000000000E+00 -0.00000000000E+00 -0.45593999997E+02  0.45594000000E+02  0.51100000000E-03 0.  1.
    9900012    2    1    2    0    0  0.47721605891E+00  0.21326842906E+00 -0.10581587938E+01  0.90007780265E+02  0.90000042165E+02 0.  0.
        -12    1    1    2    0    0 -0.47721605891E+00 -0.21326842906E+00  0.10581587938E+01  0.11802197349E+01  0.00000000000E+00 0.  1.
         11    1    3    3    0    0  0.27166541147E+01  0.13507523688E-01  0.99058837879E+01  0.10271656435E+02  0.51100000000E-03 0. -1.
        -11    1    3    3    0    0  0.27020671242E+02  0.27088084658E+02  0.87821840667E+00  0.38270775699E+02  0.51100000000E-03 0.  1.
         12    1    3    3    0    0 -0.29260109298E+02 -0.26888323752E+02 -0.11842260988E+02  0.41465348131E+02  0.00000000000E+00 0. -1.
</event>
<event>
 7    1  0.2429906E-015  0.9000774E+02  0.7816164E-02  0.1186339E+00
        -11   -1    0    0    0    0  0.00000000000E+00  0.00000000000E+00  0.45593999997E+02  0.45594000000E+02  0.51100000000E-03 0.  1.
         11   -1    0    0    0    0 -0.00000000000E+00 -0.00000000000E+00 -0.45593999997E+02  0.45594000000E+02  0.51100000000E-03 0. -1.
    9900012    2    1    2    0    0  0.11171763518E+01  0.27072419819E+00 -0.26767529609E+00  0.90007735345E+02  0.89999996651E+02 0.  0.
        -12    1    1    2    0    0 -0.11171763518E+01 -0.27072419819E+00  0.26767529609E+00  0.11802646553E+01  0.00000000000E+00 0.  1.
         11    1    3    3    0    0  0.39517845613E+02  0.14935691558E+02  0.54855052567E+01  0.42600771970E+02  0.51100000000E-03 0. -1.
        -11    1    3    3    0    0  0.66025986818E+00 -0.53042603902E+01  0.32333739942E+01  0.62470656334E+01  0.51100000000E-03 0.  1.
        -12    1    3    3    0    0 -0.39060929130E+02 -0.93607069696E+01 -0.89865545470E+01  0.41159897741E+02  0.00000000000E+00 0.  1.
</event>
<event>
 7    1  0.2429906E-015  0.9000774E+02  0.7816164E-02  0.1186339E+00
        -11   -1    0    0    0    0  0.00000000000E+00  0.00000000000E+00  0.45593999997E+02  0.45594000000E+02  0.51100000000E-03 0.  1.
         11   -1    0    0    0    0 -0.00000000000E+00 -0.00000000000E+00 -0.45593999997E+02  0.45594000000E+02  0.51100000000E-03 0. -1.
    9900012    2    1    2    0    0  0.69211540073E+00 -0.75886184697E+00 -0.58148696983E+00  0.90007736416E+02  0.89999997737E+02 0.  0.
        -12    1    1    2    0    0 -0.69211540073E+00  0.75886184697E+00  0.58148696983E+00  0.11802635836E+01  0.00000000000E+00 0.  1.
         11    1    3    3    0    0 -0.17750251236E+02 -0.66741084771E+01  0.13635695211E+01  0.19012481821E+02  0.51100000000E-03 0. -1.
        -11    1    3    3    0    0 -0.21119063162E+02 -0.10545499314E+02  0.11265212261E+02  0.26155829028E+02  0.51100000000E-03 0.  1.
        -12    1    3    3    0    0  0.39561429798E+02  0.16460745944E+02 -0.13210268752E+02  0.44839425567E+02  0.00000000000E+00 0.  1.
</event>
<event>
 7    1  0.2429906E-015  0.9000771E+02  0.7816164E-02  0.1186339E+00
        -11   -1    0    0    0    0  0.00000000000E+00  0.00000000000E+00  0.45593999997E+02  0.45594000000E+02  0.51100000000E-03 0.  1.
         11   -1    0    0    0    0 -0.00000000000E+00 -0.00000000000E+00 -0.45593999997E+02  0.45594000000E+02  0.51100000000E-03 0. -1.
    9900012    2    1    2    0    0 -0.17773670802E+00  0.99824407756E+00 -0.60414655811E+00  0.90007714170E+02  0.89999975197E+02 0.  0.
        -12    1    1    2    0    0  0.17773670802E+00 -0.99824407756E+00  0.60414655811E+00  0.11802858296E+01  0.00000000000E+00 0.  1.
         11    1    3    3    0    0 -0.78975901429E+00  0.72907744896E+01  0.54360903997E+01  0.91285371804E+01  0.51100000000E-03 0. -1.
        -11    1    3    3    0    0  0.39426525219E+02 -0.66672579489E+01  0.55495646228E+01  0.40369553963E+02  0.51100000000E-03 0.  1.
         12    1    3    3    0    0 -0.38814502913E+02  0.37472753692E+00 -0.11589801581E+02  0.40509623027E+02  0.00000000000E+00 0. -1.
</event>
<event>
 7    1  0.2429906E-015  0.9000775E+02  0.7816164E-02  0.1186339E+00
        -11   -1    0    0    0    0  0.00000000000E+00  0.00000000000E+00  0.45593999997E+02  0.45594000000E+02  0.51100000000E-03 0.  1.
         11   -1    0    0    0    0 -0.00000000000E+00 -0.00000000000E+00 -0.45593999997E+02  0.45594000000E+02  0.51100000000E-03 0. -1.
    9900012    2    1    2    0    0 -0.85838679000E+00  0.10685242737E+00 -0.80295761254E+00  0.90007751615E+02  0.90000013136E+02 0.  0.
        -12    1    1    2    0    0  0.85838679000E+00 -0.10685242737E+00  0.80295761254E+00  0.11802483849E+01  0.00000000000E+00 0.  1.
         11    1    3    3    0    0 -0.33840208751E+02 -0.69129519653E+01  0.38228888273E+01  0.34750008812E+02  0.51100000000E-03 0. -1.
        -11    1    3    3    0    0 -0.57874606252E+01 -0.94924702265E+01  0.47471324554E+01  0.12088712020E+02  0.51100000000E-03 0.  1.
        -12    1    3    3    0    0  0.38769282586E+02  0.16512274619E+02 -0.93729788952E+01  0.43169030783E+02  0.00000000000E+00 0.  1.
</event>
<event>
 7    1  0.2429906E-015  0.9000773E+02  0.7816164E-02  0.1186339E+00
        -11   -1    0    0    0    0  0.00000000000E+00  0.00000000000E+00  0.45593999997E+02  0.45594000000E+02  0.51100000000E-03 0.  1.
         11   -1    0    0    0    0 -0.00000000000E+00 -0.00000000000E+00 -0.45593999997E+02  0.45594000000E+02  0.51100000000E-03 0. -1.
    9900012    2    1    2    0    0 -0.89383424973E-01  0.89947560571E+00 -0.75893766417E+00  0.90007732174E+02  0.89999993439E+02 0.  0.
        -12    1    1    2    0    0  0.89383424973E-01 -0.89947560571E+00  0.75893766417E+00  0.11802678256E+01  0.00000000000E+00 0.  1.
         11    1    3    3    0    0  0.55154060618E+01 -0.61755592337E+01 -0.98592978572E+00  0.83384227333E+01  0.51100000000E-03 0. -1.
        -11    1    3    3    0    0  0.32416187572E+02 -0.16040542037E+02  0.64547952574E+01  0.36739251321E+02  0.51100000000E-03 0.  1.
         12    1    3    3    0    0 -0.38020977058E+02  0.23115576877E+02 -0.62278031358E+01  0.44930058121E+02  0.00000000000E+00 0. -1.
</event>
<event>
 7    1  0.2429906E-015  0.9000774E+02  0.7816164E-02  0.1186339E+00
        -11   -1    0    0    0    0  0.00000000000E+00  0.00000000000E+00  0.45593999997E+02  0.45594000000E+02  0.51100000000E-03 0. -1.
         11   -1    0    0    0    0 -0.00000000000E+00 -0.00000000000E+00 -0.45593999997E+02  0.45594000000E+02  0.51100000000E-03 0.  1.
    9900012    2    1    2    0    0  0.10664970204E+01 -0.80854016461E-01  0.49904812299E+00  0.90007744818E+02  0.90000006249E+02 0.  0.
        -12    1    1    2    0    0 -0.10664970204E+01  0.80854016461E-01 -0.49904812299E+00  0.11802551824E+01  0.00000000000E+00 0.  1.
         11    1    3    3    0    0 -0.16878668348E+00 -0.93999381675E+01  0.43111153832E+01  0.10342777316E+02  0.51100000000E-03 0. -1.
        -11    1    3    3    0    0 -0.35171661896E+02  0.16050945486E+02  0.10353620328E+02  0.40023444451E+02  0.51100000000E-03 0.  1.
         12    1    3    3    0    0  0.36406945600E+02 -0.67318613352E+01 -0.14165687588E+02  0.39641523051E+02  0.00000000000E+00 0. -1.
</event>
<event>
 7    1  0.2429906E-015  0.9000780E+02  0.7816164E-02  0.1186339E+00
        -11   -1    0    0    0    0  0.00000000000E+00  0.00000000000E+00  0.45593999997E+02  0.45594000000E+02  0.51100000000E-03 0.  1.
         11   -1    0    0    0    0 -0.00000000000E+00 -0.00000000000E+00 -0.45593999997E+02  0.45594000000E+02  0.51100000000E-03 0. -1.
    9900012    2    1    2    0    0  0.71889394467E+00 -0.69939226446E+00 -0.62201754429E+00  0.90007803462E+02  0.90000065668E+02 0.  0.
        -12    1    1    2    0    0 -0.71889394467E+00  0.69939226446E+00  0.62201754429E+00  0.11801965382E+01  0.00000000000E+00 0.  1.
         11    1    3    3    0    0 -0.55099700220E+01  0.26778210051E+01  0.72988804092E+01  0.95291211802E+01  0.51100000000E-03 0. -1.
        -11    1    3    3    0    0 -0.25349276537E+02 -0.21551164874E+02  0.15973517850E+02  0.36907882643E+02  0.51100000000E-03 0.  1.
         12    1    3    3    0    0  0.31578140504E+02  0.18173951605E+02 -0.23894415803E+02  0.43570799639E+02  0.00000000000E+00 0. -1.
</event>
<event>
 7    1  0.2429906E-015  0.9000774E+02  0.7816164E-02  0.1186339E+00
        -11   -1    0    0    0    0  0.00000000000E+00  0.00000000000E+00  0.45593999997E+02  0.45594000000E+02  0.51100000000E-03 0. -1.
         11   -1    0    0    0    0 -0.00000000000E+00 -0.00000000000E+00 -0.45593999997E+02  0.45594000000E+02  0.51100000000E-03 0.  1.
    9900012    2    1    2    0    0 -0.89184058514E+00  0.67595716207E+00  0.37510971355E+00  0.90007743667E+02  0.90000005083E+02 0.  0.
        -12    1    1    2    0    0  0.89184058514E+00 -0.67595716207E+00 -0.37510971355E+00  0.11802563329E+01  0.00000000000E+00 0.  1.
         11    1    3    3    0    0  0.26361536141E+00  0.15920895417E+01  0.68891007606E+01  0.70755884361E+01  0.51100000000E-03 0. -1.
        -11    1    3    3    0    0  0.38185481482E+02 -0.13513350050E+02 -0.91951867297E+01  0.41536647491E+02  0.51100000000E-03 0.  1.
         12    1    3    3    0    0 -0.39340937428E+02  0.12597217670E+02  0.26811956827E+01  0.41395507740E+02  0.00000000000E+00 0. -1.
</event>
<event>
 7    1  0.2429906E-015  0.9000773E+02  0.7816164E-02  0.1186339E+00
        -11   -1    0    0    0    0  0.00000000000E+00  0.00000000000E+00  0.45593999997E+02  0.45594000000E+02  0.51100000000E-03 0.  1.
         11   -1    0    0    0    0 -0.00000000000E+00 -0.00000000000E+00 -0.45593999997E+02  0.45594000000E+02  0.51100000000E-03 0. -1.
    9900012    2    1    2    0    0 -0.20309695297E+00 -0.17159756333E+00 -0.11499341891E+01  0.90007727686E+02  0.89999988891E+02 0.  0.
        -12    1    1    2    0    0  0.20309695297E+00  0.17159756333E+00  0.11499341891E+01  0.11802723141E+01  0.00000000000E+00 0.  1.
         11    1    3    3    0    0  0.16404644902E+01 -0.84227636132E+01  0.16354562192E+01  0.87354901370E+01  0.51100000000E-03 0. -1.
        -11    1    3    3    0    0  0.19768429993E+01 -0.59674682639E+01  0.37685642037E+02  0.38206363367E+02  0.51100000000E-03 0.  1.
         12    1    3    3    0    0 -0.38204044424E+01  0.14218634314E+02 -0.40471032445E+02  0.43065874182E+02  0.00000000000E+00 0. -1.
</event>
<event>
 7    1  0.2429906E-015  0.9000781E+02  0.7816164E-02  0.1186339E+00
        -11   -1    0    0    0    0  0.00000000000E+00  0.00000000000E+00  0.45593999997E+02  0.45594000000E+02  0.51100000000E-03 0. -1.
         11   -1    0    0    0    0 -0.00000000000E+00 -0.00000000000E+00 -0.45593999997E+02  0.45594000000E+02  0.51100000000E-03 0.  1.
    9900012    2    1    2    0    0  0.74973451916E+00  0.90605497236E+00  0.99034769612E-01  0.90007811308E+02  0.90000073618E+02 0.  0.
        -12    1    1    2    0    0 -0.74973451916E+00 -0.90605497236E+00 -0.99034769612E-01  0.11801886916E+01  0.00000000000E+00 0.  1.
         11    1    3    3    0    0  0.61244266978E+00  0.81668338401E+01  0.25110088135E+01  0.85660624863E+01  0.51100000000E-03 0. -1.
        -11    1    3    3    0    0 -0.38508629880E+02 -0.15376349670E+02  0.30495886238E+01  0.41576997192E+02  0.51100000000E-03 0.  1.
         12    1    3    3    0    0  0.38645921730E+02  0.81155708023E+01 -0.54615626677E+01  0.39864751630E+02  0.00000000000E+00 0. -1.
</event>
<event>
 7    1  0.2429906E-015  0.9000772E+02  0.7816164E-02  0.1186339E+00
        -11   -1    0    0    0    0  0.00000000000E+00  0.00000000000E+00  0.45593999997E+02  0.45594000000E+02  0.51100000000E-03 0.  1.
         11   -1    0    0    0    0 -0.00000000000E+00 -0.00000000000E+00 -0.45593999997E+02  0.45594000000E+02  0.51100000000E-03 0. -1.
    9900012    2    1    2    0    0 -0.37158249969E+00 -0.92415958003E+00 -0.63318530522E+00  0.90007716935E+02  0.89999977998E+02 0.  0.
        -12    1    1    2    0    0  0.37158249969E+00  0.92415958003E+00  0.63318530522E+00  0.11802830653E+01  0.00000000000E+00 0.  1.
         11    1    3    3    0    0 -0.11178023863E+02  0.14965774088E+02 -0.35013706768E+02  0.39684786423E+02  0.51100000000E-03 0. -1.
        -11    1    3    3    0    0  0.11247566424E+02  0.51030004503E+01  0.32475968508E+01  0.12770875053E+02  0.51100000000E-03 0.  1.
        -12    1    3    3    0    0 -0.44112506050E+00 -0.20992934118E+02  0.31132924612E+02  0.37552055458E+02  0.00000000000E+00 0.  1.
</event>
<event>
 7    1  0.2429906E-015  0.9000763E+02  0.7816164E-02  0.1186339E+00
        -11   -1    0    0    0    0  0.00000000000E+00  0.00000000000E+00  0.45593999997E+02  0.45594000000E+02  0.51100000000E-03 0.  1.
         11   -1    0    0    0    0 -0.00000000000E+00 -0.00000000000E+00 -0.45593999997E+02  0.45594000000E+02  0.51100000000E-03 0. -1.
    9900012    2    1    2    0    0  0.47870690032E+00 -0.84451411524E-01 -0.10756313648E+01  0.90007629223E+02  0.89999889129E+02 0.  0.
        -12    1    1    2    0    0 -0.47870690032E+00  0.84451411524E-01  0.10756313648E+01  0.11803707766E+01  0.00000000000E+00 0.  1.
         11    1    3    3    0    0 -0.15554153850E+02 -0.16993855462E+02  0.27176191689E+02  0.35626790768E+02  0.51100000000E-03 0. -1.
        -11    1    3    3    0    0 -0.39528490168E+01 -0.12697033587E+01  0.80922095235E+01  0.90951095212E+01  0.51100000000E-03 0.  1.
        -12    1    3    3    0    0  0.19985709767E+02  0.18179107410E+02 -0.36344032577E+02  0.45285728934E+02  0.00000000000E+00 0.  1.
</event>
<event>
 7    1  0.2429906E-015  0.9000790E+02  0.7816164E-02  0.1186339E+00
        -11   -1    0    0    0    0  0.00000000000E+00  0.00000000000E+00  0.45593999997E+02  0.45594000000E+02  0.51100000000E-03 0.  1.
         11   -1    0    0    0    0 -0.00000000000E+00 -0.00000000000E+00 -0.45593999997E+02  0.45594000000E+02  0.51100000000E-03 0. -1.
    9900012    2    1    2    0    0 -0.11050502346E+01 -0.26294978020E+00 -0.31994714988E+00  0.90007896281E+02  0.90000159712E+02 0.  0.
        -12    1    1    2    0    0  0.11050502346E+01  0.26294978020E+00  0.31994714988E+00  0.11801037186E+01  0.00000000000E+00 0.  1.
         11    1    3    3    0    0 -0.17925504046E+02  0.10765699689E+01 -0.62255644120E+01  0.19006323966E+02  0.51100000000E-03 0. -1.
        -11    1    3    3    0    0 -0.10441717809E+01 -0.12038413352E+02  0.33970253779E+02  0.36055399496E+02  0.51100000000E-03 0.  1.
         12    1    3    3    0    0  0.17864625592E+02  0.10698893602E+02 -0.28064636517E+02  0.34946172819E+02  0.00000000000E+00 0. -1.
</event>
<event>
 7    1  0.2429906E-015  0.9000771E+02  0.7816164E-02  0.1186339E+00
        -11   -1    0    0    0    0  0.00000000000E+00  0.00000000000E+00  0.45593999997E+02  0.45594000000E+02  0.51100000000E-03 0.  1.
         11   -1    0    0    0    0 -0.00000000000E+00 -0.00000000000E+00 -0.45593999997E+02  0.45594000000E+02  0.51100000000E-03 0. -1.
    9900012    2    1    2    0    0 -0.52691665922E+00 -0.76900653704E+00 -0.72393520283E+00  0.90007705800E+02  0.89999966717E+02 0.  0.
        -12    1    1    2    0    0  0.52691665922E+00  0.76900653704E+00  0.72393520283E+00  0.11802941996E+01  0.00000000000E+00 0.  1.
         11    1    3    3    0    0  0.60558560849E+01 -0.12487262237E+01 -0.74710907660E+01  0.96979331612E+01  0.51100000000E-03 0. -1.
        -11    1    3    3    0    0  0.20954564726E+02 -0.30876008806E+02  0.94436799446E+01  0.38491619787E+02  0.51100000000E-03 0.  1.
         12    1    3    3    0    0 -0.27537337470E+02  0.31355728493E+02 -0.26965243814E+01  0.41818152852E+02  0.00000000000E+00 0. -1.
</event>
<event>
 7    1  0.2457916E-015  0.9000772E+02  0.7816164E-02  0.1186339E+00
        -11   -1    0    0    0    0  0.00000000000E+00  0.00000000000E+00  0.45593999997E+02  0.45594000000E+02  0.51100000000E-03 0.  1.
         11   -1    0    0    0    0 -0.00000000000E+00 -0.00000000000E+00 -0.45593999997E+02  0.45594000000E+02  0.51100000000E-03 0. -1.
    9900012    2    1    2    0    0 -0.11762313779E+01  0.13497889781E-01 -0.96686616817E-01  0.90007724291E+02  0.89999985452E+02 0.  0.
        -12    1    1    2    0    0  0.11762313779E+01 -0.13497889781E-01  0.96686616817E-01  0.11802757090E+01  0.00000000000E+00 0.  1.
         11    1    3    3    0    0 -0.24889662650E+02 -0.12203986874E+02 -0.28760946229E+02  0.39945270442E+02  0.51100000000E-03 0. -1.
        -11    1    3    3    0    0  0.78409078383E+01 -0.94409608353E-01 -0.60845161598E+01  0.99252247361E+01  0.51100000000E-03 0.  1.
        -12    1    3    3    0    0  0.15872523434E+02  0.12311894372E+02  0.34748775772E+02  0.40137229113E+02  0.00000000000E+00 0.  1.
</event>
<event>
 7    1  0.2429906E-015  0.9000775E+02  0.7816164E-02  0.1186339E+00
        -11   -1    0    0    0    0  0.00000000000E+00  0.00000000000E+00  0.45593999997E+02  0.45594000000E+02  0.51100000000E-03 0. -1.
         11   -1    0    0    0    0 -0.00000000000E+00 -0.00000000000E+00 -0.45593999997E+02  0.45594000000E+02  0.51100000000E-03 0.  1.
    9900012    2    1    2    0    0 -0.70017344928E+00  0.89301914541E+00  0.32445748913E+00  0.90007746334E+02  0.90000007786E+02 0.  0.
        -12    1    1    2    0    0  0.70017344928E+00 -0.89301914541E+00 -0.32445748913E+00  0.11802536657E+01  0.00000000000E+00 0.  1.
         11    1    3    3    0    0  0.60499204246E+01  0.52062640218E+01  0.81992550034E+01  0.11442661626E+02  0.51100000000E-03 0. -1.
        -11    1    3    3    0    0 -0.33783219623E+02  0.85650488717E+01  0.17787827570E+02  0.39128925364E+02  0.51100000000E-03 0.  1.
         12    1    3    3    0    0  0.27033125749E+02 -0.12878293748E+02 -0.25662625084E+02  0.39436159344E+02  0.00000000000E+00 0. -1.
</event>
<event>
 7    1  0.2429906E-015  0.9000774E+02  0.7816164E-02  0.1186339E+00
        -11   -1    0    0    0    0  0.00000000000E+00  0.00000000000E+00  0.45593999997E+02  0.45594000000E+02  0.51100000000E-03 0. -1.
         11   -1    0    0    0    0 -0.00000000000E+00 -0.00000000000E+00 -0.45593999997E+02  0.45594000000E+02  0.51100000000E-03 0.  1.
    9900012    2    1    2    0    0 -0.51345587153E+00 -0.18710414757E+00  0.10461202692E+01  0.90007740490E+02  0.90000001864E+02 0.  0.
        -12    1    1    2    0    0  0.51345587153E+00  0.18710414757E+00 -0.10461202692E+01  0.11802595103E+01  0.00000000000E+00 0.  1.
         11    1    3    3    0    0  0.81186541919E+01 -0.96837956258E+01  0.16978198523E+01  0.12750334745E+02  0.51100000000E-03 0. -1.
        -11    1    3    3    0    0  0.11491270582E+01 -0.92972655873E+01 -0.35367481853E+02  0.36587134533E+02  0.51100000000E-03 0.  1.
         12    1    3    3    0    0 -0.97812371217E+01  0.18793957066E+02  0.34715782270E+02  0.40670271212E+02  0.00000000000E+00 0. -1.
</event>
<event>
 7    1  0.2429906E-015  0.9000770E+02  0.7816164E-02  0.1186339E+00
        -11   -1    0    0    0    0  0.00000000000E+00  0.00000000000E+00  0.45593999997E+02  0.45594000000E+02  0.51100000000E-03 0.  1.
         11   -1    0    0    0    0 -0.00000000000E+00 -0.00000000000E+00 -0.45593999997E+02  0.45594000000E+02  0.51100000000E-03 0. -1.
    9900012    2    1    2    0    0 -0.99851912968E+00 -0.47312380987E+00  0.41500641839E+00  0.90007696260E+02  0.89999957050E+02 0.  0.
        -12    1    1    2    0    0  0.99851912968E+00  0.47312380987E+00 -0.41500641839E+00  0.11803037402E+01  0.00000000000E+00 0.  1.
         11    1    3    3    0    0  0.28615445128E+02 -0.11222329023E+02 -0.16859754582E+02  0.35057605358E+02  0.51100000000E-03 0. -1.
        -11    1    3    3    0    0  0.74085919373E+01 -0.40754240785E+01 -0.44302200425E+01  0.95458454733E+01  0.51100000000E-03 0.  1.
        -12    1    3    3    0    0 -0.37022556195E+02  0.14824629292E+02  0.21704981043E+02  0.45404245429E+02  0.00000000000E+00 0.  1.
</event>
<event>
 7    1  0.2429906E-015  0.9000768E+02  0.7816164E-02  0.1186339E+00
        -11   -1    0    0    0    0  0.00000000000E+00  0.00000000000E+00  0.45593999997E+02  0.45594000000E+02  0.51100000000E-03 0. -1.
         11   -1    0    0    0    0 -0.00000000000E+00 -0.00000000000E+00 -0.45593999997E+02  0.45594000000E+02  0.51100000000E-03 0.  1.
    9900012    2    1    2    0    0 -0.78646201452E+00  0.76104738328E+00 -0.44208030371E+00  0.90007681986E+02  0.89999942588E+02 0.  0.
        -12    1    1    2    0    0  0.78646201452E+00 -0.76104738328E+00  0.44208030371E+00  0.11803180143E+01  0.00000000000E+00 0.  1.
         11    1    3    3    0    0 -0.20586344098E+02  0.10622116044E+02  0.71244033985E+01  0.24236007027E+02  0.51100000000E-03 0. -1.
        -11    1    3    3    0    0 -0.79815141104E+01  0.20997287456E+02  0.36595970721E+01  0.22759246450E+02  0.51100000000E-03 0.  1.
        -12    1    3    3    0    0  0.27781396194E+02 -0.30858356116E+02 -0.11226080774E+02  0.43012428509E+02  0.00000000000E+00 0.  1.
</event>
<event>
 7    1  0.2429906E-015  0.9000778E+02  0.7816164E-02  0.1186339E+00
        -11   -1    0    0    0    0  0.00000000000E+00  0.00000000000E+00  0.45593999997E+02  0.45594000000E+02  0.51100000000E-03 0. -1.
         11   -1    0    0    0    0 -0.00000000000E+00 -0.00000000000E+00 -0.45593999997E+02  0.45594000000E+02  0.51100000000E-03 0.  1.
    9900012    2    1    2    0    0  0.73267209657E-01 -0.67183019159E+00  0.96756912543E+00  0.90007782265E+02  0.90000044191E+02 0.  0.
        -12    1    1    2    0    0 -0.73267209657E-01  0.67183019159E+00 -0.96756912543E+00  0.11802177353E+01  0.00000000000E+00 0.  1.
         11    1    3    3    0    0  0.37637289024E+02 -0.24220669517E+01 -0.14935840375E+02  0.40564901841E+02  0.51100000000E-03 0. -1.
        -11    1    3    3    0    0 -0.29644303245E+01  0.59464094733E+01 -0.54283492512E+01  0.85798956070E+01  0.51100000000E-03 0.  1.
        -12    1    3    3    0    0 -0.34599591490E+02 -0.41961727131E+01  0.21331758751E+02  0.40862984817E+02  0.00000000000E+00 0.  1.
</event>
<event>
 7    1  0.2429906E-015  0.9000765E+02  0.7816164E-02  0.1186339E+00
        -11   -1    0    0    0    0  0.00000000000E+00  0.00000000000E+00  0.45593999997E+02  0.45594000000E+02  0.51100000000E-03 0.  1.
         11   -1    0    0    0    0 -0.00000000000E+00 -0.00000000000E+00 -0.45593999997E+02  0.45594000000E+02  0.51100000000E-03 0. -1.
    9900012    2    1    2    0    0  0.98162978824E+00  0.58130349295E+00 -0.30284020039E+00  0.90007651332E+02  0.89999911529E+02 0.  0.
        -12    1    1    2    0    0 -0.98162978824E+00 -0.58130349295E+00  0.30284020039E+00  0.11803486684E+01  0.00000000000E+00 0.  1.
         11    1    3    3    0    0  0.15414496755E+02  0.77490906315E+01 -0.10897800546E+01  0.17287068481E+02  0.51100000000E-03 0. -1.
        -11    1    3    3    0    0 -0.26375214233E+01  0.23884159091E+02  0.22595528038E+02  0.32984351780E+02  0.51100000000E-03 0.  1.
         12    1    3    3    0    0 -0.11795345544E+02 -0.31051946230E+02 -0.21808588184E+02  0.39736231071E+02  0.00000000000E+00 0. -1.
</event>
<event>
 7    1  0.2429906E-015  0.9000777E+02  0.7816164E-02  0.1186339E+00
        -11   -1    0    0    0    0  0.00000000000E+00  0.00000000000E+00  0.45593999997E+02  0.45594000000E+02  0.51100000000E-03 0. -1.
         11   -1    0    0    0    0 -0.00000000000E+00 -0.00000000000E+00 -0.45593999997E+02  0.45594000000E+02  0.51100000000E-03 0.  1.
    9900012    2    1    2    0    0  0.79382812918E+00 -0.41815464455E+00  0.76676362112E+00  0.90007769999E+02  0.90000031763E+02 0.  0.
        -12    1    1    2    0    0 -0.79382812918E+00  0.41815464455E+00 -0.76676362112E+00  0.11802300014E+01  0.00000000000E+00 0.  1.
         11    1    3    3    0    0 -0.99130278226E+01  0.20125670653E+02 -0.13459851929E+01  0.22474928615E+02  0.51100000000E-03 0. -1.
        -11    1    3    3    0    0 -0.24731420400E+02 -0.12878030205E+01 -0.78671815801E+01  0.25984498031E+02  0.51100000000E-03 0.  1.
        -12    1    3    3    0    0  0.35438276352E+02 -0.19256022277E+02  0.99799303940E+01  0.41548343353E+02  0.00000000000E+00 0.  1.
</event>
<event>
 7    1  0.2429906E-015  0.9000772E+02  0.7816164E-02  0.1186339E+00
        -11   -1    0    0    0    0  0.00000000000E+00  0.00000000000E+00  0.45593999997E+02  0.45594000000E+02  0.51100000000E-03 0.  1.
         11   -1    0    0    0    0 -0.00000000000E+00 -0.00000000000E+00 -0.45593999997E+02  0.45594000000E+02  0.51100000000E-03 0. -1.
    9900012    2    1    2    0    0  0.33419299615E+00 -0.43624247595E+00  0.10445422061E+01  0.90007720001E+02  0.89999981105E+02 0.  0.
        -12    1    1    2    0    0 -0.33419299615E+00  0.43624247595E+00 -0.10445422061E+01  0.11802799993E+01  0.00000000000E+00 0.  1.
         11    1    3    3    0    0  0.72017134863E+01  0.59533559599E+01 -0.16547631704E+01  0.94892236635E+01  0.51100000000E-03 0. -1.
        -11    1    3    3    0    0 -0.90102006243E+01  0.25288989702E+02 -0.26253058774E+02  0.37549165246E+02  0.51100000000E-03 0.  1.
         12    1    3    3    0    0  0.21426801342E+01 -0.31678588138E+02  0.28952364150E+02  0.42969331091E+02  0.00000000000E+00 0. -1.
</event>
<event>
 7    1  0.2429906E-015  0.9000777E+02  0.7816164E-02  0.1186339E+00
        -11   -1    0    0    0    0  0.00000000000E+00  0.00000000000E+00  0.45593999997E+02  0.45594000000E+02  0.51100000000E-03 0.  1.
         11   -1    0    0    0    0 -0.00000000000E+00 -0.00000000000E+00 -0.45593999997E+02  0.45594000000E+02  0.51100000000E-03 0. -1.
    9900012    2    1    2    0    0 -0.79969383015E+00 -0.73992272354E+00  0.45382439252E+00  0.90007765939E+02  0.90000027650E+02 0.  0.
        -12    1    1    2    0    0  0.79969383015E+00  0.73992272354E+00 -0.45382439252E+00  0.11802340607E+01  0.00000000000E+00 0.  1.
         11    1    3    3    0    0 -0.32220684800E+02  0.20728443438E+02 -0.25364400314E+01  0.38396281390E+02  0.51100000000E-03 0. -1.
        -11    1    3    3    0    0  0.10931585810E+02  0.71997152390E+01  0.89730204999E+01  0.15869800408E+02  0.51100000000E-03 0.  1.
        -12    1    3    3    0    0  0.20489405159E+02 -0.28668081400E+02 -0.59827560760E+01  0.35741684141E+02  0.00000000000E+00 0.  1.
</event>
<event>
 7    1  0.2429906E-015  0.9000771E+02  0.7816164E-02  0.1186339E+00
        -11   -1    0    0    0    0  0.00000000000E+00  0.00000000000E+00  0.45593999997E+02  0.45594000000E+02  0.51100000000E-03 0.  1.
         11   -1    0    0    0    0 -0.00000000000E+00 -0.00000000000E+00 -0.45593999997E+02  0.45594000000E+02  0.51100000000E-03 0. -1.
    9900012    2    1    2    0    0 -0.49165385601E+00  0.52593148271E+00 -0.93528206956E+00  0.90007711905E+02  0.89999972902E+02 0.  0.
        -12    1    1    2    0    0  0.49165385601E+00 -0.52593148271E+00  0.93528206956E+00  0.11802880955E+01  0.00000000000E+00 0.  1.
         11    1    3    3    0    0  0.36191155288E+02  0.84324968808E+01 -0.80795094542E+01  0.38028741736E+02  0.51100000000E-03 0. -1.
        -11    1    3    3    0    0  0.17334890017E+00  0.87450294416E+01 -0.45764514473E+01  0.98716512239E+01  0.51100000000E-03 0.  1.
        -12    1    3    3    0    0 -0.36856158044E+02 -0.16651594840E+02  0.11720678832E+02  0.42107318945E+02  0.00000000000E+00 0.  1.
</event>
<event>
 7    1  0.2429906E-015  0.9000780E+02  0.7816164E-02  0.1186339E+00
        -11   -1    0    0    0    0  0.00000000000E+00  0.00000000000E+00  0.45593999997E+02  0.45594000000E+02  0.51100000000E-03 0.  1.
         11   -1    0    0    0    0 -0.00000000000E+00 -0.00000000000E+00 -0.45593999997E+02  0.45594000000E+02  0.51100000000E-03 0. -1.
    9900012    2    1    2    0    0  0.17182681373E-01  0.68940151682E+00 -0.95776155666E+00  0.90007797943E+02  0.90000060076E+02 0.  0.
        -12    1    1    2    0    0 -0.17182681373E-01 -0.68940151682E+00  0.95776155666E+00  0.11802020570E+01  0.00000000000E+00 0.  1.
         11    1    3    3    0    0 -0.89648860941E-02  0.12347546852E+01  0.94860220602E+01  0.95660500882E+01  0.51100000000E-03 0. -1.
        -11    1    3    3    0    0 -0.47327034607E+01  0.76482080815E+01  0.33912394139E+02  0.35084812176E+02  0.51100000000E-03 0.  1.
         12    1    3    3    0    0  0.47588510281E+01 -0.81935612499E+01 -0.44356177756E+02  0.45356935679E+02  0.00000000000E+00 0. -1.
</event>
<event>
 7    1  0.2429906E-015  0.9000762E+02  0.7816164E-02  0.1186339E+00
        -11   -1    0    0    0    0  0.00000000000E+00  0.00000000000E+00  0.45593999997E+02  0.45594000000E+02  0.51100000000E-03 0. -1.
         11   -1    0    0    0    0 -0.00000000000E+00 -0.00000000000E+00 -0.45593999997E+02  0.45594000000E+02  0.51100000000E-03 0.  1.
    9900012    2    1    2    0    0 -0.31955450580E+00 -0.71839725946E+00 -0.88039625358E+00  0.90007615627E+02  0.89999875353E+02 0.  0.
        -12    1    1    2    0    0  0.31955450580E+00  0.71839725946E+00  0.88039625358E+00  0.11803843729E+01  0.00000000000E+00 0.  1.
         11    1    3    3    0    0  0.54026969833E+00  0.48713139995E+00  0.10897472938E+02  0.10921726285E+02  0.51100000000E-03 0. -1.
        -11    1    3    3    0    0 -0.23599613855E+02  0.29843390076E+02 -0.13988406468E+02  0.40536961172E+02  0.51100000000E-03 0.  1.
         12    1    3    3    0    0  0.22739789651E+02 -0.31048918735E+02  0.22105372758E+01  0.38548928170E+02  0.00000000000E+00 0. -1.
</event>
<event>
 7    1  0.2429906E-015  0.9000771E+02  0.7816164E-02  0.1186339E+00
        -11   -1    0    0    0    0  0.00000000000E+00  0.00000000000E+00  0.45593999997E+02  0.45594000000E+02  0.51100000000E-03 0. -1.
         11   -1    0    0    0    0 -0.00000000000E+00 -0.00000000000E+00 -0.45593999997E+02  0.45594000000E+02  0.51100000000E-03 0.  1.
    9900012    2    1    2    0    0 -0.11094443989E+01  0.39951406925E+00  0.51043934094E-01  0.90007710269E+02  0.89999971245E+02 0.  0.
        -12    1    1    2    0    0  0.11094443989E+01 -0.39951406925E+00 -0.51043934094E-01  0.11802897309E+01  0.00000000000E+00 0.  1.
         11    1    3    3    0    0  0.80444202410E+01  0.40220206452E+00 -0.38303397594E+01  0.89188545480E+01  0.51100000000E-03 0. -1.
        -11    1    3    3    0    0  0.27036180962E+02  0.17700649665E+02 -0.16115975283E+02  0.36110839635E+02  0.51100000000E-03 0.  1.
         12    1    3    3    0    0 -0.36190045602E+02 -0.17703337660E+02  0.19997358976E+02  0.44978016086E+02  0.00000000000E+00 0. -1.
</event>
<event>
 7    1  0.2429906E-015  0.9000779E+02  0.7816164E-02  0.1186339E+00
        -11   -1    0    0    0    0  0.00000000000E+00  0.00000000000E+00  0.45593999997E+02  0.45594000000E+02  0.51100000000E-03 0.  1.
         11   -1    0    0    0    0 -0.00000000000E+00 -0.00000000000E+00 -0.45593999997E+02  0.45594000000E+02  0.51100000000E-03 0. -1.
    9900012    2    1    2    0    0 -0.82765977419E+00  0.41894797074E+00 -0.72963370753E+00  0.90007786693E+02  0.90000048677E+02 0.  0.
        -12    1    1    2    0    0  0.82765977419E+00 -0.41894797074E+00  0.72963370753E+00  0.11802133075E+01  0.00000000000E+00 0.  1.
         11    1    3    3    0    0 -0.14642422939E+02  0.15093777488E+02  0.31241749772E+02  0.37659920306E+02  0.51100000000E-03 0. -1.
        -11    1    3    3    0    0 -0.54423541474E+01  0.76590820675E+01 -0.78790455910E+00  0.94287618825E+01  0.51100000000E-03 0.  1.
        -12    1    3    3    0    0  0.19257117312E+02 -0.22333911585E+02 -0.31183478920E+02  0.42919104504E+02  0.00000000000E+00 0.  1.
</event>
<event>
 7    1  0.2429906E-015  0.9000768E+02  0.7816164E-02  0.1186339E+00
        -11   -1    0    0    0    0  0.00000000000E+00  0.00000000000E+00  0.45593999997E+02  0.45594000000E+02  0.51100000000E-03 0.  1.
         11   -1    0    0    0    0 -0.00000000000E+00 -0.00000000000E+00 -0.45593999997E+02  0.45594000000E+02  0.51100000000E-03 0. -1.
    9900012    2    1    2    0    0  0.93465306739E+00 -0.48181976427E+00 -0.53611783929E+00  0.90007682679E+02  0.89999943290E+02 0.  0.
        -12    1    1    2    0    0 -0.93465306739E+00  0.48181976427E+00  0.53611783929E+00  0.11803173214E+01  0.00000000000E+00 0.  1.
         11    1    3    3    0    0  0.43292094701E+01 -0.50000773379E+01  0.64403602319E+01  0.92315257785E+01  0.51100000000E-03 0. -1.
        -11    1    3    3    0    0  0.53131757784E+01 -0.30952559139E+02  0.18309998175E+02  0.36353084979E+02  0.51100000000E-03 0.  1.
         12    1    3    3    0    0 -0.87077321811E+01  0.35470816712E+02 -0.25286476246E+02  0.44423071921E+02  0.00000000000E+00 0. -1.
</event>
<event>
 7    1  0.2429906E-015  0.9000776E+02  0.7816164E-02  0.1186339E+00
        -11   -1    0    0    0    0  0.00000000000E+00  0.00000000000E+00  0.45593999997E+02  0.45594000000E+02  0.51100000000E-03 0. -1.
         11   -1    0    0    0    0 -0.00000000000E+00 -0.00000000000E+00 -0.45593999997E+02  0.45594000000E+02  0.51100000000E-03 0.  1.
    9900012    2    1    2    0    0  0.68277004386E+00  0.71104686497E-02  0.96267536775E+00  0.90007758772E+02  0.90000020388E+02 0.  0.
        -12    1    1    2    0    0 -0.68277004386E+00 -0.71104686497E-02 -0.96267536775E+00  0.11802412276E+01  0.00000000000E+00 0.  1.
         11    1    3    3    0    0  0.11956660427E+01 -0.26505142145E+01  0.37640143676E+02  0.37752288130E+02  0.51100000000E-03 0. -1.
        -11    1    3    3    0    0 -0.66686363373E+01 -0.57584670474E+01  0.44189706952E+01  0.98568735206E+01  0.51100000000E-03 0.  1.
        -12    1    3    3    0    0  0.61557403385E+01  0.84160917305E+01 -0.41096439003E+02  0.42398597121E+02  0.00000000000E+00 0.  1.
</event>
<event>
 7    1  0.2429906E-015  0.9000776E+02  0.7816164E-02  0.1186339E+00
        -11   -1    0    0    0    0  0.00000000000E+00  0.00000000000E+00  0.45593999997E+02  0.45594000000E+02  0.51100000000E-03 0. -1.
         11   -1    0    0    0    0 -0.00000000000E+00 -0.00000000000E+00 -0.45593999997E+02  0.45594000000E+02  0.51100000000E-03 0.  1.
    9900012    2    1    2    0    0  0.61788472436E+00  0.10022782547E+01  0.81379547896E-01  0.90007760252E+02  0.90000021887E+02 0.  0.
        -12    1    1    2    0    0 -0.61788472436E+00 -0.10022782547E+01 -0.81379547896E-01  0.11802397482E+01  0.00000000000E+00 0.  1.
         11    1    3    3    0    0  0.33836318538E+02 -0.12178071824E+02 -0.32522343732E+01  0.36107878839E+02  0.51100000000E-03 0. -1.
        -11    1    3    3    0    0  0.73923798541E+01  0.55818906074E+00 -0.69339883608E+01  0.10150815228E+02  0.51100000000E-03 0.  1.
        -12    1    3    3    0    0 -0.40610813668E+02  0.12622161018E+02  0.10267602282E+02  0.43749066186E+02  0.00000000000E+00 0.  1.
</event>
<event>
 7    1  0.2429906E-015  0.9000772E+02  0.7816164E-02  0.1186339E+00
        -11   -1    0    0    0    0  0.00000000000E+00  0.00000000000E+00  0.45593999997E+02  0.45594000000E+02  0.51100000000E-03 0.  1.
         11   -1    0    0    0    0 -0.00000000000E+00 -0.00000000000E+00 -0.45593999997E+02  0.45594000000E+02  0.51100000000E-03 0. -1.
    9900012    2    1    2    0    0  0.22811004360E+00  0.10568132427E+01 -0.47347151742E+00  0.90007718805E+02  0.89999979893E+02 0.  0.
        -12    1    1    2    0    0 -0.22811004360E+00 -0.10568132427E+01  0.47347151742E+00  0.11802811952E+01  0.00000000000E+00 0.  1.
         11    1    3    3    0    0  0.46935005668E+01 -0.72445897946E+01 -0.36082998054E+01  0.93558995618E+01  0.51100000000E-03 0. -1.
        -11    1    3    3    0    0  0.20827290777E+02  0.33470667803E+02  0.16244919481E+02  0.42637531044E+02  0.51100000000E-03 0.  1.
         12    1    3    3    0    0 -0.25292681300E+02 -0.25169264766E+02 -0.13110091193E+02  0.38014288199E+02  0.00000000000E+00 0. -1.
</event>
<event>
 7    1  0.2429906E-015  0.9000779E+02  0.7816164E-02  0.1186339E+00
        -11   -1    0    0    0    0  0.00000000000E+00  0.00000000000E+00  0.45593999997E+02  0.45594000000E+02  0.51100000000E-03 0. -1.
         11   -1    0    0    0    0 -0.00000000000E+00 -0.00000000000E+00 -0.45593999997E+02  0.45594000000E+02  0.51100000000E-03 0.  1.
    9900012    2    1    2    0    0  0.10809034382E+01 -0.47017939393E+00 -0.58985990048E-01  0.90007788048E+02  0.90000050050E+02 0.  0.
        -12    1    1    2    0    0 -0.10809034382E+01  0.47017939393E+00  0.58985990048E-01  0.11802119523E+01  0.00000000000E+00 0.  1.
         11    1    3    3    0    0  0.75113126815E+01 -0.51669840448E+01 -0.79395360731E+01  0.12089407580E+02  0.51100000000E-03 0. -1.
        -11    1    3    3    0    0  0.82300891748E+01 -0.24139183782E+02 -0.22149654060E+02  0.33779309299E+02  0.51100000000E-03 0.  1.
         12    1    3    3    0    0 -0.14660498418E+02  0.28835988432E+02  0.30030204143E+02  0.44139071169E+02  0.00000000000E+00 0. -1.
</event>
<event>
 7    1  0.2619299E-015  0.9000763E+02  0.7816164E-02  0.1186339E+00
        -11   -1    0    0    0    0  0.00000000000E+00  0.00000000000E+00  0.45593999997E+02  0.45594000000E+02  0.51100000000E-03 0. -1.
         11   -1    0    0    0    0 -0.00000000000E+00 -0.00000000000E+00 -0.45593999997E+02  0.45594000000E+02  0.51100000000E-03 0.  1.
    9900012    2    1    2    0    0 -0.23263313408E+00 -0.37827755702E+00  0.10936448128E+01  0.90007630964E+02  0.89999890892E+02 0.  0.
        -12    1    1    2    0    0  0.23263313408E+00  0.37827755702E+00 -0.10936448128E+01  0.11803690363E+01  0.00000000000E+00 0.  1.
         11    1    3    3    0    0 -0.40828026722E+01  0.15540255765E+02  0.37119111744E+02  0.40447463255E+02  0.51100000000E-03 0. -1.
        -11    1    3    3    0    0  0.81444517265E+01  0.36701129901E+01 -0.72676478786E+00  0.89627010774E+01  0.51100000000E-03 0.  1.
        -12    1    3    3    0    0 -0.42942821883E+01 -0.19588646312E+02 -0.35298702143E+02  0.40597466631E+02  0.00000000000E+00 0.  1.
</event>
<event>
 7    1  0.3042924E-015  0.9000775E+02  0.7816164E-02  0.1186339E+00
        -11   -1    0    0    0    0  0.00000000000E+00  0.00000000000E+00  0.45593999997E+02  0.45594000000E+02  0.51100000000E-03 0. -1.
         11   -1    0    0    0    0 -0.00000000000E+00 -0.00000000000E+00 -0.45593999997E+02  0.45594000000E+02  0.51100000000E-03 0.  1.
    9900012    2    1    2    0    0  0.11755063242E+01 -0.47365248994E-01  0.94512967957E-01  0.90007749482E+02  0.90000010975E+02 0.  0.
        -12    1    1    2    0    0 -0.11755063242E+01  0.47365248994E-01 -0.94512967957E-01  0.11802505184E+01  0.00000000000E+00 0.  1.
         11    1    3    3    0    0 -0.11111579775E+01  0.37210483333E+02  0.66804502131E+01  0.37821728639E+02  0.51100000000E-03 0. -1.
        -11    1    3    3    0    0 -0.77012551297E+01  0.42248480593E+01 -0.33292332798E+01  0.93937461212E+01  0.51100000000E-03 0.  1.
        -12    1    3    3    0    0  0.99879194314E+01 -0.41482696641E+02 -0.32567039653E+01  0.42792274722E+02  0.00000000000E+00 0.  1.
</event>
<event>
 7    1  0.2429906E-015  0.9000775E+02  0.7816164E-02  0.1186339E+00
        -11   -1    0    0    0    0  0.00000000000E+00  0.00000000000E+00  0.45593999997E+02  0.45594000000E+02  0.51100000000E-03 0. -1.
         11   -1    0    0    0    0 -0.00000000000E+00 -0.00000000000E+00 -0.45593999997E+02  0.45594000000E+02  0.51100000000E-03 0.  1.
    9900012    2    1    2    0    0  0.93732702343E+00 -0.47791500288E+00  0.53480187144E+00  0.90007746747E+02  0.90000008204E+02 0.  0.
        -12    1    1    2    0    0 -0.93732702343E+00  0.47791500288E+00 -0.53480187144E+00  0.11802532527E+01  0.00000000000E+00 0.  1.
         11    1    3    3    0    0 -0.75659040199E+01  0.18081255502E+01  0.37455735343E+01  0.86337444371E+01  0.51100000000E-03 0. -1.
        -11    1    3    3    0    0 -0.14226117961E+02  0.34074237500E+02  0.62833769725E+01  0.37455532567E+02  0.51100000000E-03 0.  1.
         12    1    3    3    0    0  0.22729349004E+02 -0.36360278053E+02 -0.94941486354E+01  0.43918469743E+02  0.00000000000E+00 0. -1.
</event>
<event>
 7    1  0.2429906E-015  0.9000771E+02  0.7816164E-02  0.1186339E+00
        -11   -1    0    0    0    0  0.00000000000E+00  0.00000000000E+00  0.45593999997E+02  0.45594000000E+02  0.51100000000E-03 0.  1.
         11   -1    0    0    0    0 -0.00000000000E+00 -0.00000000000E+00 -0.45593999997E+02  0.45594000000E+02  0.51100000000E-03 0. -1.
    9900012    2    1    2    0    0 -0.65989804121E+00 -0.70606095434E+00  0.67757262769E+00  0.90007706748E+02  0.89999967677E+02 0.  0.
        -12    1    1    2    0    0  0.65989804121E+00  0.70606095434E+00 -0.67757262769E+00  0.11802932525E+01  0.00000000000E+00 0.  1.
         11    1    3    3    0    0  0.54492992575E+01 -0.77674270671E+01 -0.34935729245E+02  0.36201284007E+02  0.51100000000E-03 0. -1.
        -11    1    3    3    0    0  0.38284751199E+01 -0.81644164076E+01 -0.42676697275E+01  0.99763681861E+01  0.51100000000E-03 0.  1.
        -12    1    3    3    0    0 -0.99376724186E+01  0.15225782520E+02  0.39880971600E+02  0.43830054554E+02  0.00000000000E+00 0.  1.
</event>
<event>
 7    1  0.2429906E-015  0.9000773E+02  0.7816164E-02  0.1186339E+00
        -11   -1    0    0    0    0  0.00000000000E+00  0.00000000000E+00  0.45593999997E+02  0.45594000000E+02  0.51100000000E-03 0.  1.
         11   -1    0    0    0    0 -0.00000000000E+00 -0.00000000000E+00 -0.45593999997E+02  0.45594000000E+02  0.51100000000E-03 0. -1.
    9900012    2    1    2    0    0  0.21635098989E+00 -0.14183546789E+00 -0.11515732353E+01  0.90007726317E+02  0.89999987504E+02 0.  0.
        -12    1    1    2    0    0 -0.21635098989E+00  0.14183546789E+00  0.11515732353E+01  0.11802736832E+01  0.00000000000E+00 0.  1.
         11    1    3    3    0    0  0.23460063144E+01 -0.14103567782E+02 -0.35353524348E+02  0.38135102647E+02  0.51100000000E-03 0. -1.
        -11    1    3    3    0    0  0.70375681415E+01  0.23227646006E+01 -0.56737711320E+01  0.93335030859E+01  0.51100000000E-03 0.  1.
        -12    1    3    3    0    0 -0.91672234660E+01  0.11638967714E+02  0.39875722245E+02  0.42539120584E+02  0.00000000000E+00 0.  1.
</event>
<event>
 7    1  0.2429906E-015  0.9000776E+02  0.7816164E-02  0.1186339E+00
        -11   -1    0    0    0    0  0.00000000000E+00  0.00000000000E+00  0.45593999997E+02  0.45594000000E+02  0.51100000000E-03 0.  1.
         11   -1    0    0    0    0 -0.00000000000E+00 -0.00000000000E+00 -0.45593999997E+02  0.45594000000E+02  0.51100000000E-03 0. -1.
    9900012    2    1    2    0    0  0.44384951644E+00 -0.41825780672E+00 -0.10104600968E+01  0.90007757824E+02  0.90000019428E+02 0.  0.
        -12    1    1    2    0    0 -0.44384951644E+00  0.41825780672E+00  0.10104600968E+01  0.11802421757E+01  0.00000000000E+00 0.  1.
         11    1    3    3    0    0  0.51760958835E+01  0.36413218953E+01  0.67938591075E+01  0.92848110145E+01  0.51100000000E-03 0. -1.
        -11    1    3    3    0    0 -0.32779431529E+02 -0.10214469400E+02  0.20840189231E+02  0.40163914201E+02  0.51100000000E-03 0.  1.
         12    1    3    3    0    0  0.28047185162E+02  0.61548896983E+01 -0.28644508435E+02  0.40559032609E+02  0.00000000000E+00 0. -1.
</event>
<event>
 7    1  0.2429906E-015  0.9000775E+02  0.7816164E-02  0.1186339E+00
        -11   -1    0    0    0    0  0.00000000000E+00  0.00000000000E+00  0.45593999997E+02  0.45594000000E+02  0.51100000000E-03 0.  1.
         11   -1    0    0    0    0 -0.00000000000E+00 -0.00000000000E+00 -0.45593999997E+02  0.45594000000E+02  0.51100000000E-03 0. -1.
    9900012    2    1    2    0    0  0.83208786943E+00  0.63612987057E+00 -0.54401441600E+00  0.90007752941E+02  0.90000014480E+02 0.  0.
        -12    1    1    2    0    0 -0.83208786943E+00 -0.63612987057E+00  0.54401441600E+00  0.11802470587E+01  0.00000000000E+00 0.  1.
         11    1    3    3    0    0  0.11415783566E+02 -0.14016494366E+02 -0.40471895899E+02  0.44325574859E+02  0.51100000000E-03 0. -1.
        -11    1    3    3    0    0  0.22006261795E+01  0.30555309856E+00  0.90025864802E+01  0.92726847177E+01  0.51100000000E-03 0.  1.
        -12    1    3    3    0    0 -0.12784321876E+02  0.14347071138E+02  0.30925295002E+02  0.36409493364E+02  0.00000000000E+00 0.  1.
</event>
<event>
 7    1  0.2429906E-015  0.9000811E+02  0.7816164E-02  0.1186338E+00
        -11   -1    0    0    0    0  0.00000000000E+00  0.00000000000E+00  0.45593999997E+02  0.45594000000E+02  0.51100000000E-03 0.  1.
         11   -1    0    0    0    0 -0.00000000000E+00 -0.00000000000E+00 -0.45593999997E+02  0.45594000000E+02  0.51100000000E-03 0. -1.
    9900012    2    1    2    0    0 -0.11603070559E+01 -0.46210177477E-01 -0.20904614971E+00  0.90008106726E+02  0.90000372934E+02 0.  0.
        -12    1    1    2    0    0  0.11603070559E+01  0.46210177477E-01  0.20904614971E+00  0.11798932736E+01  0.00000000000E+00 0.  1.
         11    1    3    3    0    0 -0.72625461974E+01  0.36980138644E+01 -0.12897367484E+01  0.82512608099E+01  0.51100000000E-03 0. -1.
        -11    1    3    3    0    0 -0.24912940168E+02  0.20163883160E+02  0.20500029885E+02  0.38045867022E+02  0.51100000000E-03 0.  1.
         12    1    3    3    0    0  0.31015179310E+02 -0.23908107202E+02 -0.19419339287E+02  0.43710978894E+02  0.00000000000E+00 0. -1.
</event>
<event>
 7    1  0.2429906E-015  0.9000770E+02  0.7816164E-02  0.1186339E+00
        -11   -1    0    0    0    0  0.00000000000E+00  0.00000000000E+00  0.45593999997E+02  0.45594000000E+02  0.51100000000E-03 0.  1.
         11   -1    0    0    0    0 -0.00000000000E+00 -0.00000000000E+00 -0.45593999997E+02  0.45594000000E+02  0.51100000000E-03 0. -1.
    9900012    2    1    2    0    0  0.43548669530E+00 -0.38718479897E+00 -0.10264273564E+01  0.90007697561E+02  0.89999958368E+02 0.  0.
        -12    1    1    2    0    0 -0.43548669530E+00  0.38718479897E+00  0.10264273564E+01  0.11803024393E+01  0.00000000000E+00 0.  1.
         11    1    3    3    0    0 -0.31038846317E+02 -0.21325952758E+02 -0.61853018792E+01  0.38163650262E+02  0.51100000000E-03 0. -1.
        -11    1    3    3    0    0  0.26866215642E+01 -0.91699005649E+01  0.34277975548E+01  0.10151591409E+02  0.51100000000E-03 0.  1.
        -12    1    3    3    0    0  0.28787711448E+02  0.30108668524E+02  0.17310769681E+01  0.41692455890E+02  0.00000000000E+00 0.  1.
</event>
<event>
 7    1  0.2429906E-015  0.9000759E+02  0.7816164E-02  0.1186339E+00
        -11   -1    0    0    0    0  0.00000000000E+00  0.00000000000E+00  0.45593999997E+02  0.45594000000E+02  0.51100000000E-03 0.  1.
         11   -1    0    0    0    0 -0.00000000000E+00 -0.00000000000E+00 -0.45593999997E+02  0.45594000000E+02  0.51100000000E-03 0. -1.
    9900012    2    1    2    0    0 -0.20740581019E+00  0.67609486329E+00 -0.94511962506E+00  0.90007587979E+02  0.89999847340E+02 0.  0.
        -12    1    1    2    0    0  0.20740581019E+00 -0.67609486329E+00  0.94511962506E+00  0.11804120213E+01  0.00000000000E+00 0.  1.
         11    1    3    3    0    0 -0.34970468969E+02  0.17202923668E+01  0.16213994541E+02  0.38584799143E+02  0.51100000000E-03 0. -1.
        -11    1    3    3    0    0  0.53931137040E+00  0.74843849096E+01  0.56732845346E+01  0.94070735035E+01  0.51100000000E-03 0.  1.
        -12    1    3    3    0    0  0.34223751788E+02 -0.85285824131E+01 -0.22832398701E+02  0.42015715332E+02  0.00000000000E+00 0.  1.
</event>
<event>
 7    1  0.2429906E-015  0.9000770E+02  0.7816164E-02  0.1186339E+00
        -11   -1    0    0    0    0  0.00000000000E+00  0.00000000000E+00  0.45593999997E+02  0.45594000000E+02  0.51100000000E-03 0. -1.
         11   -1    0    0    0    0 -0.00000000000E+00 -0.00000000000E+00 -0.45593999997E+02  0.45594000000E+02  0.51100000000E-03 0.  1.
    9900012    2    1    2    0    0  0.45802100934E+00 -0.87929366445E+00  0.64044395934E+00  0.90007699590E+02  0.89999960424E+02 0.  0.
        -12    1    1    2    0    0 -0.45802100934E+00  0.87929366445E+00 -0.64044395934E+00  0.11803004102E+01  0.00000000000E+00 0.  1.
         11    1    3    3    0    0 -0.83191070892E+01 -0.33442745804E+01  0.31664685738E+01  0.95088505468E+01  0.51100000000E-03 0. -1.
        -11    1    3    3    0    0 -0.30962458236E+02  0.13164333074E+02 -0.15917538798E+02  0.37220176342E+02  0.51100000000E-03 0.  1.
         12    1    3    3    0    0  0.39739586334E+02 -0.10699352158E+02  0.13391514183E+02  0.43278672701E+02  0.00000000000E+00 0. -1.
</event>
<event>
 7    1  0.2429906E-015  0.9000777E+02  0.7816164E-02  0.1186339E+00
        -11   -1    0    0    0    0  0.00000000000E+00  0.00000000000E+00  0.45593999997E+02  0.45594000000E+02  0.51100000000E-03 0.  1.
         11   -1    0    0    0    0 -0.00000000000E+00 -0.00000000000E+00 -0.45593999997E+02  0.45594000000E+02  0.51100000000E-03 0. -1.
    9900012    2    1    2    0    0 -0.38444310899E+00  0.26574169718E+00 -0.10837603854E+01  0.90007766241E+02  0.90000027955E+02 0.  0.
        -12    1    1    2    0    0  0.38444310899E+00 -0.26574169718E+00  0.10837603854E+01  0.11802337593E+01  0.00000000000E+00 0.  1.
         11    1    3    3    0    0  0.95740016205E+01 -0.39788667189E+02 -0.24046727049E+01  0.40994902059E+02  0.51100000000E-03 0. -1.
        -11    1    3    3    0    0 -0.16146177138E+01  0.27988218456E+01 -0.89179361506E+01  0.94852506310E+01  0.51100000000E-03 0.  1.
        -12    1    3    3    0    0 -0.83438270157E+01  0.37255587041E+02  0.10238848470E+02  0.39527613551E+02  0.00000000000E+00 0.  1.
</event>
<event>
 7    1  0.2429906E-015  0.9000758E+02  0.7816164E-02  0.1186339E+00
        -11   -1    0    0    0    0  0.00000000000E+00  0.00000000000E+00  0.45593999997E+02  0.45594000000E+02  0.51100000000E-03 0. -1.
         11   -1    0    0    0    0 -0.00000000000E+00 -0.00000000000E+00 -0.45593999997E+02  0.45594000000E+02  0.51100000000E-03 0.  1.
    9900012    2    1    2    0    0 -0.48806036704E+00  0.10151176281E+01 -0.35315139940E+00  0.90007583704E+02  0.89999843009E+02 0.  0.
        -12    1    1    2    0    0  0.48806036704E+00 -0.10151176281E+01  0.35315139940E+00  0.11804162959E+01  0.00000000000E+00 0.  1.
         11    1    3    3    0    0  0.40462171168E+01 -0.46090065852E+01  0.72536070075E+01  0.94989278100E+01  0.51100000000E-03 0. -1.
        -11    1    3    3    0    0 -0.24385330614E+02 -0.20036619320E+02 -0.27997742872E+02  0.42189857420E+02  0.51100000000E-03 0.  1.
         12    1    3    3    0    0  0.19851053130E+02  0.25660743534E+02  0.20390984465E+02  0.38318798474E+02  0.00000000000E+00 0. -1.
</event>
<event>
 7    1  0.2429906E-015  0.9000780E+02  0.7816164E-02  0.1186339E+00
        -11   -1    0    0    0    0  0.00000000000E+00  0.00000000000E+00  0.45593999997E+02  0.45594000000E+02  0.51100000000E-03 0. -1.
         11   -1    0    0    0    0 -0.00000000000E+00 -0.00000000000E+00 -0.45593999997E+02  0.45594000000E+02  0.51100000000E-03 0.  1.
    9900012    2    1    2    0    0 -0.10021163667E+01  0.62338293015E+00  0.49735563572E-02  0.90007801616E+02  0.90000063797E+02 0.  0.
        -12    1    1    2    0    0  0.10021163667E+01 -0.62338293015E+00 -0.49735563572E-02  0.11801983843E+01  0.00000000000E+00 0.  1.
         11    1    3    3    0    0 -0.84371790449E+01  0.31239722640E+02  0.19582464891E+02  0.37822998193E+02  0.51100000000E-03 0. -1.
        -11    1    3    3    0    0 -0.11778441291E+02  0.33358069518E+00 -0.66503683111E+01  0.13530349377E+02  0.51100000000E-03 0.  1.
        -12    1    3    3    0    0  0.19213503970E+02 -0.30949920405E+02 -0.12927123024E+02  0.38654454045E+02  0.00000000000E+00 0.  1.
</event>
<event>
 7    1  0.2429906E-015  0.9000786E+02  0.7816164E-02  0.1186339E+00
        -11   -1    0    0    0    0  0.00000000000E+00  0.00000000000E+00  0.45593999997E+02  0.45594000000E+02  0.51100000000E-03 0. -1.
         11   -1    0    0    0    0 -0.00000000000E+00 -0.00000000000E+00 -0.45593999997E+02  0.45594000000E+02  0.51100000000E-03 0.  1.
    9900012    2    1    2    0    0 -0.64906642401E+00 -0.45433425188E+00 -0.87465137247E+00  0.90007863627E+02  0.90000126627E+02 0.  0.
        -12    1    1    2    0    0  0.64906642401E+00  0.45433425188E+00  0.87465137247E+00  0.11801363729E+01  0.00000000000E+00 0.  1.
         11    1    3    3    0    0  0.33607382235E+01  0.97479201490E+00  0.81322221513E+01  0.88531247737E+01  0.51100000000E-03 0. -1.
        -11    1    3    3    0    0 -0.31005186905E+02  0.22332150732E+02  0.11310299118E+02  0.39849334219E+02  0.51100000000E-03 0.  1.
         12    1    3    3    0    0  0.26995382257E+02 -0.23761276999E+02 -0.20317172642E+02  0.41305404634E+02  0.00000000000E+00 0. -1.
</event>
<event>
 7    1  0.2429906E-015  0.9000771E+02  0.7816164E-02  0.1186339E+00
        -11   -1    0    0    0    0  0.00000000000E+00  0.00000000000E+00  0.45593999997E+02  0.45594000000E+02  0.51100000000E-03 0.  1.
         11   -1    0    0    0    0 -0.00000000000E+00 -0.00000000000E+00 -0.45593999997E+02  0.45594000000E+02  0.51100000000E-03 0. -1.
    9900012    2    1    2    0    0 -0.29160200149E+00  0.94116397934E+00 -0.64981383739E+00  0.90007712159E+02  0.89999973160E+02 0.  0.
        -12    1    1    2    0    0  0.29160200149E+00 -0.94116397934E+00  0.64981383739E+00  0.11802878405E+01  0.00000000000E+00 0.  1.
         11    1    3    3    0    0  0.45980905839E+01  0.30971147589E+02 -0.22431154167E+02  0.38516374408E+02  0.51100000000E-03 0. -1.
        -11    1    3    3    0    0 -0.23820583958E+01 -0.36362003111E+01 -0.95231036687E+01  0.10468316897E+02  0.51100000000E-03 0.  1.
        -12    1    3    3    0    0 -0.25076341896E+01 -0.26393783298E+02  0.31304443998E+02  0.41023020855E+02  0.00000000000E+00 0.  1.
</event>
<event>
 7    1  0.2429906E-015  0.9000779E+02  0.7816164E-02  0.1186339E+00
        -11   -1    0    0    0    0  0.00000000000E+00  0.00000000000E+00  0.45593999997E+02  0.45594000000E+02  0.51100000000E-03 0.  1.
         11   -1    0    0    0    0 -0.00000000000E+00 -0.00000000000E+00 -0.45593999997E+02  0.45594000000E+02  0.51100000000E-03 0. -1.
    9900012    2    1    2    0    0 -0.85589463102E+00  0.80126034695E+00 -0.13535187657E+00  0.90007790742E+02  0.90000052779E+02 0.  0.
        -12    1    1    2    0    0  0.85589463102E+00 -0.80126034695E+00  0.13535187657E+00  0.11802092584E+01  0.00000000000E+00 0.  1.
         11    1    3    3    0    0 -0.21811793660E+01  0.32967404784E+02 -0.25517617769E+02  0.41746330838E+02  0.51100000000E-03 0. -1.
        -11    1    3    3    0    0  0.87113218735E+01 -0.39292322472E+01 -0.38082575606E-01  0.95565394040E+01  0.51100000000E-03 0.  1.
        -12    1    3    3    0    0 -0.73860371385E+01 -0.28236912189E+02  0.25420348468E+02  0.38704920499E+02  0.00000000000E+00 0.  1.
</event>
<event>
 7    1  0.2676052E-015  0.9000769E+02  0.7816164E-02  0.1186339E+00
        -11   -1    0    0    0    0  0.00000000000E+00  0.00000000000E+00  0.45593999997E+02  0.45594000000E+02  0.51100000000E-03 0.  1.
         11   -1    0    0    0    0 -0.00000000000E+00 -0.00000000000E+00 -0.45593999997E+02  0.45594000000E+02  0.51100000000E-03 0. -1.
    9900012    2    1    2    0    0  0.10863043316E+01 -0.18890434474E+00  0.42117911913E+00  0.90007689108E+02  0.89999949804E+02 0.  0.
        -12    1    1    2    0    0 -0.10863043316E+01  0.18890434474E+00 -0.42117911913E+00  0.11803108924E+01  0.00000000000E+00 0.  1.
         11    1    3    3    0    0 -0.23687419606E+02  0.27684689517E+02  0.77486838871E+01  0.37250207831E+02  0.51100000000E-03 0. -1.
        -11    1    3    3    0    0  0.29945241830E+01  0.73764601673E+01  0.51529022650E+01  0.94832347697E+01  0.51100000000E-03 0.  1.
        -12    1    3    3    0    0  0.21779199755E+02 -0.35250054029E+02 -0.12480407033E+02  0.43274246507E+02  0.00000000000E+00 0.  1.
</event>
<event>
 7    1  0.2429906E-015  0.9000773E+02  0.7816164E-02  0.1186339E+00
        -11   -1    0    0    0    0  0.00000000000E+00  0.00000000000E+00  0.45593999997E+02  0.45594000000E+02  0.51100000000E-03 0.  1.
         11   -1    0    0    0    0 -0.00000000000E+00 -0.00000000000E+00 -0.45593999997E+02  0.45594000000E+02  0.51100000000E-03 0. -1.
    9900012    2    1    2    0    0  0.10562515452E+01 -0.10646274248E-01 -0.52654788033E+00  0.90007731666E+02  0.89999992924E+02 0.  0.
        -12    1    1    2    0    0 -0.10562515452E+01  0.10646274248E-01  0.52654788033E+00  0.11802683339E+01  0.00000000000E+00 0.  1.
         11    1    3    3    0    0 -0.68109447231E+01  0.66690759018E+01  0.14372936983E+01  0.96400910183E+01  0.51100000000E-03 0. -1.
        -11    1    3    3    0    0 -0.24582217004E+02  0.10937444672E+02  0.23329777870E+02  0.35611678204E+02  0.51100000000E-03 0.  1.
         12    1    3    3    0    0  0.32449413272E+02 -0.17617166848E+02 -0.25293619449E+02  0.44755962444E+02  0.00000000000E+00 0. -1.
</event>
<event>
 7    1  0.2429906E-015  0.9000774E+02  0.7816164E-02  0.1186339E+00
        -11   -1    0    0    0    0  0.00000000000E+00  0.00000000000E+00  0.45593999997E+02  0.45594000000E+02  0.51100000000E-03 0.  1.
         11   -1    0    0    0    0 -0.00000000000E+00 -0.00000000000E+00 -0.45593999997E+02  0.45594000000E+02  0.51100000000E-03 0. -1.
    9900012    2    1    2    0    0  0.89452330589E+00  0.12687809188E+00 -0.75943553232E+00  0.90007740570E+02  0.90000001945E+02 0.  0.
        -12    1    1    2    0    0 -0.89452330589E+00 -0.12687809188E+00  0.75943553232E+00  0.11802594303E+01  0.00000000000E+00 0.  1.
         11    1    3    3    0    0  0.35087343180E+02 -0.76566514201E+01 -0.17228449755E+01  0.35954334334E+02  0.51100000000E-03 0. -1.
        -11    1    3    3    0    0  0.95353510405E+01 -0.41447966205E+00  0.57595053611E+00  0.95617170078E+01  0.51100000000E-03 0.  1.
        -12    1    3    3    0    0 -0.43728170914E+02  0.81980091740E+01  0.38745890704E+00  0.44491689227E+02  0.00000000000E+00 0.  1.
</event>
<event>
 7    1  0.2429906E-015  0.9000769E+02  0.7816164E-02  0.1186339E+00
        -11   -1    0    0    0    0  0.00000000000E+00  0.00000000000E+00  0.45593999997E+02  0.45594000000E+02  0.51100000000E-03 0. -1.
         11   -1    0    0    0    0 -0.00000000000E+00 -0.00000000000E+00 -0.45593999997E+02  0.45594000000E+02  0.51100000000E-03 0.  1.
    9900012    2    1    2    0    0 -0.30999194354E+00  0.25509743806E-01  0.11385884459E+01  0.90007690972E+02  0.89999951693E+02 0.  0.
        -12    1    1    2    0    0  0.30999194354E+00 -0.25509743806E-01 -0.11385884459E+01  0.11803090279E+01  0.00000000000E+00 0.  1.
         11    1    3    3    0    0 -0.57095874821E+01  0.20138382450E+00 -0.10084208692E+02  0.11590134161E+02  0.51100000000E-03 0. -1.
        -11    1    3    3    0    0 -0.23340791775E+02  0.25916257214E+02 -0.69392340874E+01  0.35561185563E+02  0.51100000000E-03 0.  1.
         12    1    3    3    0    0  0.28740387313E+02 -0.26092131294E+02  0.18162031225E+02  0.42856371249E+02  0.00000000000E+00 0. -1.
</event>
<event>
 7    1  0.2429906E-015  0.9000682E+02  0.7816164E-02  0.1186341E+00
        -11   -1    0    0    0    0  0.00000000000E+00  0.00000000000E+00  0.45593999997E+02  0.45594000000E+02  0.51100000000E-03 0. -1.
         11   -1    0    0    0    0 -0.00000000000E+00 -0.00000000000E+00 -0.45593999997E+02  0.45594000000E+02  0.51100000000E-03 0.  1.
    9900012    2    1    2    0    0  0.37416258406E+00 -0.10778040846E+01 -0.30582915493E+00  0.90006818068E+02  0.89999067262E+02 0.  0.
        -12    1    1    2    0    0 -0.37416258406E+00  0.10778040846E+01  0.30582915493E+00  0.11811819318E+01  0.00000000000E+00 0.  1.
         11    1    3    3    0    0 -0.38634990856E+02  0.86821990431E+01 -0.24775931550E+01  0.39675957037E+02  0.51100000000E-03 0. -1.
        -11    1    3    3    0    0 -0.18281857001E+01 -0.56506797346E+01  0.67985435324E+01  0.90273273365E+01  0.51100000000E-03 0.  1.
        -12    1    3    3    0    0  0.40837339141E+02 -0.41093233931E+01 -0.46267795323E+01  0.41303533695E+02  0.00000000000E+00 0.  1.
</event>
<event>
 7    1  0.2429906E-015  0.9000766E+02  0.7816164E-02  0.1186339E+00
        -11   -1    0    0    0    0  0.00000000000E+00  0.00000000000E+00  0.45593999997E+02  0.45594000000E+02  0.51100000000E-03 0.  1.
         11   -1    0    0    0    0 -0.00000000000E+00 -0.00000000000E+00 -0.45593999997E+02  0.45594000000E+02  0.51100000000E-03 0. -1.
    9900012    2    1    2    0    0  0.59676161281E+00 -0.69697508845E+00  0.74249101852E+00  0.90007664620E+02  0.89999924993E+02 0.  0.
        -12    1    1    2    0    0 -0.59676161281E+00  0.69697508845E+00 -0.74249101852E+00  0.11803353799E+01  0.00000000000E+00 0.  1.
         11    1    3    3    0    0 -0.28437345821E+02  0.17317427882E+02  0.16855888831E+02  0.37318854944E+02  0.51100000000E-03 0. -1.
        -11    1    3    3    0    0 -0.15381289584E+01  0.91396709978E+01 -0.32966143992E+01  0.98370266543E+01  0.51100000000E-03 0.  1.
        -12    1    3    3    0    0  0.30572236392E+02 -0.27154073968E+02 -0.12816783413E+02  0.42851783022E+02  0.00000000000E+00 0.  1.
</event>
<event>
 7    1  0.2429906E-015  0.9000776E+02  0.7816164E-02  0.1186339E+00
        -11   -1    0    0    0    0  0.00000000000E+00  0.00000000000E+00  0.45593999997E+02  0.45594000000E+02  0.51100000000E-03 0. -1.
         11   -1    0    0    0    0 -0.00000000000E+00 -0.00000000000E+00 -0.45593999997E+02  0.45594000000E+02  0.51100000000E-03 0.  1.
    9900012    2    1    2    0    0  0.25032126679E-01 -0.11555873026E+01 -0.23864271561E+00  0.90007763173E+02  0.90000024847E+02 0.  0.
        -12    1    1    2    0    0 -0.25032126679E-01  0.11555873026E+01  0.23864271561E+00  0.11802368267E+01  0.00000000000E+00 0.  1.
         11    1    3    3    0    0  0.18116221331E+02  0.18927366314E+02 -0.27988329844E+02  0.38337830906E+02  0.51100000000E-03 0. -1.
        -11    1    3    3    0    0  0.42833048094E+01  0.10951381901E+00 -0.53830216766E+01  0.68800883714E+01  0.51100000000E-03 0.  1.
        -12    1    3    3    0    0 -0.22374494013E+02 -0.20192467436E+02  0.33132708805E+02  0.44789843896E+02  0.00000000000E+00 0.  1.
</event>
<event>
 7    1  0.2429906E-015  0.9000774E+02  0.7816164E-02  0.1186339E+00
        -11   -1    0    0    0    0  0.00000000000E+00  0.00000000000E+00  0.45593999997E+02  0.45594000000E+02  0.51100000000E-03 0. -1.
         11   -1    0    0    0    0 -0.00000000000E+00 -0.00000000000E+00 -0.45593999997E+02  0.45594000000E+02  0.51100000000E-03 0.  1.
    9900012    2    1    2    0    0  0.25284144738E+00 -0.88283357301E+00  0.74140940296E+00  0.90007740784E+02  0.90000002162E+02 0.  0.
        -12    1    1    2    0    0 -0.25284144738E+00  0.88283357301E+00 -0.74140940296E+00  0.11802592164E+01  0.00000000000E+00 0.  1.
         11    1    3    3    0    0  0.76355418446E+01  0.90361440017E+01  0.30661063592E+00  0.11834162751E+02  0.51100000000E-03 0. -1.
        -11    1    3    3    0    0 -0.13560733320E+02  0.30648464945E+02 -0.11508967086E+02  0.35435550163E+02  0.51100000000E-03 0.  1.
         12    1    3    3    0    0  0.61780329231E+01 -0.40567442520E+02  0.11943765853E+02  0.42738027870E+02  0.00000000000E+00 0. -1.
</event>
<event>
 7    1  0.2429906E-015  0.9000765E+02  0.7816164E-02  0.1186339E+00
        -11   -1    0    0    0    0  0.00000000000E+00  0.00000000000E+00  0.45593999997E+02  0.45594000000E+02  0.51100000000E-03 0. -1.
         11   -1    0    0    0    0 -0.00000000000E+00 -0.00000000000E+00 -0.45593999997E+02  0.45594000000E+02  0.51100000000E-03 0.  1.
    9900012    2    1    2    0    0 -0.71525988348E+00  0.91217193583E+00  0.22264207135E+00  0.90007650970E+02  0.89999911162E+02 0.  0.
        -12    1    1    2    0    0  0.71525988348E+00 -0.91217193583E+00 -0.22264207135E+00  0.11803490303E+01  0.00000000000E+00 0.  1.
         11    1    3    3    0    0 -0.38455359056E+01 -0.78183804416E+01  0.19034626942E+01  0.89184297733E+01  0.51100000000E-03 0. -1.
        -11    1    3    3    0    0 -0.24238528118E+02 -0.45497525115E+01 -0.30473957014E+02  0.39202915066E+02  0.51100000000E-03 0.  1.
         12    1    3    3    0    0  0.27368804140E+02  0.13280304889E+02  0.28793136392E+02  0.41886306131E+02  0.00000000000E+00 0. -1.
</event>
<event>
 7    1  0.2429906E-015  0.9000766E+02  0.7816164E-02  0.1186339E+00
        -11   -1    0    0    0    0  0.00000000000E+00  0.00000000000E+00  0.45593999997E+02  0.45594000000E+02  0.51100000000E-03 0.  1.
         11   -1    0    0    0    0 -0.00000000000E+00 -0.00000000000E+00 -0.45593999997E+02  0.45594000000E+02  0.51100000000E-03 0. -1.
    9900012    2    1    2    0    0  0.90124169961E-01 -0.10904928866E+01 -0.44260354052E+00  0.90007663185E+02  0.89999923539E+02 0.  0.
        -12    1    1    2    0    0 -0.90124169961E-01  0.10904928866E+01  0.44260354052E+00  0.11803368146E+01  0.00000000000E+00 0.  1.
         11    1    3    3    0    0  0.15706537134E+02  0.14508885500E+01  0.91147784589E+01  0.18217562212E+02  0.51100000000E-03 0. -1.
        -11    1    3    3    0    0  0.11237333897E+02  0.27575641149E+02  0.19195037403E+01  0.29839204962E+02  0.51100000000E-03 0.  1.
         12    1    3    3    0    0 -0.26853746861E+02 -0.30117022586E+02 -0.11476885740E+02  0.41950896012E+02  0.00000000000E+00 0. -1.
</event>
<event>
 7    1  0.2429906E-015  0.9000814E+02  0.7816164E-02  0.1186338E+00
        -11   -1    0    0    0    0  0.00000000000E+00  0.00000000000E+00  0.45593999997E+02  0.45594000000E+02  0.51100000000E-03 0.  1.
         11   -1    0    0    0    0 -0.00000000000E+00 -0.00000000000E+00 -0.45593999997E+02  0.45594000000E+02  0.51100000000E-03 0. -1.
    9900012    2    1    2    0    0  0.49837455103E+00  0.98011090085E+00 -0.42787968566E+00  0.90008137467E+02  0.90000404081E+02 0.  0.
        -12    1    1    2    0    0 -0.49837455103E+00 -0.98011090085E+00  0.42787968566E+00  0.11798625329E+01  0.00000000000E+00 0.  1.
         11    1    3    3    0    0  0.66500461153E+01  0.52501454199E+01  0.51615364910E+01  0.99211188620E+01  0.51100000000E-03 0. -1.
        -11    1    3    3    0    0  0.25342091663E+02  0.25036757306E+02  0.44786832957E+01  0.35904309360E+02  0.51100000000E-03 0.  1.
         12    1    3    3    0    0 -0.31493763228E+02 -0.29306791825E+02 -0.10068099472E+02  0.44182709246E+02  0.00000000000E+00 0. -1.
</event>
<event>
 7    1  0.2429906E-015  0.9000770E+02  0.7816164E-02  0.1186339E+00
        -11   -1    0    0    0    0  0.00000000000E+00  0.00000000000E+00  0.45593999997E+02  0.45594000000E+02  0.51100000000E-03 0.  1.
         11   -1    0    0    0    0 -0.00000000000E+00 -0.00000000000E+00 -0.45593999997E+02  0.45594000000E+02  0.51100000000E-03 0. -1.
    9900012    2    1    2    0    0  0.84767482810E+00  0.55302930581E+00  0.60722607972E+00  0.90007695997E+02  0.89999956784E+02 0.  0.
        -12    1    1    2    0    0 -0.84767482810E+00 -0.55302930581E+00 -0.60722607972E+00  0.11803040029E+01  0.00000000000E+00 0.  1.
         11    1    3    3    0    0  0.21436947975E+02  0.15748949759E+00  0.33517320508E+02  0.39786660022E+02  0.51100000000E-03 0. -1.
        -11    1    3    3    0    0  0.45175562086E+01  0.98022868185E+01 -0.65681115250E+01  0.12634604475E+02  0.51100000000E-03 0.  1.
        -12    1    3    3    0    0 -0.25106829355E+02 -0.94067470103E+01 -0.26341982904E+02  0.37586431500E+02  0.00000000000E+00 0.  1.
</event>
<event>
 7    1  0.2429906E-015  0.9000775E+02  0.7816164E-02  0.1186339E+00
        -11   -1    0    0    0    0  0.00000000000E+00  0.00000000000E+00  0.45593999997E+02  0.45594000000E+02  0.51100000000E-03 0.  1.
         11   -1    0    0    0    0 -0.00000000000E+00 -0.00000000000E+00 -0.45593999997E+02  0.45594000000E+02  0.51100000000E-03 0. -1.
    9900012    2    1    2    0    0 -0.90902678304E+00 -0.60201015010E+00 -0.45194259034E+00  0.90007746630E+02  0.90000008085E+02 0.  0.
        -12    1    1    2    0    0  0.90902678304E+00  0.60201015010E+00  0.45194259034E+00  0.11802533703E+01  0.00000000000E+00 0.  1.
         11    1    3    3    0    0  0.11894981720E+01 -0.41328617715E+01  0.66018101034E+01  0.78790449438E+01  0.51100000000E-03 0. -1.
        -11    1    3    3    0    0 -0.13363640283E+02 -0.37053605971E+02 -0.70161936602E+01  0.40009793436E+02  0.51100000000E-03 0.  1.
         12    1    3    3    0    0  0.11265115328E+02  0.40584457593E+02 -0.37559033572E-01  0.42118908249E+02  0.00000000000E+00 0. -1.
</event>
<event>
 7    1  0.2429906E-015  0.9000775E+02  0.7816164E-02  0.1186339E+00
        -11   -1    0    0    0    0  0.00000000000E+00  0.00000000000E+00  0.45593999997E+02  0.45594000000E+02  0.51100000000E-03 0.  1.
         11   -1    0    0    0    0 -0.00000000000E+00 -0.00000000000E+00 -0.45593999997E+02  0.45594000000E+02  0.51100000000E-03 0. -1.
    9900012    2    1    2    0    0 -0.61191171977E-01 -0.30839667896E+00 -0.11376051238E+01  0.90007746515E+02  0.90000007969E+02 0.  0.
        -12    1    1    2    0    0  0.61191171977E-01  0.30839667896E+00  0.11376051238E+01  0.11802534850E+01  0.00000000000E+00 0.  1.
         11    1    3    3    0    0 -0.27945075017E+01  0.12245503141E+02 -0.68202427773E+01  0.14292562092E+02  0.51100000000E-03 0. -1.
        -11    1    3    3    0    0  0.10859100727E+01  0.28490419862E+02  0.16887343936E+02  0.33137073046E+02  0.51100000000E-03 0.  1.
         12    1    3    3    0    0  0.16474062570E+01 -0.41044319682E+02 -0.11204706282E+02  0.42578111377E+02  0.00000000000E+00 0. -1.
</event>
<event>
 7    1  0.2429906E-015  0.9000774E+02  0.7816164E-02  0.1186339E+00
        -11   -1    0    0    0    0  0.00000000000E+00  0.00000000000E+00  0.45593999997E+02  0.45594000000E+02  0.51100000000E-03 0.  1.
         11   -1    0    0    0    0 -0.00000000000E+00 -0.00000000000E+00 -0.45593999997E+02  0.45594000000E+02  0.51100000000E-03 0. -1.
    9900012    2    1    2    0    0  0.89204911969E-01 -0.87756493270E-01 -0.11736046518E+01  0.90007742995E+02  0.90000004403E+02 0.  0.
        -12    1    1    2    0    0 -0.89204911969E-01  0.87756493270E-01  0.11736046518E+01  0.11802570047E+01  0.00000000000E+00 0.  1.
         11    1    3    3    0    0 -0.14432172635E+01  0.11450394019E+02 -0.35848053868E+00  0.11546553937E+02  0.51100000000E-03 0. -1.
        -11    1    3    3    0    0 -0.33857606488E+02  0.82288896074E+01  0.10471867480E+02  0.36382855167E+02  0.51100000000E-03 0.  1.
         12    1    3    3    0    0  0.35390028664E+02 -0.19767040119E+02 -0.11286991593E+02  0.42078333892E+02  0.00000000000E+00 0. -1.
</event>
<event>
 7    1  0.2429906E-015  0.9000755E+02  0.7816164E-02  0.1186339E+00
        -11   -1    0    0    0    0  0.00000000000E+00  0.00000000000E+00  0.45593999997E+02  0.45594000000E+02  0.51100000000E-03 0.  1.
         11   -1    0    0    0    0 -0.00000000000E+00 -0.00000000000E+00 -0.45593999997E+02  0.45594000000E+02  0.51100000000E-03 0. -1.
    9900012    2    1    2    0    0  0.76150675731E+00  0.52151716252E+00  0.73593420446E+00  0.90007545916E+02  0.89999804721E+02 0.  0.
        -12    1    1    2    0    0 -0.76150675731E+00 -0.52151716252E+00 -0.73593420446E+00  0.11804540845E+01  0.00000000000E+00 0.  1.
         11    1    3    3    0    0  0.31579445053E+01 -0.11613849882E+01 -0.92556806758E+01  0.98483020680E+01  0.51100000000E-03 0. -1.
        -11    1    3    3    0    0  0.30750894586E+02  0.22755722381E+02 -0.39989311357E+01  0.38463383488E+02  0.51100000000E-03 0.  1.
         12    1    3    3    0    0 -0.33147332334E+02 -0.21072820230E+02  0.13990546016E+02  0.41695860359E+02  0.00000000000E+00 0. -1.
</event>
<event>
 7    1  0.2429906E-015  0.9000771E+02  0.7816164E-02  0.1186339E+00
        -11   -1    0    0    0    0  0.00000000000E+00  0.00000000000E+00  0.45593999997E+02  0.45594000000E+02  0.51100000000E-03 0.  1.
         11   -1    0    0    0    0 -0.00000000000E+00 -0.00000000000E+00 -0.45593999997E+02  0.45594000000E+02  0.51100000000E-03 0. -1.
    9900012    2    1    2    0    0  0.10574206105E+01  0.40948193267E+00  0.32750483834E+00  0.90007714772E+02  0.89999975807E+02 0.  0.
        -12    1    1    2    0    0 -0.10574206105E+01 -0.40948193267E+00 -0.32750483834E+00  0.11802852282E+01  0.00000000000E+00 0.  1.
         11    1    3    3    0    0  0.25058362645E+02  0.34009934292E+02 -0.40199398682E+01  0.42435328275E+02  0.51100000000E-03 0. -1.
        -11    1    3    3    0    0 -0.82022815996E+01  0.19107711161E+01  0.18666119548E+01  0.86262802035E+01  0.51100000000E-03 0.  1.
        -12    1    3    3    0    0 -0.15798660435E+02 -0.35511223475E+02  0.24808327517E+01  0.38946106293E+02  0.00000000000E+00 0.  1.
</event>
<event>
 7    1  0.2429906E-015  0.9000770E+02  0.7816164E-02  0.1186339E+00
        -11   -1    0    0    0    0  0.00000000000E+00  0.00000000000E+00  0.45593999997E+02  0.45594000000E+02  0.51100000000E-03 0.  1.
         11   -1    0    0    0    0 -0.00000000000E+00 -0.00000000000E+00 -0.45593999997E+02  0.45594000000E+02  0.51100000000E-03 0. -1.
    9900012    2    1    2    0    0 -0.33885474173E+00 -0.10213005241E+01 -0.48501226022E+00  0.90007697416E+02  0.89999958222E+02 0.  0.
        -12    1    1    2    0    0  0.33885474173E+00  0.10213005241E+01  0.48501226022E+00  0.11803025837E+01  0.00000000000E+00 0.  1.
         11    1    3    3    0    0 -0.10056248051E+02 -0.27074829298E+01 -0.47953610768E+00  0.10425379792E+02  0.51100000000E-03 0. -1.
        -11    1    3    3    0    0 -0.34316125747E+02  0.73510023756E+01  0.18896948070E+01  0.35145478642E+02  0.51100000000E-03 0.  1.
         12    1    3    3    0    0  0.44033519056E+02 -0.56648199698E+01 -0.18951709596E+01  0.44436838982E+02  0.00000000000E+00 0. -1.
</event>
<event>
 7    1  0.2429906E-015  0.9000774E+02  0.7816164E-02  0.1186339E+00
        -11   -1    0    0    0    0  0.00000000000E+00  0.00000000000E+00  0.45593999997E+02  0.45594000000E+02  0.51100000000E-03 0. -1.
         11   -1    0    0    0    0 -0.00000000000E+00 -0.00000000000E+00 -0.45593999997E+02  0.45594000000E+02  0.51100000000E-03 0.  1.
    9900012    2    1    2    0    0  0.45877271745E-01 -0.10087587555E+01 -0.61100349683E+00  0.90007735528E+02  0.89999996837E+02 0.  0.
        -12    1    1    2    0    0 -0.45877271745E-01  0.10087587555E+01  0.61100349683E+00  0.11802644720E+01  0.00000000000E+00 0.  1.
         11    1    3    3    0    0 -0.17322283938E+01  0.91903103015E+01 -0.30454851144E+01  0.98355171948E+01  0.51100000000E-03 0. -1.
        -11    1    3    3    0    0  0.33357399234E+02 -0.20418147291E+02 -0.15940225971E+02  0.42233962954E+02  0.51100000000E-03 0.  1.
         12    1    3    3    0    0 -0.31579293569E+02  0.10219078234E+02  0.18374707589E+02  0.37938255380E+02  0.00000000000E+00 0. -1.
</event>
<event>
 7    1  0.2429906E-015  0.9000782E+02  0.7816164E-02  0.1186339E+00
        -11   -1    0    0    0    0  0.00000000000E+00  0.00000000000E+00  0.45593999997E+02  0.45594000000E+02  0.51100000000E-03 0.  1.
         11   -1    0    0    0    0 -0.00000000000E+00 -0.00000000000E+00 -0.45593999997E+02  0.45594000000E+02  0.51100000000E-03 0. -1.
    9900012    2    1    2    0    0 -0.10340248901E+00  0.40227267063E+00 -0.11046786223E+01  0.90007817711E+02  0.90000080105E+02 0.  0.
        -12    1    1    2    0    0  0.10340248901E+00 -0.40227267063E+00  0.11046786223E+01  0.11801822888E+01  0.00000000000E+00 0.  1.
         11    1    3    3    0    0  0.78162141577E+01 -0.20660440003E+01  0.38844988900E+01  0.89694522384E+01  0.51100000000E-03 0. -1.
        -11    1    3    3    0    0  0.44505581487E+01  0.40308771933E+02  0.20689508920E+01  0.40606466488E+02  0.51100000000E-03 0.  1.
         12    1    3    3    0    0 -0.12370174795E+02 -0.37840455262E+02 -0.70581284042E+01  0.40431898985E+02  0.00000000000E+00 0. -1.
</event>
<event>
 7    1  0.2429906E-015  0.9000775E+02  0.7816164E-02  0.1186339E+00
        -11   -1    0    0    0    0  0.00000000000E+00  0.00000000000E+00  0.45593999997E+02  0.45594000000E+02  0.51100000000E-03 0.  1.
         11   -1    0    0    0    0 -0.00000000000E+00 -0.00000000000E+00 -0.45593999997E+02  0.45594000000E+02  0.51100000000E-03 0. -1.
    9900012    2    1    2    0    0 -0.56721866671E+00  0.87973053581E-01  0.10312726054E+01  0.90007746019E+02  0.90000007466E+02 0.  0.
        -12    1    1    2    0    0  0.56721866671E+00 -0.87973053581E-01 -0.10312726054E+01  0.11802539814E+01  0.00000000000E+00 0.  1.
         11    1    3    3    0    0  0.18589320276E+01  0.96286879911E+01  0.87295151117E+00  0.98452681688E+01  0.51100000000E-03 0. -1.
        -11    1    3    3    0    0 -0.10760338735E+02 -0.14631339670E+02  0.37445493410E+02  0.41617616068E+02  0.51100000000E-03 0.  1.
         12    1    3    3    0    0  0.83341880410E+01  0.50906247326E+01 -0.37287172316E+02  0.38544861782E+02  0.00000000000E+00 0. -1.
</event>
<event>
 7    1  0.2429906E-015  0.9000762E+02  0.7816164E-02  0.1186339E+00
        -11   -1    0    0    0    0  0.00000000000E+00  0.00000000000E+00  0.45593999997E+02  0.45594000000E+02  0.51100000000E-03 0.  1.
         11   -1    0    0    0    0 -0.00000000000E+00 -0.00000000000E+00 -0.45593999997E+02  0.45594000000E+02  0.51100000000E-03 0. -1.
    9900012    2    1    2    0    0 -0.11137761330E+01  0.74895491832E-02 -0.39081117703E+00  0.90007624321E+02  0.89999884162E+02 0.  0.
        -12    1    1    2    0    0  0.11137761330E+01 -0.74895491832E-02  0.39081117703E+00  0.11803756791E+01  0.00000000000E+00 0.  1.
         11    1    3    3    0    0 -0.27690776128E+02 -0.27740812129E+02 -0.69478706561E+00  0.39202225313E+02  0.51100000000E-03 0. -1.
        -11    1    3    3    0    0 -0.34345432633E+01 -0.51993889310E+01  0.29032036680E+00  0.62381101994E+01  0.51100000000E-03 0.  1.
        -12    1    3    3    0    0  0.30011543258E+02  0.32947690610E+02  0.13655521780E-01  0.44567288808E+02  0.00000000000E+00 0.  1.
</event>
<event>
 7    1  0.2716766E-015  0.9000752E+02  0.7816164E-02  0.1186339E+00
        -11   -1    0    0    0    0  0.00000000000E+00  0.00000000000E+00  0.45593999997E+02  0.45594000000E+02  0.51100000000E-03 0.  1.
         11   -1    0    0    0    0 -0.00000000000E+00 -0.00000000000E+00 -0.45593999997E+02  0.45594000000E+02  0.51100000000E-03 0. -1.
    9900012    2    1    2    0    0 -0.86760828597E+00  0.33501249152E+00 -0.72701567300E+00  0.90007521582E+02  0.89999780066E+02 0.  0.
        -12    1    1    2    0    0  0.86760828597E+00 -0.33501249152E+00  0.72701567300E+00  0.11804784183E+01  0.00000000000E+00 0.  1.
         11    1    3    3    0    0  0.79701213769E+01 -0.14929292512E+02 -0.36915259563E+02  0.40609641695E+02  0.51100000000E-03 0. -1.
        -11    1    3    3    0    0  0.45141049944E+01  0.86671499706E+01 -0.51751215459E+00  0.97859313100E+01  0.51100000000E-03 0.  1.
        -12    1    3    3    0    0 -0.13351834657E+02  0.65971550329E+01  0.36705756045E+02  0.39611948577E+02  0.00000000000E+00 0.  1.
</event>
<event>
 7    1  0.2429906E-015  0.9000776E+02  0.7816164E-02  0.1186339E+00
        -11   -1    0    0    0    0  0.00000000000E+00  0.00000000000E+00  0.45593999997E+02  0.45594000000E+02  0.51100000000E-03 0.  1.
         11   -1    0    0    0    0 -0.00000000000E+00 -0.00000000000E+00 -0.45593999997E+02  0.45594000000E+02  0.51100000000E-03 0. -1.
    9900012    2    1    2    0    0  0.20569539695E+00  0.85741768767E+00 -0.78453439694E+00  0.90007758539E+02  0.90000020151E+02 0.  0.
        -12    1    1    2    0    0 -0.20569539695E+00 -0.85741768767E+00  0.78453439694E+00  0.11802414615E+01  0.00000000000E+00 0.  1.
         11    1    3    3    0    0  0.85080818181E+01 -0.53245740912E+01  0.21513015780E+01  0.10264825581E+02  0.51100000000E-03 0. -1.
        -11    1    3    3    0    0  0.27032100010E+02  0.20381306605E+02  0.15733502607E+02  0.37331959424E+02  0.51100000000E-03 0.  1.
         12    1    3    3    0    0 -0.35334486432E+02 -0.14199314826E+02 -0.18669338582E+02  0.42410973533E+02  0.00000000000E+00 0. -1.
</event>
<event>
 7    1  0.2429906E-015  0.9000755E+02  0.7816164E-02  0.1186339E+00
        -11   -1    0    0    0    0  0.00000000000E+00  0.00000000000E+00  0.45593999997E+02  0.45594000000E+02  0.51100000000E-03 0. -1.
         11   -1    0    0    0    0 -0.00000000000E+00 -0.00000000000E+00 -0.45593999997E+02  0.45594000000E+02  0.51100000000E-03 0.  1.
    9900012    2    1    2    0    0  0.46361065905E+00  0.10819221138E+01 -0.89312325355E-01  0.90007547970E+02  0.89999806803E+02 0.  0.
        -12    1    1    2    0    0 -0.46361065905E+00 -0.10819221138E+01  0.89312325355E-01  0.11804520300E+01  0.00000000000E+00 0.  1.
         11    1    3    3    0    0 -0.31824806572E+02  0.13175573447E+02 -0.13161975489E+02  0.36873454518E+02  0.51100000000E-03 0. -1.
        -11    1    3    3    0    0 -0.42942332231E+01  0.84477501999E+01  0.13521196683E+01  0.95725205809E+01  0.51100000000E-03 0.  1.
        -12    1    3    3    0    0  0.36582650454E+02 -0.20541401534E+02  0.11720543496E+02  0.43561572872E+02  0.00000000000E+00 0.  1.
</event>
<event>
 7    1  0.2429906E-015  0.9000775E+02  0.7816164E-02  0.1186339E+00
        -11   -1    0    0    0    0  0.00000000000E+00  0.00000000000E+00  0.45593999997E+02  0.45594000000E+02  0.51100000000E-03 0. -1.
         11   -1    0    0    0    0 -0.00000000000E+00 -0.00000000000E+00 -0.45593999997E+02  0.45594000000E+02  0.51100000000E-03 0.  1.
    9900012    2    1    2    0    0 -0.61161124793E+00  0.99768266156E+00  0.15346271733E+00  0.90007750104E+02  0.90000011605E+02 0.  0.
        -12    1    1    2    0    0  0.61161124793E+00 -0.99768266156E+00 -0.15346271733E+00  0.11802498962E+01  0.00000000000E+00 0.  1.
         11    1    3    3    0    0  0.82813801254E+01 -0.18922951532E+02 -0.68672749769E+00  0.20667146547E+02  0.51100000000E-03 0. -1.
        -11    1    3    3    0    0  0.16566283280E+02  0.35286022630E+02 -0.40999833094E+01  0.39196364603E+02  0.51100000000E-03 0.  1.
         12    1    3    3    0    0 -0.25459274653E+02 -0.15365388436E+02  0.49401735244E+01  0.30144238953E+02  0.00000000000E+00 0. -1.
</event>
<event>
 7    1  0.2429906E-015  0.9000763E+02  0.7816164E-02  0.1186339E+00
        -11   -1    0    0    0    0  0.00000000000E+00  0.00000000000E+00  0.45593999997E+02  0.45594000000E+02  0.51100000000E-03 0. -1.
         11   -1    0    0    0    0 -0.00000000000E+00 -0.00000000000E+00 -0.45593999997E+02  0.45594000000E+02  0.51100000000E-03 0.  1.
    9900012    2    1    2    0    0  0.86432933793E+00 -0.55638146523E+00  0.58020448656E+00  0.90007634470E+02  0.89999894444E+02 0.  0.
        -12    1    1    2    0    0 -0.86432933793E+00  0.55638146523E+00 -0.58020448656E+00  0.11803655305E+01  0.00000000000E+00 0.  1.
         11    1    3    3    0    0  0.87905975302E+01  0.10581061709E+01 -0.21292330165E+01  0.91064717155E+01  0.51100000000E-03 0. -1.
        -11    1    3    3    0    0 -0.11860882458E+02  0.33256458016E+02 -0.18536821739E+02  0.39878393810E+02  0.51100000000E-03 0.  1.
         12    1    3    3    0    0  0.39346142662E+01 -0.34870945652E+02  0.21246259242E+02  0.41022768944E+02  0.00000000000E+00 0. -1.
</event>
<event>
 7    1  0.2429906E-015  0.9000775E+02  0.7816164E-02  0.1186339E+00
        -11   -1    0    0    0    0  0.00000000000E+00  0.00000000000E+00  0.45593999997E+02  0.45594000000E+02  0.51100000000E-03 0. -1.
         11   -1    0    0    0    0 -0.00000000000E+00 -0.00000000000E+00 -0.45593999997E+02  0.45594000000E+02  0.51100000000E-03 0.  1.
    9900012    2    1    2    0    0 -0.55462582908E+00  0.95333941799E+00  0.42015423785E+00  0.90007747722E+02  0.90000009192E+02 0.  0.
        -12    1    1    2    0    0  0.55462582908E+00 -0.95333941799E+00 -0.42015423785E+00  0.11802522780E+01  0.00000000000E+00 0.  1.
         11    1    3    3    0    0  0.37663275574E+01  0.21618649500E+02  0.19581891943E+02  0.29410911611E+02  0.51100000000E-03 0. -1.
        -11    1    3    3    0    0  0.42673542544E+01 -0.12827052672E+00  0.17331770007E+02  0.17849846428E+02  0.51100000000E-03 0.  1.
        -12    1    3    3    0    0 -0.85883076409E+01 -0.20537039555E+02 -0.36493507712E+02  0.42746989683E+02  0.00000000000E+00 0.  1.
</event>
<event>
 7    1  0.2429906E-015  0.9000783E+02  0.7816164E-02  0.1186339E+00
        -11   -1    0    0    0    0  0.00000000000E+00  0.00000000000E+00  0.45593999997E+02  0.45594000000E+02  0.51100000000E-03 0.  1.
         11   -1    0    0    0    0 -0.00000000000E+00 -0.00000000000E+00 -0.45593999997E+02  0.45594000000E+02  0.51100000000E-03 0. -1.
    9900012    2    1    2    0    0 -0.10208034407E+01  0.33856077815E+00  0.48593925356E+00  0.90007830511E+02  0.90000093074E+02 0.  0.
        -12    1    1    2    0    0  0.10208034407E+01 -0.33856077815E+00 -0.48593925356E+00  0.11801694892E+01  0.00000000000E+00 0.  1.
         11    1    3    3    0    0  0.46685167049E+01 -0.75417120383E+01 -0.26528554543E+01  0.92579755355E+01  0.51100000000E-03 0. -1.
        -11    1    3    3    0    0  0.33149997451E+02  0.10434028993E+02  0.17936194805E+02  0.39108801776E+02  0.51100000000E-03 0.  1.
         12    1    3    3    0    0 -0.38839317596E+02 -0.25537561762E+01 -0.14797400097E+02  0.41641053200E+02  0.00000000000E+00 0. -1.
</event>
<event>
 7    1  0.2429906E-015  0.9000770E+02  0.7816164E-02  0.1186339E+00
        -11   -1    0    0    0    0  0.00000000000E+00  0.00000000000E+00  0.45593999997E+02  0.45594000000E+02  0.51100000000E-03 0. -1.
         11   -1    0    0    0    0 -0.00000000000E+00 -0.00000000000E+00 -0.45593999997E+02  0.45594000000E+02  0.51100000000E-03 0.  1.
    9900012    2    1    2    0    0 -0.31215681062E+00  0.10844984829E+01 -0.34571680352E+00  0.90007703875E+02  0.89999964766E+02 0.  0.
        -12    1    1    2    0    0  0.31215681062E+00 -0.10844984829E+01  0.34571680352E+00  0.11802961247E+01  0.00000000000E+00 0.  1.
         11    1    3    3    0    0 -0.49362287275E+01 -0.21712942336E+02  0.26914291808E+02  0.34931322945E+02  0.51100000000E-03 0. -1.
        -11    1    3    3    0    0  0.15177469057E+02 -0.36481512973E+01  0.68708511332E-01  0.15609910185E+02  0.51100000000E-03 0.  1.
        -12    1    3    3    0    0 -0.10553397140E+02  0.26445592116E+02 -0.27328717122E+02  0.39466470745E+02  0.00000000000E+00 0.  1.
</event>
<event>
 7    1  0.2429906E-015  0.9000767E+02  0.7816164E-02  0.1186339E+00
        -11   -1    0    0    0    0  0.00000000000E+00  0.00000000000E+00  0.45593999997E+02  0.45594000000E+02  0.51100000000E-03 0. -1.
         11   -1    0    0    0    0 -0.00000000000E+00 -0.00000000000E+00 -0.45593999997E+02  0.45594000000E+02  0.51100000000E-03 0.  1.
    9900012    2    1    2    0    0  0.61372132114E+00 -0.99951047058E+00  0.13232402104E+00  0.90007667552E+02  0.89999927964E+02 0.  0.
        -12    1    1    2    0    0 -0.61372132114E+00  0.99951047058E+00 -0.13232402104E+00  0.11803324478E+01  0.00000000000E+00 0.  1.
         11    1    3    3    0    0 -0.72765085075E+01 -0.32847416618E+02 -0.13044622557E+02  0.36084103598E+02  0.51100000000E-03 0. -1.
        -11    1    3    3    0    0 -0.61836330208E+01 -0.55572323866E+01 -0.53358053626E+01  0.98788141122E+01  0.51100000000E-03 0.  1.
        -12    1    3    3    0    0  0.14073862849E+02  0.37405138534E+02  0.18512751940E+02  0.44044749842E+02  0.00000000000E+00 0.  1.
</event>
<event>
 7    1  0.2429906E-015  0.9000777E+02  0.7816164E-02  0.1186339E+00
        -11   -1    0    0    0    0  0.00000000000E+00  0.00000000000E+00  0.45593999997E+02  0.45594000000E+02  0.51100000000E-03 0.  1.
         11   -1    0    0    0    0 -0.00000000000E+00 -0.00000000000E+00 -0.45593999997E+02  0.45594000000E+02  0.51100000000E-03 0. -1.
    9900012    2    1    2    0    0  0.97830398616E+00 -0.65667261704E+00 -0.68202298682E-01  0.90007767324E+02  0.90000029053E+02 0.  0.
        -12    1    1    2    0    0 -0.97830398616E+00  0.65667261704E+00  0.68202298682E-01  0.11802326757E+01  0.00000000000E+00 0.  1.
         11    1    3    3    0    0  0.34315797207E+02  0.15972351328E+02  0.11667137976E+02  0.39608232145E+02  0.51100000000E-03 0. -1.
        -11    1    3    3    0    0 -0.25190415725E+01  0.86719206602E+01 -0.87153197061E+00  0.90723396441E+01  0.51100000000E-03 0.  1.
        -12    1    3    3    0    0 -0.30818451648E+02 -0.25300944605E+02 -0.10863808304E+02  0.41327195535E+02  0.00000000000E+00 0.  1.
</event>
<event>
 7    1  0.2429906E-015  0.9000784E+02  0.7816164E-02  0.1186339E+00
        -11   -1    0    0    0    0  0.00000000000E+00  0.00000000000E+00  0.45593999997E+02  0.45594000000E+02  0.51100000000E-03 0.  1.
         11   -1    0    0    0    0 -0.00000000000E+00 -0.00000000000E+00 -0.45593999997E+02  0.45594000000E+02  0.51100000000E-03 0. -1.
    9900012    2    1    2    0    0 -0.52964264597E+00  0.64092966539E+00  0.83753797807E+00  0.90007838133E+02  0.90000100796E+02 0.  0.
        -12    1    1    2    0    0  0.52964264597E+00 -0.64092966539E+00 -0.83753797807E+00  0.11801618673E+01  0.00000000000E+00 0.  1.
         11    1    3    3    0    0 -0.10125582624E+02 -0.31140650739E+02 -0.17042252082E+02  0.36914846717E+02  0.51100000000E-03 0. -1.
        -11    1    3    3    0    0 -0.12234210407E+02  0.23776103921E+01  0.91050394943E+01  0.15434723189E+02  0.51100000000E-03 0.  1.
        -12    1    3    3    0    0  0.21830150386E+02  0.29403970012E+02  0.87747505654E+01  0.37658268226E+02  0.00000000000E+00 0.  1.
</event>
<event>
 7    1  0.2429906E-015  0.9000798E+02  0.7816164E-02  0.1186339E+00
        -11   -1    0    0    0    0  0.00000000000E+00  0.00000000000E+00  0.45593999997E+02  0.45594000000E+02  0.51100000000E-03 0.  1.
         11   -1    0    0    0    0 -0.00000000000E+00 -0.00000000000E+00 -0.45593999997E+02  0.45594000000E+02  0.51100000000E-03 0. -1.
    9900012    2    1    2    0    0 -0.72708974447E+00 -0.91905801779E+00  0.13825340237E+00  0.90007982568E+02  0.90000247138E+02 0.  0.
        -12    1    1    2    0    0  0.72708974447E+00  0.91905801779E+00 -0.13825340237E+00  0.11800174320E+01  0.00000000000E+00 0.  1.
         11    1    3    3    0    0  0.85292870237E+01 -0.46811195435E+01  0.11405408943E+01  0.97960426247E+01  0.51100000000E-03 0. -1.
        -11    1    3    3    0    0  0.21388837935E+02 -0.22131534133E+02  0.18175495383E+02  0.35744032005E+02  0.51100000000E-03 0.  1.
         12    1    3    3    0    0 -0.30645214703E+02  0.25893595659E+02 -0.19177782875E+02  0.44467907938E+02  0.00000000000E+00 0. -1.
</event>
<event>
 7    1  0.2429906E-015  0.9000778E+02  0.7816164E-02  0.1186339E+00
        -11   -1    0    0    0    0  0.00000000000E+00  0.00000000000E+00  0.45593999997E+02  0.45594000000E+02  0.51100000000E-03 0.  1.
         11   -1    0    0    0    0 -0.00000000000E+00 -0.00000000000E+00 -0.45593999997E+02  0.45594000000E+02  0.51100000000E-03 0. -1.
    9900012    2    1    2    0    0  0.55764682023E-01 -0.23994763942E+00 -0.11542267211E+01  0.90007778032E+02  0.90000039902E+02 0.  0.
        -12    1    1    2    0    0 -0.55764682023E-01  0.23994763942E+00  0.11542267211E+01  0.11802219677E+01  0.00000000000E+00 0.  1.
         11    1    3    3    0    0 -0.33384706376E+02  0.13176217633E+02 -0.11785918364E+01  0.35910171399E+02  0.51100000000E-03 0. -1.
        -11    1    3    3    0    0 -0.71859111808E+01 -0.97640110143E+00 -0.80652014904E+01  0.10846112389E+02  0.51100000000E-03 0.  1.
        -12    1    3    3    0    0  0.40626382239E+02 -0.12439764171E+02  0.80895666056E+01  0.43251494244E+02  0.00000000000E+00 0.  1.
</event>
<event>
 7    1  0.2429906E-015  0.9000778E+02  0.7816164E-02  0.1186339E+00
        -11   -1    0    0    0    0  0.00000000000E+00  0.00000000000E+00  0.45593999997E+02  0.45594000000E+02  0.51100000000E-03 0.  1.
         11   -1    0    0    0    0 -0.00000000000E+00 -0.00000000000E+00 -0.45593999997E+02  0.45594000000E+02  0.51100000000E-03 0. -1.
    9900012    2    1    2    0    0 -0.40938666181E+00  0.74377560179E+00 -0.81982486401E+00  0.90007782905E+02  0.90000044839E+02 0.  0.
        -12    1    1    2    0    0  0.40938666181E+00 -0.74377560179E+00  0.81982486401E+00  0.11802170954E+01  0.00000000000E+00 0.  1.
         11    1    3    3    0    0 -0.64425860012E+01 -0.35442728100E+01  0.55531388736E+01  0.92144525472E+01  0.51100000000E-03 0. -1.
        -11    1    3    3    0    0  0.74855518258E+01 -0.10349770770E+02  0.34800815610E+02  0.37070851197E+02  0.51100000000E-03 0.  1.
         12    1    3    3    0    0 -0.14523524865E+01  0.14637819181E+02 -0.41173779348E+02  0.43722479160E+02  0.00000000000E+00 0. -1.
</event>
<event>
 7    1  0.2429906E-015  0.9000781E+02  0.7816164E-02  0.1186339E+00
        -11   -1    0    0    0    0  0.00000000000E+00  0.00000000000E+00  0.45593999997E+02  0.45594000000E+02  0.51100000000E-03 0. -1.
         11   -1    0    0    0    0 -0.00000000000E+00 -0.00000000000E+00 -0.45593999997E+02  0.45594000000E+02  0.51100000000E-03 0.  1.
    9900012    2    1    2    0    0  0.67942904558E-01 -0.27379107669E+00  0.11459791993E+01  0.90007810982E+02  0.90000073287E+02 0.  0.
        -12    1    1    2    0    0 -0.67942904558E-01  0.27379107669E+00 -0.11459791993E+01  0.11801890176E+01  0.00000000000E+00 0.  1.
         11    1    3    3    0    0  0.67838911392E+00 -0.55453805090E+00 -0.12368053661E+02  0.12399051410E+02  0.51100000000E-03 0. -1.
        -11    1    3    3    0    0 -0.16277085624E+02 -0.31370269489E+02 -0.80266180604E+01  0.36241742810E+02  0.51100000000E-03 0.  1.
         12    1    3    3    0    0  0.15666639414E+02  0.31651016463E+02  0.21540650921E+02  0.41367016762E+02  0.00000000000E+00 0. -1.
</event>
<event>
 7    1  0.2429906E-015  0.9000780E+02  0.7816164E-02  0.1186339E+00
        -11   -1    0    0    0    0  0.00000000000E+00  0.00000000000E+00  0.45593999997E+02  0.45594000000E+02  0.51100000000E-03 0.  1.
         11   -1    0    0    0    0 -0.00000000000E+00 -0.00000000000E+00 -0.45593999997E+02  0.45594000000E+02  0.51100000000E-03 0. -1.
    9900012    2    1    2    0    0  0.60678574881E+00  0.10086592273E+01 -0.85336632610E-01  0.90007803100E+02  0.90000065301E+02 0.  0.
        -12    1    1    2    0    0 -0.60678574881E+00 -0.10086592273E+01  0.85336632610E-01  0.11801969000E+01  0.00000000000E+00 0.  1.
         11    1    3    3    0    0 -0.32265180827E+01  0.21147085247E+01  0.89532093113E+01  0.97489675513E+01  0.51100000000E-03 0. -1.
        -11    1    3    3    0    0 -0.13913864027E+02 -0.19242931893E+02  0.27144084726E+02  0.36065043683E+02  0.51100000000E-03 0.  1.
         12    1    3    3    0    0  0.17747167858E+02  0.18136882595E+02 -0.36182630670E+02  0.44193791866E+02  0.00000000000E+00 0. -1.
</event>
<event>
 7    1  0.2429906E-015  0.9000774E+02  0.7816164E-02  0.1186339E+00
        -11   -1    0    0    0    0  0.00000000000E+00  0.00000000000E+00  0.45593999997E+02  0.45594000000E+02  0.51100000000E-03 0.  1.
         11   -1    0    0    0    0 -0.00000000000E+00 -0.00000000000E+00 -0.45593999997E+02  0.45594000000E+02  0.51100000000E-03 0. -1.
    9900012    2    1    2    0    0 -0.61489208385E+00 -0.10023395842E+01 -0.10122013775E+00  0.90007736287E+02  0.89999997606E+02 0.  0.
        -12    1    1    2    0    0  0.61489208385E+00  0.10023395842E+01  0.10122013775E+00  0.11802637133E+01  0.00000000000E+00 0.  1.
         11    1    3    3    0    0  0.31334506230E+01  0.66674380253E+01  0.19510654845E+01  0.76210169541E+01  0.51100000000E-03 0. -1.
        -11    1    3    3    0    0  0.18081676060E+02 -0.88233408830E+00  0.34680465396E+02  0.39121096648E+02  0.51100000000E-03 0.  1.
         12    1    3    3    0    0 -0.21830018766E+02 -0.67874435212E+01 -0.36732751019E+02  0.43265622685E+02  0.00000000000E+00 0. -1.
</event>
<event>
 7    1  0.2429906E-015  0.9000736E+02  0.7816164E-02  0.1186340E+00
        -11   -1    0    0    0    0  0.00000000000E+00  0.00000000000E+00  0.45593999997E+02  0.45594000000E+02  0.51100000000E-03 0. -1.
         11   -1    0    0    0    0 -0.00000000000E+00 -0.00000000000E+00 -0.45593999997E+02  0.45594000000E+02  0.51100000000E-03 0.  1.
    9900012    2    1    2    0    0  0.23912049925E-01 -0.10782312197E+01  0.48037905989E+00  0.90007356790E+02  0.89999613098E+02 0.  0.
        -12    1    1    2    0    0 -0.23912049925E-01  0.10782312197E+01 -0.48037905989E+00  0.11806432105E+01  0.00000000000E+00 0.  1.
         11    1    3    3    0    0  0.13602708273E+02  0.13302431151E+02  0.33537355968E+02  0.38558301214E+02  0.51100000000E-03 0. -1.
        -11    1    3    3    0    0  0.70585511324E+01 -0.93313772653E+01  0.52331434812E+00  0.11712028173E+02  0.51100000000E-03 0.  1.
        -12    1    3    3    0    0 -0.20637347355E+02 -0.50492851055E+01 -0.33580291257E+02  0.39737027403E+02  0.00000000000E+00 0.  1.
</event>
<event>
 7    1  0.2429906E-015  0.9000782E+02  0.7816164E-02  0.1186339E+00
        -11   -1    0    0    0    0  0.00000000000E+00  0.00000000000E+00  0.45593999997E+02  0.45594000000E+02  0.51100000000E-03 0. -1.
         11   -1    0    0    0    0 -0.00000000000E+00 -0.00000000000E+00 -0.45593999997E+02  0.45594000000E+02  0.51100000000E-03 0.  1.
    9900012    2    1    2    0    0 -0.11153351060E+01 -0.37169622976E+00  0.10339620964E+00  0.90007821513E+02  0.90000083957E+02 0.  0.
        -12    1    1    2    0    0  0.11153351060E+01  0.37169622976E+00 -0.10339620964E+00  0.11801784874E+01  0.00000000000E+00 0.  1.
         11    1    3    3    0    0  0.66641702210E+00  0.91879852356E+01 -0.22142692561E+00  0.92147823893E+01  0.51100000000E-03 0. -1.
        -11    1    3    3    0    0  0.10558636561E+01  0.16513913771E+02 -0.33871165171E+02  0.37697215101E+02  0.51100000000E-03 0.  1.
         12    1    3    3    0    0 -0.28376157842E+01 -0.26073595236E+02  0.34195988307E+02  0.43095824022E+02  0.00000000000E+00 0. -1.
</event>
<event>
 7    1  0.2429906E-015  0.9000775E+02  0.7816164E-02  0.1186339E+00
        -11   -1    0    0    0    0  0.00000000000E+00  0.00000000000E+00  0.45593999997E+02  0.45594000000E+02  0.51100000000E-03 0.  1.
         11   -1    0    0    0    0 -0.00000000000E+00 -0.00000000000E+00 -0.45593999997E+02  0.45594000000E+02  0.51100000000E-03 0. -1.
    9900012    2    1    2    0    0 -0.10906647915E+01  0.45048601121E+00  0.22300780439E-01  0.90007752289E+02  0.90000013820E+02 0.  0.
        -12    1    1    2    0    0  0.10906647915E+01 -0.45048601121E+00 -0.22300780439E-01  0.11802477106E+01  0.00000000000E+00 0.  1.
         11    1    3    3    0    0  0.54216339024E+01 -0.18741405635E+02 -0.25849476352E+02  0.32385642302E+02  0.51100000000E-03 0. -1.
        -11    1    3    3    0    0  0.10390118653E+02 -0.53879420337E+01 -0.66743664190E+01  0.13473368262E+02  0.51100000000E-03 0.  1.
        -12    1    3    3    0    0 -0.16902417346E+02  0.24579833680E+02  0.32546143551E+02  0.44148741726E+02  0.00000000000E+00 0.  1.
</event>
<event>
 7    1  0.2429906E-015  0.9000793E+02  0.7816164E-02  0.1186339E+00
        -11   -1    0    0    0    0  0.00000000000E+00  0.00000000000E+00  0.45593999997E+02  0.45594000000E+02  0.51100000000E-03 0.  1.
         11   -1    0    0    0    0 -0.00000000000E+00 -0.00000000000E+00 -0.45593999997E+02  0.45594000000E+02  0.51100000000E-03 0. -1.
    9900012    2    1    2    0    0 -0.48239768725E-01 -0.47443239913E+00 -0.10794216278E+01  0.90007930414E+02  0.90000194296E+02 0.  0.
        -12    1    1    2    0    0  0.48239768725E-01  0.47443239913E+00  0.10794216278E+01  0.11800695858E+01  0.00000000000E+00 0.  1.
         11    1    3    3    0    0  0.28305977693E+01 -0.97921331630E+01 -0.68146428940E+00  0.10215799012E+02  0.51100000000E-03 0. -1.
        -11    1    3    3    0    0  0.17078745899E+02 -0.30496069122E+02  0.32707481527E+01  0.35105435293E+02  0.51100000000E-03 0.  1.
         12    1    3    3    0    0 -0.19957583437E+02  0.39813769886E+02 -0.36687054911E+01  0.44686696109E+02  0.00000000000E+00 0. -1.
</event>
<event>
 7    1  0.2429906E-015  0.9000768E+02  0.7816164E-02  0.1186339E+00
        -11   -1    0    0    0    0  0.00000000000E+00  0.00000000000E+00  0.45593999997E+02  0.45594000000E+02  0.51100000000E-03 0.  1.
         11   -1    0    0    0    0 -0.00000000000E+00 -0.00000000000E+00 -0.45593999997E+02  0.45594000000E+02  0.51100000000E-03 0. -1.
    9900012    2    1    2    0    0 -0.61687712862E+00  0.34673781407E+00 -0.94466320548E+00  0.90007680943E+02  0.89999941532E+02 0.  0.
        -12    1    1    2    0    0  0.61687712862E+00 -0.34673781407E+00  0.94466320548E+00  0.11803190566E+01  0.00000000000E+00 0.  1.
         11    1    3    3    0    0  0.91281841532E+01  0.87818559349E+00  0.28783873164E+01  0.96114551279E+01  0.51100000000E-03 0. -1.
        -11    1    3    3    0    0 -0.70495678137E+01 -0.35871501418E+02  0.15865738072E+02  0.39852009550E+02  0.51100000000E-03 0.  1.
         12    1    3    3    0    0 -0.26954934682E+01  0.35340053639E+02 -0.19688788594E+02  0.40544216265E+02  0.00000000000E+00 0. -1.
</event>
<event>
 7    1  0.2429906E-015  0.9000786E+02  0.7816164E-02  0.1186339E+00
        -11   -1    0    0    0    0  0.00000000000E+00  0.00000000000E+00  0.45593999997E+02  0.45594000000E+02  0.51100000000E-03 0. -1.
         11   -1    0    0    0    0 -0.00000000000E+00 -0.00000000000E+00 -0.45593999997E+02  0.45594000000E+02  0.51100000000E-03 0.  1.
    9900012    2    1    2    0    0 -0.10535558653E+01  0.11961153707E+00  0.51810872624E+00  0.90007862918E+02  0.90000125908E+02 0.  0.
        -12    1    1    2    0    0  0.10535558653E+01 -0.11961153707E+00 -0.51810872624E+00  0.11801370824E+01  0.00000000000E+00 0.  1.
         11    1    3    3    0    0 -0.67972348885E+01  0.59039784617E+01 -0.19399288948E+02  0.21386719612E+02  0.51100000000E-03 0. -1.
        -11    1    3    3    0    0 -0.22236015373E+02 -0.32756143204E+01 -0.12505888020E+02  0.25720949910E+02  0.51100000000E-03 0.  1.
         12    1    3    3    0    0  0.27979694397E+02 -0.25087526043E+01  0.32423285694E+02  0.42900193395E+02  0.00000000000E+00 0. -1.
</event>
<event>
 7    1  0.2429906E-015  0.9000778E+02  0.7816164E-02  0.1186339E+00
        -11   -1    0    0    0    0  0.00000000000E+00  0.00000000000E+00  0.45593999997E+02  0.45594000000E+02  0.51100000000E-03 0.  1.
         11   -1    0    0    0    0 -0.00000000000E+00 -0.00000000000E+00 -0.45593999997E+02  0.45594000000E+02  0.51100000000E-03 0. -1.
    9900012    2    1    2    0    0  0.11349933690E+01 -0.28525203760E+00 -0.15276252919E+00  0.90007781773E+02  0.90000043693E+02 0.  0.
        -12    1    1    2    0    0 -0.11349933690E+01  0.28525203760E+00  0.15276252919E+00  0.11802182269E+01  0.00000000000E+00 0.  1.
         11    1    3    3    0    0  0.66634347465E+01  0.17037760235E+01  0.59237711097E+01  0.90771845735E+01  0.51100000000E-03 0. -1.
        -11    1    3    3    0    0  0.99698497284E+01  0.14367807727E+02  0.32126147532E+02  0.36577604596E+02  0.51100000000E-03 0.  1.
         12    1    3    3    0    0 -0.15498291106E+02 -0.16356835788E+02 -0.38202681171E+02  0.44352992603E+02  0.00000000000E+00 0. -1.
</event>
<event>
 7    1  0.2429906E-015  0.9000685E+02  0.7816164E-02  0.1186341E+00
        -11   -1    0    0    0    0  0.00000000000E+00  0.00000000000E+00  0.45593999997E+02  0.45594000000E+02  0.51100000000E-03 0. -1.
         11   -1    0    0    0    0 -0.00000000000E+00 -0.00000000000E+00 -0.45593999997E+02  0.45594000000E+02  0.51100000000E-03 0.  1.
    9900012    2    1    2    0    0  0.22953719966E+00  0.41102565778E+00  0.10832706174E+01  0.90006854519E+02  0.89999104194E+02 0.  0.
        -12    1    1    2    0    0 -0.22953719966E+00 -0.41102565778E+00 -0.10832706174E+01  0.11811454813E+01  0.00000000000E+00 0.  1.
         11    1    3    3    0    0 -0.27449883125E+02  0.20035697957E+02 -0.15997032329E+02  0.37561021283E+02  0.51100000000E-03 0. -1.
        -11    1    3    3    0    0 -0.51159278833E+01 -0.54653637200E+01 -0.62738749906E+01  0.97675189458E+01  0.51100000000E-03 0.  1.
        -12    1    3    3    0    0  0.32795348208E+02 -0.14159308580E+02  0.23354177937E+02  0.42678314290E+02  0.00000000000E+00 0.  1.
</event>
<event>
 7    1  0.2429906E-015  0.9000760E+02  0.7816164E-02  0.1186339E+00
        -11   -1    0    0    0    0  0.00000000000E+00  0.00000000000E+00  0.45593999997E+02  0.45594000000E+02  0.51100000000E-03 0.  1.
         11   -1    0    0    0    0 -0.00000000000E+00 -0.00000000000E+00 -0.45593999997E+02  0.45594000000E+02  0.51100000000E-03 0. -1.
    9900012    2    1    2    0    0  0.49954972262E+00  0.10094241633E+01  0.35335966873E+00  0.90007597474E+02  0.89999856961E+02 0.  0.
        -12    1    1    2    0    0 -0.49954972262E+00 -0.10094241633E+01 -0.35335966873E+00  0.11804025255E+01  0.00000000000E+00 0.  1.
         11    1    3    3    0    0 -0.29708899516E+02 -0.28533915448E+01  0.18584007992E+02  0.35158582268E+02  0.51100000000E-03 0. -1.
        -11    1    3    3    0    0 -0.32170462299E+01 -0.11711510583E+02  0.27075431476E+01  0.12443458391E+02  0.51100000000E-03 0.  1.
        -12    1    3    3    0    0  0.33425495469E+02  0.15574326291E+02 -0.20938191471E+02  0.42405556815E+02  0.00000000000E+00 0.  1.
</event>
<event>
 7    1  0.2429906E-015  0.9000770E+02  0.7816164E-02  0.1186339E+00
        -11   -1    0    0    0    0  0.00000000000E+00  0.00000000000E+00  0.45593999997E+02  0.45594000000E+02  0.51100000000E-03 0.  1.
         11   -1    0    0    0    0 -0.00000000000E+00 -0.00000000000E+00 -0.45593999997E+02  0.45594000000E+02  0.51100000000E-03 0. -1.
    9900012    2    1    2    0    0 -0.44229483635E+00  0.93552491225E+00 -0.56769970028E+00  0.90007697270E+02  0.89999958074E+02 0.  0.
        -12    1    1    2    0    0  0.44229483635E+00 -0.93552491225E+00  0.56769970028E+00  0.11803027296E+01  0.00000000000E+00 0.  1.
         11    1    3    3    0    0 -0.43135983437E+01  0.35067075449E+02  0.14131679446E+02  0.38052743336E+02  0.51100000000E-03 0. -1.
        -11    1    3    3    0    0 -0.51666053054E+01  0.64265449104E+01 -0.31480635023E+01  0.88263579093E+01  0.51100000000E-03 0.  1.
        -12    1    3    3    0    0  0.90379088128E+01 -0.40558095447E+02 -0.11551315643E+02  0.43128596025E+02  0.00000000000E+00 0.  1.
</event>
<event>
 7    1  0.2429906E-015  0.9000776E+02  0.7816164E-02  0.1186339E+00
        -11   -1    0    0    0    0  0.00000000000E+00  0.00000000000E+00  0.45593999997E+02  0.45594000000E+02  0.51100000000E-03 0.  1.
         11   -1    0    0    0    0 -0.00000000000E+00 -0.00000000000E+00 -0.45593999997E+02  0.45594000000E+02  0.51100000000E-03 0. -1.
    9900012    2    1    2    0    0  0.10275211574E+01 -0.40422398201E+00 -0.41686831120E+00  0.90007755981E+02  0.90000017560E+02 0.  0.
        -12    1    1    2    0    0 -0.10275211574E+01  0.40422398201E+00  0.41686831120E+00  0.11802440194E+01  0.00000000000E+00 0.  1.
         11    1    3    3    0    0 -0.36792993040E+01  0.23971228969E+01 -0.88664506604E+01  0.98943109475E+01  0.51100000000E-03 0. -1.
        -11    1    3    3    0    0 -0.26865801242E+02 -0.11894957858E+02  0.29062506031E+02  0.41326632525E+02  0.51100000000E-03 0.  1.
         12    1    3    3    0    0  0.31572621703E+02  0.90936109794E+01 -0.20612923682E+02  0.38786812508E+02  0.00000000000E+00 0. -1.
</event>
<event>
 7    1  0.2429906E-015  0.9000789E+02  0.7816164E-02  0.1186339E+00
        -11   -1    0    0    0    0  0.00000000000E+00  0.00000000000E+00  0.45593999997E+02  0.45594000000E+02  0.51100000000E-03 0. -1.
         11   -1    0    0    0    0 -0.00000000000E+00 -0.00000000000E+00 -0.45593999997E+02  0.45594000000E+02  0.51100000000E-03 0.  1.
    9900012    2    1    2    0    0 -0.43298378165E+00 -0.10972157802E+01  0.36056977413E-01  0.90007890883E+02  0.90000154242E+02 0.  0.
        -12    1    1    2    0    0  0.43298378165E+00  0.10972157802E+01 -0.36056977413E-01  0.11801091175E+01  0.00000000000E+00 0.  1.
         11    1    3    3    0    0 -0.14667874827E+01  0.45493665140E+01  0.34246265179E+02  0.34578242872E+02  0.51100000000E-03 0. -1.
        -11    1    3    3    0    0 -0.82284662853E+01 -0.41133427845E+01  0.79979777906E+01  0.12189950585E+02  0.51100000000E-03 0.  1.
        -12    1    3    3    0    0  0.92622699863E+01 -0.15332395098E+01 -0.42208185992E+02  0.43239697425E+02  0.00000000000E+00 0.  1.
</event>
<event>
 7    1  0.2429906E-015  0.9000770E+02  0.7816164E-02  0.1186339E+00
        -11   -1    0    0    0    0  0.00000000000E+00  0.00000000000E+00  0.45593999997E+02  0.45594000000E+02  0.51100000000E-03 0. -1.
         11   -1    0    0    0    0 -0.00000000000E+00 -0.00000000000E+00 -0.45593999997E+02  0.45594000000E+02  0.51100000000E-03 0.  1.
    9900012    2    1    2    0    0 -0.11240058925E+01 -0.29304131442E+00  0.20936535362E+00  0.90007704990E+02  0.89999965896E+02 0.  0.
        -12    1    1    2    0    0  0.11240058925E+01  0.29304131442E+00 -0.20936535362E+00  0.11802950096E+01  0.00000000000E+00 0.  1.
         11    1    3    3    0    0  0.24333033839E+02 -0.37120447442E+01  0.31306417296E+02  0.39824208419E+02  0.51100000000E-03 0. -1.
        -11    1    3    3    0    0 -0.31355274345E+01 -0.68567442620E+01  0.30336104370E+01  0.81270699955E+01  0.51100000000E-03 0.  1.
        -12    1    3    3    0    0 -0.22321512297E+02  0.10275747692E+02 -0.34130662380E+02  0.42056426576E+02  0.00000000000E+00 0.  1.
</event>
<event>
 7    1  0.2429906E-015  0.9000770E+02  0.7816164E-02  0.1186339E+00
        -11   -1    0    0    0    0  0.00000000000E+00  0.00000000000E+00  0.45593999997E+02  0.45594000000E+02  0.51100000000E-03 0.  1.
         11   -1    0    0    0    0 -0.00000000000E+00 -0.00000000000E+00 -0.45593999997E+02  0.45594000000E+02  0.51100000000E-03 0. -1.
    9900012    2    1    2    0    0 -0.66986144371E+00 -0.42383667209E+00  0.87450659662E+00  0.90007697638E+02  0.89999958447E+02 0.  0.
        -12    1    1    2    0    0  0.66986144371E+00  0.42383667209E+00 -0.87450659662E+00  0.11803023621E+01  0.00000000000E+00 0.  1.
         11    1    3    3    0    0  0.87763044056E+01 -0.24652490098E+02 -0.30023556191E+02  0.39826909417E+02  0.51100000000E-03 0. -1.
        -11    1    3    3    0    0 -0.32389845597E+01  0.82108643259E+01 -0.51710576708E+01  0.10229816795E+02  0.51100000000E-03 0.  1.
        -12    1    3    3    0    0 -0.62071812896E+01  0.16017789101E+02  0.36069120459E+02  0.39950971426E+02  0.00000000000E+00 0.  1.
</event>
<event>
 7    1  0.2429906E-015  0.9000783E+02  0.7816164E-02  0.1186339E+00
        -11   -1    0    0    0    0  0.00000000000E+00  0.00000000000E+00  0.45593999997E+02  0.45594000000E+02  0.51100000000E-03 0. -1.
         11   -1    0    0    0    0 -0.00000000000E+00 -0.00000000000E+00 -0.45593999997E+02  0.45594000000E+02  0.51100000000E-03 0.  1.
    9900012    2    1    2    0    0  0.17662968351E+00  0.82046137500E+00  0.82972383292E+00  0.90007831982E+02  0.90000094564E+02 0.  0.
        -12    1    1    2    0    0 -0.17662968351E+00 -0.82046137500E+00 -0.82972383292E+00  0.11801680185E+01  0.00000000000E+00 0.  1.
         11    1    3    3    0    0 -0.11112745655E+02 -0.30852280147E+02  0.13538453203E+02  0.35477401563E+02  0.51100000000E-03 0. -1.
        -11    1    3    3    0    0 -0.55617131691E+00 -0.39478054336E+01  0.99253858188E+01  0.10696157169E+02  0.51100000000E-03 0.  1.
        -12    1    3    3    0    0  0.11845546655E+02  0.35620546955E+02 -0.22634115189E+02  0.43834273250E+02  0.00000000000E+00 0.  1.
</event>
<event>
 7    1  0.2429906E-015  0.9000782E+02  0.7816164E-02  0.1186339E+00
        -11   -1    0    0    0    0  0.00000000000E+00  0.00000000000E+00  0.45593999997E+02  0.45594000000E+02  0.51100000000E-03 0.  1.
         11   -1    0    0    0    0 -0.00000000000E+00 -0.00000000000E+00 -0.45593999997E+02  0.45594000000E+02  0.51100000000E-03 0. -1.
    9900012    2    1    2    0    0 -0.33464063487E+00 -0.85244859645E-01 -0.11285309936E+01  0.90007816436E+02  0.90000078813E+02 0.  0.
        -12    1    1    2    0    0  0.33464063487E+00  0.85244859645E-01  0.11285309936E+01  0.11801835637E+01  0.00000000000E+00 0.  1.
         11    1    3    3    0    0  0.13701340990E+01 -0.50202595393E+01 -0.38337786515E+02  0.38689354458E+02  0.51100000000E-03 0. -1.
        -11    1    3    3    0    0  0.57389182908E+01  0.67411079654E+00 -0.53673337699E+01  0.78865632929E+01  0.51100000000E-03 0.  1.
        -12    1    3    3    0    0 -0.74436930246E+01  0.42609038831E+01  0.42576589291E+02  0.43431898685E+02  0.00000000000E+00 0.  1.
</event>
<event>
 7    1  0.2429906E-015  0.9000761E+02  0.7816164E-02  0.1186339E+00
        -11   -1    0    0    0    0  0.00000000000E+00  0.00000000000E+00  0.45593999997E+02  0.45594000000E+02  0.51100000000E-03 0.  1.
         11   -1    0    0    0    0 -0.00000000000E+00 -0.00000000000E+00 -0.45593999997E+02  0.45594000000E+02  0.51100000000E-03 0. -1.
    9900012    2    1    2    0    0 -0.30544970749E+00  0.11202560936E+01 -0.21223592708E+00  0.90007611366E+02  0.89999871036E+02 0.  0.
        -12    1    1    2    0    0  0.30544970749E+00 -0.11202560936E+01  0.21223592708E+00  0.11803886342E+01  0.00000000000E+00 0.  1.
         11    1    3    3    0    0  0.20133239000E+01 -0.88484621847E+00 -0.91959153223E+01  0.94552252661E+01  0.51100000000E-03 0. -1.
        -11    1    3    3    0    0  0.47787593163E+01  0.39549304521E+02  0.13534033742E+02  0.42073199287E+02  0.51100000000E-03 0.  1.
         12    1    3    3    0    0 -0.70975329239E+01 -0.37544202209E+02 -0.45503543466E+01  0.38479186813E+02  0.00000000000E+00 0. -1.
</event>
<event>
 7    1  0.2429906E-015  0.9000767E+02  0.7816164E-02  0.1186339E+00
        -11   -1    0    0    0    0  0.00000000000E+00  0.00000000000E+00  0.45593999997E+02  0.45594000000E+02  0.51100000000E-03 0. -1.
         11   -1    0    0    0    0 -0.00000000000E+00 -0.00000000000E+00 -0.45593999997E+02  0.45594000000E+02  0.51100000000E-03 0.  1.
    9900012    2    1    2    0    0 -0.37782583287E+00  0.75354521350E+00 -0.82619702515E+00  0.90007667728E+02  0.89999928142E+02 0.  0.
        -12    1    1    2    0    0  0.37782583287E+00 -0.75354521350E+00  0.82619702515E+00  0.11803322723E+01  0.00000000000E+00 0.  1.
         11    1    3    3    0    0  0.14497053053E+01  0.10036781913E+02  0.21200415461E+01  0.10360174374E+02  0.51100000000E-03 0. -1.
        -11    1    3    3    0    0  0.34915570098E+02  0.74402930156E+01 -0.13088179151E+02  0.38023090736E+02  0.51100000000E-03 0.  1.
         12    1    3    3    0    0 -0.36743101236E+02 -0.16723529715E+02  0.10141940579E+02  0.41624402618E+02  0.00000000000E+00 0. -1.
</event>
<event>
 7    1  0.2429906E-015  0.9000766E+02  0.7816164E-02  0.1186339E+00
        -11   -1    0    0    0    0  0.00000000000E+00  0.00000000000E+00  0.45593999997E+02  0.45594000000E+02  0.51100000000E-03 0. -1.
         11   -1    0    0    0    0 -0.00000000000E+00 -0.00000000000E+00 -0.45593999997E+02  0.45594000000E+02  0.51100000000E-03 0.  1.
    9900012    2    1    2    0    0  0.81074355199E-01 -0.30535886841E+00  0.11372689609E+01  0.90007662006E+02  0.89999922345E+02 0.  0.
        -12    1    1    2    0    0 -0.81074355199E-01  0.30535886841E+00 -0.11372689609E+01  0.11803379936E+01  0.00000000000E+00 0.  1.
         11    1    3    3    0    0 -0.27290039149E+01 -0.82188154320E+01  0.13068687799E+00  0.86610316241E+01  0.51100000000E-03 0. -1.
        -11    1    3    3    0    0 -0.31478349528E+02 -0.51146306259E+01 -0.21361474671E+02  0.38384352747E+02  0.51100000000E-03 0.  1.
         12    1    3    3    0    0  0.34288427798E+02  0.13028087189E+02  0.22368056754E+02  0.42962277635E+02  0.00000000000E+00 0. -1.
</event>
<event>
 7    1  0.2429906E-015  0.9000769E+02  0.7816164E-02  0.1186339E+00
        -11   -1    0    0    0    0  0.00000000000E+00  0.00000000000E+00  0.45593999997E+02  0.45594000000E+02  0.51100000000E-03 0.  1.
         11   -1    0    0    0    0 -0.00000000000E+00 -0.00000000000E+00 -0.45593999997E+02  0.45594000000E+02  0.51100000000E-03 0. -1.
    9900012    2    1    2    0    0 -0.13975176838E+00  0.11701116103E+01 -0.66716877828E-01  0.90007685263E+02  0.89999945908E+02 0.  0.
        -12    1    1    2    0    0  0.13975176838E+00 -0.11701116103E+01  0.66716877828E-01  0.11803147373E+01  0.00000000000E+00 0.  1.
         11    1    3    3    0    0 -0.34169298613E+02  0.16839517241E+02  0.11851013984E+02  0.39894320915E+02  0.51100000000E-03 0. -1.
        -11    1    3    3    0    0 -0.47753192346E+01 -0.76967978472E+01 -0.24115924244E+01  0.93733744818E+01  0.51100000000E-03 0.  1.
        -12    1    3    3    0    0  0.38804866079E+02 -0.79726077831E+01 -0.95061384377E+01  0.40739989866E+02  0.00000000000E+00 0.  1.
</event>
<event>
 7    1  0.2429906E-015  0.9000780E+02  0.7816164E-02  0.1186339E+00
        -11   -1    0    0    0    0  0.00000000000E+00  0.00000000000E+00  0.45593999997E+02  0.45594000000E+02  0.51100000000E-03 0.  1.
         11   -1    0    0    0    0 -0.00000000000E+00 -0.00000000000E+00 -0.45593999997E+02  0.45594000000E+02  0.51100000000E-03 0. -1.
    9900012    2    1    2    0    0  0.66061964638E+00 -0.97198627154E+00  0.10817736923E+00  0.90007797487E+02  0.90000059613E+02 0.  0.
        -12    1    1    2    0    0 -0.66061964638E+00  0.97198627154E+00 -0.10817736923E+00  0.11802025133E+01  0.00000000000E+00 0.  1.
         11    1    3    3    0    0 -0.11934519332E+02  0.30966461120E+02  0.11765820073E+02  0.35210637430E+02  0.51100000000E-03 0. -1.
        -11    1    3    3    0    0 -0.60620827748E+01  0.57950122092E+01  0.47269710901E+01  0.96267995732E+01  0.51100000000E-03 0.  1.
        -12    1    3    3    0    0  0.18657221754E+02 -0.37733459601E+02 -0.16384613794E+02  0.45170360483E+02  0.00000000000E+00 0.  1.
</event>
<event>
 7    1  0.2429906E-015  0.9000777E+02  0.7816164E-02  0.1186339E+00
        -11   -1    0    0    0    0  0.00000000000E+00  0.00000000000E+00  0.45593999997E+02  0.45594000000E+02  0.51100000000E-03 0. -1.
         11   -1    0    0    0    0 -0.00000000000E+00 -0.00000000000E+00 -0.45593999997E+02  0.45594000000E+02  0.51100000000E-03 0.  1.
    9900012    2    1    2    0    0 -0.68124535177E+00  0.96360968717E+00  0.17390331972E-01  0.90007770665E+02  0.90000032438E+02 0.  0.
        -12    1    1    2    0    0  0.68124535177E+00 -0.96360968717E+00 -0.17390331972E-01  0.11802293346E+01  0.00000000000E+00 0.  1.
         11    1    3    3    0    0 -0.86558544461E+00 -0.43132863179E+01  0.85942641410E+01  0.96547943224E+01  0.51100000000E-03 0. -1.
        -11    1    3    3    0    0 -0.32308811945E+02 -0.15062557719E+02 -0.19314251755E+02  0.40543560468E+02  0.51100000000E-03 0.  1.
         12    1    3    3    0    0  0.32493152038E+02  0.20339453724E+02  0.10737377946E+02  0.39809415875E+02  0.00000000000E+00 0. -1.
</event>
<event>
 7    1  0.2429906E-015  0.9000789E+02  0.7816164E-02  0.1186339E+00
        -11   -1    0    0    0    0  0.00000000000E+00  0.00000000000E+00  0.45593999997E+02  0.45594000000E+02  0.51100000000E-03 0. -1.
         11   -1    0    0    0    0 -0.00000000000E+00 -0.00000000000E+00 -0.45593999997E+02  0.45594000000E+02  0.51100000000E-03 0.  1.
    9900012    2    1    2    0    0  0.97950361438E+00  0.64854415177E+00  0.11235858497E+00  0.90007889285E+02  0.90000152624E+02 0.  0.
        -12    1    1    2    0    0 -0.97950361438E+00 -0.64854415177E+00 -0.11235858497E+00  0.11801107147E+01  0.00000000000E+00 0.  1.
         11    1    3    3    0    0  0.99833361167E+01  0.11853287660E+02  0.33623015774E+02  0.37022623062E+02  0.51100000000E-03 0. -1.
        -11    1    3    3    0    0 -0.23711467039E+00  0.31691193176E+01  0.77745724153E+01  0.83990188188E+01  0.51100000000E-03 0.  1.
        -12    1    3    3    0    0 -0.87667178320E+01 -0.14373862826E+02 -0.41285229605E+02  0.44586247404E+02  0.00000000000E+00 0.  1.
</event>
<event>
 7    1  0.2429906E-015  0.9000770E+02  0.7816164E-02  0.1186339E+00
        -11   -1    0    0    0    0  0.00000000000E+00  0.00000000000E+00  0.45593999997E+02  0.45594000000E+02  0.51100000000E-03 0. -1.
         11   -1    0    0    0    0 -0.00000000000E+00 -0.00000000000E+00 -0.45593999997E+02  0.45594000000E+02  0.51100000000E-03 0.  1.
    9900012    2    1    2    0    0 -0.47600526066E+00  0.78532184772E-01  0.10771989693E+01  0.90007700914E+02  0.89999961766E+02 0.  0.
        -12    1    1    2    0    0  0.47600526066E+00 -0.78532184772E-01 -0.10771989693E+01  0.11802990856E+01  0.00000000000E+00 0.  1.
         11    1    3    3    0    0 -0.74068566730E+01 -0.20345569238E+01 -0.55195616637E+01  0.94586737374E+01  0.51100000000E-03 0. -1.
        -11    1    3    3    0    0 -0.22652008076E+02  0.23107004797E+02 -0.17705758668E+02  0.36885512479E+02  0.51100000000E-03 0.  1.
         12    1    3    3    0    0  0.29582859488E+02 -0.20993915688E+02  0.24302519301E+02  0.43663514698E+02  0.00000000000E+00 0. -1.
</event>
<event>
 7    1  0.2429906E-015  0.9000773E+02  0.7816164E-02  0.1186339E+00
        -11   -1    0    0    0    0  0.00000000000E+00  0.00000000000E+00  0.45593999997E+02  0.45594000000E+02  0.51100000000E-03 0.  1.
         11   -1    0    0    0    0 -0.00000000000E+00 -0.00000000000E+00 -0.45593999997E+02  0.45594000000E+02  0.51100000000E-03 0. -1.
    9900012    2    1    2    0    0  0.66452904850E+00  0.19557515857E+00 -0.95561414732E+00  0.90007725923E+02  0.89999987105E+02 0.  0.
        -12    1    1    2    0    0 -0.66452904850E+00 -0.19557515857E+00  0.95561414732E+00  0.11802740773E+01  0.00000000000E+00 0.  1.
         11    1    3    3    0    0 -0.27310072492E+01 -0.94230956687E+01  0.66043911351E+01  0.11826711931E+02  0.51100000000E-03 0. -1.
        -11    1    3    3    0    0 -0.28220082518E+02 -0.17640175061E+02  0.69292277906E+01  0.33993573386E+02  0.51100000000E-03 0.  1.
         12    1    3    3    0    0  0.31615618816E+02  0.27258845888E+02 -0.14489233073E+02  0.44187440606E+02  0.00000000000E+00 0. -1.
</event>
<event>
 7    1  0.2429906E-015  0.9000771E+02  0.7816164E-02  0.1186339E+00
        -11   -1    0    0    0    0  0.00000000000E+00  0.00000000000E+00  0.45593999997E+02  0.45594000000E+02  0.51100000000E-03 0. -1.
         11   -1    0    0    0    0 -0.00000000000E+00 -0.00000000000E+00 -0.45593999997E+02  0.45594000000E+02  0.51100000000E-03 0.  1.
    9900012    2    1    2    0    0  0.45260533840E+00  0.17920270933E+00  0.10752285368E+01  0.90007711218E+02  0.89999972206E+02 0.  0.
        -12    1    1    2    0    0 -0.45260533840E+00 -0.17920270933E+00 -0.10752285368E+01  0.11802887824E+01  0.00000000000E+00 0.  1.
         11    1    3    3    0    0  0.80859101621E+01  0.12530884106E+02 -0.17184036458E+02  0.22752936269E+02  0.51100000000E-03 0. -1.
        -11    1    3    3    0    0  0.44176039448E+01 -0.34830819589E+02 -0.12674039572E+01  0.35132713116E+02  0.51100000000E-03 0.  1.
         12    1    3    3    0    0 -0.12050908768E+02  0.22479138192E+02  0.19526668952E+02  0.32122061832E+02  0.00000000000E+00 0. -1.
</event>
<event>
 7    1  0.2429906E-015  0.9000774E+02  0.7816164E-02  0.1186339E+00
        -11   -1    0    0    0    0  0.00000000000E+00  0.00000000000E+00  0.45593999997E+02  0.45594000000E+02  0.51100000000E-03 0.  1.
         11   -1    0    0    0    0 -0.00000000000E+00 -0.00000000000E+00 -0.45593999997E+02  0.45594000000E+02  0.51100000000E-03 0. -1.
    9900012    2    1    2    0    0  0.10363682689E+01  0.40161987288E+00 -0.39705805055E+00  0.90007740365E+02  0.90000001738E+02 0.  0.
        -12    1    1    2    0    0 -0.10363682689E+01 -0.40161987288E+00  0.39705805055E+00  0.11802596352E+01  0.00000000000E+00 0.  1.
         11    1    3    3    0    0 -0.18898630667E+02  0.25511760581E+02 -0.27164384408E+02  0.41784111210E+02  0.51100000000E-03 0. -1.
        -11    1    3    3    0    0  0.73067237310E+01  0.37115923737E+01  0.27713976640E+01  0.86512874708E+01  0.51100000000E-03 0.  1.
        -12    1    3    3    0    0  0.12628275205E+02 -0.28821733082E+02  0.23995928693E+02  0.39572341684E+02  0.00000000000E+00 0.  1.
</event>
<event>
 7    1  0.2429906E-015  0.9000734E+02  0.7816164E-02  0.1186340E+00
        -11   -1    0    0    0    0  0.00000000000E+00  0.00000000000E+00  0.45593999997E+02  0.45594000000E+02  0.51100000000E-03 0.  1.
         11   -1    0    0    0    0 -0.00000000000E+00 -0.00000000000E+00 -0.45593999997E+02  0.45594000000E+02  0.51100000000E-03 0. -1.
    9900012    2    1    2    0    0 -0.97297895966E+00 -0.66278164427E+00  0.89386326359E-01  0.90007340236E+02  0.89999596326E+02 0.  0.
        -12    1    1    2    0    0  0.97297895966E+00  0.66278164427E+00 -0.89386326359E-01  0.11806597644E+01  0.00000000000E+00 0.  1.
         11    1    3    3    0    0  0.89731577237E+01 -0.37825768941E+01  0.16296446970E+02  0.18984194257E+02  0.51100000000E-03 0. -1.
        -11    1    3    3    0    0  0.16071823046E+02  0.44111504935E+01  0.20243166227E+02  0.26221127433E+02  0.51100000000E-03 0.  1.
         12    1    3    3    0    0 -0.26017959729E+02 -0.12913552437E+01 -0.36450226871E+02  0.44802018546E+02  0.00000000000E+00 0. -1.
</event>
<event>
 7    1  0.2429906E-015  0.9000775E+02  0.7816164E-02  0.1186339E+00
        -11   -1    0    0    0    0  0.00000000000E+00  0.00000000000E+00  0.45593999997E+02  0.45594000000E+02  0.51100000000E-03 0.  1.
         11   -1    0    0    0    0 -0.00000000000E+00 -0.00000000000E+00 -0.45593999997E+02  0.45594000000E+02  0.51100000000E-03 0. -1.
    9900012    2    1    2    0    0 -0.68091020773E+00 -0.83922873061E+00  0.47438259666E+00  0.90007753237E+02  0.90000014780E+02 0.  0.
        -12    1    1    2    0    0  0.68091020773E+00  0.83922873061E+00 -0.47438259666E+00  0.11802467629E+01  0.00000000000E+00 0.  1.
         11    1    3    3    0    0 -0.81378426820E+01  0.68955980534E+01 -0.82414175231E+00  0.10698269296E+02  0.51100000000E-03 0. -1.
        -11    1    3    3    0    0  0.11116414280E+02  0.11910329138E+01  0.38908040506E+02  0.40482451039E+02  0.51100000000E-03 0.  1.
         12    1    3    3    0    0 -0.36594818058E+01 -0.89258596978E+01 -0.37609516157E+02  0.38827032902E+02  0.00000000000E+00 0. -1.
</event>
<event>
 7    1  0.2429906E-015  0.9000775E+02  0.7816164E-02  0.1186339E+00
        -11   -1    0    0    0    0  0.00000000000E+00  0.00000000000E+00  0.45593999997E+02  0.45594000000E+02  0.51100000000E-03 0. -1.
         11   -1    0    0    0    0 -0.00000000000E+00 -0.00000000000E+00 -0.45593999997E+02  0.45594000000E+02  0.51100000000E-03 0.  1.
    9900012    2    1    2    0    0  0.95993314924E+00  0.24514040292E+00  0.64142066122E+00  0.90007751750E+02  0.90000013273E+02 0.  0.
        -12    1    1    2    0    0 -0.95993314924E+00 -0.24514040292E+00 -0.64142066122E+00  0.11802482505E+01  0.00000000000E+00 0.  1.
         11    1    3    3    0    0 -0.20102226204E+02  0.18789640874E+02 -0.21845913310E+02  0.35133944144E+02  0.51100000000E-03 0. -1.
        -11    1    3    3    0    0 -0.15546966603E+01  0.59011025057E+01 -0.77687293907E+01  0.98789295522E+01  0.51100000000E-03 0.  1.
        -12    1    3    3    0    0  0.22616856013E+02 -0.24445602976E+02  0.30256063362E+02  0.44994878053E+02  0.00000000000E+00 0.  1.
</event>
<event>
 7    1  0.2429906E-015  0.9000769E+02  0.7816164E-02  0.1186339E+00
        -11   -1    0    0    0    0  0.00000000000E+00  0.00000000000E+00  0.45593999997E+02  0.45594000000E+02  0.51100000000E-03 0.  1.
         11   -1    0    0    0    0 -0.00000000000E+00 -0.00000000000E+00 -0.45593999997E+02  0.45594000000E+02  0.51100000000E-03 0. -1.
    9900012    2    1    2    0    0 -0.42620419526E+00  0.84921731023E+00 -0.70022692400E+00  0.90007687414E+02  0.89999948088E+02 0.  0.
        -12    1    1    2    0    0  0.42620419526E+00 -0.84921731023E+00  0.70022692400E+00  0.11803125862E+01  0.00000000000E+00 0.  1.
         11    1    3    3    0    0 -0.75139526017E+00  0.31999589917E+02 -0.15685019813E+02  0.35644890188E+02  0.51100000000E-03 0. -1.
        -11    1    3    3    0    0  0.23839791354E+01  0.98038178568E+01  0.77525385954E+01  0.12723995285E+02  0.51100000000E-03 0.  1.
        -12    1    3    3    0    0 -0.20587880705E+01 -0.40954190464E+02  0.72322542932E+01  0.41638801941E+02  0.00000000000E+00 0.  1.
</event>
<event>
 7    1  0.2429906E-015  0.9000765E+02  0.7816164E-02  0.1186339E+00
        -11   -1    0    0    0    0  0.00000000000E+00  0.00000000000E+00  0.45593999997E+02  0.45594000000E+02  0.51100000000E-03 0. -1.
         11   -1    0    0    0    0 -0.00000000000E+00 -0.00000000000E+00 -0.45593999997E+02  0.45594000000E+02  0.51100000000E-03 0.  1.
    9900012    2    1    2    0    0 -0.67452458052E-01  0.20354545416E+00  0.11607140951E+01  0.90007645055E+02  0.89999905170E+02 0.  0.
        -12    1    1    2    0    0  0.67452458052E-01 -0.20354545416E+00 -0.11607140951E+01  0.11803549452E+01  0.00000000000E+00 0.  1.
         11    1    3    3    0    0 -0.13591700066E+02  0.27122008821E+02 -0.13669224923E+02  0.33274395312E+02  0.51100000000E-03 0. -1.
        -11    1    3    3    0    0 -0.68477377509E+01  0.87828362506E+01  0.10661911174E+02  0.15417719516E+02  0.51100000000E-03 0.  1.
        -12    1    3    3    0    0  0.20371985359E+02 -0.35701299617E+02  0.41680278436E+01  0.41315530227E+02  0.00000000000E+00 0.  1.
</event>
<event>
 7    1  0.2429906E-015  0.9000766E+02  0.7816164E-02  0.1186339E+00
        -11   -1    0    0    0    0  0.00000000000E+00  0.00000000000E+00  0.45593999997E+02  0.45594000000E+02  0.51100000000E-03 0.  1.
         11   -1    0    0    0    0 -0.00000000000E+00 -0.00000000000E+00 -0.45593999997E+02  0.45594000000E+02  0.51100000000E-03 0. -1.
    9900012    2    1    2    0    0  0.11550143242E+01  0.16525248790E+00  0.17844974945E+00  0.90007656496E+02  0.89999916762E+02 0.  0.
        -12    1    1    2    0    0 -0.11550143242E+01 -0.16525248790E+00 -0.17844974945E+00  0.11803435038E+01  0.00000000000E+00 0.  1.
         11    1    3    3    0    0 -0.90565761213E+01 -0.15917421486E+01  0.10371943535E+01  0.92537012323E+01  0.51100000000E-03 0. -1.
        -11    1    3    3    0    0  0.34655940974E+02 -0.25653113358E+02  0.55474269571E+01  0.43472869883E+02  0.51100000000E-03 0.  1.
         12    1    3    3    0    0 -0.24444350529E+02  0.27410107995E+02 -0.64061715612E+01  0.37281085380E+02  0.00000000000E+00 0. -1.
</event>
<event>
 7    1  0.2429906E-015  0.9000775E+02  0.7816164E-02  0.1186339E+00
        -11   -1    0    0    0    0  0.00000000000E+00  0.00000000000E+00  0.45593999997E+02  0.45594000000E+02  0.51100000000E-03 0.  1.
         11   -1    0    0    0    0 -0.00000000000E+00 -0.00000000000E+00 -0.45593999997E+02  0.45594000000E+02  0.51100000000E-03 0. -1.
    9900012    2    1    2    0    0 -0.40296110462E+00 -0.99402831045E+00 -0.49246289959E+00  0.90007750178E+02  0.90000011681E+02 0.  0.
        -12    1    1    2    0    0  0.40296110462E+00  0.99402831045E+00  0.49246289959E+00  0.11802498216E+01  0.00000000000E+00 0.  1.
         11    1    3    3    0    0  0.30719554528E+01 -0.14140663072E+02 -0.32995311625E+02  0.36028958518E+02  0.51100000000E-03 0. -1.
        -11    1    3    3    0    0  0.55550868518E+01  0.33452103009E+01 -0.85992085993E+01  0.10770135128E+02  0.51100000000E-03 0.  1.
        -12    1    3    3    0    0 -0.90300034092E+01  0.98014244604E+01  0.41102057324E+02  0.43208656532E+02  0.00000000000E+00 0.  1.
</event>
<event>
 7    1  0.2429906E-015  0.9000775E+02  0.7816164E-02  0.1186339E+00
        -11   -1    0    0    0    0  0.00000000000E+00  0.00000000000E+00  0.45593999997E+02  0.45594000000E+02  0.51100000000E-03 0. -1.
         11   -1    0    0    0    0 -0.00000000000E+00 -0.00000000000E+00 -0.45593999997E+02  0.45594000000E+02  0.51100000000E-03 0.  1.
    9900012    2    1    2    0    0  0.10535749064E+01 -0.31507335376E+00  0.42860015058E+00  0.90007750285E+02  0.90000011788E+02 0.  0.
        -12    1    1    2    0    0 -0.10535749064E+01  0.31507335376E+00 -0.42860015058E+00  0.11802497154E+01  0.00000000000E+00 0.  1.
         11    1    3    3    0    0  0.17005525157E+01 -0.22316453985E+02  0.31752522922E+02  0.38847634541E+02  0.51100000000E-03 0. -1.
        -11    1    3    3    0    0  0.56651156859E+01 -0.58864823039E+01  0.73484465905E+00  0.82026950805E+01  0.51100000000E-03 0.  1.
        -12    1    3    3    0    0 -0.63120932952E+01  0.27887862935E+02 -0.32058767430E+02  0.42957420663E+02  0.00000000000E+00 0.  1.
</event>
<event>
 7    1  0.2429906E-015  0.9000775E+02  0.7816164E-02  0.1186339E+00
        -11   -1    0    0    0    0  0.00000000000E+00  0.00000000000E+00  0.45593999997E+02  0.45594000000E+02  0.51100000000E-03 0.  1.
         11   -1    0    0    0    0 -0.00000000000E+00 -0.00000000000E+00 -0.45593999997E+02  0.45594000000E+02  0.51100000000E-03 0. -1.
    9900012    2    1    2    0    0  0.11437454674E+01  0.10588823183E+00  0.27133446838E+00  0.90007750702E+02  0.90000012211E+02 0.  0.
        -12    1    1    2    0    0 -0.11437454674E+01 -0.10588823183E+00 -0.27133446838E+00  0.11802492981E+01  0.00000000000E+00 0.  1.
         11    1    3    3    0    0 -0.58851057346E+01  0.57181355002E+01 -0.22867000649E+01  0.85182475049E+01  0.51100000000E-03 0. -1.
        -11    1    3    3    0    0  0.18269558612E+02  0.27995361477E+02  0.23001258123E+02  0.40578010198E+02  0.51100000000E-03 0.  1.
         12    1    3    3    0    0 -0.11240707410E+02 -0.33607608746E+02 -0.20443223590E+02  0.40911492999E+02  0.00000000000E+00 0. -1.
</event>
<event>
 7    1  0.2476384E-015  0.9000886E+02  0.7816164E-02  0.1186337E+00
        -11   -1    0    0    0    0  0.00000000000E+00  0.00000000000E+00  0.45593999997E+02  0.45594000000E+02  0.51100000000E-03 0. -1.
         11   -1    0    0    0    0 -0.00000000000E+00 -0.00000000000E+00 -0.45593999997E+02  0.45594000000E+02  0.51100000000E-03 0.  1.
    9900012    2    1    2    0    0 -0.60649832048E+00  0.86547144230E+00 -0.52295245342E+00  0.90008864597E+02  0.90001140802E+02 0.  0.
        -12    1    1    2    0    0  0.60649832048E+00 -0.86547144230E+00  0.52295245342E+00  0.11791354030E+01  0.00000000000E+00 0.  1.
         11    1    3    3    0    0  0.18311565625E+02  0.29155621357E+02  0.10319420872E+02  0.35942372484E+02  0.51100000000E-03 0. -1.
        -11    1    3    3    0    0  0.12702202890E+01  0.94531055380E+01  0.11700549201E+01  0.96095625641E+01  0.51100000000E-03 0.  1.
        -12    1    3    3    0    0 -0.20188284235E+02 -0.37743255453E+02 -0.12012428246E+02  0.44456929549E+02  0.00000000000E+00 0.  1.
</event>
<event>
 7    1  0.2429906E-015  0.9000739E+02  0.7816164E-02  0.1186340E+00
        -11   -1    0    0    0    0  0.00000000000E+00  0.00000000000E+00  0.45593999997E+02  0.45594000000E+02  0.51100000000E-03 0.  1.
         11   -1    0    0    0    0 -0.00000000000E+00 -0.00000000000E+00 -0.45593999997E+02  0.45594000000E+02  0.51100000000E-03 0. -1.
    9900012    2    1    2    0    0  0.92374420687E+00  0.43754327111E+00 -0.59083995767E+00  0.90007390272E+02  0.89999647023E+02 0.  0.
        -12    1    1    2    0    0 -0.92374420687E+00 -0.43754327111E+00  0.59083995767E+00  0.11806097278E+01  0.00000000000E+00 0.  1.
         11    1    3    3    0    0 -0.12980162301E+02  0.26811346824E+02  0.19290816239E+02  0.35488991579E+02  0.51100000000E-03 0. -1.
        -11    1    3    3    0    0 -0.58989225339E+01  0.63747121740E+01  0.38358783829E+01  0.94946408880E+01  0.51100000000E-03 0.  1.
        -12    1    3    3    0    0  0.19802829041E+02 -0.32748515727E+02 -0.23717534579E+02  0.45023757805E+02  0.00000000000E+00 0.  1.
</event>
<event>
 7    1  0.2429906E-015  0.9000774E+02  0.7816164E-02  0.1186339E+00
        -11   -1    0    0    0    0  0.00000000000E+00  0.00000000000E+00  0.45593999997E+02  0.45594000000E+02  0.51100000000E-03 0.  1.
         11   -1    0    0    0    0 -0.00000000000E+00 -0.00000000000E+00 -0.45593999997E+02  0.45594000000E+02  0.51100000000E-03 0. -1.
    9900012    2    1    2    0    0  0.92022449934E+00 -0.41615769631E+00 -0.61074706005E+00  0.90007740567E+02  0.90000001943E+02 0.  0.
        -12    1    1    2    0    0 -0.92022449934E+00  0.41615769631E+00  0.61074706005E+00  0.11802594328E+01  0.00000000000E+00 0.  1.
         11    1    3    3    0    0 -0.42441897433E+01 -0.81426997838E+01  0.42702206879E+01  0.10126771022E+02  0.51100000000E-03 0. -1.
        -11    1    3    3    0    0 -0.19566215086E+02  0.37348964523E+00  0.30411103697E+02  0.36163676467E+02  0.51100000000E-03 0.  1.
         12    1    3    3    0    0  0.24730629329E+02  0.73530524423E+01 -0.35292071445E+02  0.43717293078E+02  0.00000000000E+00 0. -1.
</event>
<event>
 7    1  0.2429906E-015  0.9000769E+02  0.7816164E-02  0.1186339E+00
        -11   -1    0    0    0    0  0.00000000000E+00  0.00000000000E+00  0.45593999997E+02  0.45594000000E+02  0.51100000000E-03 0.  1.
         11   -1    0    0    0    0 -0.00000000000E+00 -0.00000000000E+00 -0.45593999997E+02  0.45594000000E+02  0.51100000000E-03 0. -1.
    9900012    2    1    2    0    0  0.57173707939E+00 -0.87703864390E+00 -0.54501868055E+00  0.90007692653E+02  0.89999953396E+02 0.  0.
        -12    1    1    2    0    0 -0.57173707939E+00  0.87703864390E+00  0.54501868055E+00  0.11803073468E+01  0.00000000000E+00 0.  1.
         11    1    3    3    0    0  0.12627052679E+02  0.21677490570E+02 -0.24643710936E+02  0.35166298437E+02  0.51100000000E-03 0. -1.
        -11    1    3    3    0    0  0.14344637850E+00  0.12059522526E+02  0.27035074008E+01  0.12359676895E+02  0.51100000000E-03 0.  1.
        -12    1    3    3    0    0 -0.12198761978E+02 -0.34614051740E+02  0.21395184854E+02  0.42481717322E+02  0.00000000000E+00 0.  1.
</event>
<event>
 7    1  0.2429906E-015  0.9000769E+02  0.7816164E-02  0.1186339E+00
        -11   -1    0    0    0    0  0.00000000000E+00  0.00000000000E+00  0.45593999997E+02  0.45594000000E+02  0.51100000000E-03 0. -1.
         11   -1    0    0    0    0 -0.00000000000E+00 -0.00000000000E+00 -0.45593999997E+02  0.45594000000E+02  0.51100000000E-03 0.  1.
    9900012    2    1    2    0    0 -0.25470919537E+00 -0.88722299498E+00  0.73558861002E+00  0.90007689863E+02  0.89999950569E+02 0.  0.
        -12    1    1    2    0    0  0.25470919537E+00  0.88722299498E+00 -0.73558861002E+00  0.11803101373E+01  0.00000000000E+00 0.  1.
         11    1    3    3    0    0  0.16036252693E+02  0.85946115142E+01  0.39210060548E+02  0.43225659000E+02  0.51100000000E-03 0. -1.
        -11    1    3    3    0    0  0.28357341400E+01 -0.65131546835E+01 -0.12662810222E+02  0.14519274604E+02  0.51100000000E-03 0.  1.
        -12    1    3    3    0    0 -0.19126696028E+02 -0.29686798257E+01 -0.25811661716E+02  0.32262756259E+02  0.00000000000E+00 0.  1.
</event>
<event>
 7    1  0.2429906E-015  0.9000778E+02  0.7816164E-02  0.1186339E+00
        -11   -1    0    0    0    0  0.00000000000E+00  0.00000000000E+00  0.45593999997E+02  0.45594000000E+02  0.51100000000E-03 0.  1.
         11   -1    0    0    0    0 -0.00000000000E+00 -0.00000000000E+00 -0.45593999997E+02  0.45594000000E+02  0.51100000000E-03 0. -1.
    9900012    2    1    2    0    0  0.22297474893E+00  0.49093393199E+00 -0.10498547793E+01  0.90007775902E+02  0.90000037744E+02 0.  0.
        -12    1    1    2    0    0 -0.22297474893E+00 -0.49093393199E+00  0.10498547793E+01  0.11802240981E+01  0.00000000000E+00 0.  1.
         11    1    3    3    0    0  0.81107711629E+01 -0.40115767497E+01  0.13987545090E+01  0.91560838415E+01  0.51100000000E-03 0. -1.
        -11    1    3    3    0    0 -0.10961845172E+02 -0.15532239471E+02  0.34110043073E+02  0.39050064677E+02  0.51100000000E-03 0.  1.
         12    1    3    3    0    0  0.30740487584E+01  0.20034750153E+02 -0.36558652361E+02  0.41801627384E+02  0.00000000000E+00 0. -1.
</event>
<event>
 7    1  0.2429906E-015  0.9000771E+02  0.7816164E-02  0.1186339E+00
        -11   -1    0    0    0    0  0.00000000000E+00  0.00000000000E+00  0.45593999997E+02  0.45594000000E+02  0.51100000000E-03 0.  1.
         11   -1    0    0    0    0 -0.00000000000E+00 -0.00000000000E+00 -0.45593999997E+02  0.45594000000E+02  0.51100000000E-03 0. -1.
    9900012    2    1    2    0    0  0.54669611677E+00  0.94720232549E+00 -0.44385785530E+00  0.90007712457E+02  0.89999973461E+02 0.  0.
        -12    1    1    2    0    0 -0.54669611677E+00 -0.94720232549E+00  0.44385785530E+00  0.11802875435E+01  0.00000000000E+00 0.  1.
         11    1    3    3    0    0  0.54249442958E+01  0.70812574266E+01  0.53051066129E+01  0.10378746735E+02  0.51100000000E-03 0. -1.
        -11    1    3    3    0    0 -0.10667968247E+02  0.61925262934E+01  0.34764408524E+02  0.36887898134E+02  0.51100000000E-03 0.  1.
         12    1    3    3    0    0  0.57897200684E+01 -0.12326581395E+02 -0.40513372992E+02  0.42741067588E+02  0.00000000000E+00 0. -1.
</event>
<event>
 7    1  0.2429906E-015  0.9000768E+02  0.7816164E-02  0.1186339E+00
        -11   -1    0    0    0    0  0.00000000000E+00  0.00000000000E+00  0.45593999997E+02  0.45594000000E+02  0.51100000000E-03 0.  1.
         11   -1    0    0    0    0 -0.00000000000E+00 -0.00000000000E+00 -0.45593999997E+02  0.45594000000E+02  0.51100000000E-03 0. -1.
    9900012    2    1    2    0    0 -0.11261277394E+01 -0.18166527857E+00 -0.30329189989E+00  0.90007681426E+02  0.89999942021E+02 0.  0.
        -12    1    1    2    0    0  0.11261277394E+01  0.18166527857E+00  0.30329189989E+00  0.11803185737E+01  0.00000000000E+00 0.  1.
         11    1    3    3    0    0 -0.82640164881E+01 -0.40573631380E+01 -0.82937385193E+00  0.92435937490E+01  0.51100000000E-03 0. -1.
        -11    1    3    3    0    0  0.15291489848E+02 -0.36096545711E+02  0.58021319149E+01  0.39628966793E+02  0.51100000000E-03 0.  1.
         12    1    3    3    0    0 -0.81536010988E+01  0.39972243571E+02 -0.52760499629E+01  0.41135120884E+02  0.00000000000E+00 0. -1.
</event>
<event>
 7    1  0.2429906E-015  0.9000775E+02  0.7816164E-02  0.1186339E+00
        -11   -1    0    0    0    0  0.00000000000E+00  0.00000000000E+00  0.45593999997E+02  0.45594000000E+02  0.51100000000E-03 0. -1.
         11   -1    0    0    0    0 -0.00000000000E+00 -0.00000000000E+00 -0.45593999997E+02  0.45594000000E+02  0.51100000000E-03 0.  1.
    9900012    2    1    2    0    0  0.86081637898E+00 -0.71715195354E+00  0.37105723598E+00  0.90007747809E+02  0.90000009280E+02 0.  0.
        -12    1    1    2    0    0 -0.86081637898E+00  0.71715195354E+00 -0.37105723598E+00  0.11802521913E+01  0.00000000000E+00 0.  1.
         11    1    3    3    0    0  0.16511138708E+02  0.29905938398E+02 -0.23988819847E+02  0.41742620076E+02  0.51100000000E-03 0. -1.
        -11    1    3    3    0    0 -0.25044505400E+01 -0.86429674161E+01 -0.41770141655E+01  0.99207159955E+01  0.51100000000E-03 0.  1.
        -12    1    3    3    0    0 -0.13145871789E+02 -0.21980122935E+02  0.28536891249E+02  0.38344411737E+02  0.00000000000E+00 0.  1.
</event>
<event>
 7    1  0.2429906E-015  0.9000785E+02  0.7816164E-02  0.1186339E+00
        -11   -1    0    0    0    0  0.00000000000E+00  0.00000000000E+00  0.45593999997E+02  0.45594000000E+02  0.51100000000E-03 0. -1.
         11   -1    0    0    0    0 -0.00000000000E+00 -0.00000000000E+00 -0.45593999997E+02  0.45594000000E+02  0.51100000000E-03 0.  1.
    9900012    2    1    2    0    0 -0.57411147186E+00  0.60275928049E+00  0.83655976631E+00  0.90007849596E+02  0.90000112411E+02 0.  0.
        -12    1    1    2    0    0  0.57411147186E+00 -0.60275928049E+00 -0.83655976631E+00  0.11801504035E+01  0.00000000000E+00 0.  1.
         11    1    3    3    0    0 -0.98047530060E+01  0.13257027162E+02  0.12787518672E+02  0.20866302613E+02  0.51100000000E-03 0. -1.
        -11    1    3    3    0    0 -0.13834702013E+02 -0.23670597400E+02  0.15612048804E+02  0.31550471140E+02  0.51100000000E-03 0.  1.
         12    1    3    3    0    0  0.23065343547E+02  0.11016329518E+02 -0.27563007710E+02  0.37591075843E+02  0.00000000000E+00 0. -1.
</event>
<event>
 7    1  0.2429906E-015  0.9000767E+02  0.7816164E-02  0.1186339E+00
        -11   -1    0    0    0    0  0.00000000000E+00  0.00000000000E+00  0.45593999997E+02  0.45594000000E+02  0.51100000000E-03 0.  1.
         11   -1    0    0    0    0 -0.00000000000E+00 -0.00000000000E+00 -0.45593999997E+02  0.45594000000E+02  0.51100000000E-03 0. -1.
    9900012    2    1    2    0    0  0.47113571266E-01  0.11172564790E+01 -0.37775221886E+00  0.90007670187E+02  0.89999930634E+02 0.  0.
        -12    1    1    2    0    0 -0.47113571266E-01 -0.11172564790E+01  0.37775221886E+00  0.11803298129E+01  0.00000000000E+00 0.  1.
         11    1    3    3    0    0 -0.96516707926E+01 -0.71384294590E+01  0.22516807294E+00  0.12006774136E+02  0.51100000000E-03 0. -1.
        -11    1    3    3    0    0 -0.78308395904E+01 -0.95904630621E+01  0.33495455363E+02  0.35710566513E+02  0.51100000000E-03 0.  1.
         12    1    3    3    0    0  0.17529623954E+02  0.17846149000E+02 -0.34098375655E+02  0.42290329538E+02  0.00000000000E+00 0. -1.
</event>
<event>
 7    1  0.2429906E-015  0.9000781E+02  0.7816164E-02  0.1186339E+00
        -11   -1    0    0    0    0  0.00000000000E+00  0.00000000000E+00  0.45593999997E+02  0.45594000000E+02  0.51100000000E-03 0. -1.
         11   -1    0    0    0    0 -0.00000000000E+00 -0.00000000000E+00 -0.45593999997E+02  0.45594000000E+02  0.51100000000E-03 0.  1.
    9900012    2    1    2    0    0  0.51189351827E+00  0.72891259174E+00  0.77427935540E+00  0.90007806346E+02  0.90000068590E+02 0.  0.
        -12    1    1    2    0    0 -0.51189351827E+00 -0.72891259174E+00 -0.77427935540E+00  0.11801936539E+01  0.00000000000E+00 0.  1.
         11    1    3    3    0    0  0.10375867198E+01 -0.36780584107E+01  0.88499839426E+01  0.96398607831E+01  0.51100000000E-03 0. -1.
        -11    1    3    3    0    0 -0.38438421336E+02  0.97151489349E+01 -0.13104082565E+02  0.41756596290E+02  0.51100000000E-03 0.  1.
         12    1    3    3    0    0  0.37912728135E+02 -0.53081779325E+01  0.50283779775E+01  0.38611349273E+02  0.00000000000E+00 0. -1.
</event>
<event>
 7    1  0.2429906E-015  0.9000782E+02  0.7816164E-02  0.1186339E+00
        -11   -1    0    0    0    0  0.00000000000E+00  0.00000000000E+00  0.45593999997E+02  0.45594000000E+02  0.51100000000E-03 0. -1.
         11   -1    0    0    0    0 -0.00000000000E+00 -0.00000000000E+00 -0.45593999997E+02  0.45594000000E+02  0.51100000000E-03 0.  1.
    9900012    2    1    2    0    0 -0.71149602037E+00 -0.83956972459E+00  0.42629104295E+00  0.90007818674E+02  0.90000081080E+02 0.  0.
        -12    1    1    2    0    0  0.71149602037E+00  0.83956972459E+00 -0.42629104295E+00  0.11801813262E+01  0.00000000000E+00 0.  1.
         11    1    3    3    0    0  0.37002225774E+02 -0.65658610530E+01 -0.88614804344E+01  0.38610893273E+02  0.51100000000E-03 0. -1.
        -11    1    3    3    0    0 -0.25622412159E+00 -0.98053889656E+01  0.53702093534E-01  0.98088831037E+01  0.51100000000E-03 0.  1.
        -12    1    3    3    0    0 -0.37457497673E+02  0.15531680294E+02  0.92340693838E+01  0.41588042297E+02  0.00000000000E+00 0.  1.
</event>
<event>
 7    1  0.2429906E-015  0.9000773E+02  0.7816164E-02  0.1186339E+00
        -11   -1    0    0    0    0  0.00000000000E+00  0.00000000000E+00  0.45593999997E+02  0.45594000000E+02  0.51100000000E-03 0.  1.
         11   -1    0    0    0    0 -0.00000000000E+00 -0.00000000000E+00 -0.45593999997E+02  0.45594000000E+02  0.51100000000E-03 0. -1.
    9900012    2    1    2    0    0 -0.64453364216E+00  0.82515569546E+00 -0.54472046185E+00  0.90007734810E+02  0.89999996109E+02 0.  0.
        -12    1    1    2    0    0  0.64453364216E+00 -0.82515569546E+00  0.54472046185E+00  0.11802651902E+01  0.00000000000E+00 0.  1.
         11    1    3    3    0    0 -0.25747941277E+02  0.93652043623E+00  0.61384491726E+01  0.26486111626E+02  0.51100000000E-03 0. -1.
        -11    1    3    3    0    0 -0.91668195266E+01  0.19820881401E+02 -0.94178247179E+01  0.23782206425E+02  0.51100000000E-03 0.  1.
        -12    1    3    3    0    0  0.34270227162E+02 -0.19932246142E+02  0.27346550834E+01  0.39739416760E+02  0.00000000000E+00 0.  1.
</event>
<event>
 7    1  0.2429906E-015  0.9000772E+02  0.7816164E-02  0.1186339E+00
        -11   -1    0    0    0    0  0.00000000000E+00  0.00000000000E+00  0.45593999997E+02  0.45594000000E+02  0.51100000000E-03 0.  1.
         11   -1    0    0    0    0 -0.00000000000E+00 -0.00000000000E+00 -0.45593999997E+02  0.45594000000E+02  0.51100000000E-03 0. -1.
    9900012    2    1    2    0    0  0.74110655729E+00  0.58385820314E+00 -0.70917031690E+00  0.90007723817E+02  0.89999984971E+02 0.  0.
        -12    1    1    2    0    0 -0.74110655729E+00 -0.58385820314E+00  0.70917031690E+00  0.11802761834E+01  0.00000000000E+00 0.  1.
         11    1    3    3    0    0 -0.31488336164E+02  0.19835251755E+02 -0.13582840071E+02  0.39616234945E+02  0.51100000000E-03 0. -1.
        -11    1    3    3    0    0 -0.49800401293E+01 -0.30496486298E+01 -0.32954482046E+01  0.67053065243E+01  0.51100000000E-03 0.  1.
        -12    1    3    3    0    0  0.37209482851E+02 -0.16201744922E+02  0.16169117959E+02  0.43686182347E+02  0.00000000000E+00 0.  1.
</event>
<event>
 7    1  0.2429906E-015  0.9000781E+02  0.7816164E-02  0.1186339E+00
        -11   -1    0    0    0    0  0.00000000000E+00  0.00000000000E+00  0.45593999997E+02  0.45594000000E+02  0.51100000000E-03 0. -1.
         11   -1    0    0    0    0 -0.00000000000E+00 -0.00000000000E+00 -0.45593999997E+02  0.45594000000E+02  0.51100000000E-03 0.  1.
    9900012    2    1    2    0    0 -0.29338881310E+00  0.71995242141E+00  0.88794568342E+00  0.90007806786E+02  0.90000069036E+02 0.  0.
        -12    1    1    2    0    0  0.29338881310E+00 -0.71995242141E+00 -0.88794568342E+00  0.11801932136E+01  0.00000000000E+00 0.  1.
         11    1    3    3    0    0 -0.42537802365E+01  0.68928965439E+01  0.46311893371E+01  0.93303046039E+01  0.51100000000E-03 0. -1.
        -11    1    3    3    0    0 -0.29793561028E+02 -0.11010638077E+02  0.21410047062E+02  0.38305098160E+02  0.51100000000E-03 0.  1.
         12    1    3    3    0    0  0.33753952451E+02  0.48376939542E+01 -0.25153290716E+02  0.42372404023E+02  0.00000000000E+00 0. -1.
</event>
<event>
 7    1  0.2429906E-015  0.9000771E+02  0.7816164E-02  0.1186339E+00
        -11   -1    0    0    0    0  0.00000000000E+00  0.00000000000E+00  0.45593999997E+02  0.45594000000E+02  0.51100000000E-03 0. -1.
         11   -1    0    0    0    0 -0.00000000000E+00 -0.00000000000E+00 -0.45593999997E+02  0.45594000000E+02  0.51100000000E-03 0.  1.
    9900012    2    1    2    0    0 -0.52578382705E+00 -0.46381812944E+00  0.94947859238E+00  0.90007709575E+02  0.89999970541E+02 0.  0.
        -12    1    1    2    0    0  0.52578382705E+00  0.46381812944E+00 -0.94947859238E+00  0.11802904250E+01  0.00000000000E+00 0.  1.
         11    1    3    3    0    0  0.53283235999E+01  0.23389007561E+01  0.67870923026E+01  0.89401404529E+01  0.51100000000E-03 0. -1.
        -11    1    3    3    0    0 -0.15174558402E+02  0.31579244342E+02 -0.22605478417E+02  0.41695605892E+02  0.51100000000E-03 0.  1.
         12    1    3    3    0    0  0.93204509749E+01 -0.34381963228E+02  0.16767864707E+02  0.39371963231E+02  0.00000000000E+00 0. -1.
</event>
<event>
 7    1  0.2429906E-015  0.9000754E+02  0.7816164E-02  0.1186339E+00
        -11   -1    0    0    0    0  0.00000000000E+00  0.00000000000E+00  0.45593999997E+02  0.45594000000E+02  0.51100000000E-03 0. -1.
         11   -1    0    0    0    0 -0.00000000000E+00 -0.00000000000E+00 -0.45593999997E+02  0.45594000000E+02  0.51100000000E-03 0.  1.
    9900012    2    1    2    0    0  0.35319308511E+00 -0.11185535742E+01  0.13254811212E+00  0.90007543963E+02  0.89999802743E+02 0.  0.
        -12    1    1    2    0    0 -0.35319308511E+00  0.11185535742E+01 -0.13254811212E+00  0.11804560372E+01  0.00000000000E+00 0.  1.
         11    1    3    3    0    0 -0.37121056618E+01 -0.46249018898E+01  0.68688933637E+01  0.90747530125E+01  0.51100000000E-03 0. -1.
        -11    1    3    3    0    0 -0.29756847502E+02 -0.22923364127E+02 -0.57290083473E+01  0.37997001633E+02  0.51100000000E-03 0.  1.
         12    1    3    3    0    0  0.33822146249E+02  0.26429712443E+02 -0.10073369043E+01  0.42935789318E+02  0.00000000000E+00 0. -1.
</event>
<event>
 7    1  0.2429906E-015  0.9000760E+02  0.7816164E-02  0.1186339E+00
        -11   -1    0    0    0    0  0.00000000000E+00  0.00000000000E+00  0.45593999997E+02  0.45594000000E+02  0.51100000000E-03 0. -1.
         11   -1    0    0    0    0 -0.00000000000E+00 -0.00000000000E+00 -0.45593999997E+02  0.45594000000E+02  0.51100000000E-03 0.  1.
    9900012    2    1    2    0    0 -0.11618915758E+01 -0.19605619947E+00  0.70085241118E-01  0.90007600911E+02  0.89999860443E+02 0.  0.
        -12    1    1    2    0    0  0.11618915758E+01  0.19605619947E+00 -0.70085241118E-01  0.11803990886E+01  0.00000000000E+00 0.  1.
         11    1    3    3    0    0 -0.99196564521E+01 -0.68753375614E+01 -0.16896380013E+01  0.12187072148E+02  0.51100000000E-03 0. -1.
        -11    1    3    3    0    0  0.19136619974E+02 -0.14720378432E+02 -0.29767987765E+02  0.38327964478E+02  0.51100000000E-03 0.  1.
         12    1    3    3    0    0 -0.10378855098E+02  0.21399659794E+02  0.31527711007E+02  0.39492564285E+02  0.00000000000E+00 0. -1.
</event>
<event>
 8    1  0.2429906E-015  0.9000767E+02  0.7816164E-02  0.1186339E+00
        -11   -1    0    0    0    0  0.00000000000E+00  0.00000000000E+00  0.45593999997E+02  0.45594000000E+02  0.51100000000E-03 0.  1.
         11   -1    0    0    0    0 -0.00000000000E+00 -0.00000000000E+00 -0.45593999997E+02  0.45594000000E+02  0.51100000000E-03 0. -1.
    9900012    2    1    2    0    0  0.31550533905E+00 -0.68113529331E+00 -0.91086938016E+00  0.90007672954E+02  0.89999933437E+02 0.  0.
         23    2    3    3    0    0 -0.17421281788E+02 -0.15754529080E+02  0.10287198014E+02  0.64177505878E+02  0.58832130439E+02 0.  0.
        -12    1    1    2    0    0 -0.31550533905E+00  0.68113529331E+00  0.91086938016E+00  0.11803270456E+01  0.00000000000E+00 0.  1.
         11    1    4    4    0    0  0.14991494644E+02 -0.25408581605E+02  0.38729720071E+01  0.29754677671E+02  0.51100000000E-03 0. -1.
        -11    1    4    4    0    0 -0.32412776433E+02  0.96540525257E+01  0.64142260072E+01  0.34422828207E+02  0.51100000000E-03 0.  1.
         12    1    3    3    0    0  0.17736787127E+02  0.15073393786E+02 -0.11198067394E+02  0.25830167077E+02  0.00000000000E+00 0. -1.
</event>
<event>
 7    1  0.2429906E-015  0.9000779E+02  0.7816164E-02  0.1186339E+00
        -11   -1    0    0    0    0  0.00000000000E+00  0.00000000000E+00  0.45593999997E+02  0.45594000000E+02  0.51100000000E-03 0. -1.
         11   -1    0    0    0    0 -0.00000000000E+00 -0.00000000000E+00 -0.45593999997E+02  0.45594000000E+02  0.51100000000E-03 0.  1.
    9900012    2    1    2    0    0  0.90515676700E+00  0.31008124494E+00 -0.69096133216E+00  0.90007793783E+02  0.90000055861E+02 0.  0.
        -12    1    1    2    0    0 -0.90515676700E+00 -0.31008124494E+00  0.69096133216E+00  0.11802062167E+01  0.00000000000E+00 0.  1.
         11    1    3    3    0    0  0.13977243258E+01  0.95122246124E+01 -0.52059142858E+01  0.10933324937E+02  0.51100000000E-03 0. -1.
        -11    1    3    3    0    0  0.16555815612E+02  0.23884620667E+02 -0.19300550089E+02  0.34886693294E+02  0.51100000000E-03 0.  1.
         12    1    3    3    0    0 -0.17048383171E+02 -0.33086764035E+02  0.23815503043E+02  0.44187775552E+02  0.00000000000E+00 0. -1.
</event>
<event>
 7    1  0.2429906E-015  0.9000815E+02  0.7816164E-02  0.1186338E+00
        -11   -1    0    0    0    0  0.00000000000E+00  0.00000000000E+00  0.45593999997E+02  0.45594000000E+02  0.51100000000E-03 0.  1.
         11   -1    0    0    0    0 -0.00000000000E+00 -0.00000000000E+00 -0.45593999997E+02  0.45594000000E+02  0.51100000000E-03 0. -1.
    9900012    2    1    2    0    0  0.79820019760E+00  0.51035167980E+00 -0.70317838221E+00  0.90008151607E+02  0.90000418408E+02 0.  0.
        -12    1    1    2    0    0 -0.79820019760E+00 -0.51035167980E+00  0.70317838221E+00  0.11798483927E+01  0.00000000000E+00 0.  1.
         11    1    3    3    0    0  0.22174445806E+02 -0.20515145374E+02 -0.20871033796E+02  0.36717533802E+02  0.51100000000E-03 0. -1.
        -11    1    3    3    0    0  0.71702582403E+01 -0.25273114404E+01 -0.44809392621E+01  0.88248922532E+01  0.51100000000E-03 0.  1.
        -12    1    3    3    0    0 -0.28546503849E+02  0.23552808494E+02  0.24648794676E+02  0.44465725552E+02  0.00000000000E+00 0.  1.
</event>
<event>
 7    1  0.2429906E-015  0.9000813E+02  0.7816164E-02  0.1186338E+00
        -11   -1    0    0    0    0  0.00000000000E+00  0.00000000000E+00  0.45593999997E+02  0.45594000000E+02  0.51100000000E-03 0.  1.
         11   -1    0    0    0    0 -0.00000000000E+00 -0.00000000000E+00 -0.45593999997E+02  0.45594000000E+02  0.51100000000E-03 0. -1.
    9900012    2    1    2    0    0  0.42514693182E+00  0.65145913180E+00 -0.88710205048E+00  0.90008127565E+02  0.90000394048E+02 0.  0.
        -12    1    1    2    0    0 -0.42514693182E+00 -0.65145913180E+00  0.88710205048E+00  0.11798724346E+01  0.00000000000E+00 0.  1.
         11    1    3    3    0    0 -0.86001547036E+01  0.55163548149E+01  0.30777734278E+01  0.10670778833E+02  0.51100000000E-03 0. -1.
        -11    1    3    3    0    0  0.33921067125E+02 -0.21200454985E+02  0.16431901202E+02  0.43244716022E+02  0.51100000000E-03 0.  1.
         12    1    3    3    0    0 -0.24895765490E+02  0.16335559302E+02 -0.20396776680E+02  0.36092632710E+02  0.00000000000E+00 0. -1.
</event>
<event>
 7    1  0.2429906E-015  0.9000781E+02  0.7816164E-02  0.1186339E+00
        -11   -1    0    0    0    0  0.00000000000E+00  0.00000000000E+00  0.45593999997E+02  0.45594000000E+02  0.51100000000E-03 0.  1.
         11   -1    0    0    0    0 -0.00000000000E+00 -0.00000000000E+00 -0.45593999997E+02  0.45594000000E+02  0.51100000000E-03 0. -1.
    9900012    2    1    2    0    0 -0.22354008056E+00 -0.79394887557E+00 -0.84411217388E+00  0.90007809191E+02  0.90000071472E+02 0.  0.
        -12    1    1    2    0    0  0.22354008056E+00  0.79394887557E+00  0.84411217388E+00  0.11801908095E+01  0.00000000000E+00 0.  1.
         11    1    3    3    0    0 -0.80090300192E+01  0.85607907373E+01 -0.27245161367E+01  0.12035559328E+02  0.51100000000E-03 0. -1.
        -11    1    3    3    0    0 -0.93881572175E+00  0.20672616698E+02  0.29646548832E+02  0.36154616773E+02  0.51100000000E-03 0.  1.
         12    1    3    3    0    0  0.87243056604E+01 -0.30027356311E+02 -0.27766144869E+02  0.41817633089E+02  0.00000000000E+00 0. -1.
</event>
<event>
 7    1  0.2429906E-015  0.9000806E+02  0.7816164E-02  0.1186338E+00
        -11   -1    0    0    0    0  0.00000000000E+00  0.00000000000E+00  0.45593999997E+02  0.45594000000E+02  0.51100000000E-03 0.  1.
         11   -1    0    0    0    0 -0.00000000000E+00 -0.00000000000E+00 -0.45593999997E+02  0.45594000000E+02  0.51100000000E-03 0. -1.
    9900012    2    1    2    0    0 -0.57971694758E+00  0.70777151460E+00 -0.74515058567E+00  0.90008058624E+02  0.90000324197E+02 0.  0.
        -12    1    1    2    0    0  0.57971694758E+00 -0.70777151460E+00  0.74515058567E+00  0.11799413763E+01  0.00000000000E+00 0.  1.
         11    1    3    3    0    0  0.51684468860E+01  0.20340252587E+02 -0.32550589820E+02  0.38729570310E+02  0.51100000000E-03 0. -1.
        -11    1    3    3    0    0  0.36637610453E+01  0.71139546925E+01 -0.83155269726E+00  0.80450591368E+01  0.51100000000E-03 0.  1.
        -12    1    3    3    0    0 -0.94119248789E+01 -0.26746435765E+02  0.32636991932E+02  0.43233429177E+02  0.00000000000E+00 0.  1.
</event>
<event>
 7    1  0.2429906E-015  0.9000771E+02  0.7816164E-02  0.1186339E+00
        -11   -1    0    0    0    0  0.00000000000E+00  0.00000000000E+00  0.45593999997E+02  0.45594000000E+02  0.51100000000E-03 0.  1.
         11   -1    0    0    0    0 -0.00000000000E+00 -0.00000000000E+00 -0.45593999997E+02  0.45594000000E+02  0.51100000000E-03 0. -1.
    9900012    2    1    2    0    0 -0.59631173208E+00 -0.58870067849E+00 -0.83121426483E+00  0.90007714727E+02  0.89999975762E+02 0.  0.
        -12    1    1    2    0    0  0.59631173208E+00  0.58870067849E+00  0.83121426483E+00  0.11802852726E+01  0.00000000000E+00 0.  1.
         11    1    3    3    0    0  0.15543122925E+01  0.99950531790E+01  0.42659860617E+01  0.10977960288E+02  0.51100000000E-03 0. -1.
        -11    1    3    3    0    0  0.57225985252E+01 -0.29049612683E+01  0.35958419400E+02  0.36526632200E+02  0.51100000000E-03 0.  1.
         12    1    3    3    0    0 -0.78732225497E+01 -0.76787925891E+01 -0.41055619727E+02  0.42503122239E+02  0.00000000000E+00 0. -1.
</event>
<event>
 7    1  0.2429906E-015  0.9000779E+02  0.7816164E-02  0.1186339E+00
        -11   -1    0    0    0    0  0.00000000000E+00  0.00000000000E+00  0.45593999997E+02  0.45594000000E+02  0.51100000000E-03 0.  1.
         11   -1    0    0    0    0 -0.00000000000E+00 -0.00000000000E+00 -0.45593999997E+02  0.45594000000E+02  0.51100000000E-03 0. -1.
    9900012    2    1    2    0    0  0.69725096093E+00 -0.95138158933E+00 -0.40168744427E-01  0.90007788426E+02  0.90000050433E+02 0.  0.
        -12    1    1    2    0    0 -0.69725096093E+00  0.95138158933E+00  0.40168744427E-01  0.11802115739E+01  0.00000000000E+00 0.  1.
         11    1    3    3    0    0 -0.52964506835E+01  0.15938066803E+01  0.31545993626E+01  0.63674254591E+01  0.51100000000E-03 0. -1.
        -11    1    3    3    0    0  0.32734134505E+02  0.25748440312E+02  0.94533672824E+01  0.42706813198E+02  0.51100000000E-03 0.  1.
         12    1    3    3    0    0 -0.26740432860E+02 -0.28293628582E+02 -0.12648135389E+02  0.40933549769E+02  0.00000000000E+00 0. -1.
</event>
<event>
 7    1  0.2429906E-015  0.9000813E+02  0.7816164E-02  0.1186338E+00
        -11   -1    0    0    0    0  0.00000000000E+00  0.00000000000E+00  0.45593999997E+02  0.45594000000E+02  0.51100000000E-03 0.  1.
         11   -1    0    0    0    0 -0.00000000000E+00 -0.00000000000E+00 -0.45593999997E+02  0.45594000000E+02  0.51100000000E-03 0. -1.
    9900012    2    1    2    0    0 -0.63065332210E+00  0.37109578360E+00 -0.92556077181E+00  0.90008127788E+02  0.90000394274E+02 0.  0.
        -12    1    1    2    0    0  0.63065332210E+00 -0.37109578360E+00  0.92556077181E+00  0.11798722115E+01  0.00000000000E+00 0.  1.
         11    1    3    3    0    0 -0.91772526500E+01  0.30120117346E+01  0.18187882709E+01  0.98286403906E+01  0.51100000000E-03 0. -1.
        -11    1    3    3    0    0 -0.11426940256E+02 -0.74502814598E+01 -0.37445486783E+02  0.39852805900E+02  0.51100000000E-03 0.  1.
         12    1    3    3    0    0  0.19973539584E+02  0.48093655087E+01  0.34701137741E+02  0.40326681497E+02  0.00000000000E+00 0. -1.
</event>
<event>
 7    1  0.2429906E-015  0.9000773E+02  0.7816164E-02  0.1186339E+00
        -11   -1    0    0    0    0  0.00000000000E+00  0.00000000000E+00  0.45593999997E+02  0.45594000000E+02  0.51100000000E-03 0.  1.
         11   -1    0    0    0    0 -0.00000000000E+00 -0.00000000000E+00 -0.45593999997E+02  0.45594000000E+02  0.51100000000E-03 0. -1.
    9900012    2    1    2    0    0 -0.97764392751E+00 -0.65018369364E+00 -0.12044350209E+00  0.90007731759E+02  0.89999993018E+02 0.  0.
        -12    1    1    2    0    0  0.97764392751E+00  0.65018369364E+00  0.12044350209E+00  0.11802682414E+01  0.00000000000E+00 0.  1.
         11    1    3    3    0    0  0.77021969761E+01  0.30039928413E+01 -0.28674216445E+01  0.87504238981E+01  0.51100000000E-03 0. -1.
        -11    1    3    3    0    0  0.22530679893E+02  0.28462487408E+02 -0.10236652488E+01  0.36315184382E+02  0.51100000000E-03 0.  1.
         12    1    3    3    0    0 -0.31210520796E+02 -0.32116663943E+02  0.37706433913E+01  0.44942123479E+02  0.00000000000E+00 0. -1.
</event>
<event>
 7    1  0.2429906E-015  0.9000776E+02  0.7816164E-02  0.1186339E+00
        -11   -1    0    0    0    0  0.00000000000E+00  0.00000000000E+00  0.45593999997E+02  0.45594000000E+02  0.51100000000E-03 0. -1.
         11   -1    0    0    0    0 -0.00000000000E+00 -0.00000000000E+00 -0.45593999997E+02  0.45594000000E+02  0.51100000000E-03 0.  1.
    9900012    2    1    2    0    0 -0.92864299529E+00  0.40500505593E-01  0.72729036985E+00  0.90007758760E+02  0.90000020375E+02 0.  0.
        -12    1    1    2    0    0  0.92864299529E+00 -0.40500505593E-01 -0.72729036985E+00  0.11802412405E+01  0.00000000000E+00 0.  1.
         11    1    3    3    0    0  0.34611230966E+02  0.14657046369E+02 -0.71062621807E+01  0.38252650623E+02  0.51100000000E-03 0. -1.
        -11    1    3    3    0    0  0.34042532426E+01 -0.18654482241E+01  0.99922725897E+01  0.10719811052E+02  0.51100000000E-03 0.  1.
        -12    1    3    3    0    0 -0.38944127203E+02 -0.12751097640E+02 -0.21587200391E+01  0.41035297085E+02  0.00000000000E+00 0.  1.
</event>
<event>
 7    1  0.2429906E-015  0.9000773E+02  0.7816164E-02  0.1186339E+00
        -11   -1    0    0    0    0  0.00000000000E+00  0.00000000000E+00  0.45593999997E+02  0.45594000000E+02  0.51100000000E-03 0.  1.
         11   -1    0    0    0    0 -0.00000000000E+00 -0.00000000000E+00 -0.45593999997E+02  0.45594000000E+02  0.51100000000E-03 0. -1.
    9900012    2    1    2    0    0  0.16423940031E+00 -0.23605280891E+00 -0.11447066477E+01  0.90007725109E+02  0.89999986280E+02 0.  0.
        -12    1    1    2    0    0 -0.16423940031E+00  0.23605280891E+00  0.11447066477E+01  0.11802748911E+01  0.00000000000E+00 0.  1.
         11    1    3    3    0    0 -0.10971146090E+02 -0.16557887717E+02 -0.32156750807E+02  0.37796644228E+02  0.51100000000E-03 0. -1.
        -11    1    3    3    0    0  0.19726396518E-01 -0.94629656549E+01 -0.11317663876E+01  0.95304251497E+01  0.51100000000E-03 0.  1.
        -12    1    3    3    0    0  0.11115659093E+02  0.25784800563E+02  0.32143810547E+02  0.42680655731E+02  0.00000000000E+00 0.  1.
</event>
<event>
 7    1  0.2429906E-015  0.9000771E+02  0.7816164E-02  0.1186339E+00
        -11   -1    0    0    0    0  0.00000000000E+00  0.00000000000E+00  0.45593999997E+02  0.45594000000E+02  0.51100000000E-03 0. -1.
         11   -1    0    0    0    0 -0.00000000000E+00 -0.00000000000E+00 -0.45593999997E+02  0.45594000000E+02  0.51100000000E-03 0.  1.
    9900012    2    1    2    0    0 -0.38439487190E+00  0.92337190124E+00  0.62666890544E+00  0.90007708086E+02  0.89999969033E+02 0.  0.
        -12    1    1    2    0    0  0.38439487190E+00 -0.92337190124E+00 -0.62666890544E+00  0.11802919141E+01  0.00000000000E+00 0.  1.
         11    1    3    3    0    0  0.33015817573E+02  0.14566201456E+02 -0.25166046504E+02  0.43994867107E+02  0.51100000000E-03 0. -1.
        -11    1    3    3    0    0 -0.97522264225E+01  0.92208940404E+00  0.35103444097E+01  0.10405704551E+02  0.51100000000E-03 0.  1.
        -12    1    3    3    0    0 -0.23647986023E+02 -0.14564918959E+02  0.22282371000E+02  0.35607136428E+02  0.00000000000E+00 0.  1.
</event>
<event>
 7    1  0.2429906E-015  0.9000770E+02  0.7816164E-02  0.1186339E+00
        -11   -1    0    0    0    0  0.00000000000E+00  0.00000000000E+00  0.45593999997E+02  0.45594000000E+02  0.51100000000E-03 0.  1.
         11   -1    0    0    0    0 -0.00000000000E+00 -0.00000000000E+00 -0.45593999997E+02  0.45594000000E+02  0.51100000000E-03 0. -1.
    9900012    2    1    2    0    0 -0.95276288080E+00 -0.46811106521E+00  0.51596578396E+00  0.90007700984E+02  0.89999961837E+02 0.  0.
        -12    1    1    2    0    0  0.95276288080E+00  0.46811106521E+00 -0.51596578396E+00  0.11802990158E+01  0.00000000000E+00 0.  1.
         11    1    3    3    0    0  0.33440394747E+02 -0.12570757879E+02 -0.10248067062E+02  0.37165936465E+02  0.51100000000E-03 0. -1.
        -11    1    3    3    0    0  0.49653418411E+01  0.52089583726E+01 -0.61359571574E+01  0.94571579993E+01  0.51100000000E-03 0.  1.
        -12    1    3    3    0    0 -0.39358499469E+02  0.68936884412E+01  0.16899990004E+02  0.43384606520E+02  0.00000000000E+00 0.  1.
</event>
<event>
 7    1  0.2429906E-015  0.9000778E+02  0.7816164E-02  0.1186339E+00
        -11   -1    0    0    0    0  0.00000000000E+00  0.00000000000E+00  0.45593999997E+02  0.45594000000E+02  0.51100000000E-03 0.  1.
         11   -1    0    0    0    0 -0.00000000000E+00 -0.00000000000E+00 -0.45593999997E+02  0.45594000000E+02  0.51100000000E-03 0. -1.
    9900012    2    1    2    0    0  0.11771219646E+01  0.71461405910E-01  0.46812048139E-01  0.90007782130E+02  0.90000044054E+02 0.  0.
        -12    1    1    2    0    0 -0.11771219646E+01 -0.71461405910E-01 -0.46812048139E-01  0.11802178697E+01  0.00000000000E+00 0.  1.
         11    1    3    3    0    0  0.30504317253E+02  0.97290416639E+01 -0.15094945500E+02  0.35398093207E+02  0.51100000000E-03 0. -1.
        -11    1    3    3    0    0  0.97200772166E+01 -0.14748932373E+01 -0.36797135115E+01  0.10497404581E+02  0.51100000000E-03 0.  1.
        -12    1    3    3    0    0 -0.39047272505E+02 -0.81826870206E+01  0.18821471060E+02  0.44112284342E+02  0.00000000000E+00 0.  1.
</event>
<event>
 7    1  0.2429906E-015  0.9000778E+02  0.7816164E-02  0.1186339E+00
        -11   -1    0    0    0    0  0.00000000000E+00  0.00000000000E+00  0.45593999997E+02  0.45594000000E+02  0.51100000000E-03 0. -1.
         11   -1    0    0    0    0 -0.00000000000E+00 -0.00000000000E+00 -0.45593999997E+02  0.45594000000E+02  0.51100000000E-03 0.  1.
    9900012    2    1    2    0    0  0.72857100653E+00 -0.27211666054E+00  0.88772629731E+00  0.90007779187E+02  0.90000041072E+02 0.  0.
        -12    1    1    2    0    0 -0.72857100653E+00  0.27211666054E+00 -0.88772629731E+00  0.11802208130E+01  0.00000000000E+00 0.  1.
         11    1    3    3    0    0  0.41214366344E+01 -0.12267326400E+02  0.35960247747E+02  0.38217966393E+02  0.51100000000E-03 0. -1.
        -11    1    3    3    0    0  0.12354478423E+02  0.34315556372E+01 -0.48275099402E+00  0.12831280527E+02  0.51100000000E-03 0.  1.
        -12    1    3    3    0    0 -0.15747344050E+02  0.85636541025E+01 -0.34589770455E+02  0.38958532267E+02  0.00000000000E+00 0.  1.
</event>
<event>
 7    1  0.2429906E-015  0.9000768E+02  0.7816164E-02  0.1186339E+00
        -11   -1    0    0    0    0  0.00000000000E+00  0.00000000000E+00  0.45593999997E+02  0.45594000000E+02  0.51100000000E-03 0. -1.
         11   -1    0    0    0    0 -0.00000000000E+00 -0.00000000000E+00 -0.45593999997E+02  0.45594000000E+02  0.51100000000E-03 0.  1.
    9900012    2    1    2    0    0  0.84925230181E+00  0.52383079362E+00  0.63049290794E+00  0.90007682467E+02  0.89999943075E+02 0.  0.
        -12    1    1    2    0    0 -0.84925230181E+00 -0.52383079362E+00 -0.63049290794E+00  0.11803175333E+01  0.00000000000E+00 0.  1.
         11    1    3    3    0    0  0.24150477947E+01  0.87992455596E+01 -0.11889391600E+01  0.92017799830E+01  0.51100000000E-03 0. -1.
        -11    1    3    3    0    0  0.94697362458E+01  0.12349448176E+01 -0.37593093077E+02  0.38787132410E+02  0.51100000000E-03 0.  1.
         12    1    3    3    0    0 -0.11035531739E+02 -0.95103595836E+01  0.39412525145E+02  0.42018770073E+02  0.00000000000E+00 0. -1.
</event>
<event>
 7    1  0.2429906E-015  0.9000766E+02  0.7816164E-02  0.1186339E+00
        -11   -1    0    0    0    0  0.00000000000E+00  0.00000000000E+00  0.45593999997E+02  0.45594000000E+02  0.51100000000E-03 0.  1.
         11   -1    0    0    0    0 -0.00000000000E+00 -0.00000000000E+00 -0.45593999997E+02  0.45594000000E+02  0.51100000000E-03 0. -1.
    9900012    2    1    2    0    0 -0.38474034428E+00 -0.99489367887E+00 -0.50533733224E+00  0.90007659208E+02  0.89999919510E+02 0.  0.
        -12    1    1    2    0    0  0.38474034428E+00  0.99489367887E+00  0.50533733224E+00  0.11803407915E+01  0.00000000000E+00 0.  1.
         11    1    3    3    0    0  0.59305969511E+01 -0.31849341872E+01  0.59061941095E+01  0.89553846982E+01  0.51100000000E-03 0. -1.
        -11    1    3    3    0    0  0.11905073207E+02 -0.13567580142E+02  0.31400531553E+02  0.36218826334E+02  0.51100000000E-03 0.  1.
         12    1    3    3    0    0 -0.18220410503E+02  0.15757620651E+02 -0.37812062994E+02  0.44833448176E+02  0.00000000000E+00 0. -1.
</event>
<event>
 7    1  0.2517382E-015  0.9000790E+02  0.7816164E-02  0.1186339E+00
        -11   -1    0    0    0    0  0.00000000000E+00  0.00000000000E+00  0.45593999997E+02  0.45594000000E+02  0.51100000000E-03 0. -1.
         11   -1    0    0    0    0 -0.00000000000E+00 -0.00000000000E+00 -0.45593999997E+02  0.45594000000E+02  0.51100000000E-03 0.  1.
    9900012    2    1    2    0    0  0.39819093545E+00  0.36396321366E+00  0.10495782293E+01  0.90007898436E+02  0.90000161895E+02 0.  0.
        -12    1    1    2    0    0 -0.39819093545E+00 -0.36396321366E+00 -0.10495782293E+01  0.11801015641E+01  0.00000000000E+00 0.  1.
         11    1    3    3    0    0  0.24438546778E+01  0.28545302199E+02  0.28345028028E+02  0.40301951783E+02  0.51100000000E-03 0. -1.
        -11    1    3    3    0    0 -0.19625212253E+01 -0.80607142864E+01  0.63879337805E+01  0.10470544523E+02  0.51100000000E-03 0.  1.
        -12    1    3    3    0    0 -0.83142517079E-01 -0.20120624699E+02 -0.33683383579E+02  0.39235402130E+02  0.00000000000E+00 0.  1.
</event>
<event>
 7    1  0.2429906E-015  0.9000771E+02  0.7816164E-02  0.1186339E+00
        -11   -1    0    0    0    0  0.00000000000E+00  0.00000000000E+00  0.45593999997E+02  0.45594000000E+02  0.51100000000E-03 0.  1.
         11   -1    0    0    0    0 -0.00000000000E+00 -0.00000000000E+00 -0.45593999997E+02  0.45594000000E+02  0.51100000000E-03 0. -1.
    9900012    2    1    2    0    0 -0.19612784055E+00  0.87529222842E+00 -0.76713023443E+00  0.90007707065E+02  0.89999967999E+02 0.  0.
        -12    1    1    2    0    0  0.19612784055E+00 -0.87529222842E+00  0.76713023443E+00  0.11802929346E+01  0.00000000000E+00 0.  1.
         11    1    3    3    0    0  0.33110943115E+01  0.92968545334E+01 -0.69378927295E+00  0.98932397915E+01  0.51100000000E-03 0. -1.
        -11    1    3    3    0    0 -0.21797964518E+02  0.28256845897E+02  0.11553602427E+02  0.37511149362E+02  0.51100000000E-03 0.  1.
         12    1    3    3    0    0  0.18290742366E+02 -0.36678408202E+02 -0.11626943389E+02  0.42603317912E+02  0.00000000000E+00 0. -1.
</event>
<event>
 7    1  0.2429906E-015  0.9000784E+02  0.7816164E-02  0.1186339E+00
        -11   -1    0    0    0    0  0.00000000000E+00  0.00000000000E+00  0.45593999997E+02  0.45594000000E+02  0.51100000000E-03 0. -1.
         11   -1    0    0    0    0 -0.00000000000E+00 -0.00000000000E+00 -0.45593999997E+02  0.45594000000E+02  0.51100000000E-03 0.  1.
    9900012    2    1    2    0    0  0.11091217475E+01  0.51711182579E-01  0.39993220202E+00  0.90007842865E+02  0.90000105591E+02 0.  0.
        -12    1    1    2    0    0 -0.11091217475E+01 -0.51711182579E-01 -0.39993220202E+00  0.11801571351E+01  0.00000000000E+00 0.  1.
         11    1    3    3    0    0 -0.78863897595E+01  0.59027065341E+01 -0.67508570347E+00  0.98738456963E+01  0.51100000000E-03 0. -1.
        -11    1    3    3    0    0  0.15202490383E+02  0.13517448127E+02 -0.33981163415E+02  0.39605007071E+02  0.51100000000E-03 0.  1.
         12    1    3    3    0    0 -0.62069788761E+01 -0.19368443479E+02  0.35056181321E+02  0.40528990098E+02  0.00000000000E+00 0. -1.
</event>
<event>
 7    1  0.2429906E-015  0.9000773E+02  0.7816164E-02  0.1186339E+00
        -11   -1    0    0    0    0  0.00000000000E+00  0.00000000000E+00  0.45593999997E+02  0.45594000000E+02  0.51100000000E-03 0. -1.
         11   -1    0    0    0    0 -0.00000000000E+00 -0.00000000000E+00 -0.45593999997E+02  0.45594000000E+02  0.51100000000E-03 0.  1.
    9900012    2    1    2    0    0 -0.10104768032E+01 -0.56464723449E+00  0.23053370732E+00  0.90007730684E+02  0.89999991929E+02 0.  0.
        -12    1    1    2    0    0  0.10104768032E+01  0.56464723449E+00 -0.23053370732E+00  0.11802693164E+01  0.00000000000E+00 0.  1.
         11    1    3    3    0    0  0.57666675490E+01 -0.19587374995E+01  0.79241493873E+01  0.99941608445E+01  0.51100000000E-03 0. -1.
        -11    1    3    3    0    0  0.61403526155E+01  0.38809450945E+02 -0.93759790343E+01  0.40395375923E+02  0.51100000000E-03 0.  1.
         12    1    3    3    0    0 -0.12917496968E+02 -0.37415360680E+02  0.16823633543E+01  0.39618193916E+02  0.00000000000E+00 0. -1.
</event>
<event>
 7    1  0.2429906E-015  0.9000778E+02  0.7816164E-02  0.1186339E+00
        -11   -1    0    0    0    0  0.00000000000E+00  0.00000000000E+00  0.45593999997E+02  0.45594000000E+02  0.51100000000E-03 0. -1.
         11   -1    0    0    0    0 -0.00000000000E+00 -0.00000000000E+00 -0.45593999997E+02  0.45594000000E+02  0.51100000000E-03 0.  1.
    9900012    2    1    2    0    0  0.76091557321E+00 -0.15689245245E+00  0.88842726071E+00  0.90007783601E+02  0.90000045544E+02 0.  0.
        -12    1    1    2    0    0 -0.76091557321E+00  0.15689245245E+00 -0.88842726071E+00  0.11802163991E+01  0.00000000000E+00 0.  1.
         11    1    3    3    0    0 -0.63428841329E+01 -0.42151430243E+01 -0.40874231075E+01  0.86433001660E+01  0.51100000000E-03 0. -1.
        -11    1    3    3    0    0 -0.17976782610E+02  0.20613859941E+01 -0.31928625127E+02  0.36699470404E+02  0.51100000000E-03 0.  1.
         12    1    3    3    0    0  0.25080582316E+02  0.19968645778E+01  0.36904475495E+02  0.44665013030E+02  0.00000000000E+00 0. -1.
</event>
<event>
 7    1  0.2429906E-015  0.9000773E+02  0.7816164E-02  0.1186339E+00
        -11   -1    0    0    0    0  0.00000000000E+00  0.00000000000E+00  0.45593999997E+02  0.45594000000E+02  0.51100000000E-03 0.  1.
         11   -1    0    0    0    0 -0.00000000000E+00 -0.00000000000E+00 -0.45593999997E+02  0.45594000000E+02  0.51100000000E-03 0. -1.
    9900012    2    1    2    0    0  0.10065876027E+01 -0.13791914326E-01 -0.61614436633E+00  0.90007727701E+02  0.89999988907E+02 0.  0.
        -12    1    1    2    0    0 -0.10065876027E+01  0.13791914326E-01  0.61614436633E+00  0.11802722986E+01  0.00000000000E+00 0.  1.
         11    1    3    3    0    0 -0.70657663367E+01  0.36570963779E+02 -0.13483629845E+02  0.39612734312E+02  0.51100000000E-03 0. -1.
        -11    1    3    3    0    0  0.30275104645E+01  0.11449668916E+01 -0.68130607193E+01  0.75428486277E+01  0.51100000000E-03 0.  1.
        -12    1    3    3    0    0  0.50448434749E+01 -0.37729722585E+02  0.19680546197E+02  0.42852144761E+02  0.00000000000E+00 0.  1.
</event>
<event>
 7    1  0.2429906E-015  0.9000780E+02  0.7816164E-02  0.1186339E+00
        -11   -1    0    0    0    0  0.00000000000E+00  0.00000000000E+00  0.45593999997E+02  0.45594000000E+02  0.51100000000E-03 0.  1.
         11   -1    0    0    0    0 -0.00000000000E+00 -0.00000000000E+00 -0.45593999997E+02  0.45594000000E+02  0.51100000000E-03 0. -1.
    9900012    2    1    2    0    0 -0.40120964003E+00  0.87916870852E+00 -0.67746981407E+00  0.90007799957E+02  0.90000062116E+02 0.  0.
        -12    1    1    2    0    0  0.40120964003E+00 -0.87916870852E+00  0.67746981407E+00  0.11802000433E+01  0.00000000000E+00 0.  1.
         11    1    3    3    0    0  0.70291172684E+01 -0.16938947677E+01  0.74479903852E+01  0.10380285646E+02  0.51100000000E-03 0. -1.
        -11    1    3    3    0    0 -0.17936251297E+02  0.36488825312E+02  0.65968497423E+01  0.41190556078E+02  0.51100000000E-03 0.  1.
         12    1    3    3    0    0  0.10505924389E+02 -0.33915761836E+02 -0.14722309941E+02  0.38436958232E+02  0.00000000000E+00 0. -1.
</event>
<event>
 7    1  0.2429906E-015  0.9000773E+02  0.7816164E-02  0.1186339E+00
        -11   -1    0    0    0    0  0.00000000000E+00  0.00000000000E+00  0.45593999997E+02  0.45594000000E+02  0.51100000000E-03 0.  1.
         11   -1    0    0    0    0 -0.00000000000E+00 -0.00000000000E+00 -0.45593999997E+02  0.45594000000E+02  0.51100000000E-03 0. -1.
    9900012    2    1    2    0    0 -0.10743022467E+01 -0.18656698170E+00 -0.45178522045E+00  0.90007727810E+02  0.89999989018E+02 0.  0.
        -12    1    1    2    0    0  0.10743022467E+01  0.18656698170E+00  0.45178522045E+00  0.11802721895E+01  0.00000000000E+00 0.  1.
         11    1    3    3    0    0  0.51151361655E+01  0.29082169000E+00  0.74316808290E+01  0.90265760647E+01  0.51100000000E-03 0. -1.
        -11    1    3    3    0    0 -0.55740982364E+01 -0.26178179857E+02  0.26755366561E+02  0.37844647070E+02  0.51100000000E-03 0.  1.
         12    1    3    3    0    0 -0.61534017582E+00  0.25700791185E+02 -0.34638832610E+02  0.43136504676E+02  0.00000000000E+00 0. -1.
</event>
<event>
 7    1  0.2429906E-015  0.9000783E+02  0.7816164E-02  0.1186339E+00
        -11   -1    0    0    0    0  0.00000000000E+00  0.00000000000E+00  0.45593999997E+02  0.45594000000E+02  0.51100000000E-03 0.  1.
         11   -1    0    0    0    0 -0.00000000000E+00 -0.00000000000E+00 -0.45593999997E+02  0.45594000000E+02  0.51100000000E-03 0. -1.
    9900012    2    1    2    0    0  0.37443791186E+00  0.12059051521E+00 -0.11126830093E+01  0.90007826580E+02  0.90000089091E+02 0.  0.
        -12    1    1    2    0    0 -0.37443791186E+00 -0.12059051521E+00  0.11126830093E+01  0.11801734201E+01  0.00000000000E+00 0.  1.
         11    1    3    3    0    0  0.12383338768E+02 -0.33759072059E+02 -0.19658333257E+02  0.40981362740E+02  0.51100000000E-03 0. -1.
        -11    1    3    3    0    0  0.61834188882E+01  0.94621495618E+01  0.14383908565E+02  0.18293817790E+02  0.51100000000E-03 0.  1.
        -12    1    3    3    0    0 -0.18192319745E+02  0.24417513012E+02  0.41617416831E+01  0.30732646050E+02  0.00000000000E+00 0.  1.
</event>
<event>
 7    1  0.2429906E-015  0.9000777E+02  0.7816164E-02  0.1186339E+00
        -11   -1    0    0    0    0  0.00000000000E+00  0.00000000000E+00  0.45593999997E+02  0.45594000000E+02  0.51100000000E-03 0. -1.
         11   -1    0    0    0    0 -0.00000000000E+00 -0.00000000000E+00 -0.45593999997E+02  0.45594000000E+02  0.51100000000E-03 0.  1.
    9900012    2    1    2    0    0  0.29527346536E+00 -0.11262983426E+01  0.19289988506E+00  0.90007769200E+02  0.90000030953E+02 0.  0.
        -12    1    1    2    0    0 -0.29527346536E+00  0.11262983426E+01 -0.19289988506E+00  0.11802308001E+01  0.00000000000E+00 0.  1.
         11    1    3    3    0    0 -0.10430282066E+02  0.93860668652E+01  0.62903350736E+01  0.15377169791E+02  0.51100000000E-03 0. -1.
        -11    1    3    3    0    0 -0.28033932793E+02  0.26573820762E+01 -0.16172401599E+02  0.32473214209E+02  0.51100000000E-03 0.  1.
         12    1    3    3    0    0  0.38759488324E+02 -0.13169747284E+02  0.10074966411E+02  0.42157385200E+02  0.00000000000E+00 0. -1.
</event>
<event>
 7    1  0.2429906E-015  0.9000781E+02  0.7816164E-02  0.1186339E+00
        -11   -1    0    0    0    0  0.00000000000E+00  0.00000000000E+00  0.45593999997E+02  0.45594000000E+02  0.51100000000E-03 0.  1.
         11   -1    0    0    0    0 -0.00000000000E+00 -0.00000000000E+00 -0.45593999997E+02  0.45594000000E+02  0.51100000000E-03 0. -1.
    9900012    2    1    2    0    0  0.81814367884E-01 -0.75908636055E+00  0.89996409404E+00  0.90007813123E+02  0.90000075456E+02 0.  0.
        -12    1    1    2    0    0 -0.81814367884E-01  0.75908636055E+00 -0.89996409404E+00  0.11801868768E+01  0.00000000000E+00 0.  1.
         11    1    3    3    0    0  0.15745322525E+02  0.37400895946E+02  0.97940405830E+01  0.41745244402E+02  0.51100000000E-03 0. -1.
        -11    1    3    3    0    0 -0.16768224038E+01 -0.58755499918E+01  0.73092930034E+01  0.95267825393E+01  0.51100000000E-03 0.  1.
        -12    1    3    3    0    0 -0.13986685754E+02 -0.32284432314E+02 -0.16203369492E+02  0.38735786182E+02  0.00000000000E+00 0.  1.
</event>
<event>
 7    1  0.2429906E-015  0.9000770E+02  0.7816164E-02  0.1186339E+00
        -11   -1    0    0    0    0  0.00000000000E+00  0.00000000000E+00  0.45593999997E+02  0.45594000000E+02  0.51100000000E-03 0. -1.
         11   -1    0    0    0    0 -0.00000000000E+00 -0.00000000000E+00 -0.45593999997E+02  0.45594000000E+02  0.51100000000E-03 0.  1.
    9900012    2    1    2    0    0  0.56284426900E+00  0.55208155443E+00  0.87835645383E+00  0.90007704370E+02  0.89999965268E+02 0.  0.
        -12    1    1    2    0    0 -0.56284426900E+00 -0.55208155443E+00 -0.87835645383E+00  0.11802956299E+01  0.00000000000E+00 0.  1.
         11    1    3    3    0    0  0.18408914683E+02  0.32565046756E+02 -0.62757076778E+01  0.37930922967E+02  0.51100000000E-03 0. -1.
        -11    1    3    3    0    0 -0.17801018117E+01  0.21265710971E+01 -0.10182595655E+02  0.10553498075E+02  0.51100000000E-03 0.  1.
        -12    1    3    3    0    0 -0.16065968602E+02 -0.34139536298E+02  0.17336659786E+02  0.41523283328E+02  0.00000000000E+00 0.  1.
</event>
<event>
 7    1  0.2429906E-015  0.9000772E+02  0.7816164E-02  0.1186339E+00
        -11   -1    0    0    0    0  0.00000000000E+00  0.00000000000E+00  0.45593999997E+02  0.45594000000E+02  0.51100000000E-03 0.  1.
         11   -1    0    0    0    0 -0.00000000000E+00 -0.00000000000E+00 -0.45593999997E+02  0.45594000000E+02  0.51100000000E-03 0. -1.
    9900012    2    1    2    0    0  0.33264988001E+00  0.18606815758E+00 -0.11170472158E+01  0.90007715380E+02  0.89999976423E+02 0.  0.
        -12    1    1    2    0    0 -0.33264988001E+00 -0.18606815758E+00  0.11170472158E+01  0.11802846200E+01  0.00000000000E+00 0.  1.
         11    1    3    3    0    0 -0.20646035293E+02  0.27780634215E+02 -0.26348046926E+02  0.43499907906E+02  0.51100000000E-03 0. -1.
        -11    1    3    3    0    0 -0.89547019884E-01 -0.11985612075E+01  0.89229175594E+01  0.90035007452E+01  0.51100000000E-03 0.  1.
        -12    1    3    3    0    0  0.21068232193E+02 -0.26396004850E+02  0.16308082151E+02  0.37504306729E+02  0.00000000000E+00 0.  1.
</event>
<event>
 7    1  0.2429906E-015  0.9000767E+02  0.7816164E-02  0.1186339E+00
        -11   -1    0    0    0    0  0.00000000000E+00  0.00000000000E+00  0.45593999997E+02  0.45594000000E+02  0.51100000000E-03 0. -1.
         11   -1    0    0    0    0 -0.00000000000E+00 -0.00000000000E+00 -0.45593999997E+02  0.45594000000E+02  0.51100000000E-03 0.  1.
    9900012    2    1    2    0    0 -0.10059166211E+01  0.32846727158E+00  0.52289469712E+00  0.90007670444E+02  0.89999930894E+02 0.  0.
        -12    1    1    2    0    0  0.10059166211E+01 -0.32846727158E+00 -0.52289469712E+00  0.11803295563E+01  0.00000000000E+00 0.  1.
         11    1    3    3    0    0 -0.22666761902E+02 -0.25563256877E+02 -0.31598094709E+01  0.34311027287E+02  0.51100000000E-03 0. -1.
        -11    1    3    3    0    0 -0.83651262029E+01 -0.61408134803E+01 -0.40060766837E+01  0.11123559558E+02  0.51100000000E-03 0.  1.
        -12    1    3    3    0    0  0.30025971484E+02  0.32032537629E+02  0.76887808516E+01  0.44573083599E+02  0.00000000000E+00 0.  1.
</event>
<event>
 7    1  0.2429906E-015  0.9000808E+02  0.7816164E-02  0.1186338E+00
        -11   -1    0    0    0    0  0.00000000000E+00  0.00000000000E+00  0.45593999997E+02  0.45594000000E+02  0.51100000000E-03 0. -1.
         11   -1    0    0    0    0 -0.00000000000E+00 -0.00000000000E+00 -0.45593999997E+02  0.45594000000E+02  0.51100000000E-03 0.  1.
    9900012    2    1    2    0    0 -0.88202849822E+00  0.68161584843E-01  0.78076849210E+00  0.90008076396E+02  0.90000342204E+02 0.  0.
        -12    1    1    2    0    0  0.88202849822E+00 -0.68161584843E-01 -0.78076849210E+00  0.11799236041E+01  0.00000000000E+00 0.  1.
         11    1    3    3    0    0  0.39915254360E+02  0.64395321979E+01  0.14774847709E+02  0.43046384641E+02  0.51100000000E-03 0. -1.
        -11    1    3    3    0    0 -0.33052428270E+01 -0.38944830393E+01 -0.71224227952E+01  0.87647324559E+01  0.51100000000E-03 0.  1.
        -12    1    3    3    0    0 -0.37492040031E+02 -0.24768875738E+01 -0.68716564215E+01  0.38196959299E+02  0.00000000000E+00 0.  1.
</event>
<event>
 7    1  0.2429906E-015  0.9000716E+02  0.7816164E-02  0.1186340E+00
        -11   -1    0    0    0    0  0.00000000000E+00  0.00000000000E+00  0.45593999997E+02  0.45594000000E+02  0.51100000000E-03 0. -1.
         11   -1    0    0    0    0 -0.00000000000E+00 -0.00000000000E+00 -0.45593999997E+02  0.45594000000E+02  0.51100000000E-03 0.  1.
    9900012    2    1    2    0    0 -0.58380121277E+00  0.26435255842E+00  0.99180436478E+00  0.90007160456E+02  0.89999414172E+02 0.  0.
        -12    1    1    2    0    0  0.58380121277E+00 -0.26435255842E+00 -0.99180436478E+00  0.11808395442E+01  0.00000000000E+00 0.  1.
         11    1    3    3    0    0 -0.25456853672E+01 -0.58147416142E+01 -0.15846763510E+02  0.17070783463E+02  0.51100000000E-03 0. -1.
        -11    1    3    3    0    0  0.60806348795E+01 -0.29664237528E+02 -0.52276088027E+01  0.30728960325E+02  0.51100000000E-03 0.  1.
         12    1    3    3    0    0 -0.41187507251E+01  0.35743331700E+02  0.22066176678E+02  0.42207416667E+02  0.00000000000E+00 0. -1.
</event>
<event>
 7    1  0.2429906E-015  0.9000773E+02  0.7816164E-02  0.1186339E+00
        -11   -1    0    0    0    0  0.00000000000E+00  0.00000000000E+00  0.45593999997E+02  0.45594000000E+02  0.51100000000E-03 0.  1.
         11   -1    0    0    0    0 -0.00000000000E+00 -0.00000000000E+00 -0.45593999997E+02  0.45594000000E+02  0.51100000000E-03 0. -1.
    9900012    2    1    2    0    0 -0.73026771867E+00 -0.53798524410E+00 -0.75519956464E+00  0.90007726538E+02  0.89999987728E+02 0.  0.
        -12    1    1    2    0    0  0.73026771867E+00  0.53798524410E+00  0.75519956464E+00  0.11802734625E+01  0.00000000000E+00 0.  1.
         11    1    3    3    0    0  0.41474401844E+01 -0.60314848279E+01  0.49654877580E+01  0.88451194593E+01  0.51100000000E-03 0. -1.
        -11    1    3    3    0    0  0.34861827323E+02 -0.10713793313E+02 -0.10570691873E+02  0.37971988338E+02  0.51100000000E-03 0.  1.
         12    1    3    3    0    0 -0.39739535226E+02  0.16207292897E+02  0.48500045504E+01  0.43190618740E+02  0.00000000000E+00 0. -1.
</event>
<event>
 7    1  0.2429906E-015  0.9000774E+02  0.7816164E-02  0.1186339E+00
        -11   -1    0    0    0    0  0.00000000000E+00  0.00000000000E+00  0.45593999997E+02  0.45594000000E+02  0.51100000000E-03 0.  1.
         11   -1    0    0    0    0 -0.00000000000E+00 -0.00000000000E+00 -0.45593999997E+02  0.45594000000E+02  0.51100000000E-03 0. -1.
    9900012    2    1    2    0    0  0.90622049997E+00 -0.54289943349E+00 -0.52634649728E+00  0.90007739001E+02  0.90000000356E+02 0.  0.
        -12    1    1    2    0    0 -0.90622049997E+00  0.54289943349E+00  0.52634649728E+00  0.11802609985E+01  0.00000000000E+00 0.  1.
         11    1    3    3    0    0 -0.21048449775E+01  0.73279656644E+01  0.94828492000E+00  0.76830135825E+01  0.51100000000E-03 0. -1.
        -11    1    3    3    0    0 -0.19210274573E+01  0.35821930604E+02 -0.10622190524E+02  0.37412992269E+02  0.51100000000E-03 0.  1.
         12    1    3    3    0    0  0.49320929348E+01 -0.43692795702E+02  0.91475591064E+01  0.44911733150E+02  0.00000000000E+00 0. -1.
</event>
<event>
 7    1  0.2429906E-015  0.9000780E+02  0.7816164E-02  0.1186339E+00
        -11   -1    0    0    0    0  0.00000000000E+00  0.00000000000E+00  0.45593999997E+02  0.45594000000E+02  0.51100000000E-03 0.  1.
         11   -1    0    0    0    0 -0.00000000000E+00 -0.00000000000E+00 -0.45593999997E+02  0.45594000000E+02  0.51100000000E-03 0. -1.
    9900012    2    1    2    0    0 -0.26387244477E+00 -0.10927700953E+01 -0.35931608480E+00  0.90007795273E+02  0.90000057371E+02 0.  0.
        -12    1    1    2    0    0  0.26387244477E+00  0.10927700953E+01  0.35931608480E+00  0.11802047268E+01  0.00000000000E+00 0.  1.
         11    1    3    3    0    0 -0.26162099855E+02  0.30053099954E+02  0.46864804739E+01  0.40119912576E+02  0.51100000000E-03 0. -1.
        -11    1    3    3    0    0  0.27477259257E+01 -0.21905882913E+00 -0.10515543419E+02  0.10870815894E+02  0.51100000000E-03 0.  1.
        -12    1    3    3    0    0  0.23150501484E+02 -0.30926811220E+02  0.54697468605E+01  0.39017066803E+02  0.00000000000E+00 0.  1.
</event>
<event>
 7    1  0.2429906E-015  0.9000777E+02  0.7816164E-02  0.1186339E+00
        -11   -1    0    0    0    0  0.00000000000E+00  0.00000000000E+00  0.45593999997E+02  0.45594000000E+02  0.51100000000E-03 0.  1.
         11   -1    0    0    0    0 -0.00000000000E+00 -0.00000000000E+00 -0.45593999997E+02  0.45594000000E+02  0.51100000000E-03 0. -1.
    9900012    2    1    2    0    0  0.40990809235E+00  0.10081359725E+01 -0.45670911612E+00  0.90007768667E+02  0.90000030413E+02 0.  0.
        -12    1    1    2    0    0 -0.40990809235E+00 -0.10081359725E+01  0.45670911612E+00  0.11802313332E+01  0.00000000000E+00 0.  1.
         11    1    3    3    0    0 -0.26950701220E+02 -0.15102182104E+02 -0.17515338850E+02  0.35513424164E+02  0.51100000000E-03 0. -1.
        -11    1    3    3    0    0 -0.29720094819E+01  0.23411946983E+01 -0.10563350380E+02  0.11220445824E+02  0.51100000000E-03 0.  1.
        -12    1    3    3    0    0  0.30332618794E+02  0.13769123378E+02  0.27621980114E+02  0.43273898679E+02  0.00000000000E+00 0.  1.
</event>
<event>
 7    1  0.2429906E-015  0.9000763E+02  0.7816164E-02  0.1186339E+00
        -11   -1    0    0    0    0  0.00000000000E+00  0.00000000000E+00  0.45593999997E+02  0.45594000000E+02  0.51100000000E-03 0.  1.
         11   -1    0    0    0    0 -0.00000000000E+00 -0.00000000000E+00 -0.45593999997E+02  0.45594000000E+02  0.51100000000E-03 0. -1.
    9900012    2    1    2    0    0  0.28600170158E+00  0.87950679224E+00 -0.73345452575E+00  0.90007625181E+02  0.89999885034E+02 0.  0.
        -12    1    1    2    0    0 -0.28600170158E+00 -0.87950679224E+00  0.73345452575E+00  0.11803748185E+01  0.00000000000E+00 0.  1.
         11    1    3    3    0    0 -0.19377054895E+02 -0.31943267062E+02  0.15089962437E+02  0.40293293904E+02  0.51100000000E-03 0. -1.
        -11    1    3    3    0    0 -0.69646142494E+01  0.48574410375E+01 -0.22596213671E+01  0.87867214625E+01  0.51100000000E-03 0.  1.
        -12    1    3    3    0    0  0.26627670846E+02  0.27965332817E+02 -0.13563795596E+02  0.40927609815E+02  0.00000000000E+00 0.  1.
</event>
<event>
 7    1  0.2429906E-015  0.9000773E+02  0.7816164E-02  0.1186339E+00
        -11   -1    0    0    0    0  0.00000000000E+00  0.00000000000E+00  0.45593999997E+02  0.45594000000E+02  0.51100000000E-03 0. -1.
         11   -1    0    0    0    0 -0.00000000000E+00 -0.00000000000E+00 -0.45593999997E+02  0.45594000000E+02  0.51100000000E-03 0.  1.
    9900012    2    1    2    0    0  0.28652774952E+00 -0.33105929570E+00  0.10960558943E+01  0.90007730144E+02  0.89999991382E+02 0.  0.
        -12    1    1    2    0    0 -0.28652774952E+00  0.33105929570E+00 -0.10960558943E+01  0.11802698555E+01  0.00000000000E+00 0.  1.
         11    1    3    3    0    0 -0.33208297041E+01 -0.20031194104E+01  0.78107526041E+01  0.87205649932E+01  0.51100000000E-03 0. -1.
        -11    1    3    3    0    0 -0.32882494319E+01 -0.39302642856E+02 -0.41385927413E+01  0.39656503501E+02  0.51100000000E-03 0.  1.
         12    1    3    3    0    0  0.68956068855E+01  0.40974702970E+02 -0.25761039685E+01  0.41630661651E+02  0.00000000000E+00 0. -1.
</event>
<event>
 7    1  0.2429906E-015  0.9000773E+02  0.7816164E-02  0.1186339E+00
        -11   -1    0    0    0    0  0.00000000000E+00  0.00000000000E+00  0.45593999997E+02  0.45594000000E+02  0.51100000000E-03 0. -1.
         11   -1    0    0    0    0 -0.00000000000E+00 -0.00000000000E+00 -0.45593999997E+02  0.45594000000E+02  0.51100000000E-03 0.  1.
    9900012    2    1    2    0    0 -0.66643054153E+00  0.75068079602E+00 -0.62080031084E+00  0.90007727002E+02  0.89999988198E+02 0.  0.
        -12    1    1    2    0    0  0.66643054153E+00 -0.75068079602E+00  0.62080031084E+00  0.11802729981E+01  0.00000000000E+00 0.  1.
         11    1    3    3    0    0  0.43028938547E+01 -0.48446507128E+01 -0.15007475409E+01  0.66511487351E+01  0.51100000000E-03 0. -1.
        -11    1    3    3    0    0  0.19324512581E+02  0.12280079156E+02 -0.33594947576E+02  0.40655351843E+02  0.51100000000E-03 0.  1.
         12    1    3    3    0    0 -0.24293836977E+02 -0.66847476468E+01  0.34474894806E+02  0.42701226424E+02  0.00000000000E+00 0. -1.
</event>
<event>
 7    1  0.2429906E-015  0.9000778E+02  0.7816164E-02  0.1186339E+00
        -11   -1    0    0    0    0  0.00000000000E+00  0.00000000000E+00  0.45593999997E+02  0.45594000000E+02  0.51100000000E-03 0.  1.
         11   -1    0    0    0    0 -0.00000000000E+00 -0.00000000000E+00 -0.45593999997E+02  0.45594000000E+02  0.51100000000E-03 0. -1.
    9900012    2    1    2    0    0  0.10623230858E+00 -0.77551547027E+00 -0.88329889880E+00  0.90007776931E+02  0.90000038786E+02 0.  0.
        -12    1    1    2    0    0 -0.10623230858E+00  0.77551547027E+00  0.88329889880E+00  0.11802230690E+01  0.00000000000E+00 0.  1.
         11    1    3    3    0    0  0.32521903075E+01  0.50035635489E+01 -0.10716622243E+02  0.12266147828E+02  0.51100000000E-03 0. -1.
        -11    1    3    3    0    0  0.16628126841E+02  0.29243533274E+02  0.15652197124E+02  0.37103505436E+02  0.51100000000E-03 0.  1.
         12    1    3    3    0    0 -0.19774084840E+02 -0.35022612293E+02 -0.58188737800E+01  0.40638123667E+02  0.00000000000E+00 0. -1.
</event>
<event>
 7    1  0.2429906E-015  0.9000783E+02  0.7816164E-02  0.1186339E+00
        -11   -1    0    0    0    0  0.00000000000E+00  0.00000000000E+00  0.45593999997E+02  0.45594000000E+02  0.51100000000E-03 0. -1.
         11   -1    0    0    0    0 -0.00000000000E+00 -0.00000000000E+00 -0.45593999997E+02  0.45594000000E+02  0.51100000000E-03 0.  1.
    9900012    2    1    2    0    0 -0.11505985812E+01 -0.89423883321E-01  0.24681375963E+00  0.90007834436E+02  0.90000097051E+02 0.  0.
        -12    1    1    2    0    0  0.11505985812E+01  0.89423883321E-01 -0.24681375963E+00  0.11801655638E+01  0.00000000000E+00 0.  1.
         11    1    3    3    0    0  0.83637614614E+01  0.26061897971E+01  0.47241818847E+01  0.99530209375E+01  0.51100000000E-03 0. -1.
        -11    1    3    3    0    0  0.88609889809E+00  0.37477709758E+02 -0.82521763559E+01  0.38385704564E+02  0.51100000000E-03 0.  1.
         12    1    3    3    0    0 -0.10400458941E+02 -0.40173323438E+02  0.37748082308E+01  0.41669108935E+02  0.00000000000E+00 0. -1.
</event>
<event>
 7    1  0.2609645E-015  0.9000769E+02  0.7816164E-02  0.1186339E+00
        -11   -1    0    0    0    0  0.00000000000E+00  0.00000000000E+00  0.45593999997E+02  0.45594000000E+02  0.51100000000E-03 0. -1.
         11   -1    0    0    0    0 -0.00000000000E+00 -0.00000000000E+00 -0.45593999997E+02  0.45594000000E+02  0.51100000000E-03 0.  1.
    9900012    2    1    2    0    0 -0.65410615217E+00  0.90732380085E+00  0.37687142491E+00  0.90007693511E+02  0.89999954265E+02 0.  0.
        -12    1    1    2    0    0  0.65410615217E+00 -0.90732380085E+00 -0.37687142491E+00  0.11803064894E+01  0.00000000000E+00 0.  1.
         11    1    3    3    0    0  0.23759288303E+02 -0.77498988962E+00  0.31156122984E+02  0.39189391289E+02  0.51100000000E-03 0. -1.
        -11    1    3    3    0    0 -0.64394424994E+01 -0.40463396046E+01  0.58644672824E+01  0.96037107758E+01  0.51100000000E-03 0.  1.
        -12    1    3    3    0    0 -0.17973951955E+02  0.57286532950E+01 -0.36643718842E+02  0.41214591445E+02  0.00000000000E+00 0.  1.
</event>
<event>
 7    1  0.2429906E-015  0.9000773E+02  0.7816164E-02  0.1186339E+00
        -11   -1    0    0    0    0  0.00000000000E+00  0.00000000000E+00  0.45593999997E+02  0.45594000000E+02  0.51100000000E-03 0.  1.
         11   -1    0    0    0    0 -0.00000000000E+00 -0.00000000000E+00 -0.45593999997E+02  0.45594000000E+02  0.51100000000E-03 0. -1.
    9900012    2    1    2    0    0 -0.10501408752E+01 -0.45477086400E+00 -0.28881383819E+00  0.90007734848E+02  0.89999996148E+02 0.  0.
        -12    1    1    2    0    0  0.10501408752E+01  0.45477086400E+00  0.28881383819E+00  0.11802651523E+01  0.00000000000E+00 0.  1.
         11    1    3    3    0    0  0.62190114401E+01  0.52148414109E+01 -0.59997081472E+01  0.10092926847E+02  0.51100000000E-03 0. -1.
        -11    1    3    3    0    0  0.10691515825E+02  0.31739430866E+02  0.16064803405E+02  0.37145361636E+02  0.51100000000E-03 0.  1.
         12    1    3    3    0    0 -0.17960668141E+02 -0.37409043141E+02 -0.10353909096E+02  0.42769446365E+02  0.00000000000E+00 0. -1.
</event>
<event>
 7    1  0.3017492E-015  0.9000780E+02  0.7816164E-02  0.1186339E+00
        -11   -1    0    0    0    0  0.00000000000E+00  0.00000000000E+00  0.45593999997E+02  0.45594000000E+02  0.51100000000E-03 0. -1.
         11   -1    0    0    0    0 -0.00000000000E+00 -0.00000000000E+00 -0.45593999997E+02  0.45594000000E+02  0.51100000000E-03 0.  1.
    9900012    2    1    2    0    0 -0.93267170328E+00 -0.69876995561E+00  0.18631063339E+00  0.90007801877E+02  0.90000064062E+02 0.  0.
        -12    1    1    2    0    0  0.93267170328E+00  0.69876995561E+00 -0.18631063339E+00  0.11801981228E+01  0.00000000000E+00 0.  1.
         11    1    3    3    0    0 -0.29606210613E+02 -0.20780929713E+02 -0.29206240125E+01  0.36289182844E+02  0.51100000000E-03 0. -1.
        -11    1    3    3    0    0 -0.95161706449E+01 -0.78618499406E+00 -0.24176909485E+01  0.98499147393E+01  0.51100000000E-03 0.  1.
        -12    1    3    3    0    0  0.38189709554E+02  0.20868344751E+02  0.55246255945E+01  0.43868704294E+02  0.00000000000E+00 0.  1.
</event>
<event>
 7    1  0.2429906E-015  0.9000773E+02  0.7816164E-02  0.1186339E+00
        -11   -1    0    0    0    0  0.00000000000E+00  0.00000000000E+00  0.45593999997E+02  0.45594000000E+02  0.51100000000E-03 0. -1.
         11   -1    0    0    0    0 -0.00000000000E+00 -0.00000000000E+00 -0.45593999997E+02  0.45594000000E+02  0.51100000000E-03 0.  1.
    9900012    2    1    2    0    0  0.91213001428E+00 -0.72684070497E+00  0.18099386160E+00  0.90007729967E+02  0.89999991202E+02 0.  0.
        -12    1    1    2    0    0 -0.91213001428E+00  0.72684070497E+00 -0.18099386160E+00  0.11802700332E+01  0.00000000000E+00 0.  1.
         11    1    3    3    0    0  0.10544003220E+02 -0.12537144287E+02  0.27914653549E+02  0.32366400384E+02  0.51100000000E-03 0. -1.
        -11    1    3    3    0    0  0.13522245582E+02 -0.70403452191E+01  0.21523137254E+01  0.15396429489E+02  0.51100000000E-03 0.  1.
        -12    1    3    3    0    0 -0.23154118788E+02  0.18850648801E+02 -0.29885973413E+02  0.42244900094E+02  0.00000000000E+00 0.  1.
</event>
<event>
 7    1  0.2429906E-015  0.9000773E+02  0.7816164E-02  0.1186339E+00
        -11   -1    0    0    0    0  0.00000000000E+00  0.00000000000E+00  0.45593999997E+02  0.45594000000E+02  0.51100000000E-03 0. -1.
         11   -1    0    0    0    0 -0.00000000000E+00 -0.00000000000E+00 -0.45593999997E+02  0.45594000000E+02  0.51100000000E-03 0.  1.
    9900012    2    1    2    0    0 -0.17675229372E+00  0.18981442091E+00  0.11514185504E+01  0.90007730723E+02  0.89999991969E+02 0.  0.
        -12    1    1    2    0    0  0.17675229372E+00 -0.18981442091E+00 -0.11514185504E+01  0.11802692768E+01  0.00000000000E+00 0.  1.
         11    1    3    3    0    0 -0.10074113797E+02  0.21875760571E+01  0.54615016324E+01  0.11666244389E+02  0.51100000000E-03 0. -1.
        -11    1    3    3    0    0 -0.25980341160E+02  0.22426179314E+02  0.24857222485E+01  0.34410615525E+02  0.51100000000E-03 0.  1.
         12    1    3    3    0    0  0.35877702664E+02 -0.24423940951E+02 -0.67958053306E+01  0.43930870809E+02  0.00000000000E+00 0. -1.
</event>
<event>
 7    1  0.2429906E-015  0.9000773E+02  0.7816164E-02  0.1186339E+00
        -11   -1    0    0    0    0  0.00000000000E+00  0.00000000000E+00  0.45593999997E+02  0.45594000000E+02  0.51100000000E-03 0. -1.
         11   -1    0    0    0    0 -0.00000000000E+00 -0.00000000000E+00 -0.45593999997E+02  0.45594000000E+02  0.51100000000E-03 0.  1.
    9900012    2    1    2    0    0  0.69765150372E+00 -0.90103242915E+00  0.30736071220E+00  0.90007725597E+02  0.89999986775E+02 0.  0.
        -12    1    1    2    0    0 -0.69765150372E+00  0.90103242915E+00 -0.30736071220E+00  0.11802744030E+01  0.00000000000E+00 0.  1.
         11    1    3    3    0    0 -0.27695496283E+02  0.12426135794E+00  0.25947017668E+02  0.37951333064E+02  0.51100000000E-03 0. -1.
        -11    1    3    3    0    0 -0.30653530162E+01  0.10631936140E+02 -0.26247272524E+01  0.11372055602E+02  0.51100000000E-03 0.  1.
        -12    1    3    3    0    0  0.31458500802E+02 -0.11657229927E+02 -0.23014929703E+02  0.40684336931E+02  0.00000000000E+00 0.  1.
</event>
<event>
 7    1  0.2429906E-015  0.9000774E+02  0.7816164E-02  0.1186339E+00
        -11   -1    0    0    0    0  0.00000000000E+00  0.00000000000E+00  0.45593999997E+02  0.45594000000E+02  0.51100000000E-03 0.  1.
         11   -1    0    0    0    0 -0.00000000000E+00 -0.00000000000E+00 -0.45593999997E+02  0.45594000000E+02  0.51100000000E-03 0. -1.
    9900012    2    1    2    0    0 -0.39002091172E+00  0.35270120193E+00 -0.10566468004E+01  0.90007738626E+02  0.89999999976E+02 0.  0.
        -12    1    1    2    0    0  0.39002091172E+00 -0.35270120193E+00  0.10566468004E+01  0.11802613737E+01  0.00000000000E+00 0.  1.
         11    1    3    3    0    0  0.75957499091E+01  0.33384566605E+01  0.64977716314E+01  0.10538583680E+02  0.51100000000E-03 0. -1.
        -11    1    3    3    0    0  0.25600435798E+02  0.20992938969E+02 -0.16878441661E+02  0.37161372321E+02  0.51100000000E-03 0.  1.
         12    1    3    3    0    0 -0.33586206619E+02 -0.23978694427E+02  0.93240232289E+01  0.42307782625E+02  0.00000000000E+00 0. -1.
</event>
<event>
 7    1  0.2429906E-015  0.9000763E+02  0.7816164E-02  0.1186339E+00
        -11   -1    0    0    0    0  0.00000000000E+00  0.00000000000E+00  0.45593999997E+02  0.45594000000E+02  0.51100000000E-03 0. -1.
         11   -1    0    0    0    0 -0.00000000000E+00 -0.00000000000E+00 -0.45593999997E+02  0.45594000000E+02  0.51100000000E-03 0.  1.
    9900012    2    1    2    0    0 -0.10235991484E+01  0.55873950151E+00  0.18254874435E+00  0.90007631798E+02  0.89999891738E+02 0.  0.
        -12    1    1    2    0    0  0.10235991484E+01 -0.55873950151E+00 -0.18254874435E+00  0.11803682016E+01  0.00000000000E+00 0.  1.
         11    1    3    3    0    0 -0.98150609492E+01 -0.54264995725E-02 -0.59782115304E+01  0.11492365477E+02  0.51100000000E-03 0. -1.
        -11    1    3    3    0    0 -0.31797139818E+02  0.27790688302E+01 -0.11860321640E+02  0.34050676261E+02  0.51100000000E-03 0.  1.
         12    1    3    3    0    0  0.40588601619E+02 -0.22149028292E+01  0.18021081915E+02  0.44464590061E+02  0.00000000000E+00 0. -1.
</event>
<event>
 7    1  0.2429906E-015  0.9000726E+02  0.7816164E-02  0.1186340E+00
        -11   -1    0    0    0    0  0.00000000000E+00  0.00000000000E+00  0.45593999997E+02  0.45594000000E+02  0.51100000000E-03 0.  1.
         11   -1    0    0    0    0 -0.00000000000E+00 -0.00000000000E+00 -0.45593999997E+02  0.45594000000E+02  0.51100000000E-03 0. -1.
    9900012    2    1    2    0    0 -0.78354689444E+00 -0.87529244232E+00 -0.11860529854E+00  0.90007258787E+02  0.89999513802E+02 0.  0.
        -12    1    1    2    0    0  0.78354689444E+00  0.87529244232E+00  0.11860529854E+00  0.11807412131E+01  0.00000000000E+00 0.  1.
         11    1    3    3    0    0 -0.17442890937E+02  0.26118162462E+00 -0.28272874030E+02  0.33221650565E+02  0.51100000000E-03 0. -1.
        -11    1    3    3    0    0  0.17882106182E+02 -0.11499272291E+02 -0.51581595289E+01  0.21877147774E+02  0.51100000000E-03 0.  1.
        -12    1    3    3    0    0 -0.12227621390E+01  0.10362798224E+02  0.33312428260E+02  0.34908460448E+02  0.00000000000E+00 0.  1.
</event>
<event>
 7    1  0.2429906E-015  0.9000776E+02  0.7816164E-02  0.1186339E+00
        -11   -1    0    0    0    0  0.00000000000E+00  0.00000000000E+00  0.45593999997E+02  0.45594000000E+02  0.51100000000E-03 0. -1.
         11   -1    0    0    0    0 -0.00000000000E+00 -0.00000000000E+00 -0.45593999997E+02  0.45594000000E+02  0.51100000000E-03 0.  1.
    9900012    2    1    2    0    0  0.75443731746E-01  0.38183326455E+00  0.11142172239E+01  0.90007759168E+02  0.90000020789E+02 0.  0.
        -12    1    1    2    0    0 -0.75443731746E-01 -0.38183326455E+00 -0.11142172239E+01  0.11802408316E+01  0.00000000000E+00 0.  1.
         11    1    3    3    0    0 -0.33012949778E+02 -0.15942936027E+02  0.17169598348E+02  0.40482430386E+02  0.51100000000E-03 0. -1.
        -11    1    3    3    0    0 -0.10461932881E+01  0.70171912447E+01 -0.11963066065E+02  0.13908646350E+02  0.51100000000E-03 0.  1.
        -12    1    3    3    0    0  0.34134586798E+02  0.93075780468E+01 -0.40923150598E+01  0.35616682433E+02  0.00000000000E+00 0.  1.
</event>
<event>
 7    1  0.2429906E-015  0.9000784E+02  0.7816164E-02  0.1186339E+00
        -11   -1    0    0    0    0  0.00000000000E+00  0.00000000000E+00  0.45593999997E+02  0.45594000000E+02  0.51100000000E-03 0.  1.
         11   -1    0    0    0    0 -0.00000000000E+00 -0.00000000000E+00 -0.45593999997E+02  0.45594000000E+02  0.51100000000E-03 0. -1.
    9900012    2    1    2    0    0  0.93005615008E+00  0.72645501248E+00  0.55532048670E-02  0.90007842313E+02  0.90000105032E+02 0.  0.
        -12    1    1    2    0    0 -0.93005615008E+00 -0.72645501248E+00 -0.55532048670E-02  0.11801576867E+01  0.00000000000E+00 0.  1.
         11    1    3    3    0    0  0.13544730189E+00 -0.56913468177E+01  0.81802834391E+01  0.99662837595E+01  0.51100000000E-03 0. -1.
        -11    1    3    3    0    0 -0.28937130177E+01 -0.69854002645E+01  0.34417439517E+02  0.35238182914E+02  0.51100000000E-03 0.  1.
         12    1    3    3    0    0  0.36883218659E+01  0.13403202095E+02 -0.42592169752E+02  0.44803375640E+02  0.00000000000E+00 0. -1.
</event>
<event>
 7    1  0.2429906E-015  0.9000775E+02  0.7816164E-02  0.1186339E+00
        -11   -1    0    0    0    0  0.00000000000E+00  0.00000000000E+00  0.45593999997E+02  0.45594000000E+02  0.51100000000E-03 0. -1.
         11   -1    0    0    0    0 -0.00000000000E+00 -0.00000000000E+00 -0.45593999997E+02  0.45594000000E+02  0.51100000000E-03 0.  1.
    9900012    2    1    2    0    0 -0.65403143089E+00 -0.83377916566E+00 -0.51964967339E+00  0.90007754012E+02  0.90000015565E+02 0.  0.
        -12    1    1    2    0    0  0.65403143089E+00  0.83377916566E+00  0.51964967339E+00  0.11802459882E+01  0.00000000000E+00 0.  1.
         11    1    3    3    0    0  0.15543295244E+01 -0.63724443422E+01  0.58432481753E+01  0.87845054877E+01  0.51100000000E-03 0. -1.
        -11    1    3    3    0    0  0.32640575745E+01 -0.32403860721E+02 -0.22547893778E+02  0.39611510645E+02  0.51100000000E-03 0.  1.
         12    1    3    3    0    0 -0.54724185298E+01  0.37942525898E+02  0.16184995929E+02  0.41611737879E+02  0.00000000000E+00 0. -1.
</event>
<event>
 7    1  0.2429906E-015  0.9000777E+02  0.7816164E-02  0.1186339E+00
        -11   -1    0    0    0    0  0.00000000000E+00  0.00000000000E+00  0.45593999997E+02  0.45594000000E+02  0.51100000000E-03 0.  1.
         11   -1    0    0    0    0 -0.00000000000E+00 -0.00000000000E+00 -0.45593999997E+02  0.45594000000E+02  0.51100000000E-03 0. -1.
    9900012    2    1    2    0    0  0.27865006021E+00 -0.10163497264E+01  0.53134442746E+00  0.90007771411E+02  0.90000033193E+02 0.  0.
        -12    1    1    2    0    0 -0.27865006021E+00  0.10163497264E+01 -0.53134442746E+00  0.11802285893E+01  0.00000000000E+00 0.  1.
         11    1    3    3    0    0  0.74891723790E+01  0.34592428199E+02 -0.95364164804E+01  0.36656064044E+02  0.51100000000E-03 0. -1.
        -11    1    3    3    0    0  0.10834001049E+01  0.58826597169E+01  0.92694907054E+01  0.11031903704E+02  0.51100000000E-03 0.  1.
        -12    1    3    3    0    0 -0.82939224238E+01 -0.41491437642E+02  0.79827020244E+00  0.42319803663E+02  0.00000000000E+00 0.  1.
</event>
<event>
 7    1  0.2429906E-015  0.9000772E+02  0.7816164E-02  0.1186339E+00
        -11   -1    0    0    0    0  0.00000000000E+00  0.00000000000E+00  0.45593999997E+02  0.45594000000E+02  0.51100000000E-03 0.  1.
         11   -1    0    0    0    0 -0.00000000000E+00 -0.00000000000E+00 -0.45593999997E+02  0.45594000000E+02  0.51100000000E-03 0. -1.
    9900012    2    1    2    0    0 -0.10282685548E+01 -0.28109449387E+00 -0.50665487533E+00  0.90007724821E+02  0.89999985989E+02 0.  0.
        -12    1    1    2    0    0  0.10282685548E+01  0.28109449387E+00  0.50665487533E+00  0.11802751789E+01  0.00000000000E+00 0.  1.
         11    1    3    3    0    0 -0.30118951269E+02  0.74052508162E+01 -0.19820840559E+02  0.36808350763E+02  0.51100000000E-03 0. -1.
        -11    1    3    3    0    0 -0.93915752293E+01 -0.29026119897E+01  0.83581725691E+01  0.12902941161E+02  0.51100000000E-03 0.  1.
        -12    1    3    3    0    0  0.38482257943E+02 -0.47837333204E+01  0.10956013114E+02  0.40296432897E+02  0.00000000000E+00 0.  1.
</event>
<event>
 7    1  0.3089270E-015  0.9000781E+02  0.7816164E-02  0.1186339E+00
        -11   -1    0    0    0    0  0.00000000000E+00  0.00000000000E+00  0.45593999997E+02  0.45594000000E+02  0.51100000000E-03 0. -1.
         11   -1    0    0    0    0 -0.00000000000E+00 -0.00000000000E+00 -0.45593999997E+02  0.45594000000E+02  0.51100000000E-03 0.  1.
    9900012    2    1    2    0    0 -0.73752848471E+00  0.92124093954E+00 -0.15005889813E-01  0.90007805816E+02  0.90000068053E+02 0.  0.
        -12    1    1    2    0    0  0.73752848471E+00 -0.92124093954E+00  0.15005889813E-01  0.11801941837E+01  0.00000000000E+00 0.  1.
         11    1    3    3    0    0 -0.19279302932E+02  0.22765160690E+02 -0.24696402356E+02  0.38727978935E+02  0.51100000000E-03 0. -1.
        -11    1    3    3    0    0  0.25952887281E+01 -0.19544411720E+01 -0.86945798325E+01  0.92817607490E+01  0.51100000000E-03 0.  1.
        -12    1    3    3    0    0  0.15946485719E+02 -0.19889478579E+02  0.33375976299E+02  0.41998066132E+02  0.00000000000E+00 0.  1.
</event>
<event>
 7    1  0.2429906E-015  0.9000774E+02  0.7816164E-02  0.1186339E+00
        -11   -1    0    0    0    0  0.00000000000E+00  0.00000000000E+00  0.45593999997E+02  0.45594000000E+02  0.51100000000E-03 0.  1.
         11   -1    0    0    0    0 -0.00000000000E+00 -0.00000000000E+00 -0.45593999997E+02  0.45594000000E+02  0.51100000000E-03 0. -1.
    9900012    2    1    2    0    0 -0.57543813305E+00  0.22641123809E+00 -0.10052937100E+01  0.90007743021E+02  0.90000004429E+02 0.  0.
        -12    1    1    2    0    0  0.57543813305E+00 -0.22641123809E+00  0.10052937100E+01  0.11802569792E+01  0.00000000000E+00 0.  1.
         11    1    3    3    0    0  0.76433201336E+01  0.42487004392E+01 -0.38290086863E+01  0.95463661080E+01  0.51100000000E-03 0. -1.
        -11    1    3    3    0    0  0.15756879414E+02  0.16060822771E+02  0.31041267132E+02  0.38337834346E+02  0.51100000000E-03 0.  1.
         12    1    3    3    0    0 -0.23975637680E+02 -0.20083111972E+02 -0.28217552156E+02  0.42123542566E+02  0.00000000000E+00 0. -1.
</event>
<event>
 7    1  0.2429906E-015  0.9000799E+02  0.7816164E-02  0.1186339E+00
        -11   -1    0    0    0    0  0.00000000000E+00  0.00000000000E+00  0.45593999997E+02  0.45594000000E+02  0.51100000000E-03 0.  1.
         11   -1    0    0    0    0 -0.00000000000E+00 -0.00000000000E+00 -0.45593999997E+02  0.45594000000E+02  0.51100000000E-03 0. -1.
    9900012    2    1    2    0    0  0.31783464461E+00  0.60126878980E+00 -0.96429866199E+00  0.90007993674E+02  0.90000258391E+02 0.  0.
        -12    1    1    2    0    0 -0.31783464461E+00 -0.60126878980E+00  0.96429866199E+00  0.11800063256E+01  0.00000000000E+00 0.  1.
         11    1    3    3    0    0  0.46504800156E+01 -0.37428991867E+00 -0.79501216070E+01  0.92179982180E+01  0.51100000000E-03 0. -1.
        -11    1    3    3    0    0  0.34566954487E+02  0.12555088400E+02  0.14467293644E+02  0.39519706133E+02  0.51100000000E-03 0.  1.
         12    1    3    3    0    0 -0.38899599858E+02 -0.11579529691E+02 -0.74814706985E+01  0.41270289323E+02  0.00000000000E+00 0. -1.
</event>
<event>
 7    1  0.2429906E-015  0.9000770E+02  0.7816164E-02  0.1186339E+00
        -11   -1    0    0    0    0  0.00000000000E+00  0.00000000000E+00  0.45593999997E+02  0.45594000000E+02  0.51100000000E-03 0.  1.
         11   -1    0    0    0    0 -0.00000000000E+00 -0.00000000000E+00 -0.45593999997E+02  0.45594000000E+02  0.51100000000E-03 0. -1.
    9900012    2    1    2    0    0 -0.89562736347E+00 -0.11414684118E-01 -0.76864849611E+00  0.90007703775E+02  0.89999964664E+02 0.  0.
        -12    1    1    2    0    0  0.89562736347E+00  0.11414684118E-01  0.76864849611E+00  0.11802962254E+01  0.00000000000E+00 0.  1.
         11    1    3    3    0    0 -0.30124520255E+02  0.20023948203E+02  0.61397311668E+01  0.36689801325E+02  0.51100000000E-03 0. -1.
        -11    1    3    3    0    0 -0.76334353572E+01 -0.13214053251E+01  0.62284369661E+01  0.99402653228E+01  0.51100000000E-03 0.  1.
        -12    1    3    3    0    0  0.36862328249E+02 -0.18713957562E+02 -0.13136816629E+02  0.43377637127E+02  0.00000000000E+00 0.  1.
</event>
<event>
 7    1  0.2429906E-015  0.9000777E+02  0.7816164E-02  0.1186339E+00
        -11   -1    0    0    0    0  0.00000000000E+00  0.00000000000E+00  0.45593999997E+02  0.45594000000E+02  0.51100000000E-03 0.  1.
         11   -1    0    0    0    0 -0.00000000000E+00 -0.00000000000E+00 -0.45593999997E+02  0.45594000000E+02  0.51100000000E-03 0. -1.
    9900012    2    1    2    0    0 -0.95078231521E+00  0.22007947833E+00  0.66372384565E+00  0.90007766408E+02  0.90000028125E+02 0.  0.
        -12    1    1    2    0    0  0.95078231521E+00 -0.22007947833E+00 -0.66372384565E+00  0.11802335917E+01  0.00000000000E+00 0.  1.
         11    1    3    3    0    0 -0.70258964878E+01  0.56511494205E+01 -0.69254044801E+00  0.90431368321E+01  0.51100000000E-03 0. -1.
        -11    1    3    3    0    0 -0.24380035562E+02  0.26405291963E+02  0.67843224969E+01  0.36573933473E+02  0.51100000000E-03 0.  1.
         12    1    3    3    0    0  0.30455149735E+02 -0.31836361905E+02 -0.54280582032E+01  0.44390696104E+02  0.00000000000E+00 0. -1.
</event>
<event>
 7    1  0.2429906E-015  0.9000755E+02  0.7816164E-02  0.1186339E+00
        -11   -1    0    0    0    0  0.00000000000E+00  0.00000000000E+00  0.45593999997E+02  0.45594000000E+02  0.51100000000E-03 0.  1.
         11   -1    0    0    0    0 -0.00000000000E+00 -0.00000000000E+00 -0.45593999997E+02  0.45594000000E+02  0.51100000000E-03 0. -1.
    9900012    2    1    2    0    0 -0.65851180658E+00  0.19742063326E+00 -0.95961149809E+00  0.90007547996E+02  0.89999806830E+02 0.  0.
        -12    1    1    2    0    0  0.65851180658E+00 -0.19742063326E+00  0.95961149809E+00  0.11804520037E+01  0.00000000000E+00 0.  1.
         11    1    3    3    0    0  0.12278507274E+02  0.37609199514E+02  0.93613745756E+01  0.40655245211E+02  0.51100000000E-03 0. -1.
        -11    1    3    3    0    0 -0.72652757489E+01  0.18467609353E+01 -0.57013457872E+01  0.94180731419E+01  0.51100000000E-03 0.  1.
        -12    1    3    3    0    0 -0.56717433314E+01 -0.39258539816E+02 -0.46196402865E+01  0.39934229644E+02  0.00000000000E+00 0.  1.
</event>
<event>
 7    1  0.2429906E-015  0.9000776E+02  0.7816164E-02  0.1186339E+00
        -11   -1    0    0    0    0  0.00000000000E+00  0.00000000000E+00  0.45593999997E+02  0.45594000000E+02  0.51100000000E-03 0.  1.
         11   -1    0    0    0    0 -0.00000000000E+00 -0.00000000000E+00 -0.45593999997E+02  0.45594000000E+02  0.51100000000E-03 0. -1.
    9900012    2    1    2    0    0 -0.28468021716E+00  0.11448980926E+01 -0.33539185872E-01  0.90007763013E+02  0.90000024685E+02 0.  0.
        -12    1    1    2    0    0  0.28468021716E+00 -0.11448980926E+01  0.33539185872E-01  0.11802369870E+01  0.00000000000E+00 0.  1.
         11    1    3    3    0    0  0.91269116025E+01 -0.81850487179E+01  0.10157676072E+02  0.15920864341E+02  0.51100000000E-03 0. -1.
        -11    1    3    3    0    0 -0.27804872690E+02  0.15043416406E+02  0.20625212516E+02  0.37746717925E+02  0.51100000000E-03 0.  1.
         12    1    3    3    0    0  0.18393280871E+02 -0.57134695959E+01 -0.30816427774E+02  0.36340180747E+02  0.00000000000E+00 0. -1.
</event>
<event>
 7    1  0.2429906E-015  0.9000727E+02  0.7816164E-02  0.1186340E+00
        -11   -1    0    0    0    0  0.00000000000E+00  0.00000000000E+00  0.45593999997E+02  0.45594000000E+02  0.51100000000E-03 0.  1.
         11   -1    0    0    0    0 -0.00000000000E+00 -0.00000000000E+00 -0.45593999997E+02  0.45594000000E+02  0.51100000000E-03 0. -1.
    9900012    2    1    2    0    0  0.10025851844E+01 -0.20893954091E+00  0.58762302249E+00  0.90007265652E+02  0.89999520757E+02 0.  0.
        -12    1    1    2    0    0 -0.10025851844E+01  0.20893954091E+00 -0.58762302249E+00  0.11807343479E+01  0.00000000000E+00 0.  1.
         11    1    3    3    0    0 -0.35896348532E+02 -0.13575280531E+02 -0.20204674873E+02  0.43371245848E+02  0.51100000000E-03 0. -1.
        -11    1    3    3    0    0  0.83763092993E+01 -0.25574055574E+01  0.21258583495E+01  0.90123334740E+01  0.51100000000E-03 0.  1.
        -12    1    3    3    0    0  0.28522624417E+02  0.15923746548E+02  0.18666439546E+02  0.37623686330E+02  0.00000000000E+00 0.  1.
</event>
<event>
 7    1  0.2429906E-015  0.9000774E+02  0.7816164E-02  0.1186339E+00
        -11   -1    0    0    0    0  0.00000000000E+00  0.00000000000E+00  0.45593999997E+02  0.45594000000E+02  0.51100000000E-03 0. -1.
         11   -1    0    0    0    0 -0.00000000000E+00 -0.00000000000E+00 -0.45593999997E+02  0.45594000000E+02  0.51100000000E-03 0.  1.
    9900012    2    1    2    0    0  0.73878798179E+00 -0.28878573490E+00 -0.87396084759E+00  0.90007740518E+02  0.90000001892E+02 0.  0.
        -12    1    1    2    0    0 -0.73878798179E+00  0.28878573490E+00  0.87396084759E+00  0.11802594824E+01  0.00000000000E+00 0.  1.
         11    1    3    3    0    0 -0.41525273574E+01 -0.61105119728E+01 -0.11316614768E+02  0.13514718277E+02  0.51100000000E-03 0. -1.
        -11    1    3    3    0    0  0.17932876699E+02 -0.12998091889E+02 -0.25563315474E+02  0.33823387733E+02  0.51100000000E-03 0.  1.
         12    1    3    3    0    0 -0.13041561359E+02  0.18819818127E+02  0.36005969394E+02  0.42669634508E+02  0.00000000000E+00 0. -1.
</event>
<event>
 7    1  0.2429906E-015  0.9000768E+02  0.7816164E-02  0.1186339E+00
        -11   -1    0    0    0    0  0.00000000000E+00  0.00000000000E+00  0.45593999997E+02  0.45594000000E+02  0.51100000000E-03 0.  1.
         11   -1    0    0    0    0 -0.00000000000E+00 -0.00000000000E+00 -0.45593999997E+02  0.45594000000E+02  0.51100000000E-03 0. -1.
    9900012    2    1    2    0    0 -0.57329213392E+00  0.10251619445E+01  0.11635191391E+00  0.90007678581E+02  0.89999939139E+02 0.  0.
        -12    1    1    2    0    0  0.57329213392E+00 -0.10251619445E+01 -0.11635191391E+00  0.11803214185E+01  0.00000000000E+00 0.  1.
         11    1    3    3    0    0 -0.53502053337E+01 -0.67003173067E+01 -0.60990564501E+01  0.10522235455E+02  0.51100000000E-03 0. -1.
        -11    1    3    3    0    0 -0.35675976699E+02 -0.95490952936E+00 -0.63423407701E+01  0.36247930318E+02  0.51100000000E-03 0.  1.
         12    1    3    3    0    0  0.40452889899E+02  0.86803887805E+01  0.12557749134E+02  0.43237512809E+02  0.00000000000E+00 0. -1.
</event>
<event>
 7    1  0.2429906E-015  0.9000775E+02  0.7816164E-02  0.1186339E+00
        -11   -1    0    0    0    0  0.00000000000E+00  0.00000000000E+00  0.45593999997E+02  0.45594000000E+02  0.51100000000E-03 0. -1.
         11   -1    0    0    0    0 -0.00000000000E+00 -0.00000000000E+00 -0.45593999997E+02  0.45594000000E+02  0.51100000000E-03 0.  1.
    9900012    2    1    2    0    0 -0.87386919817E+00 -0.44995029315E+00 -0.65337517575E+00  0.90007745044E+02  0.90000006478E+02 0.  0.
        -12    1    1    2    0    0  0.87386919817E+00  0.44995029315E+00  0.65337517575E+00  0.11802549564E+01  0.00000000000E+00 0.  1.
         11    1    3    3    0    0 -0.15564502735E+02  0.11855230408E+02  0.31104097033E+02  0.36745953327E+02  0.51100000000E-03 0. -1.
        -11    1    3    3    0    0 -0.67800417632E+01  0.92908582247E+01 -0.43662403219E+01  0.12302563459E+02  0.51100000000E-03 0.  1.
        -12    1    3    3    0    0  0.21470675300E+02 -0.21596038925E+02 -0.27391231887E+02  0.40959228257E+02  0.00000000000E+00 0.  1.
</event>
<event>
 7    1  0.2429906E-015  0.9000789E+02  0.7816164E-02  0.1186339E+00
        -11   -1    0    0    0    0  0.00000000000E+00  0.00000000000E+00  0.45593999997E+02  0.45594000000E+02  0.51100000000E-03 0.  1.
         11   -1    0    0    0    0 -0.00000000000E+00 -0.00000000000E+00 -0.45593999997E+02  0.45594000000E+02  0.51100000000E-03 0. -1.
    9900012    2    1    2    0    0 -0.49231024206E+00 -0.41905798130E+00 -0.98725628884E+00  0.90007892401E+02  0.90000155780E+02 0.  0.
        -12    1    1    2    0    0  0.49231024206E+00  0.41905798130E+00  0.98725628884E+00  0.11801075993E+01  0.00000000000E+00 0.  1.
         11    1    3    3    0    0  0.24112094818E+02 -0.43683413021E+01 -0.19356445290E+02  0.31227351742E+02  0.51100000000E-03 0. -1.
        -11    1    3    3    0    0  0.93230905077E-01 -0.78707993829E+01 -0.14197300302E+02  0.16233345652E+02  0.51100000000E-03 0.  1.
        -12    1    3    3    0    0 -0.24697635966E+02  0.11820082704E+02  0.32566489303E+02  0.42547195007E+02  0.00000000000E+00 0.  1.
</event>
<event>
 7    1  0.2429906E-015  0.9000774E+02  0.7816164E-02  0.1186339E+00
        -11   -1    0    0    0    0  0.00000000000E+00  0.00000000000E+00  0.45593999997E+02  0.45594000000E+02  0.51100000000E-03 0. -1.
         11   -1    0    0    0    0 -0.00000000000E+00 -0.00000000000E+00 -0.45593999997E+02  0.45594000000E+02  0.51100000000E-03 0.  1.
    9900012    2    1    2    0    0 -0.10186543638E+00 -0.11551831443E+01  0.21951527401E+00  0.90007740868E+02  0.90000002247E+02 0.  0.
        -12    1    1    2    0    0  0.10186543638E+00  0.11551831443E+01 -0.21951527401E+00  0.11802591324E+01  0.00000000000E+00 0.  1.
         11    1    3    3    0    0  0.32445771952E+00 -0.20973455825E+01  0.94641682373E+01  0.96992067711E+01  0.51100000000E-03 0. -1.
        -11    1    3    3    0    0 -0.38711456343E+02  0.37953722072E+01  0.52958044797E+01  0.39255919907E+02  0.51100000000E-03 0.  1.
         12    1    3    3    0    0  0.38285133187E+02 -0.28532097690E+01 -0.14540457443E+02  0.41052614190E+02  0.00000000000E+00 0. -1.
</event>
<event>
 7    1  0.2429906E-015  0.9000769E+02  0.7816164E-02  0.1186339E+00
        -11   -1    0    0    0    0  0.00000000000E+00  0.00000000000E+00  0.45593999997E+02  0.45594000000E+02  0.51100000000E-03 0.  1.
         11   -1    0    0    0    0 -0.00000000000E+00 -0.00000000000E+00 -0.45593999997E+02  0.45594000000E+02  0.51100000000E-03 0. -1.
    9900012    2    1    2    0    0  0.41530953403E+00 -0.77499150523E+00 -0.78742727238E+00  0.90007688367E+02  0.89999949053E+02 0.  0.
        -12    1    1    2    0    0 -0.41530953403E+00  0.77499150523E+00  0.78742727238E+00  0.11803116332E+01  0.00000000000E+00 0.  1.
         11    1    3    3    0    0 -0.18728788235E+01  0.80475805277E+01 -0.18340471475E+01  0.84637436538E+01  0.51100000000E-03 0. -1.
        -11    1    3    3    0    0 -0.19211790766E+02  0.30601572248E+02 -0.40114768583E+01  0.36354381790E+02  0.51100000000E-03 0.  1.
         12    1    3    3    0    0  0.21499979123E+02 -0.39424144281E+02  0.50580967334E+01  0.45189562923E+02  0.00000000000E+00 0. -1.
</event>
<event>
 7    1  0.2429906E-015  0.9000768E+02  0.7816164E-02  0.1186339E+00
        -11   -1    0    0    0    0  0.00000000000E+00  0.00000000000E+00  0.45593999997E+02  0.45594000000E+02  0.51100000000E-03 0.  1.
         11   -1    0    0    0    0 -0.00000000000E+00 -0.00000000000E+00 -0.45593999997E+02  0.45594000000E+02  0.51100000000E-03 0. -1.
    9900012    2    1    2    0    0  0.97979820589E+00  0.27370358941E+00 -0.59853390048E+00  0.90007677583E+02  0.89999938127E+02 0.  0.
        -12    1    1    2    0    0 -0.97979820589E+00 -0.27370358941E+00  0.59853390048E+00  0.11803224175E+01  0.00000000000E+00 0.  1.
         11    1    3    3    0    0 -0.11906801051E+02 -0.47623970818E+01  0.16037886592E+02  0.20534511044E+02  0.51100000000E-03 0. -1.
        -11    1    3    3    0    0 -0.43463952743E+01 -0.19340072373E+02  0.15830440508E+02  0.25367940362E+02  0.51100000000E-03 0.  1.
         12    1    3    3    0    0  0.17232994532E+02  0.24376173044E+02 -0.32466861001E+02  0.44105226176E+02  0.00000000000E+00 0. -1.
</event>
<event>
 7    1  0.2429906E-015  0.9000789E+02  0.7816164E-02  0.1186339E+00
        -11   -1    0    0    0    0  0.00000000000E+00  0.00000000000E+00  0.45593999997E+02  0.45594000000E+02  0.51100000000E-03 0.  1.
         11   -1    0    0    0    0 -0.00000000000E+00 -0.00000000000E+00 -0.45593999997E+02  0.45594000000E+02  0.51100000000E-03 0. -1.
    9900012    2    1    2    0    0 -0.19810941445E+00  0.10016417576E+01 -0.59171512223E+00  0.90007889693E+02  0.90000153037E+02 0.  0.
        -12    1    1    2    0    0  0.19810941445E+00 -0.10016417576E+01  0.59171512223E+00  0.11801103069E+01  0.00000000000E+00 0.  1.
         11    1    3    3    0    0 -0.34125243225E+02 -0.16941341580E+02 -0.11118785388E+02  0.39688394631E+02  0.51100000000E-03 0. -1.
        -11    1    3    3    0    0  0.51461551767E+01 -0.62958239928E+01 -0.50749219737E+01  0.95851523802E+01  0.51100000000E-03 0.  1.
        -12    1    3    3    0    0  0.28780978633E+02  0.24238807330E+02  0.15601992239E+02  0.40734342682E+02  0.00000000000E+00 0.  1.
</event>
<event>
 7    1  0.2429906E-015  0.9000769E+02  0.7816164E-02  0.1186339E+00
        -11   -1    0    0    0    0  0.00000000000E+00  0.00000000000E+00  0.45593999997E+02  0.45594000000E+02  0.51100000000E-03 0.  1.
         11   -1    0    0    0    0 -0.00000000000E+00 -0.00000000000E+00 -0.45593999997E+02  0.45594000000E+02  0.51100000000E-03 0. -1.
    9900012    2    1    2    0    0  0.31975555490E-01 -0.11688491143E+01  0.16096294410E+00  0.90007686585E+02  0.89999947248E+02 0.  0.
        -12    1    1    2    0    0 -0.31975555490E-01  0.11688491143E+01 -0.16096294410E+00  0.11803134149E+01  0.00000000000E+00 0.  1.
         11    1    3    3    0    0 -0.64454950657E+01  0.26201690607E+02  0.28179496852E+02  0.39014831031E+02  0.51100000000E-03 0. -1.
        -11    1    3    3    0    0  0.18421551630E+01  0.72703194761E+01 -0.66829602396E+01  0.10045548206E+02  0.51100000000E-03 0.  1.
        -12    1    3    3    0    0  0.46353154582E+01 -0.34640859197E+02 -0.21335573668E+02  0.40947307348E+02  0.00000000000E+00 0.  1.
</event>
<event>
 7    1  0.2429906E-015  0.9000715E+02  0.7816164E-02  0.1186340E+00
        -11   -1    0    0    0    0  0.00000000000E+00  0.00000000000E+00  0.45593999997E+02  0.45594000000E+02  0.51100000000E-03 0.  1.
         11   -1    0    0    0    0 -0.00000000000E+00 -0.00000000000E+00 -0.45593999997E+02  0.45594000000E+02  0.51100000000E-03 0. -1.
    9900012    2    1    2    0    0 -0.77373176927E+00  0.85850039445E+00  0.24231673990E+00  0.90007152347E+02  0.89999405956E+02 0.  0.
        -12    1    1    2    0    0  0.77373176927E+00 -0.85850039445E+00 -0.24231673990E+00  0.11808476534E+01  0.00000000000E+00 0.  1.
         11    1    3    3    0    0 -0.51559243664E+00 -0.35834013226E+00  0.90508313389E+01  0.90725846040E+01  0.51100000000E-03 0. -1.
        -11    1    3    3    0    0  0.61431165636E+01 -0.45823835591E-01  0.35561079479E+02  0.36087814493E+02  0.51100000000E-03 0.  1.
         12    1    3    3    0    0 -0.64012558963E+01  0.12626643623E+01 -0.44369594078E+02  0.44846753249E+02  0.00000000000E+00 0. -1.
</event>
<event>
 7    1  0.2429906E-015  0.9000780E+02  0.7816164E-02  0.1186339E+00
        -11   -1    0    0    0    0  0.00000000000E+00  0.00000000000E+00  0.45593999997E+02  0.45594000000E+02  0.51100000000E-03 0.  1.
         11   -1    0    0    0    0 -0.00000000000E+00 -0.00000000000E+00 -0.45593999997E+02  0.45594000000E+02  0.51100000000E-03 0. -1.
    9900012    2    1    2    0    0 -0.98423507261E+00  0.59976310063E+00 -0.25382708756E+00  0.90007803980E+02  0.90000066193E+02 0.  0.
        -12    1    1    2    0    0  0.98423507261E+00 -0.59976310063E+00  0.25382708756E+00  0.11801960199E+01  0.00000000000E+00 0.  1.
         11    1    3    3    0    0  0.85425348265E+01  0.65713881721E+00 -0.56866238452E+01  0.10283210768E+02  0.51100000000E-03 0. -1.
        -11    1    3    3    0    0  0.27616971348E+02 -0.19511893464E+02  0.14554655422E+02  0.36813707878E+02  0.51100000000E-03 0.  1.
         12    1    3    3    0    0 -0.37143741247E+02  0.19454517748E+02 -0.91218586645E+01  0.42910885334E+02  0.00000000000E+00 0. -1.
</event>
<event>
 7    1  0.2429906E-015  0.9000776E+02  0.7816164E-02  0.1186339E+00
        -11   -1    0    0    0    0  0.00000000000E+00  0.00000000000E+00  0.45593999997E+02  0.45594000000E+02  0.51100000000E-03 0.  1.
         11   -1    0    0    0    0 -0.00000000000E+00 -0.00000000000E+00 -0.45593999997E+02  0.45594000000E+02  0.51100000000E-03 0. -1.
    9900012    2    1    2    0    0 -0.45568584049E+00 -0.59107005518E+00 -0.91430928191E+00  0.90007756441E+02  0.90000018026E+02 0.  0.
        -12    1    1    2    0    0  0.45568584049E+00  0.59107005518E+00  0.91430928191E+00  0.11802435589E+01  0.00000000000E+00 0.  1.
         11    1    3    3    0    0  0.10566102761E+02  0.14878342959E+02 -0.37088814312E+02  0.41335067002E+02  0.51100000000E-03 0. -1.
        -11    1    3    3    0    0 -0.76705286750E+01  0.58769206984E+01  0.53988694215E+01  0.11069010721E+02  0.51100000000E-03 0.  1.
        -12    1    3    3    0    0 -0.33512599262E+01 -0.21346333712E+02  0.30775635608E+02  0.37603678718E+02  0.00000000000E+00 0.  1.
</event>
<event>
 7    1  0.2429906E-015  0.9000774E+02  0.7816164E-02  0.1186339E+00
        -11   -1    0    0    0    0  0.00000000000E+00  0.00000000000E+00  0.45593999997E+02  0.45594000000E+02  0.51100000000E-03 0.  1.
         11   -1    0    0    0    0 -0.00000000000E+00 -0.00000000000E+00 -0.45593999997E+02  0.45594000000E+02  0.51100000000E-03 0. -1.
    9900012    2    1    2    0    0  0.38578706578E+00 -0.83543844727E+00 -0.73906693693E+00  0.90007741979E+02  0.90000003373E+02 0.  0.
        -12    1    1    2    0    0 -0.38578706578E+00  0.83543844727E+00  0.73906693693E+00  0.11802580212E+01  0.00000000000E+00 0.  1.
         11    1    3    3    0    0 -0.32970876468E+02  0.76595185585E+01 -0.70278626167E+01  0.34570764713E+02  0.51100000000E-03 0. -1.
        -11    1    3    3    0    0 -0.90482731915E+01  0.17756343930E+01 -0.48331632058E+01  0.10410744069E+02  0.51100000000E-03 0.  1.
        -12    1    3    3    0    0  0.42404936726E+02 -0.10270591399E+02  0.11121958886E+02  0.45026233196E+02  0.00000000000E+00 0.  1.
</event>
<event>
 7    1  0.2429906E-015  0.9000720E+02  0.7816164E-02  0.1186340E+00
        -11   -1    0    0    0    0  0.00000000000E+00  0.00000000000E+00  0.45593999997E+02  0.45594000000E+02  0.51100000000E-03 0.  1.
         11   -1    0    0    0    0 -0.00000000000E+00 -0.00000000000E+00 -0.45593999997E+02  0.45594000000E+02  0.51100000000E-03 0. -1.
    9900012    2    1    2    0    0  0.19058121584E+00  0.42141908780E+00 -0.10864520203E+01  0.90007198052E+02  0.89999452265E+02 0.  0.
        -12    1    1    2    0    0 -0.19058121584E+00 -0.42141908780E+00  0.10864520203E+01  0.11808019478E+01  0.00000000000E+00 0.  1.
         11    1    3    3    0    0 -0.78188202117E+01 -0.16148154409E+01 -0.57037036968E+01  0.98119220611E+01  0.51100000000E-03 0. -1.
        -11    1    3    3    0    0  0.21530008540E+02  0.33659055630E+02 -0.12383323671E+02  0.41830849849E+02  0.51100000000E-03 0.  1.
         12    1    3    3    0    0 -0.13520607113E+02 -0.31622821101E+02  0.17000575348E+02  0.38364426143E+02  0.00000000000E+00 0. -1.
</event>
<event>
 7    1  0.2429906E-015  0.9000774E+02  0.7816164E-02  0.1186339E+00
        -11   -1    0    0    0    0  0.00000000000E+00  0.00000000000E+00  0.45593999997E+02  0.45594000000E+02  0.51100000000E-03 0.  1.
         11   -1    0    0    0    0 -0.00000000000E+00 -0.00000000000E+00 -0.45593999997E+02  0.45594000000E+02  0.51100000000E-03 0. -1.
    9900012    2    1    2    0    0 -0.10229926793E+00 -0.11184961295E+01 -0.36265939402E+00  0.90007737077E+02  0.89999998406E+02 0.  0.
        -12    1    1    2    0    0  0.10229926793E+00  0.11184961295E+01  0.36265939402E+00  0.11802629232E+01  0.00000000000E+00 0.  1.
         11    1    3    3    0    0  0.65460070878E+01 -0.79577450464E+01 -0.24762052754E+01  0.10597523666E+02  0.51100000000E-03 0. -1.
        -11    1    3    3    0    0  0.20569780134E+02  0.29551869461E+02  0.18357805502E+02  0.40415812085E+02  0.51100000000E-03 0.  1.
         12    1    3    3    0    0 -0.27218086490E+02 -0.22712620544E+02 -0.16244259621E+02  0.38994401326E+02  0.00000000000E+00 0. -1.
</event>
<event>
 7    1  0.2429906E-015  0.9000776E+02  0.7816164E-02  0.1186339E+00
        -11   -1    0    0    0    0  0.00000000000E+00  0.00000000000E+00  0.45593999997E+02  0.45594000000E+02  0.51100000000E-03 0. -1.
         11   -1    0    0    0    0 -0.00000000000E+00 -0.00000000000E+00 -0.45593999997E+02  0.45594000000E+02  0.51100000000E-03 0.  1.
    9900012    2    1    2    0    0 -0.84124376807E+00  0.27225736047E+00  0.78175521634E+00  0.90007764275E+02  0.90000025964E+02 0.  0.
        -12    1    1    2    0    0  0.84124376807E+00 -0.27225736047E+00 -0.78175521634E+00  0.11802357247E+01  0.00000000000E+00 0.  1.
         11    1    3    3    0    0  0.37959425130E+01 -0.67952843232E+01  0.35294648567E+01  0.85464724320E+01  0.51100000000E-03 0. -1.
        -11    1    3    3    0    0 -0.28253055989E+02 -0.27466140704E+02 -0.40022361034E+01  0.39606084784E+02  0.51100000000E-03 0.  1.
         12    1    3    3    0    0  0.23615869708E+02  0.34533682388E+02  0.12545264631E+01  0.41855207059E+02  0.00000000000E+00 0. -1.
</event>
<event>
 7    1  0.2429906E-015  0.9000773E+02  0.7816164E-02  0.1186339E+00
        -11   -1    0    0    0    0  0.00000000000E+00  0.00000000000E+00  0.45593999997E+02  0.45594000000E+02  0.51100000000E-03 0.  1.
         11   -1    0    0    0    0 -0.00000000000E+00 -0.00000000000E+00 -0.45593999997E+02  0.45594000000E+02  0.51100000000E-03 0. -1.
    9900012    2    1    2    0    0 -0.69373869298E+00 -0.75030000296E+00 -0.59061341746E+00  0.90007725592E+02  0.89999986770E+02 0.  0.
        -12    1    1    2    0    0  0.69373869298E+00  0.75030000296E+00  0.59061341746E+00  0.11802744077E+01  0.00000000000E+00 0.  1.
         11    1    3    3    0    0 -0.25155637824E+02 -0.17872643870E+02  0.12660713422E+02  0.33354627533E+02  0.51100000000E-03 0. -1.
        -11    1    3    3    0    0  0.15313037686E+02 -0.14394559175E+02  0.61619116131E+00  0.21025511857E+02  0.51100000000E-03 0.  1.
        -12    1    3    3    0    0  0.91488614449E+01  0.31516903042E+02 -0.13867518001E+02  0.35627586203E+02  0.00000000000E+00 0.  1.
</event>
<event>
 7    1  0.2429906E-015  0.9000766E+02  0.7816164E-02  0.1186339E+00
        -11   -1    0    0    0    0  0.00000000000E+00  0.00000000000E+00  0.45593999997E+02  0.45594000000E+02  0.51100000000E-03 0.  1.
         11   -1    0    0    0    0 -0.00000000000E+00 -0.00000000000E+00 -0.45593999997E+02  0.45594000000E+02  0.51100000000E-03 0. -1.
    9900012    2    1    2    0    0 -0.85432766726E+00  0.61212601543E+00  0.53725107404E+00  0.90007655670E+02  0.89999915924E+02 0.  0.
        -12    1    1    2    0    0  0.85432766726E+00 -0.61212601543E+00 -0.53725107404E+00  0.11803443304E+01  0.00000000000E+00 0.  1.
         11    1    3    3    0    0 -0.22208485980E+01  0.10339037337E+02 -0.34794038171E+02  0.36365546250E+02  0.51100000000E-03 0. -1.
        -11    1    3    3    0    0  0.83479415983E+01  0.90722428097E+01 -0.76188299229E+00  0.12352092312E+02  0.51100000000E-03 0.  1.
        -12    1    3    3    0    0 -0.69814206676E+01 -0.18799154131E+02  0.36093172237E+02  0.41290017108E+02  0.00000000000E+00 0.  1.
</event>
<event>
 7    1  0.2429906E-015  0.9000777E+02  0.7816164E-02  0.1186339E+00
        -11   -1    0    0    0    0  0.00000000000E+00  0.00000000000E+00  0.45593999997E+02  0.45594000000E+02  0.51100000000E-03 0. -1.
         11   -1    0    0    0    0 -0.00000000000E+00 -0.00000000000E+00 -0.45593999997E+02  0.45594000000E+02  0.51100000000E-03 0.  1.
    9900012    2    1    2    0    0  0.21990618311E+00 -0.10630840538E+01 -0.46306829695E+00  0.90007771767E+02  0.90000033554E+02 0.  0.
        -12    1    1    2    0    0 -0.21990618311E+00  0.10630840538E+01  0.46306829695E+00  0.11802282332E+01  0.00000000000E+00 0.  1.
         11    1    3    3    0    0  0.10709342212E+01 -0.50403963876E+01  0.91243207914E+01  0.10478822740E+02  0.51100000000E-03 0. -1.
        -11    1    3    3    0    0  0.25473272485E+02  0.12537791646E+02 -0.32815704856E+02  0.43393021511E+02  0.51100000000E-03 0.  1.
         12    1    3    3    0    0 -0.26324300523E+02 -0.85604793117E+01  0.23228315767E+02  0.36135927516E+02  0.00000000000E+00 0. -1.
</event>
<event>
 8    1  0.2429906E-015  0.9000771E+02  0.7816164E-02  0.1186339E+00
        -11   -1    0    0    0    0  0.00000000000E+00  0.00000000000E+00  0.45593999997E+02  0.45594000000E+02  0.51100000000E-03 0. -1.
         11   -1    0    0    0    0 -0.00000000000E+00 -0.00000000000E+00 -0.45593999997E+02  0.45594000000E+02  0.51100000000E-03 0.  1.
    9900012    2    1    2    0    0 -0.11668433125E+01  0.13365291685E+00 -0.11699047428E+00  0.90007714785E+02  0.89999975820E+02 0.  0.
         23    2    3    3    0    0 -0.99597109468E+01  0.24254157984E+02  0.25582548256E+01  0.64195504044E+02  0.58541080021E+02 0.  0.
        -12    1    1    2    0    0  0.11668433125E+01 -0.13365291685E+00  0.11699047428E+00  0.11802852152E+01  0.00000000000E+00 0.  1.
         11    1    4    4    0    0 -0.27220544937E+02  0.34577416685E+02  0.90969949307E+00  0.44015717246E+02  0.51100000000E-03 0. -1.
        -11    1    4    4    0    0  0.17260833990E+02 -0.10323258702E+02  0.16485553325E+01  0.20179786798E+02  0.51100000000E-03 0.  1.
        -12    1    3    3    0    0  0.87928676343E+01 -0.24120505067E+02 -0.26752452999E+01  0.25812210741E+02  0.00000000000E+00 0.  1.
</event>
<event>
 7    1  0.2429906E-015  0.9000776E+02  0.7816164E-02  0.1186339E+00
        -11   -1    0    0    0    0  0.00000000000E+00  0.00000000000E+00  0.45593999997E+02  0.45594000000E+02  0.51100000000E-03 0.  1.
         11   -1    0    0    0    0 -0.00000000000E+00 -0.00000000000E+00 -0.45593999997E+02  0.45594000000E+02  0.51100000000E-03 0. -1.
    9900012    2    1    2    0    0  0.60837350582E+00 -0.99022062293E+00  0.20570343212E+00  0.90007758878E+02  0.90000020495E+02 0.  0.
        -12    1    1    2    0    0 -0.60837350582E+00  0.99022062293E+00 -0.20570343212E+00  0.11802411223E+01  0.00000000000E+00 0.  1.
         11    1    3    3    0    0 -0.10926451323E+02  0.10728376928E+00  0.22319915720E+01  0.11152606645E+02  0.51100000000E-03 0. -1.
        -11    1    3    3    0    0  0.96676477990E+00  0.30766332641E+02 -0.23741305715E+02  0.38873531556E+02  0.51100000000E-03 0.  1.
         12    1    3    3    0    0  0.10568060049E+02 -0.31863837034E+02  0.21715017575E+02  0.39981620677E+02  0.00000000000E+00 0. -1.
</event>
<event>
 7    1  0.2429906E-015  0.9000771E+02  0.7816164E-02  0.1186339E+00
        -11   -1    0    0    0    0  0.00000000000E+00  0.00000000000E+00  0.45593999997E+02  0.45594000000E+02  0.51100000000E-03 0. -1.
         11   -1    0    0    0    0 -0.00000000000E+00 -0.00000000000E+00 -0.45593999997E+02  0.45594000000E+02  0.51100000000E-03 0.  1.
    9900012    2    1    2    0    0 -0.11762860593E+00 -0.11576373590E+01 -0.19780760548E+00  0.90007708260E+02  0.89999969209E+02 0.  0.
        -12    1    1    2    0    0  0.11762860593E+00  0.11576373590E+01  0.19780760548E+00  0.11802917405E+01  0.00000000000E+00 0.  1.
         11    1    3    3    0    0  0.20688713035E+01 -0.43726757188E+01 -0.11345274516E+02  0.12333522430E+02  0.51100000000E-03 0. -1.
        -11    1    3    3    0    0 -0.18499417433E+02 -0.21628408155E+02  0.30883416384E+02  0.41997641511E+02  0.51100000000E-03 0.  1.
         12    1    3    3    0    0  0.16312917524E+02  0.24843446515E+02 -0.19735949474E+02  0.35676544319E+02  0.00000000000E+00 0. -1.
</event>
<event>
 7    1  0.2429906E-015  0.9000756E+02  0.7816164E-02  0.1186339E+00
        -11   -1    0    0    0    0  0.00000000000E+00  0.00000000000E+00  0.45593999997E+02  0.45594000000E+02  0.51100000000E-03 0. -1.
         11   -1    0    0    0    0 -0.00000000000E+00 -0.00000000000E+00 -0.45593999997E+02  0.45594000000E+02  0.51100000000E-03 0.  1.
    9900012    2    1    2    0    0  0.58235016568E+00 -0.77662063468E+00  0.67169296594E+00  0.90007558233E+02  0.89999817201E+02 0.  0.
        -12    1    1    2    0    0 -0.58235016568E+00  0.77662063468E+00 -0.67169296594E+00  0.11804417674E+01  0.00000000000E+00 0.  1.
         11    1    3    3    0    0  0.40122334829E+00  0.81202293698E+01 -0.30140594791E+02  0.31217856426E+02  0.51100000000E-03 0. -1.
        -11    1    3    3    0    0  0.12824716046E+02  0.80544697948E+01 -0.60372681086E+01  0.16303264453E+02  0.51100000000E-03 0.  1.
         12    1    3    3    0    0 -0.12643589229E+02 -0.16951319799E+02  0.36849555866E+02  0.42486437354E+02  0.00000000000E+00 0. -1.
</event>
<event>
 7    1  0.2429906E-015  0.9000764E+02  0.7816164E-02  0.1186339E+00
        -11   -1    0    0    0    0  0.00000000000E+00  0.00000000000E+00  0.45593999997E+02  0.45594000000E+02  0.51100000000E-03 0.  1.
         11   -1    0    0    0    0 -0.00000000000E+00 -0.00000000000E+00 -0.45593999997E+02  0.45594000000E+02  0.51100000000E-03 0. -1.
    9900012    2    1    2    0    0  0.35508358362E+00 -0.99914864823E+00 -0.51852922128E+00  0.90007637799E+02  0.89999897818E+02 0.  0.
        -12    1    1    2    0    0 -0.35508358362E+00  0.99914864823E+00  0.51852922128E+00  0.11803622012E+01  0.00000000000E+00 0.  1.
         11    1    3    3    0    0 -0.50372265978E+01  0.68944825442E+01  0.49079443549E+01  0.98486272851E+01  0.51100000000E-03 0. -1.
        -11    1    3    3    0    0  0.13958503534E+02  0.33226661992E+02  0.62172572063E+01  0.36571917853E+02  0.51100000000E-03 0.  1.
         12    1    3    3    0    0 -0.85661933522E+01 -0.41120293184E+02 -0.11643730782E+02  0.43587092661E+02  0.00000000000E+00 0. -1.
</event>
<event>
 7    1  0.2429906E-015  0.9000773E+02  0.7816164E-02  0.1186339E+00
        -11   -1    0    0    0    0  0.00000000000E+00  0.00000000000E+00  0.45593999997E+02  0.45594000000E+02  0.51100000000E-03 0. -1.
         11   -1    0    0    0    0 -0.00000000000E+00 -0.00000000000E+00 -0.45593999997E+02  0.45594000000E+02  0.51100000000E-03 0.  1.
    9900012    2    1    2    0    0 -0.34252147648E+00  0.10705182991E+01  0.36014238344E+00  0.90007731841E+02  0.89999993101E+02 0.  0.
        -12    1    1    2    0    0  0.34252147648E+00 -0.10705182991E+01 -0.36014238344E+00  0.11802681589E+01  0.00000000000E+00 0.  1.
         11    1    3    3    0    0 -0.30819127860E+02  0.16426399301E+02 -0.81878063550E+01  0.35870397394E+02  0.51100000000E-03 0. -1.
        -11    1    3    3    0    0 -0.68546666064E+01  0.60022022776E-01 -0.79600828810E+01  0.10504902506E+02  0.51100000000E-03 0.  1.
        -12    1    3    3    0    0  0.37331272990E+02 -0.15415903025E+02  0.16508031619E+02  0.43632431941E+02  0.00000000000E+00 0.  1.
</event>
<event>
 7    1  0.2429906E-015  0.9000773E+02  0.7816164E-02  0.1186339E+00
        -11   -1    0    0    0    0  0.00000000000E+00  0.00000000000E+00  0.45593999997E+02  0.45594000000E+02  0.51100000000E-03 0. -1.
         11   -1    0    0    0    0 -0.00000000000E+00 -0.00000000000E+00 -0.45593999997E+02  0.45594000000E+02  0.51100000000E-03 0.  1.
    9900012    2    1    2    0    0 -0.94401562736E+00 -0.70842955322E+00  0.17361214909E-02  0.90007728442E+02  0.89999989657E+02 0.  0.
        -12    1    1    2    0    0  0.94401562736E+00  0.70842955322E+00 -0.17361214909E-02  0.11802715580E+01  0.00000000000E+00 0.  1.
         11    1    3    3    0    0 -0.61913334432E+01 -0.83828475308E+00  0.37470055406E+02  0.37987371369E+02  0.51100000000E-03 0. -1.
        -11    1    3    3    0    0  0.18938473489E+02  0.30834173655E+01 -0.11110802151E+02  0.22172576879E+02  0.51100000000E-03 0.  1.
        -12    1    3    3    0    0 -0.13691155673E+02 -0.29535621657E+01 -0.26357517133E+02  0.29847780194E+02  0.00000000000E+00 0.  1.
</event>
<event>
 7    1  0.2429906E-015  0.9000775E+02  0.7816164E-02  0.1186339E+00
        -11   -1    0    0    0    0  0.00000000000E+00  0.00000000000E+00  0.45593999997E+02  0.45594000000E+02  0.51100000000E-03 0.  1.
         11   -1    0    0    0    0 -0.00000000000E+00 -0.00000000000E+00 -0.45593999997E+02  0.45594000000E+02  0.51100000000E-03 0. -1.
    9900012    2    1    2    0    0 -0.88905368920E+00  0.76866521928E+00 -0.10825089937E+00  0.90007753865E+02  0.90000015416E+02 0.  0.
        -12    1    1    2    0    0  0.88905368920E+00 -0.76866521928E+00  0.10825089937E+00  0.11802461349E+01  0.00000000000E+00 0.  1.
         11    1    3    3    0    0 -0.35075231379E+02 -0.99886762535E+01  0.81563154586E+01  0.37370723725E+02  0.51100000000E-03 0. -1.
        -11    1    3    3    0    0 -0.35021193880E+01 -0.83180727910E+01  0.18252419161E+01  0.92079684772E+01  0.51100000000E-03 0.  1.
        -12    1    3    3    0    0  0.37688297078E+02  0.19075414264E+02 -0.10089808274E+02  0.43429061663E+02  0.00000000000E+00 0.  1.
</event>
<event>
 7    1  0.2429906E-015  0.9000778E+02  0.7816164E-02  0.1186339E+00
        -11   -1    0    0    0    0  0.00000000000E+00  0.00000000000E+00  0.45593999997E+02  0.45594000000E+02  0.51100000000E-03 0. -1.
         11   -1    0    0    0    0 -0.00000000000E+00 -0.00000000000E+00 -0.45593999997E+02  0.45594000000E+02  0.51100000000E-03 0.  1.
    9900012    2    1    2    0    0  0.64293745188E+00  0.77933630837E+00  0.61006496581E+00  0.90007782685E+02  0.90000044616E+02 0.  0.
        -12    1    1    2    0    0 -0.64293745188E+00 -0.77933630837E+00 -0.61006496581E+00  0.11802173152E+01  0.00000000000E+00 0.  1.
         11    1    3    3    0    0 -0.50980744597E+00  0.86657538264E+01 -0.53027684198E+01  0.10172243911E+02  0.51100000000E-03 0. -1.
        -11    1    3    3    0    0 -0.31665079949E+01  0.29106296397E+02 -0.19113090289E+02  0.34964460292E+02  0.51100000000E-03 0.  1.
         12    1    3    3    0    0  0.43192528928E+01 -0.36992713915E+02  0.25025923675E+02  0.44871078482E+02  0.00000000000E+00 0. -1.
</event>
<event>
 7    1  0.2429906E-015  0.9000777E+02  0.7816164E-02  0.1186339E+00
        -11   -1    0    0    0    0  0.00000000000E+00  0.00000000000E+00  0.45593999997E+02  0.45594000000E+02  0.51100000000E-03 0. -1.
         11   -1    0    0    0    0 -0.00000000000E+00 -0.00000000000E+00 -0.45593999997E+02  0.45594000000E+02  0.51100000000E-03 0.  1.
    9900012    2    1    2    0    0  0.96629991156E+00 -0.53460463244E+00 -0.41642019456E+00  0.90007769764E+02  0.90000031525E+02 0.  0.
        -12    1    1    2    0    0 -0.96629991156E+00  0.53460463244E+00  0.41642019456E+00  0.11802302362E+01  0.00000000000E+00 0.  1.
         11    1    3    3    0    0  0.61629993560E+01 -0.13664635839E+02  0.36398562165E+02  0.39364453021E+02  0.51100000000E-03 0. -1.
        -11    1    3    3    0    0  0.67979591602E+01 -0.46411766907E+01 -0.22483377578E+00  0.82342771575E+01  0.51100000000E-03 0.  1.
        -12    1    3    3    0    0 -0.11994658605E+02  0.17771207897E+02 -0.36590148584E+02  0.42409039585E+02  0.00000000000E+00 0.  1.
</event>
<event>
 7    1  0.2429906E-015  0.9000770E+02  0.7816164E-02  0.1186339E+00
        -11   -1    0    0    0    0  0.00000000000E+00  0.00000000000E+00  0.45593999997E+02  0.45594000000E+02  0.51100000000E-03 0. -1.
         11   -1    0    0    0    0 -0.00000000000E+00 -0.00000000000E+00 -0.45593999997E+02  0.45594000000E+02  0.51100000000E-03 0.  1.
    9900012    2    1    2    0    0 -0.11560897825E+01 -0.23591476043E+00 -0.30089985374E-01  0.90007701408E+02  0.89999962266E+02 0.  0.
        -12    1    1    2    0    0  0.11560897825E+01  0.23591476043E+00  0.30089985374E-01  0.11802985922E+01  0.00000000000E+00 0.  1.
         11    1    3    3    0    0 -0.24390469979E+01 -0.46622515516E+00 -0.24404503661E+01  0.34816826972E+01  0.51100000000E-03 0. -1.
        -11    1    3    3    0    0 -0.68834468041E+00  0.11628444575E+02 -0.40469860770E+02  0.42112992920E+02  0.51100000000E-03 0.  1.
         12    1    3    3    0    0  0.19713018957E+01 -0.11398134180E+02  0.42880221151E+02  0.44413025791E+02  0.00000000000E+00 0. -1.
</event>
<event>
 7    1  0.2429906E-015  0.9000777E+02  0.7816164E-02  0.1186339E+00
        -11   -1    0    0    0    0  0.00000000000E+00  0.00000000000E+00  0.45593999997E+02  0.45594000000E+02  0.51100000000E-03 0.  1.
         11   -1    0    0    0    0 -0.00000000000E+00 -0.00000000000E+00 -0.45593999997E+02  0.45594000000E+02  0.51100000000E-03 0. -1.
    9900012    2    1    2    0    0 -0.12372656363E+00  0.66675089951E+00 -0.96595833811E+00  0.90007770982E+02  0.90000032759E+02 0.  0.
        -12    1    1    2    0    0  0.12372656363E+00 -0.66675089951E+00  0.96595833811E+00  0.11802290182E+01  0.00000000000E+00 0.  1.
         11    1    3    3    0    0 -0.69082789607E+01 -0.17645341148E+01  0.62997457985E+01  0.95144467117E+01  0.51100000000E-03 0. -1.
        -11    1    3    3    0    0 -0.28856961285E+02  0.24662729712E+02 -0.62684685426E+00  0.37965344575E+02  0.51100000000E-03 0.  1.
         12    1    3    3    0    0  0.35641513682E+02 -0.22231444698E+02 -0.66388572824E+01  0.42527979695E+02  0.00000000000E+00 0. -1.
</event>
<event>
 7    1  0.2429906E-015  0.9000769E+02  0.7816164E-02  0.1186339E+00
        -11   -1    0    0    0    0  0.00000000000E+00  0.00000000000E+00  0.45593999997E+02  0.45594000000E+02  0.51100000000E-03 0.  1.
         11   -1    0    0    0    0 -0.00000000000E+00 -0.00000000000E+00 -0.45593999997E+02  0.45594000000E+02  0.51100000000E-03 0. -1.
    9900012    2    1    2    0    0  0.11157635564E+01  0.38414589083E+00 -0.25431526210E-01  0.90007685151E+02  0.89999945795E+02 0.  0.
        -12    1    1    2    0    0 -0.11157635564E+01 -0.38414589083E+00  0.25431526210E-01  0.11803148486E+01  0.00000000000E+00 0.  1.
         11    1    3    3    0    0  0.31517442177E+01 -0.27380294641E+02 -0.26886658163E+02  0.38503329903E+02  0.51100000000E-03 0. -1.
        -11    1    3    3    0    0  0.26326277512E+01 -0.53475911767E+01 -0.29996488539E+01  0.66727321075E+01  0.51100000000E-03 0.  1.
        -12    1    3    3    0    0 -0.46686084124E+01  0.33112031708E+02  0.29860875491E+02  0.44831623141E+02  0.00000000000E+00 0.  1.
</event>
<event>
 7    1  0.2429906E-015  0.9000775E+02  0.7816164E-02  0.1186339E+00
        -11   -1    0    0    0    0  0.00000000000E+00  0.00000000000E+00  0.45593999997E+02  0.45594000000E+02  0.51100000000E-03 0.  1.
         11   -1    0    0    0    0 -0.00000000000E+00 -0.00000000000E+00 -0.45593999997E+02  0.45594000000E+02  0.51100000000E-03 0. -1.
    9900012    2    1    2    0    0 -0.40484246396E+00 -0.10178721324E+01 -0.43935208959E+00  0.90007749452E+02  0.90000010944E+02 0.  0.
        -12    1    1    2    0    0  0.40484246396E+00  0.10178721324E+01  0.43935208959E+00  0.11802505485E+01  0.00000000000E+00 0.  1.
         11    1    3    3    0    0 -0.26422463204E+01  0.52892676345E+01 -0.82469203718E+01  0.10147389497E+02  0.51100000000E-03 0. -1.
        -11    1    3    3    0    0  0.30438530050E+01  0.12652015612E+02  0.40235851451E+02  0.42287850294E+02  0.51100000000E-03 0.  1.
         12    1    3    3    0    0 -0.80644914851E+00 -0.18959155379E+02 -0.32428283169E+02  0.37572509661E+02  0.00000000000E+00 0. -1.
</event>
<event>
 7    1  0.2429906E-015  0.9000757E+02  0.7816164E-02  0.1186339E+00
        -11   -1    0    0    0    0  0.00000000000E+00  0.00000000000E+00  0.45593999997E+02  0.45594000000E+02  0.51100000000E-03 0.  1.
         11   -1    0    0    0    0 -0.00000000000E+00 -0.00000000000E+00 -0.45593999997E+02  0.45594000000E+02  0.51100000000E-03 0. -1.
    9900012    2    1    2    0    0 -0.51230687571E+00  0.32619743829E+00 -0.10122070132E+01  0.90007565274E+02  0.89999824336E+02 0.  0.
        -12    1    1    2    0    0  0.51230687571E+00 -0.32619743829E+00  0.10122070132E+01  0.11804347255E+01  0.00000000000E+00 0.  1.
         11    1    3    3    0    0  0.27203346345E+02 -0.21792697836E+02 -0.12438242564E+02  0.37008831509E+02  0.51100000000E-03 0. -1.
        -11    1    3    3    0    0  0.23459586463E+01 -0.82732152528E+01  0.44594310185E+01  0.96869054841E+01  0.51100000000E-03 0.  1.
        -12    1    3    3    0    0 -0.30061611867E+02  0.30392110527E+02  0.69666045320E+01  0.43311828281E+02  0.00000000000E+00 0.  1.
</event>
<event>
 7    1  0.2429906E-015  0.9000777E+02  0.7816164E-02  0.1186339E+00
        -11   -1    0    0    0    0  0.00000000000E+00  0.00000000000E+00  0.45593999997E+02  0.45594000000E+02  0.51100000000E-03 0. -1.
         11   -1    0    0    0    0 -0.00000000000E+00 -0.00000000000E+00 -0.45593999997E+02  0.45594000000E+02  0.51100000000E-03 0.  1.
    9900012    2    1    2    0    0 -0.38852358867E+00  0.11117778306E+01  0.77142670949E-01  0.90007766330E+02  0.90000028046E+02 0.  0.
        -12    1    1    2    0    0  0.38852358867E+00 -0.11117778306E+01 -0.77142670949E-01  0.11802336698E+01  0.00000000000E+00 0.  1.
         11    1    3    3    0    0  0.95510673852E+01 -0.27310899852E+02 -0.19755592095E+02  0.35034148458E+02  0.51100000000E-03 0. -1.
        -11    1    3    3    0    0 -0.16362807157E+01 -0.96683931984E+00 -0.11243347455E+02  0.11402852937E+02  0.51100000000E-03 0.  1.
        -12    1    3    3    0    0 -0.83033102581E+01  0.29389517002E+02  0.31076082220E+02  0.43570764935E+02  0.00000000000E+00 0.  1.
</event>
<event>
 7    1  0.2429906E-015  0.9000782E+02  0.7816164E-02  0.1186339E+00
        -11   -1    0    0    0    0  0.00000000000E+00  0.00000000000E+00  0.45593999997E+02  0.45594000000E+02  0.51100000000E-03 0. -1.
         11   -1    0    0    0    0 -0.00000000000E+00 -0.00000000000E+00 -0.45593999997E+02  0.45594000000E+02  0.51100000000E-03 0.  1.
    9900012    2    1    2    0    0  0.25918805613E+00  0.67242514840E+00  0.93461253924E+00  0.90007815850E+02  0.90000078220E+02 0.  0.
        -12    1    1    2    0    0 -0.25918805613E+00 -0.67242514840E+00 -0.93461253924E+00  0.11801841497E+01  0.00000000000E+00 0.  1.
         11    1    3    3    0    0  0.17975258120E+01 -0.23156924831E+01 -0.10793134423E+02  0.11184153149E+02  0.51100000000E-03 0. -1.
        -11    1    3    3    0    0 -0.13738665313E+02 -0.20065024854E+02 -0.24278674487E+02  0.34362918707E+02  0.51100000000E-03 0.  1.
         12    1    3    3    0    0  0.12200327557E+02  0.23053142486E+02  0.36006421449E+02  0.44460743994E+02  0.00000000000E+00 0. -1.
</event>
<event>
 7    1  0.2429906E-015  0.9000767E+02  0.7816164E-02  0.1186339E+00
        -11   -1    0    0    0    0  0.00000000000E+00  0.00000000000E+00  0.45593999997E+02  0.45594000000E+02  0.51100000000E-03 0. -1.
         11   -1    0    0    0    0 -0.00000000000E+00 -0.00000000000E+00 -0.45593999997E+02  0.45594000000E+02  0.51100000000E-03 0.  1.
    9900012    2    1    2    0    0 -0.15845291266E-01  0.59164950791E+00  0.10212160843E+01  0.90007668477E+02  0.89999928901E+02 0.  0.
        -12    1    1    2    0    0  0.15845291266E-01 -0.59164950791E+00 -0.10212160843E+01  0.11803315230E+01  0.00000000000E+00 0.  1.
         11    1    3    3    0    0 -0.32109851942E+01 -0.34282723100E+01  0.78839304165E+01  0.91771365917E+01  0.51100000000E-03 0. -1.
        -11    1    3    3    0    0 -0.38575016285E+02  0.38542023237E+01 -0.35150382425E+01  0.38926112714E+02  0.51100000000E-03 0.  1.
         12    1    3    3    0    0  0.41770156188E+02  0.16571949428E+00 -0.33476760897E+01  0.41904419171E+02  0.00000000000E+00 0. -1.
</event>
<event>
 7    1  0.2429906E-015  0.9000787E+02  0.7816164E-02  0.1186339E+00
        -11   -1    0    0    0    0  0.00000000000E+00  0.00000000000E+00  0.45593999997E+02  0.45594000000E+02  0.51100000000E-03 0. -1.
         11   -1    0    0    0    0 -0.00000000000E+00 -0.00000000000E+00 -0.45593999997E+02  0.45594000000E+02  0.51100000000E-03 0.  1.
    9900012    2    1    2    0    0 -0.41647760873E+00  0.87732719748E+00  0.67047728128E+00  0.90007874416E+02  0.90000137558E+02 0.  0.
        -12    1    1    2    0    0  0.41647760873E+00 -0.87732719748E+00 -0.67047728128E+00  0.11801255843E+01  0.00000000000E+00 0.  1.
         11    1    3    3    0    0  0.23259995524E+02 -0.24571168658E+02  0.15517668144E+02  0.37223215147E+02  0.51100000000E-03 0. -1.
        -11    1    3    3    0    0  0.60255341032E+01  0.11119196093E+01  0.64323967231E+01  0.88836453278E+01  0.51100000000E-03 0.  1.
        -12    1    3    3    0    0 -0.29702007236E+02  0.24336576246E+02 -0.21279587586E+02  0.43901013941E+02  0.00000000000E+00 0.  1.
</event>
<event>
 7    1  0.4135806E-015  0.9000774E+02  0.7816164E-02  0.1186339E+00
        -11   -1    0    0    0    0  0.00000000000E+00  0.00000000000E+00  0.45593999997E+02  0.45594000000E+02  0.51100000000E-03 0. -1.
         11   -1    0    0    0    0 -0.00000000000E+00 -0.00000000000E+00 -0.45593999997E+02  0.45594000000E+02  0.51100000000E-03 0.  1.
    9900012    2    1    2    0    0 -0.68751914306E+00  0.81189717584E+00  0.51102523796E+00  0.90007743083E+02  0.90000004492E+02 0.  0.
        -12    1    1    2    0    0  0.68751914306E+00 -0.81189717584E+00 -0.51102523796E+00  0.11802569170E+01  0.00000000000E+00 0.  1.
         11    1    3    3    0    0  0.27035506147E+02  0.10023509058E+02  0.29438006520E+02  0.41206620277E+02  0.51100000000E-03 0. -1.
        -11    1    3    3    0    0 -0.94957556142E+00 -0.94937345072E+01 -0.21708951887E+00  0.95435746322E+01  0.51100000000E-03 0.  1.
        -12    1    3    3    0    0 -0.26773449729E+02  0.28212262488E+00 -0.28709891764E+02  0.39257548174E+02  0.00000000000E+00 0.  1.
</event>
<event>
 7    1  0.4324815E-015  0.9000792E+02  0.7816164E-02  0.1186339E+00
        -11   -1    0    0    0    0  0.00000000000E+00  0.00000000000E+00  0.45593999997E+02  0.45594000000E+02  0.51100000000E-03 0. -1.
         11   -1    0    0    0    0 -0.00000000000E+00 -0.00000000000E+00 -0.45593999997E+02  0.45594000000E+02  0.51100000000E-03 0.  1.
    9900012    2    1    2    0    0  0.22301456053E+00  0.51637763224E-01  0.11576597041E+01  0.90007924603E+02  0.90000188407E+02 0.  0.
        -12    1    1    2    0    0 -0.22301456053E+00 -0.51637763224E-01 -0.11576597041E+01  0.11800753973E+01  0.00000000000E+00 0.  1.
         11    1    3    3    0    0  0.13174553395E+02  0.25644092682E+02  0.22310491464E+02  0.36454716791E+02  0.51100000000E-03 0. -1.
        -11    1    3    3    0    0  0.13904090192E+01  0.91397707276E+01  0.19419132472E+01  0.94466752625E+01  0.51100000000E-03 0.  1.
        -12    1    3    3    0    0 -0.14341947853E+02 -0.34732225647E+02 -0.23094745007E+02  0.44106532550E+02  0.00000000000E+00 0.  1.
</event>
<event>
 7    1  0.2429906E-015  0.9000771E+02  0.7816164E-02  0.1186339E+00
        -11   -1    0    0    0    0  0.00000000000E+00  0.00000000000E+00  0.45593999997E+02  0.45594000000E+02  0.51100000000E-03 0.  1.
         11   -1    0    0    0    0 -0.00000000000E+00 -0.00000000000E+00 -0.45593999997E+02  0.45594000000E+02  0.51100000000E-03 0. -1.
    9900012    2    1    2    0    0  0.63617036885E+00 -0.98897064674E+00  0.10151629680E+00  0.90007711376E+02  0.89999972366E+02 0.  0.
        -12    1    1    2    0    0 -0.63617036885E+00  0.98897064674E+00 -0.10151629680E+00  0.11802886244E+01  0.00000000000E+00 0.  1.
         11    1    3    3    0    0 -0.84244973371E+01  0.36681821959E+01 -0.31667722874E+00  0.91939110684E+01  0.51100000000E-03 0. -1.
        -11    1    3    3    0    0  0.13763097715E+02 -0.31028918704E+02  0.26775309263E+02  0.43233480556E+02  0.51100000000E-03 0.  1.
         12    1    3    3    0    0 -0.47024300090E+01  0.26371765861E+02 -0.26357115737E+02  0.37580319751E+02  0.00000000000E+00 0. -1.
</event>
<event>
 7    1  0.2429906E-015  0.9000776E+02  0.7816164E-02  0.1186339E+00
        -11   -1    0    0    0    0  0.00000000000E+00  0.00000000000E+00  0.45593999997E+02  0.45594000000E+02  0.51100000000E-03 0. -1.
         11   -1    0    0    0    0 -0.00000000000E+00 -0.00000000000E+00 -0.45593999997E+02  0.45594000000E+02  0.51100000000E-03 0.  1.
    9900012    2    1    2    0    0 -0.25929719968E+00  0.10534564464E+01  0.46472081125E+00  0.90007758095E+02  0.90000019702E+02 0.  0.
        -12    1    1    2    0    0  0.25929719968E+00 -0.10534564464E+01 -0.46472081125E+00  0.11802419052E+01  0.00000000000E+00 0.  1.
         11    1    3    3    0    0 -0.29612328093E+02 -0.18005377615E+02 -0.46517921117E+01  0.34967452985E+02  0.51100000000E-03 0. -1.
        -11    1    3    3    0    0 -0.86337910336E+01 -0.45385822621E+01 -0.13806583652E+01  0.98512585158E+01  0.51100000000E-03 0.  1.
        -12    1    3    3    0    0  0.37986821927E+02  0.23597416324E+02  0.64971712881E+01  0.45189046594E+02  0.00000000000E+00 0.  1.
</event>
<event>
 7    1  0.2429906E-015  0.9000771E+02  0.7816164E-02  0.1186339E+00
        -11   -1    0    0    0    0  0.00000000000E+00  0.00000000000E+00  0.45593999997E+02  0.45594000000E+02  0.51100000000E-03 0.  1.
         11   -1    0    0    0    0 -0.00000000000E+00 -0.00000000000E+00 -0.45593999997E+02  0.45594000000E+02  0.51100000000E-03 0. -1.
    9900012    2    1    2    0    0  0.43190677845E+00  0.67175374333E+00 -0.86906871117E+00  0.90007713178E+02  0.89999974192E+02 0.  0.
        -12    1    1    2    0    0 -0.43190677845E+00 -0.67175374333E+00  0.86906871117E+00  0.11802868218E+01  0.00000000000E+00 0.  1.
         11    1    3    3    0    0 -0.20214120901E+02 -0.27737375304E+02  0.88875236547E+01  0.35453642260E+02  0.51100000000E-03 0. -1.
        -11    1    3    3    0    0 -0.21281698091E+01 -0.43008151790E+01  0.92320309219E+01  0.10404639020E+02  0.51100000000E-03 0.  1.
        -12    1    3    3    0    0  0.22774197489E+02  0.32709944226E+02 -0.18988623288E+02  0.44149431898E+02  0.00000000000E+00 0.  1.
</event>
<event>
 7    1  0.2429906E-015  0.9000764E+02  0.7816164E-02  0.1186339E+00
        -11   -1    0    0    0    0  0.00000000000E+00  0.00000000000E+00  0.45593999997E+02  0.45594000000E+02  0.51100000000E-03 0.  1.
         11   -1    0    0    0    0 -0.00000000000E+00 -0.00000000000E+00 -0.45593999997E+02  0.45594000000E+02  0.51100000000E-03 0. -1.
    9900012    2    1    2    0    0 -0.64207343917E+00 -0.19268976770E+00 -0.97152686684E+00  0.90007638996E+02  0.89999899030E+02 0.  0.
        -12    1    1    2    0    0  0.64207343917E+00  0.19268976770E+00  0.97152686684E+00  0.11803610045E+01  0.00000000000E+00 0.  1.
         11    1    3    3    0    0  0.66930635915E+01 -0.46417643105E+01 -0.62530705875E+01  0.10268591344E+02  0.51100000000E-03 0. -1.
        -11    1    3    3    0    0 -0.36896937828E+02 -0.29928633620E+01 -0.18208943510E+02  0.41254174046E+02  0.51100000000E-03 0.  1.
         12    1    3    3    0    0  0.29561800797E+02  0.74419379049E+01  0.23490487231E+02  0.38484873606E+02  0.00000000000E+00 0. -1.
</event>
<event>
 7    1  0.2429906E-015  0.9000785E+02  0.7816164E-02  0.1186339E+00
        -11   -1    0    0    0    0  0.00000000000E+00  0.00000000000E+00  0.45593999997E+02  0.45594000000E+02  0.51100000000E-03 0. -1.
         11   -1    0    0    0    0 -0.00000000000E+00 -0.00000000000E+00 -0.45593999997E+02  0.45594000000E+02  0.51100000000E-03 0.  1.
    9900012    2    1    2    0    0 -0.12619250996E+00  0.11716286959E+01  0.64208463246E-01  0.90007847011E+02  0.90000109792E+02 0.  0.
        -12    1    1    2    0    0  0.12619250996E+00 -0.11716286959E+01 -0.64208463246E-01  0.11801529889E+01  0.00000000000E+00 0.  1.
         11    1    3    3    0    0 -0.15670422475E+02 -0.10920928136E+02  0.13253281918E+02  0.23248189042E+02  0.51100000000E-03 0. -1.
        -11    1    3    3    0    0 -0.80026183181E+01  0.17763484028E+02 -0.31056743312E+02  0.36662031725E+02  0.51100000000E-03 0.  1.
         12    1    3    3    0    0  0.23546848283E+02 -0.56709271969E+01  0.17867669858E+02  0.30097626244E+02  0.00000000000E+00 0. -1.
</event>
<event>
 7    1  0.2429906E-015  0.9000786E+02  0.7816164E-02  0.1186339E+00
        -11   -1    0    0    0    0  0.00000000000E+00  0.00000000000E+00  0.45593999997E+02  0.45594000000E+02  0.51100000000E-03 0.  1.
         11   -1    0    0    0    0 -0.00000000000E+00 -0.00000000000E+00 -0.45593999997E+02  0.45594000000E+02  0.51100000000E-03 0. -1.
    9900012    2    1    2    0    0  0.76149352613E+00  0.60663595499E+00 -0.66697281176E+00  0.90007859202E+02  0.90000122143E+02 0.  0.
        -12    1    1    2    0    0 -0.76149352613E+00 -0.60663595499E+00  0.66697281176E+00  0.11801407983E+01  0.00000000000E+00 0.  1.
         11    1    3    3    0    0  0.18496419759E+01  0.17064760342E+01  0.10513601852E+02  0.10810599431E+02  0.51100000000E-03 0. -1.
        -11    1    3    3    0    0  0.12737810867E+02 -0.36447544793E+02 -0.14162517010E+02  0.41124837209E+02  0.51100000000E-03 0.  1.
         12    1    3    3    0    0 -0.13825959317E+02  0.35347704714E+02  0.29819423464E+01  0.38072422562E+02  0.00000000000E+00 0. -1.
</event>
<event>
 7    1  0.2429906E-015  0.9000768E+02  0.7816164E-02  0.1186339E+00
        -11   -1    0    0    0    0  0.00000000000E+00  0.00000000000E+00  0.45593999997E+02  0.45594000000E+02  0.51100000000E-03 0. -1.
         11   -1    0    0    0    0 -0.00000000000E+00 -0.00000000000E+00 -0.45593999997E+02  0.45594000000E+02  0.51100000000E-03 0.  1.
    9900012    2    1    2    0    0  0.10343195142E+01 -0.49958778376E+00  0.27156508964E+00  0.90007681226E+02  0.89999941818E+02 0.  0.
        -12    1    1    2    0    0 -0.10343195142E+01  0.49958778376E+00 -0.27156508964E+00  0.11803187743E+01  0.00000000000E+00 0.  1.
         11    1    3    3    0    0  0.68887708356E+01  0.61089013359E+01  0.33315319152E+00  0.92132963953E+01  0.51100000000E-03 0. -1.
        -11    1    3    3    0    0  0.23222643000E+02 -0.33665570102E+02 -0.27082127023E+01  0.40987756397E+02  0.51100000000E-03 0.  1.
         12    1    3    3    0    0 -0.29077094321E+02  0.27057080982E+02  0.26466246004E+01  0.39806628433E+02  0.00000000000E+00 0. -1.
</event>
<event>
 7    1  0.2429906E-015  0.9000777E+02  0.7816164E-02  0.1186339E+00
        -11   -1    0    0    0    0  0.00000000000E+00  0.00000000000E+00  0.45593999997E+02  0.45594000000E+02  0.51100000000E-03 0.  1.
         11   -1    0    0    0    0 -0.00000000000E+00 -0.00000000000E+00 -0.45593999997E+02  0.45594000000E+02  0.51100000000E-03 0. -1.
    9900012    2    1    2    0    0 -0.52010566061E+00  0.90379524457E+00  0.55279906542E+00  0.90007770129E+02  0.90000031894E+02 0.  0.
        -12    1    1    2    0    0  0.52010566061E+00 -0.90379524457E+00 -0.55279906542E+00  0.11802298713E+01  0.00000000000E+00 0.  1.
         11    1    3    3    0    0 -0.86624959516E+01  0.19527217682E+01 -0.34579284969E+01  0.95293876071E+01  0.51100000000E-03 0. -1.
        -11    1    3    3    0    0 -0.19567075588E+02 -0.26275262500E+02  0.21438133295E+02  0.39151672071E+02  0.51100000000E-03 0.  1.
         12    1    3    3    0    0  0.27709465879E+02  0.25226335976E+02 -0.17427405733E+02  0.41326710451E+02  0.00000000000E+00 0. -1.
</event>
<event>
 7    1  0.2429906E-015  0.9000792E+02  0.7816164E-02  0.1186339E+00
        -11   -1    0    0    0    0  0.00000000000E+00  0.00000000000E+00  0.45593999997E+02  0.45594000000E+02  0.51100000000E-03 0. -1.
         11   -1    0    0    0    0 -0.00000000000E+00 -0.00000000000E+00 -0.45593999997E+02  0.45594000000E+02  0.51100000000E-03 0.  1.
    9900012    2    1    2    0    0  0.35499874421E+00 -0.11048042110E+01 -0.21440028089E+00  0.90007922065E+02  0.90000185836E+02 0.  0.
        -12    1    1    2    0    0 -0.35499874421E+00  0.11048042110E+01  0.21440028089E+00  0.11800779353E+01  0.00000000000E+00 0.  1.
         11    1    3    3    0    0  0.33278416859E+01  0.84020595237E+01  0.51642521407E+01  0.10408584676E+02  0.51100000000E-03 0. -1.
        -11    1    3    3    0    0 -0.39957890816E+02 -0.10856153626E+02 -0.91269504820E+01  0.42400357727E+02  0.51100000000E-03 0.  1.
         12    1    3    3    0    0  0.36985047875E+02  0.13492898915E+01  0.37482980605E+01  0.37198979661E+02  0.00000000000E+00 0. -1.
</event>
<event>
 7    1  0.2429906E-015  0.9000752E+02  0.7816164E-02  0.1186339E+00
        -11   -1    0    0    0    0  0.00000000000E+00  0.00000000000E+00  0.45593999997E+02  0.45594000000E+02  0.51100000000E-03 0.  1.
         11   -1    0    0    0    0 -0.00000000000E+00 -0.00000000000E+00 -0.45593999997E+02  0.45594000000E+02  0.51100000000E-03 0. -1.
    9900012    2    1    2    0    0 -0.56942083560E+00 -0.15114549659E+00 -0.10229642875E+01  0.90007516632E+02  0.89999775051E+02 0.  0.
        -12    1    1    2    0    0  0.56942083560E+00  0.15114549659E+00  0.10229642875E+01  0.11804833682E+01  0.00000000000E+00 0.  1.
         11    1    3    3    0    0 -0.34593679736E+02 -0.57629826365E+01 -0.58012622143E+01  0.35547001141E+02  0.51100000000E-03 0. -1.
        -11    1    3    3    0    0 -0.97026926100E+01 -0.74556249192E+00 -0.14441052299E+01  0.98378629534E+01  0.51100000000E-03 0.  1.
        -12    1    3    3    0    0  0.43726951510E+02  0.63573996318E+01  0.62224031567E+01  0.44622652538E+02  0.00000000000E+00 0.  1.
</event>
<event>
 7    1  0.2429906E-015  0.9000773E+02  0.7816164E-02  0.1186339E+00
        -11   -1    0    0    0    0  0.00000000000E+00  0.00000000000E+00  0.45593999997E+02  0.45594000000E+02  0.51100000000E-03 0. -1.
         11   -1    0    0    0    0 -0.00000000000E+00 -0.00000000000E+00 -0.45593999997E+02  0.45594000000E+02  0.51100000000E-03 0.  1.
    9900012    2    1    2    0    0  0.74223583086E-01  0.91647321068E+00  0.74000235789E+00  0.90007730634E+02  0.89999991879E+02 0.  0.
        -12    1    1    2    0    0 -0.74223583086E-01 -0.91647321068E+00 -0.74000235789E+00  0.11802693658E+01  0.00000000000E+00 0.  1.
         11    1    3    3    0    0 -0.39075904935E+01 -0.68204286611E+01 -0.55238575799E+01  0.96073156194E+01  0.51100000000E-03 0. -1.
        -11    1    3    3    0    0  0.10772489758E+02  0.19120086587E+02 -0.32622372766E+02  0.39317215719E+02  0.51100000000E-03 0.  1.
         12    1    3    3    0    0 -0.67906756814E+01 -0.11383184716E+02  0.38886232704E+02  0.41083199296E+02  0.00000000000E+00 0. -1.
</event>
<event>
 7    1  0.2429906E-015  0.9000776E+02  0.7816164E-02  0.1186339E+00
        -11   -1    0    0    0    0  0.00000000000E+00  0.00000000000E+00  0.45593999997E+02  0.45594000000E+02  0.51100000000E-03 0. -1.
         11   -1    0    0    0    0 -0.00000000000E+00 -0.00000000000E+00 -0.45593999997E+02  0.45594000000E+02  0.51100000000E-03 0.  1.
    9900012    2    1    2    0    0  0.81857126401E-01  0.88965635248E+00  0.77121549476E+00  0.90007761738E+02  0.90000023393E+02 0.  0.
        -12    1    1    2    0    0 -0.81857126401E-01 -0.88965635248E+00 -0.77121549476E+00  0.11802382615E+01  0.00000000000E+00 0.  1.
         11    1    3    3    0    0  0.73403827266E+01  0.43779670399E+01  0.41735520568E+01  0.95113800790E+01  0.51100000000E-03 0. -1.
        -11    1    3    3    0    0  0.29137223693E+02 -0.16005078872E+02  0.16559586291E+02  0.37139739534E+02  0.51100000000E-03 0.  1.
         12    1    3    3    0    0 -0.36395749293E+02  0.12516768185E+02 -0.19961922853E+02  0.43356642126E+02  0.00000000000E+00 0. -1.
</event>
<event>
 7    1  0.2429906E-015  0.9000780E+02  0.7816164E-02  0.1186339E+00
        -11   -1    0    0    0    0  0.00000000000E+00  0.00000000000E+00  0.45593999997E+02  0.45594000000E+02  0.51100000000E-03 0.  1.
         11   -1    0    0    0    0 -0.00000000000E+00 -0.00000000000E+00 -0.45593999997E+02  0.45594000000E+02  0.51100000000E-03 0. -1.
    9900012    2    1    2    0    0 -0.43116646987E+00  0.44653231582E+00 -0.10037852245E+01  0.90007796454E+02  0.90000058567E+02 0.  0.
        -12    1    1    2    0    0  0.43116646987E+00 -0.44653231582E+00  0.10037852245E+01  0.11802035463E+01  0.00000000000E+00 0.  1.
         11    1    3    3    0    0 -0.28377876270E+02 -0.10246770746E+02 -0.23317930687E+02  0.38131693696E+02  0.51100000000E-03 0. -1.
        -11    1    3    3    0    0 -0.81917989802E+01  0.47149810337E+01  0.10201501827E+01  0.95066988664E+01  0.51100000000E-03 0.  1.
        -12    1    3    3    0    0  0.36138508780E+02  0.59783220279E+01  0.21293995280E+02  0.42369403891E+02  0.00000000000E+00 0.  1.
</event>
<event>
 7    1  0.2429906E-015  0.9000789E+02  0.7816164E-02  0.1186339E+00
        -11   -1    0    0    0    0  0.00000000000E+00  0.00000000000E+00  0.45593999997E+02  0.45594000000E+02  0.51100000000E-03 0. -1.
         11   -1    0    0    0    0 -0.00000000000E+00 -0.00000000000E+00 -0.45593999997E+02  0.45594000000E+02  0.51100000000E-03 0.  1.
    9900012    2    1    2    0    0 -0.71912940403E+00  0.94618071678E-01  0.93089221357E+00  0.90007889839E+02  0.90000153185E+02 0.  0.
        -12    1    1    2    0    0  0.71912940403E+00 -0.94618071678E-01 -0.93089221357E+00  0.11801101612E+01  0.00000000000E+00 0.  1.
         11    1    3    3    0    0 -0.75589914122E+01  0.35127379840E+01  0.68334491609E+01  0.10778390743E+02  0.51100000000E-03 0. -1.
        -11    1    3    3    0    0 -0.33579680615E+02  0.35655443354E+01 -0.15418178387E+02  0.37121803319E+02  0.51100000000E-03 0.  1.
         12    1    3    3    0    0  0.40419542623E+02 -0.69836642478E+01  0.95156214401E+01  0.42107695776E+02  0.00000000000E+00 0. -1.
</event>
<event>
 7    1  0.2429906E-015  0.9000767E+02  0.7816164E-02  0.1186339E+00
        -11   -1    0    0    0    0  0.00000000000E+00  0.00000000000E+00  0.45593999997E+02  0.45594000000E+02  0.51100000000E-03 0. -1.
         11   -1    0    0    0    0 -0.00000000000E+00 -0.00000000000E+00 -0.45593999997E+02  0.45594000000E+02  0.51100000000E-03 0.  1.
    9900012    2    1    2    0    0  0.30881217536E+00  0.77495175354E+00  0.83501773843E+00  0.90007673857E+02  0.89999934352E+02 0.  0.
        -12    1    1    2    0    0 -0.30881217536E+00 -0.77495175354E+00 -0.83501773843E+00  0.11803261428E+01  0.00000000000E+00 0.  1.
         11    1    3    3    0    0  0.93282502578E-01  0.36212585920E+01 -0.91342604437E+01  0.98263385617E+01  0.51100000000E-03 0. -1.
        -11    1    3    3    0    0  0.17742193199E+02 -0.29538245599E+02 -0.16964875084E+02  0.38407035286E+02  0.51100000000E-03 0.  1.
         12    1    3    3    0    0 -0.17526663526E+02  0.26691938761E+02  0.26934153266E+02  0.41774300010E+02  0.00000000000E+00 0. -1.
</event>
<event>
 7    1  0.2429906E-015  0.9000770E+02  0.7816164E-02  0.1186339E+00
        -11   -1    0    0    0    0  0.00000000000E+00  0.00000000000E+00  0.45593999997E+02  0.45594000000E+02  0.51100000000E-03 0.  1.
         11   -1    0    0    0    0 -0.00000000000E+00 -0.00000000000E+00 -0.45593999997E+02  0.45594000000E+02  0.51100000000E-03 0. -1.
    9900012    2    1    2    0    0 -0.38960078355E+00  0.11137364848E+01  0.30144463280E-01  0.90007700709E+02  0.89999961558E+02 0.  0.
        -12    1    1    2    0    0  0.38960078355E+00 -0.11137364848E+01 -0.30144463280E-01  0.11802992912E+01  0.00000000000E+00 0.  1.
         11    1    3    3    0    0 -0.77920130437E+01  0.15186925990E+02 -0.31325321122E+02  0.35673995178E+02  0.51100000000E-03 0. -1.
        -11    1    3    3    0    0  0.40135818453E-01  0.68252741502E+01 -0.71647785693E+01  0.98954550334E+01  0.51100000000E-03 0.  1.
        -12    1    3    3    0    0  0.73622764417E+01 -0.20898463656E+02  0.38520244154E+02  0.44438250498E+02  0.00000000000E+00 0.  1.
</event>
<event>
 7    1  0.2429906E-015  0.9000774E+02  0.7816164E-02  0.1186339E+00
        -11   -1    0    0    0    0  0.00000000000E+00  0.00000000000E+00  0.45593999997E+02  0.45594000000E+02  0.51100000000E-03 0. -1.
         11   -1    0    0    0    0 -0.00000000000E+00 -0.00000000000E+00 -0.45593999997E+02  0.45594000000E+02  0.51100000000E-03 0.  1.
    9900012    2    1    2    0    0 -0.64387897214E-01  0.10257524834E+01  0.58025802585E+00  0.90007740141E+02  0.90000001511E+02 0.  0.
        -12    1    1    2    0    0  0.64387897214E-01 -0.10257524834E+01 -0.58025802585E+00  0.11802598591E+01  0.00000000000E+00 0.  1.
         11    1    3    3    0    0  0.96730078686E+01  0.87097716277E+00 -0.65567466761E+01  0.11718217001E+02  0.51100000000E-03 0. -1.
        -11    1    3    3    0    0 -0.26099950101E+02  0.14375765266E+02 -0.25425616595E+02  0.39170550184E+02  0.51100000000E-03 0.  1.
         12    1    3    3    0    0  0.16362554335E+02 -0.14220989946E+02  0.32562621297E+02  0.39118972956E+02  0.00000000000E+00 0. -1.
</event>
<event>
 7    1  0.2429906E-015  0.9000771E+02  0.7816164E-02  0.1186339E+00
        -11   -1    0    0    0    0  0.00000000000E+00  0.00000000000E+00  0.45593999997E+02  0.45594000000E+02  0.51100000000E-03 0. -1.
         11   -1    0    0    0    0 -0.00000000000E+00 -0.00000000000E+00 -0.45593999997E+02  0.45594000000E+02  0.51100000000E-03 0.  1.
    9900012    2    1    2    0    0  0.23258733113E-01 -0.50582571354E+00  0.10661540798E+01  0.90007709721E+02  0.89999970689E+02 0.  0.
        -12    1    1    2    0    0 -0.23258733113E-01  0.50582571354E+00 -0.10661540798E+01  0.11802902791E+01  0.00000000000E+00 0.  1.
         11    1    3    3    0    0 -0.11390352147E+02 -0.77271986805E+00 -0.48541315183E+01  0.12405636263E+02  0.51100000000E-03 0. -1.
        -11    1    3    3    0    0 -0.67206938757E+01 -0.89649682044E+01 -0.32362463741E+02  0.34247152301E+02  0.51100000000E-03 0.  1.
         12    1    3    3    0    0  0.18134304756E+02  0.92318623589E+01  0.38282749339E+02  0.43354921157E+02  0.00000000000E+00 0. -1.
</event>
<event>
 7    1  0.2429906E-015  0.9000772E+02  0.7816164E-02  0.1186339E+00
        -11   -1    0    0    0    0  0.00000000000E+00  0.00000000000E+00  0.45593999997E+02  0.45594000000E+02  0.51100000000E-03 0. -1.
         11   -1    0    0    0    0 -0.00000000000E+00 -0.00000000000E+00 -0.45593999997E+02  0.45594000000E+02  0.51100000000E-03 0.  1.
    9900012    2    1    2    0    0 -0.26041631340E+00  0.96614926484E+00  0.62593484856E+00  0.90007722281E+02  0.89999983416E+02 0.  0.
        -12    1    1    2    0    0  0.26041631340E+00 -0.96614926484E+00 -0.62593484856E+00  0.11802777185E+01  0.00000000000E+00 0.  1.
         11    1    3    3    0    0  0.29098622236E+02  0.16363386260E+02  0.23497217468E+02  0.40824128342E+02  0.51100000000E-03 0. -1.
        -11    1    3    3    0    0 -0.42779059171E+01 -0.45733289683E+01  0.65321654921E+01  0.90490332725E+01  0.51100000000E-03 0.  1.
        -12    1    3    3    0    0 -0.25081132632E+02 -0.10823908027E+02 -0.29403448112E+02  0.40134560667E+02  0.00000000000E+00 0.  1.
</event>
<event>
 7    1  0.2429906E-015  0.9000786E+02  0.7816164E-02  0.1186339E+00
        -11   -1    0    0    0    0  0.00000000000E+00  0.00000000000E+00  0.45593999997E+02  0.45594000000E+02  0.51100000000E-03 0.  1.
         11   -1    0    0    0    0 -0.00000000000E+00 -0.00000000000E+00 -0.45593999997E+02  0.45594000000E+02  0.51100000000E-03 0. -1.
    9900012    2    1    2    0    0 -0.46773824173E+00  0.73115817690E+00 -0.79959903294E+00  0.90007860196E+02  0.90000123151E+02 0.  0.
        -12    1    1    2    0    0  0.46773824173E+00 -0.73115817690E+00  0.79959903294E+00  0.11801398035E+01  0.00000000000E+00 0.  1.
         11    1    3    3    0    0  0.37987308332E+02 -0.75543989396E+01 -0.14019443391E+02  0.41190403383E+02  0.51100000000E-03 0. -1.
        -11    1    3    3    0    0 -0.91870623581E+00 -0.59382646463E+01  0.50598870536E+01  0.78555372453E+01  0.51100000000E-03 0.  1.
        -12    1    3    3    0    0 -0.37536340338E+02  0.14223821763E+02  0.81599573045E+01  0.40961919568E+02  0.00000000000E+00 0.  1.
</event>
<event>
 7    1  0.2429906E-015  0.9000772E+02  0.7816164E-02  0.1186339E+00
        -11   -1    0    0    0    0  0.00000000000E+00  0.00000000000E+00  0.45593999997E+02  0.45594000000E+02  0.51100000000E-03 0.  1.
         11   -1    0    0    0    0 -0.00000000000E+00 -0.00000000000E+00 -0.45593999997E+02  0.45594000000E+02  0.51100000000E-03 0. -1.
    9900012    2    1    2    0    0 -0.45402441634E+00 -0.98061041877E+00 -0.47468536767E+00  0.90007719880E+02  0.89999980982E+02 0.  0.
        -12    1    1    2    0    0  0.45402441634E+00  0.98061041877E+00  0.47468536767E+00  0.11802801203E+01  0.00000000000E+00 0.  1.
         11    1    3    3    0    0 -0.50491087048E+01 -0.43877469842E+01  0.73383067716E+01  0.99295804970E+01  0.51100000000E-03 0. -1.
        -11    1    3    3    0    0 -0.27390243037E+02  0.23429119166E+02 -0.18966300399E+02  0.40729222796E+02  0.51100000000E-03 0.  1.
         12    1    3    3    0    0  0.31985327326E+02 -0.20021982600E+02  0.11153308260E+02  0.39348916586E+02  0.00000000000E+00 0. -1.
</event>
<event>
 7    1  0.2429906E-015  0.9000778E+02  0.7816164E-02  0.1186339E+00
        -11   -1    0    0    0    0  0.00000000000E+00  0.00000000000E+00  0.45593999997E+02  0.45594000000E+02  0.51100000000E-03 0.  1.
         11   -1    0    0    0    0 -0.00000000000E+00 -0.00000000000E+00 -0.45593999997E+02  0.45594000000E+02  0.51100000000E-03 0. -1.
    9900012    2    1    2    0    0 -0.70178197694E+00 -0.10245008060E+00 -0.94336119772E+00  0.90007777855E+02  0.90000039723E+02 0.  0.
        -12    1    1    2    0    0  0.70178197694E+00  0.10245008060E+00  0.94336119772E+00  0.11802221450E+01  0.00000000000E+00 0.  1.
         11    1    3    3    0    0  0.81265623659E+01 -0.15326709698E+01  0.77988418518E+01  0.11367146989E+02  0.51100000000E-03 0. -1.
        -11    1    3    3    0    0 -0.23350652557E+02  0.28120819118E+02  0.15565990235E+02  0.39728245556E+02  0.51100000000E-03 0.  1.
         12    1    3    3    0    0  0.14522308214E+02 -0.26690598229E+02 -0.24308193285E+02  0.38912385309E+02  0.00000000000E+00 0. -1.
</event>
<event>
 7    1  0.2429906E-015  0.9000776E+02  0.7816164E-02  0.1186339E+00
        -11   -1    0    0    0    0  0.00000000000E+00  0.00000000000E+00  0.45593999997E+02  0.45594000000E+02  0.51100000000E-03 0. -1.
         11   -1    0    0    0    0 -0.00000000000E+00 -0.00000000000E+00 -0.45593999997E+02  0.45594000000E+02  0.51100000000E-03 0.  1.
    9900012    2    1    2    0    0 -0.65424775177E+00  0.73364848967E+00  0.65320856606E+00  0.90007762033E+02  0.90000023692E+02 0.  0.
        -12    1    1    2    0    0  0.65424775177E+00 -0.73364848967E+00 -0.65320856606E+00  0.11802379666E+01  0.00000000000E+00 0.  1.
         11    1    3    3    0    0  0.80557339149E+01  0.37824480005E+02 -0.21028681050E+01  0.38729939209E+02  0.51100000000E-03 0. -1.
        -11    1    3    3    0    0  0.86413306906E+01 -0.35504641354E+00 -0.48927392083E+01  0.99366770745E+01  0.51100000000E-03 0.  1.
        -12    1    3    3    0    0 -0.17351312357E+02 -0.36735785102E+02  0.76488158794E+01  0.41341145750E+02  0.00000000000E+00 0.  1.
</event>
<event>
 7    1  0.2429906E-015  0.9000760E+02  0.7816164E-02  0.1186339E+00
        -11   -1    0    0    0    0  0.00000000000E+00  0.00000000000E+00  0.45593999997E+02  0.45594000000E+02  0.51100000000E-03 0. -1.
         11   -1    0    0    0    0 -0.00000000000E+00 -0.00000000000E+00 -0.45593999997E+02  0.45594000000E+02  0.51100000000E-03 0.  1.
    9900012    2    1    2    0    0  0.69967969648E+00  0.77140880328E-02  0.95065357489E+00  0.90007596084E+02  0.89999855552E+02 0.  0.
        -12    1    1    2    0    0 -0.69967969648E+00 -0.77140880328E-02 -0.95065357489E+00  0.11804039157E+01  0.00000000000E+00 0.  1.
         11    1    3    3    0    0  0.23016766343E+02 -0.29483026800E+02  0.24537866205E+02  0.44733961151E+02  0.51100000000E-03 0. -1.
        -11    1    3    3    0    0 -0.10777393107E+01  0.25082964270E+01 -0.62198916893E+01  0.67926523446E+01  0.51100000000E-03 0.  1.
        -12    1    3    3    0    0 -0.21239347335E+02  0.26982444461E+02 -0.17367320940E+02  0.38480982588E+02  0.00000000000E+00 0.  1.
</event>
<event>
 7    1  0.2429906E-015  0.9000772E+02  0.7816164E-02  0.1186339E+00
        -11   -1    0    0    0    0  0.00000000000E+00  0.00000000000E+00  0.45593999997E+02  0.45594000000E+02  0.51100000000E-03 0.  1.
         11   -1    0    0    0    0 -0.00000000000E+00 -0.00000000000E+00 -0.45593999997E+02  0.45594000000E+02  0.51100000000E-03 0. -1.
    9900012    2    1    2    0    0 -0.17746003554E+00  0.10027806729E+01 -0.59666364553E+00  0.90007716709E+02  0.89999977769E+02 0.  0.
        -12    1    1    2    0    0  0.17746003554E+00 -0.10027806729E+01  0.59666364553E+00  0.11802832914E+01  0.00000000000E+00 0.  1.
         11    1    3    3    0    0  0.25673222295E+02  0.27873368835E+02 -0.71785103223E+01  0.38569029595E+02  0.51100000000E-03 0. -1.
        -11    1    3    3    0    0 -0.35748784111E+00  0.60264373297E+01  0.77251557746E+01  0.98042733769E+01  0.51100000000E-03 0.  1.
        -12    1    3    3    0    0 -0.25493194490E+02 -0.32897025492E+02 -0.11433090978E+01  0.41634413736E+02  0.00000000000E+00 0.  1.
</event>
<event>
 7    1  0.2429906E-015  0.9000765E+02  0.7816164E-02  0.1186339E+00
        -11   -1    0    0    0    0  0.00000000000E+00  0.00000000000E+00  0.45593999997E+02  0.45594000000E+02  0.51100000000E-03 0. -1.
         11   -1    0    0    0    0 -0.00000000000E+00 -0.00000000000E+00 -0.45593999997E+02  0.45594000000E+02  0.51100000000E-03 0.  1.
    9900012    2    1    2    0    0  0.32008045003E+00 -0.44161438458E-01  0.11352673064E+01  0.90007646839E+02  0.89999906977E+02 0.  0.
        -12    1    1    2    0    0 -0.32008045003E+00  0.44161438458E-01 -0.11352673064E+01  0.11803531607E+01  0.00000000000E+00 0.  1.
         11    1    3    3    0    0  0.36766931025E+02 -0.17535514813E+02 -0.78657062457E+01  0.41486995935E+02  0.51100000000E-03 0. -1.
        -11    1    3    3    0    0 -0.33245474910E+01 -0.13455638976E+01 -0.64684471566E+01  0.73962130244E+01  0.51100000000E-03 0.  1.
        -12    1    3    3    0    0 -0.33122303084E+02  0.18836917272E+02  0.15469420709E+02  0.41124437880E+02  0.00000000000E+00 0.  1.
</event>
<event>
 7    1  0.2429906E-015  0.9000780E+02  0.7816164E-02  0.1186339E+00
        -11   -1    0    0    0    0  0.00000000000E+00  0.00000000000E+00  0.45593999997E+02  0.45594000000E+02  0.51100000000E-03 0. -1.
         11   -1    0    0    0    0 -0.00000000000E+00 -0.00000000000E+00 -0.45593999997E+02  0.45594000000E+02  0.51100000000E-03 0.  1.
    9900012    2    1    2    0    0  0.32880720200E+00  0.74540782218E+00  0.85389114822E+00  0.90007797860E+02  0.90000059992E+02 0.  0.
        -12    1    1    2    0    0 -0.32880720200E+00 -0.74540782218E+00 -0.85389114822E+00  0.11802021397E+01  0.00000000000E+00 0.  1.
         11    1    3    3    0    0 -0.25703463911E+02  0.18494561867E+02  0.26394829028E+02  0.41223826549E+02  0.51100000000E-03 0. -1.
        -11    1    3    3    0    0  0.13549992311E+01 -0.12975092580E+02 -0.13587055437E+00  0.13046360084E+02  0.51100000000E-03 0.  1.
        -12    1    3    3    0    0  0.24677271882E+02 -0.47740614641E+01 -0.25405067325E+02  0.35737611227E+02  0.00000000000E+00 0.  1.
</event>
<event>
 7    1  0.2429906E-015  0.9000772E+02  0.7816164E-02  0.1186339E+00
        -11   -1    0    0    0    0  0.00000000000E+00  0.00000000000E+00  0.45593999997E+02  0.45594000000E+02  0.51100000000E-03 0. -1.
         11   -1    0    0    0    0 -0.00000000000E+00 -0.00000000000E+00 -0.45593999997E+02  0.45594000000E+02  0.51100000000E-03 0.  1.
    9900012    2    1    2    0    0 -0.47415038728E+00  0.32167998299E+00  0.10318753780E+01  0.90007718933E+02  0.89999980023E+02 0.  0.
        -12    1    1    2    0    0  0.47415038728E+00 -0.32167998299E+00 -0.10318753780E+01  0.11802810669E+01  0.00000000000E+00 0.  1.
         11    1    3    3    0    0 -0.10383075834E+02 -0.56506206541E+01 -0.19154720691E+00  0.11822625264E+02  0.51100000000E-03 0. -1.
        -11    1    3    3    0    0  0.62673363728E+01  0.71564106821E+01 -0.37797766687E+02  0.38976465795E+02  0.51100000000E-03 0.  1.
         12    1    3    3    0    0  0.36415890735E+01 -0.11841100450E+01  0.39021189272E+02  0.39208627874E+02  0.00000000000E+00 0. -1.
</event>
<event>
 7    1  0.2429906E-015  0.9000743E+02  0.7816164E-02  0.1186340E+00
        -11   -1    0    0    0    0  0.00000000000E+00  0.00000000000E+00  0.45593999997E+02  0.45594000000E+02  0.51100000000E-03 0.  1.
         11   -1    0    0    0    0 -0.00000000000E+00 -0.00000000000E+00 -0.45593999997E+02  0.45594000000E+02  0.51100000000E-03 0. -1.
    9900012    2    1    2    0    0  0.67040616469E+00 -0.79591388295E+00  0.55751433139E+00  0.90007429983E+02  0.89999687258E+02 0.  0.
        -12    1    1    2    0    0 -0.67040616469E+00  0.79591388295E+00 -0.55751433139E+00  0.11805700167E+01  0.00000000000E+00 0.  1.
         11    1    3    3    0    0 -0.28894019904E+01  0.75631098207E+01 -0.43173412669E+01  0.91754405833E+01  0.51100000000E-03 0. -1.
        -11    1    3    3    0    0  0.37178651927E+01  0.31569483826E+02  0.20643111140E+02  0.37902412435E+02  0.51100000000E-03 0.  1.
         12    1    3    3    0    0 -0.15805703761E+00 -0.39928507529E+02 -0.15768255541E+02  0.42929576965E+02  0.00000000000E+00 0. -1.
</event>
<event>
 7    1  0.2429906E-015  0.9000773E+02  0.7816164E-02  0.1186339E+00
        -11   -1    0    0    0    0  0.00000000000E+00  0.00000000000E+00  0.45593999997E+02  0.45594000000E+02  0.51100000000E-03 0.  1.
         11   -1    0    0    0    0 -0.00000000000E+00 -0.00000000000E+00 -0.45593999997E+02  0.45594000000E+02  0.51100000000E-03 0. -1.
    9900012    2    1    2    0    0  0.22716786727E+00 -0.29270053388E+00 -0.11206065183E+01  0.90007729772E+02  0.89999991005E+02 0.  0.
        -12    1    1    2    0    0 -0.22716786727E+00  0.29270053388E+00  0.11206065183E+01  0.11802702281E+01  0.00000000000E+00 0.  1.
         11    1    3    3    0    0 -0.32510096859E+02  0.12731814450E+02 -0.17917279254E+02  0.39243271947E+02  0.51100000000E-03 0. -1.
        -11    1    3    3    0    0  0.91866889323E+00 -0.44231445156E+01 -0.82238132513E+01  0.93829240961E+01  0.51100000000E-03 0.  1.
        -12    1    3    3    0    0  0.31818595833E+02 -0.86013704684E+01  0.25020485987E+02  0.41381533729E+02  0.00000000000E+00 0.  1.
</event>
<event>
 7    1  0.2429906E-015  0.9000778E+02  0.7816164E-02  0.1186339E+00
        -11   -1    0    0    0    0  0.00000000000E+00  0.00000000000E+00  0.45593999997E+02  0.45594000000E+02  0.51100000000E-03 0.  1.
         11   -1    0    0    0    0 -0.00000000000E+00 -0.00000000000E+00 -0.45593999997E+02  0.45594000000E+02  0.51100000000E-03 0. -1.
    9900012    2    1    2    0    0  0.10881640000E+01 -0.93746397008E-01 -0.44725775892E+00  0.90007775962E+02  0.90000037804E+02 0.  0.
        -12    1    1    2    0    0 -0.10881640000E+01  0.93746397008E-01  0.44725775892E+00  0.11802240383E+01  0.00000000000E+00 0.  1.
         11    1    3    3    0    0 -0.30767556095E+02  0.24010859597E+02 -0.39709487406E+01  0.39229227890E+02  0.51100000000E-03 0. -1.
        -11    1    3    3    0    0 -0.54826400347E+01 -0.74494285454E+01  0.35124694720E+01  0.98939764229E+01  0.51100000000E-03 0.  1.
        -12    1    3    3    0    0  0.37338360130E+02 -0.16655177448E+02  0.11221509680E-01  0.40884571649E+02  0.00000000000E+00 0.  1.
</event>
<event>
 7    1  0.2429906E-015  0.9000769E+02  0.7816164E-02  0.1186339E+00
        -11   -1    0    0    0    0  0.00000000000E+00  0.00000000000E+00  0.45593999997E+02  0.45594000000E+02  0.51100000000E-03 0. -1.
         11   -1    0    0    0    0 -0.00000000000E+00 -0.00000000000E+00 -0.45593999997E+02  0.45594000000E+02  0.51100000000E-03 0.  1.
    9900012    2    1    2    0    0 -0.17959550195E+00  0.11665571196E+01  0.45879127561E-02  0.90007690250E+02  0.89999950961E+02 0.  0.
        -12    1    1    2    0    0  0.17959550195E+00 -0.11665571196E+01 -0.45879127561E-02  0.11803097503E+01  0.00000000000E+00 0.  1.
         11    1    3    3    0    0 -0.10614051110E+01  0.82567703925E+01 -0.64071671568E+01  0.10504885976E+02  0.51100000000E-03 0. -1.
        -11    1    3    3    0    0  0.36111306367E+02 -0.14021952908E+02 -0.10025200128E+02  0.40014325544E+02  0.51100000000E-03 0.  1.
         12    1    3    3    0    0 -0.35229496758E+02  0.69317396350E+01  0.16436955198E+02  0.39488478730E+02  0.00000000000E+00 0. -1.
</event>
<event>
 7    1  0.2429906E-015  0.9000779E+02  0.7816164E-02  0.1186339E+00
        -11   -1    0    0    0    0  0.00000000000E+00  0.00000000000E+00  0.45593999997E+02  0.45594000000E+02  0.51100000000E-03 0.  1.
         11   -1    0    0    0    0 -0.00000000000E+00 -0.00000000000E+00 -0.45593999997E+02  0.45594000000E+02  0.51100000000E-03 0. -1.
    9900012    2    1    2    0    0  0.64945845665E+00  0.95578376251E+00 -0.23993923951E+00  0.90007792507E+02  0.90000054568E+02 0.  0.
        -12    1    1    2    0    0 -0.64945845665E+00 -0.95578376251E+00  0.23993923951E+00  0.11802074929E+01  0.00000000000E+00 0.  1.
         11    1    3    3    0    0  0.22130919558E+02 -0.36990271107E+02  0.80647089044E+01  0.43853133149E+02  0.51100000000E-03 0. -1.
        -11    1    3    3    0    0 -0.12055678210E+01  0.34341858974E+01 -0.47298052377E+01  0.59680888395E+01  0.51100000000E-03 0.  1.
        -12    1    3    3    0    0 -0.20275893280E+02  0.34511868972E+02 -0.35748429062E+01  0.40186570518E+02  0.00000000000E+00 0.  1.
</event>
<event>
 7    1  0.2429906E-015  0.9000777E+02  0.7816164E-02  0.1186339E+00
        -11   -1    0    0    0    0  0.00000000000E+00  0.00000000000E+00  0.45593999997E+02  0.45594000000E+02  0.51100000000E-03 0.  1.
         11   -1    0    0    0    0 -0.00000000000E+00 -0.00000000000E+00 -0.45593999997E+02  0.45594000000E+02  0.51100000000E-03 0. -1.
    9900012    2    1    2    0    0  0.29258057331E+00  0.91314601082E+00 -0.68811881021E+00  0.90007768444E+02  0.90000030187E+02 0.  0.
        -12    1    1    2    0    0 -0.29258057331E+00 -0.91314601082E+00  0.68811881021E+00  0.11802315561E+01  0.00000000000E+00 0.  1.
         11    1    3    3    0    0  0.17990205534E+01 -0.66836665057E+01  0.22773625368E+01  0.72865803568E+01  0.51100000000E-03 0. -1.
        -11    1    3    3    0    0 -0.27056006721E+01  0.73425362956E+01  0.39485041444E+02  0.40252970230E+02  0.51100000000E-03 0.  1.
         12    1    3    3    0    0  0.11991606919E+01  0.25427622095E+00 -0.42450522791E+02  0.42468217857E+02  0.00000000000E+00 0. -1.
</event>
<event>
 7    1  0.2429906E-015  0.9000778E+02  0.7816164E-02  0.1186339E+00
        -11   -1    0    0    0    0  0.00000000000E+00  0.00000000000E+00  0.45593999997E+02  0.45594000000E+02  0.51100000000E-03 0. -1.
         11   -1    0    0    0    0 -0.00000000000E+00 -0.00000000000E+00 -0.45593999997E+02  0.45594000000E+02  0.51100000000E-03 0.  1.
    9900012    2    1    2    0    0  0.10326636236E+01  0.52796100131E+00  0.21856808878E+00  0.90007784347E+02  0.90000046300E+02 0.  0.
        -12    1    1    2    0    0 -0.10326636236E+01 -0.52796100131E+00 -0.21856808878E+00  0.11802156531E+01  0.00000000000E+00 0.  1.
         11    1    3    3    0    0  0.29808797128E+01 -0.27131947465E+01 -0.55664641303E+01  0.68725972362E+01  0.51100000000E-03 0. -1.
        -11    1    3    3    0    0  0.62864093199E+01  0.35494121873E+02  0.25768512558E+02  0.44309907125E+02  0.51100000000E-03 0.  1.
         12    1    3    3    0    0 -0.82346254092E+01 -0.32252966126E+02 -0.19983480339E+02  0.38825279986E+02  0.00000000000E+00 0. -1.
</event>
<event>
 7    1  0.2429906E-015  0.9000782E+02  0.7816164E-02  0.1186339E+00
        -11   -1    0    0    0    0  0.00000000000E+00  0.00000000000E+00  0.45593999997E+02  0.45594000000E+02  0.51100000000E-03 0. -1.
         11   -1    0    0    0    0 -0.00000000000E+00 -0.00000000000E+00 -0.45593999997E+02  0.45594000000E+02  0.51100000000E-03 0.  1.
    9900012    2    1    2    0    0  0.20132674118E+00 -0.40700521183E+00  0.10893322642E+01  0.90007817607E+02  0.90000079999E+02 0.  0.
        -12    1    1    2    0    0 -0.20132674118E+00  0.40700521183E+00 -0.10893322642E+01  0.11801823931E+01  0.00000000000E+00 0.  1.
         11    1    3    3    0    0  0.12734773038E+02 -0.15212057723E+02  0.31501698088E+02  0.37228189953E+02  0.51100000000E-03 0. -1.
        -11    1    3    3    0    0  0.60747588978E+01 -0.22877349712E+01  0.57451156325E+01  0.86684935748E+01  0.51100000000E-03 0.  1.
        -12    1    3    3    0    0 -0.18608205195E+02  0.17092787482E+02 -0.36157481456E+02  0.44111134079E+02  0.00000000000E+00 0.  1.
</event>
<event>
 7    1  0.2429906E-015  0.9000785E+02  0.7816164E-02  0.1186339E+00
        -11   -1    0    0    0    0  0.00000000000E+00  0.00000000000E+00  0.45593999997E+02  0.45594000000E+02  0.51100000000E-03 0. -1.
         11   -1    0    0    0    0 -0.00000000000E+00 -0.00000000000E+00 -0.45593999997E+02  0.45594000000E+02  0.51100000000E-03 0.  1.
    9900012    2    1    2    0    0 -0.27728105416E+00 -0.70651578220E+00  0.90371288209E+00  0.90007853269E+02  0.90000116132E+02 0.  0.
        -12    1    1    2    0    0  0.27728105416E+00  0.70651578220E+00 -0.90371288209E+00  0.11801467310E+01  0.00000000000E+00 0.  1.
         11    1    3    3    0    0  0.12942559285E+02 -0.95846146081E+01  0.35900432543E+02  0.39347372657E+02  0.51100000000E-03 0. -1.
        -11    1    3    3    0    0  0.62422615887E+01  0.45360923118E+01  0.25670155728E+01  0.81321296359E+01  0.51100000000E-03 0.  1.
        -12    1    3    3    0    0 -0.19462101928E+02  0.43420065141E+01 -0.37563735233E+02  0.42528350976E+02  0.00000000000E+00 0.  1.
</event>
<event>
 7    1  0.2429906E-015  0.9000777E+02  0.7816164E-02  0.1186339E+00
        -11   -1    0    0    0    0  0.00000000000E+00  0.00000000000E+00  0.45593999997E+02  0.45594000000E+02  0.51100000000E-03 0.  1.
         11   -1    0    0    0    0 -0.00000000000E+00 -0.00000000000E+00 -0.45593999997E+02  0.45594000000E+02  0.51100000000E-03 0. -1.
    9900012    2    1    2    0    0 -0.77913014566E+00  0.88510127664E+00  0.49936094463E-01  0.90007770502E+02  0.90000032273E+02 0.  0.
        -12    1    1    2    0    0  0.77913014566E+00 -0.88510127664E+00 -0.49936094463E-01  0.11802294977E+01  0.00000000000E+00 0.  1.
         11    1    3    3    0    0  0.12175488587E+01  0.66154469627E+01 -0.40502993402E+02  0.41057752478E+02  0.51100000000E-03 0. -1.
        -11    1    3    3    0    0 -0.27499613528E+01  0.95315428307E+01  0.71825992420E+01  0.12247543766E+02  0.51100000000E-03 0.  1.
        -12    1    3    3    0    0  0.75328234835E+00 -0.15261888517E+02  0.33370330254E+02  0.36702474258E+02  0.00000000000E+00 0.  1.
</event>
<event>
 7    1  0.2429906E-015  0.9000775E+02  0.7816164E-02  0.1186339E+00
        -11   -1    0    0    0    0  0.00000000000E+00  0.00000000000E+00  0.45593999997E+02  0.45594000000E+02  0.51100000000E-03 0.  1.
         11   -1    0    0    0    0 -0.00000000000E+00 -0.00000000000E+00 -0.45593999997E+02  0.45594000000E+02  0.51100000000E-03 0. -1.
    9900012    2    1    2    0    0 -0.23698134125E+00  0.92994738766E+00 -0.68704960379E+00  0.90007746020E+02  0.90000007467E+02 0.  0.
        -12    1    1    2    0    0  0.23698134125E+00 -0.92994738766E+00  0.68704960379E+00  0.11802539803E+01  0.00000000000E+00 0.  1.
         11    1    3    3    0    0  0.71582673591E+01  0.90174231591E+01 -0.30843235990E+01  0.11919218277E+02  0.51100000000E-03 0. -1.
        -11    1    3    3    0    0  0.35109158917E+02 -0.37745824907E+01  0.19098078503E+01  0.35363086392E+02  0.51100000000E-03 0.  1.
         12    1    3    3    0    0 -0.42504407618E+02 -0.43128932807E+01  0.48746614485E+00  0.42725441351E+02  0.00000000000E+00 0. -1.
</event>
<event>
 7    1  0.2429906E-015  0.9000779E+02  0.7816164E-02  0.1186339E+00
        -11   -1    0    0    0    0  0.00000000000E+00  0.00000000000E+00  0.45593999997E+02  0.45594000000E+02  0.51100000000E-03 0.  1.
         11   -1    0    0    0    0 -0.00000000000E+00 -0.00000000000E+00 -0.45593999997E+02  0.45594000000E+02  0.51100000000E-03 0. -1.
    9900012    2    1    2    0    0 -0.16416143882E+00 -0.11642169145E+01 -0.10269397978E+00  0.90007789826E+02  0.90000051851E+02 0.  0.
        -12    1    1    2    0    0  0.16416143882E+00  0.11642169145E+01  0.10269397978E+00  0.11802101743E+01  0.00000000000E+00 0.  1.
         11    1    3    3    0    0 -0.33761249649E+02  0.71886782445E+01 -0.13645181251E+02  0.37117247263E+02  0.51100000000E-03 0. -1.
        -11    1    3    3    0    0 -0.36290942734E+01 -0.64408556072E+01 -0.71263757758E+01  0.10268406797E+02  0.51100000000E-03 0.  1.
        -12    1    3    3    0    0  0.37226182484E+02 -0.19120395518E+01  0.20668863047E+02  0.42622135765E+02  0.00000000000E+00 0.  1.
</event>
<event>
 7    1  0.2429906E-015  0.9000654E+02  0.7816164E-02  0.1186341E+00
        -11   -1    0    0    0    0  0.00000000000E+00  0.00000000000E+00  0.45593999997E+02  0.45594000000E+02  0.51100000000E-03 0.  1.
         11   -1    0    0    0    0 -0.00000000000E+00 -0.00000000000E+00 -0.45593999997E+02  0.45594000000E+02  0.51100000000E-03 0. -1.
    9900012    2    1    2    0    0 -0.10226812353E+01  0.40080788975E+00 -0.43510526487E+00  0.90006543075E+02  0.89998788636E+02 0.  0.
        -12    1    1    2    0    0  0.10226812353E+01 -0.40080788975E+00  0.43510526487E+00  0.11814569248E+01  0.00000000000E+00 0.  1.
         11    1    3    3    0    0 -0.38221929278E+00  0.97130146517E+01  0.18072434411E+01  0.98871064689E+01  0.51100000000E-03 0. -1.
        -11    1    3    3    0    0 -0.57021979296E+01  0.97962257853E+01  0.35634934094E+02  0.37394245935E+02  0.51100000000E-03 0.  1.
         12    1    3    3    0    0  0.50617359871E+01 -0.19108432547E+02 -0.37877282800E+02  0.42725190672E+02  0.00000000000E+00 0. -1.
</event>
<event>
 7    1  0.2429906E-015  0.9000778E+02  0.7816164E-02  0.1186339E+00
        -11   -1    0    0    0    0  0.00000000000E+00  0.00000000000E+00  0.45593999997E+02  0.45594000000E+02  0.51100000000E-03 0.  1.
         11   -1    0    0    0    0 -0.00000000000E+00 -0.00000000000E+00 -0.45593999997E+02  0.45594000000E+02  0.51100000000E-03 0. -1.
    9900012    2    1    2    0    0 -0.42928531182E+00  0.44259836418E+00 -0.10063514156E+01  0.90007778681E+02  0.90000040559E+02 0.  0.
        -12    1    1    2    0    0  0.42928531182E+00 -0.44259836418E+00  0.10063514156E+01  0.11802213193E+01  0.00000000000E+00 0.  1.
         11    1    3    3    0    0 -0.51688420565E+01  0.18604119209E+02 -0.30029598796E+02  0.35701638392E+02  0.51100000000E-03 0. -1.
        -11    1    3    3    0    0  0.77339406171E+00  0.53873625927E+01 -0.83426524624E+01  0.99610072005E+01  0.51100000000E-03 0.  1.
        -12    1    3    3    0    0  0.39661626829E+01 -0.23548883438E+02  0.37365899842E+02  0.44345133088E+02  0.00000000000E+00 0.  1.
</event>
<event>
 7    1  0.2429906E-015  0.9000791E+02  0.7816164E-02  0.1186339E+00
        -11   -1    0    0    0    0  0.00000000000E+00  0.00000000000E+00  0.45593999997E+02  0.45594000000E+02  0.51100000000E-03 0. -1.
         11   -1    0    0    0    0 -0.00000000000E+00 -0.00000000000E+00 -0.45593999997E+02  0.45594000000E+02  0.51100000000E-03 0.  1.
    9900012    2    1    2    0    0 -0.82879980100E+00 -0.50996173009E+00  0.66756027126E+00  0.90007912380E+02  0.90000176023E+02 0.  0.
        -12    1    1    2    0    0  0.82879980100E+00  0.50996173009E+00 -0.66756027126E+00  0.11800876205E+01  0.00000000000E+00 0.  1.
         11    1    3    3    0    0  0.62906479586E+01 -0.60936557080E+01 -0.65353947290E+00  0.87824828910E+01  0.51100000000E-03 0. -1.
        -11    1    3    3    0    0  0.29690326152E+02  0.24690179740E+02  0.73744877996E+01  0.39312892455E+02  0.51100000000E-03 0.  1.
         12    1    3    3    0    0 -0.36809773912E+02 -0.19106485762E+02 -0.60533880554E+01  0.41912537033E+02  0.00000000000E+00 0. -1.
</event>
<event>
 7    1  0.2429906E-015  0.9000783E+02  0.7816164E-02  0.1186339E+00
        -11   -1    0    0    0    0  0.00000000000E+00  0.00000000000E+00  0.45593999997E+02  0.45594000000E+02  0.51100000000E-03 0.  1.
         11   -1    0    0    0    0 -0.00000000000E+00 -0.00000000000E+00 -0.45593999997E+02  0.45594000000E+02  0.51100000000E-03 0. -1.
    9900012    2    1    2    0    0  0.50398871034E+00 -0.17857966091E+00 -0.10521001561E+01  0.90007826261E+02  0.90000088768E+02 0.  0.
        -12    1    1    2    0    0 -0.50398871034E+00  0.17857966091E+00  0.10521001561E+01  0.11801737389E+01  0.00000000000E+00 0.  1.
         11    1    3    3    0    0  0.86966128045E+01  0.20056416602E+02 -0.13456766134E+02  0.25670517646E+02  0.51100000000E-03 0. -1.
        -11    1    3    3    0    0 -0.77905600076E+01  0.11215514262E+02 -0.16639326125E+02  0.21525514153E+02  0.51100000000E-03 0.  1.
        -12    1    3    3    0    0 -0.40206408657E+00 -0.31450510525E+02  0.29043992102E+02  0.42811794462E+02  0.00000000000E+00 0.  1.
</event>
<event>
 7    1  0.2429906E-015  0.9000769E+02  0.7816164E-02  0.1186339E+00
        -11   -1    0    0    0    0  0.00000000000E+00  0.00000000000E+00  0.45593999997E+02  0.45594000000E+02  0.51100000000E-03 0. -1.
         11   -1    0    0    0    0 -0.00000000000E+00 -0.00000000000E+00 -0.45593999997E+02  0.45594000000E+02  0.51100000000E-03 0.  1.
    9900012    2    1    2    0    0  0.35770191437E+00 -0.69468209557E+00  0.88464626287E+00  0.90007689497E+02  0.89999950198E+02 0.  0.
        -12    1    1    2    0    0 -0.35770191437E+00  0.69468209557E+00 -0.88464626287E+00  0.11803105032E+01  0.00000000000E+00 0.  1.
         11    1    3    3    0    0  0.62836301965E+01  0.68359798504E+01  0.35656643595E+02  0.36845771286E+02  0.51100000000E-03 0. -1.
        -11    1    3    3    0    0  0.10157218824E+02 -0.10232367101E+02  0.36749346938E+00  0.14422395170E+02  0.51100000000E-03 0.  1.
        -12    1    3    3    0    0 -0.16083147106E+02  0.27017051550E+01 -0.35139490802E+02  0.38739523040E+02  0.00000000000E+00 0.  1.
</event>
<event>
 7    1  0.2429906E-015  0.9000775E+02  0.7816164E-02  0.1186339E+00
        -11   -1    0    0    0    0  0.00000000000E+00  0.00000000000E+00  0.45593999997E+02  0.45594000000E+02  0.51100000000E-03 0. -1.
         11   -1    0    0    0    0 -0.00000000000E+00 -0.00000000000E+00 -0.45593999997E+02  0.45594000000E+02  0.51100000000E-03 0.  1.
    9900012    2    1    2    0    0  0.99787398164E+00 -0.32526324554E+00 -0.53984293764E+00  0.90007754661E+02  0.90000016223E+02 0.  0.
        -12    1    1    2    0    0 -0.99787398164E+00  0.32526324554E+00  0.53984293764E+00  0.11802453387E+01  0.00000000000E+00 0.  1.
         11    1    3    3    0    0 -0.17053012963E+02 -0.24728970169E+02  0.13090220824E+02  0.32767073385E+02  0.51100000000E-03 0. -1.
        -11    1    3    3    0    0 -0.55741826566E+01 -0.82502371446E+01  0.67970435351E+01  0.12055609744E+02  0.51100000000E-03 0.  1.
        -12    1    3    3    0    0  0.23625069601E+02  0.32653944068E+02 -0.20427107297E+02  0.45185071532E+02  0.00000000000E+00 0.  1.
</event>
<event>
 7    1  0.2429906E-015  0.9000774E+02  0.7816164E-02  0.1186339E+00
        -11   -1    0    0    0    0  0.00000000000E+00  0.00000000000E+00  0.45593999997E+02  0.45594000000E+02  0.51100000000E-03 0. -1.
         11   -1    0    0    0    0 -0.00000000000E+00 -0.00000000000E+00 -0.45593999997E+02  0.45594000000E+02  0.51100000000E-03 0.  1.
    9900012    2    1    2    0    0  0.82985076007E+00 -0.60170072726E+00  0.58507066363E+00  0.90007744210E+02  0.90000005633E+02 0.  0.
        -12    1    1    2    0    0 -0.82985076007E+00  0.60170072726E+00 -0.58507066363E+00  0.11802557903E+01  0.00000000000E+00 0.  1.
         11    1    3    3    0    0  0.69961425591E+00 -0.10423406357E+02 -0.17506838512E+01  0.10592532955E+02  0.51100000000E-03 0. -1.
        -11    1    3    3    0    0  0.28822124700E+01 -0.13731910485E+02 -0.33570593591E+02  0.36384849437E+02  0.51100000000E-03 0.  1.
         12    1    3    3    0    0 -0.27519759658E+01  0.23553616116E+02  0.35906348105E+02  0.43030361817E+02  0.00000000000E+00 0. -1.
</event>
<event>
 7    1  0.2429906E-015  0.9000782E+02  0.7816164E-02  0.1186339E+00
        -11   -1    0    0    0    0  0.00000000000E+00  0.00000000000E+00  0.45593999997E+02  0.45594000000E+02  0.51100000000E-03 0.  1.
         11   -1    0    0    0    0 -0.00000000000E+00 -0.00000000000E+00 -0.45593999997E+02  0.45594000000E+02  0.51100000000E-03 0. -1.
    9900012    2    1    2    0    0 -0.10901630833E+00 -0.11327646402E+01 -0.31270587301E+00  0.90007819824E+02  0.90000082245E+02 0.  0.
        -12    1    1    2    0    0  0.10901630833E+00  0.11327646402E+01  0.31270587301E+00  0.11801801763E+01  0.00000000000E+00 0.  1.
         11    1    3    3    0    0 -0.87419048401E+01  0.95752972656E-01  0.22306241279E+01  0.90225136811E+01  0.51100000000E-03 0. -1.
        -11    1    3    3    0    0 -0.32255499921E+02  0.50681920330E+01  0.15144292793E+02  0.35992408228E+02  0.51100000000E-03 0.  1.
         12    1    3    3    0    0  0.40888388453E+02 -0.62967096459E+01 -0.17687622794E+02  0.44992897914E+02  0.00000000000E+00 0. -1.
</event>
<event>
 7    1  0.2429906E-015  0.9000765E+02  0.7816164E-02  0.1186339E+00
        -11   -1    0    0    0    0  0.00000000000E+00  0.00000000000E+00  0.45593999997E+02  0.45594000000E+02  0.51100000000E-03 0. -1.
         11   -1    0    0    0    0 -0.00000000000E+00 -0.00000000000E+00 -0.45593999997E+02  0.45594000000E+02  0.51100000000E-03 0.  1.
    9900012    2    1    2    0    0 -0.70835898226E+00  0.66128588724E+00 -0.67391733349E+00  0.90007645797E+02  0.89999905921E+02 0.  0.
        -12    1    1    2    0    0  0.70835898226E+00 -0.66128588724E+00  0.67391733349E+00  0.11803542031E+01  0.00000000000E+00 0.  1.
         11    1    3    3    0    0  0.99230894451E+01  0.38165452616E+01 -0.24427765564E+01  0.10908752423E+02  0.51100000000E-03 0. -1.
        -11    1    3    3    0    0  0.10455950153E+02 -0.34233710784E+02  0.15639181816E+02  0.39062230553E+02  0.51100000000E-03 0.  1.
         12    1    3    3    0    0 -0.21087398581E+02  0.31078451410E+02 -0.13870322593E+02  0.40036662820E+02  0.00000000000E+00 0. -1.
</event>
<event>
 7    1  0.2429906E-015  0.9000772E+02  0.7816164E-02  0.1186339E+00
        -11   -1    0    0    0    0  0.00000000000E+00  0.00000000000E+00  0.45593999997E+02  0.45594000000E+02  0.51100000000E-03 0.  1.
         11   -1    0    0    0    0 -0.00000000000E+00 -0.00000000000E+00 -0.45593999997E+02  0.45594000000E+02  0.51100000000E-03 0. -1.
    9900012    2    1    2    0    0  0.34286763565E+00 -0.88885524825E+00 -0.69673000747E+00  0.90007722672E+02  0.89999983811E+02 0.  0.
        -12    1    1    2    0    0 -0.34286763565E+00  0.88885524825E+00  0.69673000747E+00  0.11802773281E+01  0.00000000000E+00 0.  1.
         11    1    3    3    0    0 -0.72813180899E+01 -0.85641812027E+00 -0.74557548015E+01  0.10456544604E+02  0.51100000000E-03 0. -1.
        -11    1    3    3    0    0 -0.30988966626E+02  0.75332240314E+00 -0.15832968264E+02  0.34807562849E+02  0.51100000000E-03 0.  1.
         12    1    3    3    0    0  0.38613152352E+02 -0.78575953112E+00  0.22591993058E+02  0.44743615219E+02  0.00000000000E+00 0. -1.
</event>
<event>
 7    1  0.2429906E-015  0.9000761E+02  0.7816164E-02  0.1186339E+00
        -11   -1    0    0    0    0  0.00000000000E+00  0.00000000000E+00  0.45593999997E+02  0.45594000000E+02  0.51100000000E-03 0.  1.
         11   -1    0    0    0    0 -0.00000000000E+00 -0.00000000000E+00 -0.45593999997E+02  0.45594000000E+02  0.51100000000E-03 0. -1.
    9900012    2    1    2    0    0  0.50797759558E+00 -0.10047422975E+01 -0.35463504215E+00  0.90007612633E+02  0.89999872320E+02 0.  0.
        -12    1    1    2    0    0 -0.50797759558E+00  0.10047422975E+01  0.35463504215E+00  0.11803873665E+01  0.00000000000E+00 0.  1.
         11    1    3    3    0    0  0.31256834345E+02 -0.12779125412E+02  0.92877874493E+01  0.35022260571E+02  0.51100000000E-03 0. -1.
        -11    1    3    3    0    0  0.96056609378E+01 -0.19555383391E+01  0.34526956787E+01  0.10392976473E+02  0.51100000000E-03 0.  1.
        -12    1    3    3    0    0 -0.40354517687E+02  0.13729921453E+02 -0.13095118170E+02  0.44592375590E+02  0.00000000000E+00 0.  1.
</event>
<event>
 7    1  0.2429906E-015  0.9000777E+02  0.7816164E-02  0.1186339E+00
        -11   -1    0    0    0    0  0.00000000000E+00  0.00000000000E+00  0.45593999997E+02  0.45594000000E+02  0.51100000000E-03 0.  1.
         11   -1    0    0    0    0 -0.00000000000E+00 -0.00000000000E+00 -0.45593999997E+02  0.45594000000E+02  0.51100000000E-03 0. -1.
    9900012    2    1    2    0    0 -0.88485531757E+00  0.32083264003E+00  0.71207284678E+00  0.90007766864E+02  0.90000028587E+02 0.  0.
        -12    1    1    2    0    0  0.88485531757E+00 -0.32083264003E+00 -0.71207284678E+00  0.11802331359E+01  0.00000000000E+00 0.  1.
         11    1    3    3    0    0  0.55217489984E+01  0.34351355834E+01 -0.78647319820E+01  0.10205090783E+02  0.51100000000E-03 0. -1.
        -11    1    3    3    0    0  0.17416876897E+02  0.35071400495E+00  0.37989875167E+02  0.41793554725E+02  0.51100000000E-03 0.  1.
         12    1    3    3    0    0 -0.23823481213E+02 -0.34650169484E+01 -0.29413070338E+02  0.38009121356E+02  0.00000000000E+00 0. -1.
</event>
<event>
 7    1  0.2429906E-015  0.9000777E+02  0.7816164E-02  0.1186339E+00
        -11   -1    0    0    0    0  0.00000000000E+00  0.00000000000E+00  0.45593999997E+02  0.45594000000E+02  0.51100000000E-03 0. -1.
         11   -1    0    0    0    0 -0.00000000000E+00 -0.00000000000E+00 -0.45593999997E+02  0.45594000000E+02  0.51100000000E-03 0.  1.
    9900012    2    1    2    0    0  0.10081421245E+01 -0.58723014837E+00  0.17819999608E+00  0.90007769078E+02  0.90000030830E+02 0.  0.
        -12    1    1    2    0    0 -0.10081421245E+01  0.58723014837E+00 -0.17819999608E+00  0.11802309219E+01  0.00000000000E+00 0.  1.
         11    1    3    3    0    0 -0.94536093849E+01 -0.15245338420E+02  0.31104120305E+02  0.35906230297E+02  0.51100000000E-03 0. -1.
        -11    1    3    3    0    0 -0.32534273858E+01 -0.54090788354E+01  0.67652526816E+01  0.92526519284E+01  0.51100000000E-03 0.  1.
        -12    1    3    3    0    0  0.13715178895E+02  0.20067187107E+02 -0.37691172991E+02  0.44848886853E+02  0.00000000000E+00 0.  1.
</event>
<event>
 7    1  0.2429906E-015  0.9000782E+02  0.7816164E-02  0.1186339E+00
        -11   -1    0    0    0    0  0.00000000000E+00  0.00000000000E+00  0.45593999997E+02  0.45594000000E+02  0.51100000000E-03 0.  1.
         11   -1    0    0    0    0 -0.00000000000E+00 -0.00000000000E+00 -0.45593999997E+02  0.45594000000E+02  0.51100000000E-03 0. -1.
    9900012    2    1    2    0    0 -0.16188480760E+00 -0.11685521044E+01 -0.33138646633E-01  0.90007822521E+02  0.90000084978E+02 0.  0.
        -12    1    1    2    0    0  0.16188480760E+00  0.11685521044E+01  0.33138646633E-01  0.11801774788E+01  0.00000000000E+00 0.  1.
         11    1    3    3    0    0  0.17978179759E+01  0.26609533144E+02  0.34849050074E+01  0.26896913703E+02  0.51100000000E-03 0. -1.
        -11    1    3    3    0    0  0.97500480906E+00 -0.43160574977E+01  0.25385349582E+02  0.25768099666E+02  0.51100000000E-03 0.  1.
         12    1    3    3    0    0 -0.29347075926E+01 -0.23462027750E+02 -0.28903393236E+02  0.37342809152E+02  0.00000000000E+00 0. -1.
</event>
<event>
 7    1  0.2429906E-015  0.9000783E+02  0.7816164E-02  0.1186339E+00
        -11   -1    0    0    0    0  0.00000000000E+00  0.00000000000E+00  0.45593999997E+02  0.45594000000E+02  0.51100000000E-03 0. -1.
         11   -1    0    0    0    0 -0.00000000000E+00 -0.00000000000E+00 -0.45593999997E+02  0.45594000000E+02  0.51100000000E-03 0.  1.
    9900012    2    1    2    0    0 -0.10555597380E+01 -0.26022162079E+00  0.45922521721E+00  0.90007826516E+02  0.90000089026E+02 0.  0.
        -12    1    1    2    0    0  0.10555597380E+01  0.26022162079E+00 -0.45922521721E+00  0.11801734841E+01  0.00000000000E+00 0.  1.
         11    1    3    3    0    0  0.14949134942E+01  0.28034602366E+01  0.58474741637E+01  0.66548561223E+01  0.51100000000E-03 0. -1.
        -11    1    3    3    0    0 -0.21839288426E+01  0.29511499980E+02  0.25048113558E+02  0.38769913197E+02  0.51100000000E-03 0.  1.
         12    1    3    3    0    0 -0.36654438963E+00 -0.32575181837E+02 -0.30436362504E+02  0.44583057197E+02  0.00000000000E+00 0. -1.
</event>
<event>
 7    1  0.2429906E-015  0.9000770E+02  0.7816164E-02  0.1186339E+00
        -11   -1    0    0    0    0  0.00000000000E+00  0.00000000000E+00  0.45593999997E+02  0.45594000000E+02  0.51100000000E-03 0. -1.
         11   -1    0    0    0    0 -0.00000000000E+00 -0.00000000000E+00 -0.45593999997E+02  0.45594000000E+02  0.51100000000E-03 0.  1.
    9900012    2    1    2    0    0 -0.34054572650E+00 -0.64404187953E+00  0.92862098499E+00  0.90007704161E+02  0.89999965056E+02 0.  0.
        -12    1    1    2    0    0  0.34054572650E+00  0.64404187953E+00 -0.92862098499E+00  0.11802958393E+01  0.00000000000E+00 0.  1.
         11    1    3    3    0    0 -0.24641982838E+01  0.24639651040E+02  0.24398188648E+02  0.34762857853E+02  0.51100000000E-03 0. -1.
        -11    1    3    3    0    0 -0.18863538009E+01  0.90982161336E+01  0.48864325858E+01  0.10498242289E+02  0.51100000000E-03 0.  1.
        -12    1    3    3    0    0  0.40100063582E+01 -0.34381909053E+02 -0.28356000249E+02  0.44746604019E+02  0.00000000000E+00 0.  1.
</event>
<event>
 7    1  0.2429906E-015  0.9000781E+02  0.7816164E-02  0.1186339E+00
        -11   -1    0    0    0    0  0.00000000000E+00  0.00000000000E+00  0.45593999997E+02  0.45594000000E+02  0.51100000000E-03 0.  1.
         11   -1    0    0    0    0 -0.00000000000E+00 -0.00000000000E+00 -0.45593999997E+02  0.45594000000E+02  0.51100000000E-03 0. -1.
    9900012    2    1    2    0    0  0.19027543134E+00 -0.11523590809E+01  0.16945059817E+00  0.90007809466E+02  0.90000071751E+02 0.  0.
        -12    1    1    2    0    0 -0.19027543134E+00  0.11523590809E+01 -0.16945059817E+00  0.11801905339E+01  0.00000000000E+00 0.  1.
         11    1    3    3    0    0  0.23507524605E+02  0.27710937843E+02 -0.10782403521E+01  0.36354674964E+02  0.51100000000E-03 0. -1.
        -11    1    3    3    0    0 -0.25931696849E+01  0.90774707182E+01  0.41744772176E+01  0.10322367168E+02  0.51100000000E-03 0.  1.
        -12    1    3    3    0    0 -0.20724079488E+02 -0.37940767642E+02 -0.29267862674E+01  0.43330767334E+02  0.00000000000E+00 0.  1.
</event>
<event>
 7    1  0.2429906E-015  0.9000775E+02  0.7816164E-02  0.1186339E+00
        -11   -1    0    0    0    0  0.00000000000E+00  0.00000000000E+00  0.45593999997E+02  0.45594000000E+02  0.51100000000E-03 0.  1.
         11   -1    0    0    0    0 -0.00000000000E+00 -0.00000000000E+00 -0.45593999997E+02  0.45594000000E+02  0.51100000000E-03 0. -1.
    9900012    2    1    2    0    0 -0.30723902731E+00  0.10325655225E+01 -0.48209182873E+00  0.90007745828E+02  0.90000007273E+02 0.  0.
        -12    1    1    2    0    0  0.30723902731E+00 -0.10325655225E+01  0.48209182873E+00  0.11802541716E+01  0.00000000000E+00 0.  1.
         11    1    3    3    0    0 -0.18405281979E+02 -0.30205727351E+02 -0.16133052870E+02  0.38876931009E+02  0.51100000000E-03 0. -1.
        -11    1    3    3    0    0 -0.46792924365E+01 -0.35729209198E+01  0.60391701736E+01  0.84340451891E+01  0.51100000000E-03 0.  1.
        -12    1    3    3    0    0  0.22777335388E+02  0.34811213794E+02  0.96117908673E+01  0.42696769630E+02  0.00000000000E+00 0.  1.
</event>
<event>
 7    1  0.2429906E-015  0.9000741E+02  0.7816164E-02  0.1186340E+00
        -11   -1    0    0    0    0  0.00000000000E+00  0.00000000000E+00  0.45593999997E+02  0.45594000000E+02  0.51100000000E-03 0. -1.
         11   -1    0    0    0    0 -0.00000000000E+00 -0.00000000000E+00 -0.45593999997E+02  0.45594000000E+02  0.51100000000E-03 0.  1.
    9900012    2    1    2    0    0  0.24548400904E-01  0.11698454927E+01  0.15699482793E+00  0.90007411809E+02  0.89999668844E+02 0.  0.
        -12    1    1    2    0    0 -0.24548400904E-01 -0.11698454927E+01 -0.15699482793E+00  0.11805881911E+01  0.00000000000E+00 0.  1.
         11    1    3    3    0    0 -0.73406719070E+01  0.25275663211E+02 -0.11055480487E+02  0.28547649008E+02  0.51100000000E-03 0. -1.
        -11    1    3    3    0    0 -0.64226049380E+00  0.15237726153E+02  0.14669365213E+02  0.21161074473E+02  0.51100000000E-03 0.  1.
        -12    1    3    3    0    0  0.80074808017E+01 -0.39343543871E+02 -0.34568898982E+01  0.40298688328E+02  0.00000000000E+00 0.  1.
</event>
<event>
 7    1  0.2429906E-015  0.9000789E+02  0.7816164E-02  0.1186339E+00
        -11   -1    0    0    0    0  0.00000000000E+00  0.00000000000E+00  0.45593999997E+02  0.45594000000E+02  0.51100000000E-03 0.  1.
         11   -1    0    0    0    0 -0.00000000000E+00 -0.00000000000E+00 -0.45593999997E+02  0.45594000000E+02  0.51100000000E-03 0. -1.
    9900012    2    1    2    0    0 -0.53175207456E+00 -0.78571245608E+00 -0.70181575327E+00  0.90007894206E+02  0.90000157610E+02 0.  0.
        -12    1    1    2    0    0  0.53175207456E+00  0.78571245608E+00  0.70181575327E+00  0.11801057936E+01  0.00000000000E+00 0.  1.
         11    1    3    3    0    0 -0.24678221010E+02 -0.10411974178E+02  0.24257287799E+02  0.36136405606E+02  0.51100000000E-03 0. -1.
        -11    1    3    3    0    0  0.61461131244E+01  0.53076040308E+01  0.10854937725E+02  0.13556365308E+02  0.51100000000E-03 0.  1.
        -12    1    3    3    0    0  0.18000355811E+02  0.43186576908E+01 -0.35814041277E+02  0.40315123293E+02  0.00000000000E+00 0.  1.
</event>
<event>
 7    1  0.2429906E-015  0.9000772E+02  0.7816164E-02  0.1186339E+00
        -11   -1    0    0    0    0  0.00000000000E+00  0.00000000000E+00  0.45593999997E+02  0.45594000000E+02  0.51100000000E-03 0.  1.
         11   -1    0    0    0    0 -0.00000000000E+00 -0.00000000000E+00 -0.45593999997E+02  0.45594000000E+02  0.51100000000E-03 0. -1.
    9900012    2    1    2    0    0 -0.92603233656E+00 -0.41226565681E+00 -0.60461941808E+00  0.90007718889E+02  0.89999979978E+02 0.  0.
        -12    1    1    2    0    0  0.92603233656E+00  0.41226565681E+00  0.60461941808E+00  0.11802811110E+01  0.00000000000E+00 0.  1.
         11    1    3    3    0    0  0.21109574726E+02  0.29836447170E+01 -0.22608961353E+02  0.31075414955E+02  0.51100000000E-03 0. -1.
        -11    1    3    3    0    0 -0.50572140091E+01 -0.27143171887E+01 -0.16163845093E+02  0.17152633028E+02  0.51100000000E-03 0.  1.
        -12    1    3    3    0    0 -0.16978393054E+02 -0.68159318507E+00  0.38168187028E+02  0.41779670906E+02  0.00000000000E+00 0.  1.
</event>
<event>
 7    1  0.2429906E-015  0.9000775E+02  0.7816164E-02  0.1186339E+00
        -11   -1    0    0    0    0  0.00000000000E+00  0.00000000000E+00  0.45593999997E+02  0.45594000000E+02  0.51100000000E-03 0.  1.
         11   -1    0    0    0    0 -0.00000000000E+00 -0.00000000000E+00 -0.45593999997E+02  0.45594000000E+02  0.51100000000E-03 0. -1.
    9900012    2    1    2    0    0  0.16049713529E+00  0.30394486512E-01 -0.11688931368E+01  0.90007748196E+02  0.90000009672E+02 0.  0.
        -12    1    1    2    0    0 -0.16049713529E+00 -0.30394486512E-01  0.11688931368E+01  0.11802518038E+01  0.00000000000E+00 0.  1.
         11    1    3    3    0    0  0.49979057660E+01  0.35811344084E+02 -0.36906484789E+01  0.36346283354E+02  0.51100000000E-03 0. -1.
        -11    1    3    3    0    0 -0.16673570788E+01  0.80593921110E+01 -0.41266691649E+01  0.92066975341E+01  0.51100000000E-03 0.  1.
        -12    1    3    3    0    0 -0.31700515519E+01 -0.43840341709E+02  0.66484245071E+01  0.44454767308E+02  0.00000000000E+00 0.  1.
</event>
<event>
 7    1  0.2429906E-015  0.9000771E+02  0.7816164E-02  0.1186339E+00
        -11   -1    0    0    0    0  0.00000000000E+00  0.00000000000E+00  0.45593999997E+02  0.45594000000E+02  0.51100000000E-03 0.  1.
         11   -1    0    0    0    0 -0.00000000000E+00 -0.00000000000E+00 -0.45593999997E+02  0.45594000000E+02  0.51100000000E-03 0. -1.
    9900012    2    1    2    0    0  0.14573934746E+00 -0.27421393637E+00 -0.11387067908E+01  0.90007709190E+02  0.89999970151E+02 0.  0.
        -12    1    1    2    0    0 -0.14573934746E+00  0.27421393637E+00  0.11387067908E+01  0.11802908098E+01  0.00000000000E+00 0.  1.
         11    1    3    3    0    0 -0.72020767385E+01 -0.35331434479E+01 -0.65940623325E+01  0.10384347369E+02  0.51100000000E-03 0. -1.
        -11    1    3    3    0    0  0.31426694279E+02 -0.10411974459E+02 -0.22694165952E+02  0.40138155089E+02  0.51100000000E-03 0.  1.
         12    1    3    3    0    0 -0.24078878193E+02  0.13670903971E+02  0.28149521493E+02  0.39485206732E+02  0.00000000000E+00 0. -1.
</event>
<event>
 7    1  0.2429906E-015  0.9000774E+02  0.7816164E-02  0.1186339E+00
        -11   -1    0    0    0    0  0.00000000000E+00  0.00000000000E+00  0.45593999997E+02  0.45594000000E+02  0.51100000000E-03 0. -1.
         11   -1    0    0    0    0 -0.00000000000E+00 -0.00000000000E+00 -0.45593999997E+02  0.45594000000E+02  0.51100000000E-03 0.  1.
    9900012    2    1    2    0    0 -0.47026645329E+00  0.49218446581E+00 -0.96416828624E+00  0.90007738771E+02  0.90000000122E+02 0.  0.
        -12    1    1    2    0    0  0.47026645329E+00 -0.49218446581E+00  0.96416828624E+00  0.11802612294E+01  0.00000000000E+00 0.  1.
         11    1    3    3    0    0  0.85017921737E+01  0.20670852203E+01  0.54923365168E+00  0.87666966035E+01  0.51100000000E-03 0. -1.
        -11    1    3    3    0    0 -0.53029132017E-01 -0.37423774573E+02  0.15578685687E+02  0.40536861785E+02  0.51100000000E-03 0.  1.
         12    1    3    3    0    0 -0.89190294949E+01  0.35848873819E+02 -0.17092087624E+02  0.40704180382E+02  0.00000000000E+00 0. -1.
</event>
<event>
 7    1  0.2429906E-015  0.9000782E+02  0.7816164E-02  0.1186339E+00
        -11   -1    0    0    0    0  0.00000000000E+00  0.00000000000E+00  0.45593999997E+02  0.45594000000E+02  0.51100000000E-03 0.  1.
         11   -1    0    0    0    0 -0.00000000000E+00 -0.00000000000E+00 -0.45593999997E+02  0.45594000000E+02  0.51100000000E-03 0. -1.
    9900012    2    1    2    0    0  0.69401569374E+00  0.25323846090E+00 -0.92035180695E+00  0.90007815714E+02  0.90000078081E+02 0.  0.
        -12    1    1    2    0    0 -0.69401569374E+00 -0.25323846090E+00  0.92035180695E+00  0.11801842864E+01  0.00000000000E+00 0.  1.
         11    1    3    3    0    0 -0.37576018579E+01  0.65765155757E+01  0.54106176002E+01  0.93083248716E+01  0.51100000000E-03 0. -1.
        -11    1    3    3    0    0  0.40817901222E+02 -0.14188834046E+02 -0.44986151526E+01  0.43447227878E+02  0.51100000000E-03 0.  1.
         12    1    3    3    0    0 -0.36366283670E+02  0.78655569314E+01 -0.18323542545E+01  0.37252262964E+02  0.00000000000E+00 0. -1.
</event>
<event>
 7    1  0.2429906E-015  0.9000798E+02  0.7816164E-02  0.1186339E+00
        -11   -1    0    0    0    0  0.00000000000E+00  0.00000000000E+00  0.45593999997E+02  0.45594000000E+02  0.51100000000E-03 0.  1.
         11   -1    0    0    0    0 -0.00000000000E+00 -0.00000000000E+00 -0.45593999997E+02  0.45594000000E+02  0.51100000000E-03 0. -1.
    9900012    2    1    2    0    0  0.76509038652E+00 -0.86993550797E+00 -0.22425400687E+00  0.90007982650E+02  0.90000247220E+02 0.  0.
        -12    1    1    2    0    0 -0.76509038652E+00  0.86993550797E+00  0.22425400687E+00  0.11800173504E+01  0.00000000000E+00 0.  1.
         11    1    3    3    0    0  0.20253114736E+02 -0.23467035789E+02 -0.18141397310E+02  0.35916580041E+02  0.51100000000E-03 0. -1.
        -11    1    3    3    0    0  0.56851456011E+01  0.20915706676E+01 -0.97203623879E+01  0.11453427154E+02  0.51100000000E-03 0.  1.
        -12    1    3    3    0    0 -0.25173169951E+02  0.20505529613E+02  0.27637505691E+02  0.42637975455E+02  0.00000000000E+00 0.  1.
</event>
<event>
 7    1  0.2429906E-015  0.9000783E+02  0.7816164E-02  0.1186339E+00
        -11   -1    0    0    0    0  0.00000000000E+00  0.00000000000E+00  0.45593999997E+02  0.45594000000E+02  0.51100000000E-03 0. -1.
         11   -1    0    0    0    0 -0.00000000000E+00 -0.00000000000E+00 -0.45593999997E+02  0.45594000000E+02  0.51100000000E-03 0.  1.
    9900012    2    1    2    0    0 -0.56215469869E+00 -0.10028867622E+00 -0.10328222674E+01  0.90007831554E+02  0.90000094131E+02 0.  0.
        -12    1    1    2    0    0  0.56215469869E+00  0.10028867622E+00  0.10328222674E+01  0.11801684456E+01  0.00000000000E+00 0.  1.
         11    1    3    3    0    0  0.10046433867E+02  0.99199770071E+00 -0.12096159266E+01  0.10167500373E+02  0.51100000000E-03 0. -1.
        -11    1    3    3    0    0  0.29976184448E+02 -0.15915986467E+01 -0.18393992019E+02  0.35205734802E+02  0.51100000000E-03 0.  1.
         12    1    3    3    0    0 -0.40584773013E+02  0.49931226977E+00  0.18570785678E+02  0.44634596380E+02  0.00000000000E+00 0. -1.
</event>
<event>
 7    1  0.2429906E-015  0.9000798E+02  0.7816164E-02  0.1186339E+00
        -11   -1    0    0    0    0  0.00000000000E+00  0.00000000000E+00  0.45593999997E+02  0.45594000000E+02  0.51100000000E-03 0.  1.
         11   -1    0    0    0    0 -0.00000000000E+00 -0.00000000000E+00 -0.45593999997E+02  0.45594000000E+02  0.51100000000E-03 0. -1.
    9900012    2    1    2    0    0 -0.65919637609E-01 -0.46140400752E+00 -0.10840730457E+01  0.90007977362E+02  0.90000241863E+02 0.  0.
        -12    1    1    2    0    0  0.65919637609E-01  0.46140400752E+00  0.10840730457E+01  0.11800226376E+01  0.00000000000E+00 0.  1.
         11    1    3    3    0    0 -0.33411926486E+02  0.20855905157E+02 -0.17897208938E+02  0.43262405151E+02  0.51100000000E-03 0. -1.
        -11    1    3    3    0    0  0.25475358561E+01 -0.42389014614E+01  0.95981708044E+01  0.10797365771E+02  0.51100000000E-03 0.  1.
        -12    1    3    3    0    0  0.30798470992E+02 -0.17078407703E+02  0.72149650881E+01  0.35948206441E+02  0.00000000000E+00 0.  1.
</event>
<event>
 7    1  0.2429906E-015  0.9000776E+02  0.7816164E-02  0.1186339E+00
        -11   -1    0    0    0    0  0.00000000000E+00  0.00000000000E+00  0.45593999997E+02  0.45594000000E+02  0.51100000000E-03 0.  1.
         11   -1    0    0    0    0 -0.00000000000E+00 -0.00000000000E+00 -0.45593999997E+02  0.45594000000E+02  0.51100000000E-03 0. -1.
    9900012    2    1    2    0    0 -0.16254816533E+00  0.11621186400E+01  0.12658674812E+00  0.90007760260E+02  0.90000021895E+02 0.  0.
        -12    1    1    2    0    0  0.16254816533E+00 -0.11621186400E+01 -0.12658674812E+00  0.11802397401E+01  0.00000000000E+00 0.  1.
         11    1    3    3    0    0  0.13883773458E+01  0.21158385728E+01  0.90545615107E+01  0.94015663021E+01  0.51100000000E-03 0. -1.
        -11    1    3    3    0    0 -0.20663638036E+02  0.16477438904E+02  0.26045318903E+02  0.37105937082E+02  0.51100000000E-03 0.  1.
         12    1    3    3    0    0  0.19112712525E+02 -0.17431158837E+02 -0.34973293665E+02  0.43500256876E+02  0.00000000000E+00 0. -1.
</event>
<event>
 7    1  0.2429906E-015  0.9000773E+02  0.7816164E-02  0.1186339E+00
        -11   -1    0    0    0    0  0.00000000000E+00  0.00000000000E+00  0.45593999997E+02  0.45594000000E+02  0.51100000000E-03 0.  1.
         11   -1    0    0    0    0 -0.00000000000E+00 -0.00000000000E+00 -0.45593999997E+02  0.45594000000E+02  0.51100000000E-03 0. -1.
    9900012    2    1    2    0    0 -0.28836620352E+00 -0.11125394621E+01 -0.26859008295E+00  0.90007728949E+02  0.89999990171E+02 0.  0.
        -12    1    1    2    0    0  0.28836620352E+00  0.11125394621E+01  0.26859008295E+00  0.11802710514E+01  0.00000000000E+00 0.  1.
         11    1    3    3    0    0  0.45293697316E+01  0.93852013195E+01 -0.22498655190E+01  0.10661101683E+02  0.51100000000E-03 0. -1.
        -11    1    3    3    0    0 -0.36635331251E+02  0.11740008849E+02 -0.79378776579E+01  0.39280850368E+02  0.51100000000E-03 0.  1.
         12    1    3    3    0    0  0.31817595316E+02 -0.22237749631E+02  0.99191530940E+01  0.40065776898E+02  0.00000000000E+00 0. -1.
</event>
<event>
 7    1  0.3174608E-015  0.9000765E+02  0.7816164E-02  0.1186339E+00
        -11   -1    0    0    0    0  0.00000000000E+00  0.00000000000E+00  0.45593999997E+02  0.45594000000E+02  0.51100000000E-03 0. -1.
         11   -1    0    0    0    0 -0.00000000000E+00 -0.00000000000E+00 -0.45593999997E+02  0.45594000000E+02  0.51100000000E-03 0.  1.
    9900012    2    1    2    0    0  0.25265129825E+00 -0.18264341545E+00  0.11384341374E+01  0.90007651077E+02  0.89999911271E+02 0.  0.
        -12    1    1    2    0    0 -0.25265129825E+00  0.18264341545E+00 -0.11384341374E+01  0.11803489233E+01  0.00000000000E+00 0.  1.
         11    1    3    3    0    0 -0.87956713417E+01 -0.10442403005E+02  0.41260624106E+02  0.43460864197E+02  0.51100000000E-03 0. -1.
        -11    1    3    3    0    0 -0.32433940011E+01 -0.37225554895E+01 -0.95913958259E+01  0.10787580737E+02  0.51100000000E-03 0.  1.
        -12    1    3    3    0    0  0.12291716641E+02  0.13982315079E+02 -0.30530794143E+02  0.35759206142E+02  0.00000000000E+00 0.  1.
</event>
<event>
 7    1  0.3352691E-015  0.9000801E+02  0.7816164E-02  0.1186339E+00
        -11   -1    0    0    0    0  0.00000000000E+00  0.00000000000E+00  0.45593999997E+02  0.45594000000E+02  0.51100000000E-03 0. -1.
         11   -1    0    0    0    0 -0.00000000000E+00 -0.00000000000E+00 -0.45593999997E+02  0.45594000000E+02  0.51100000000E-03 0.  1.
    9900012    2    1    2    0    0  0.86813836828E+00  0.71570333446E+00  0.35563656724E+00  0.90008011501E+02  0.90000276453E+02 0.  0.
        -12    1    1    2    0    0 -0.86813836828E+00 -0.71570333446E+00 -0.35563656724E+00  0.11799884988E+01  0.00000000000E+00 0.  1.
         11    1    3    3    0    0  0.56989960693E+01 -0.38872504741E+02  0.12176656295E+02  0.41131753425E+02  0.51100000000E-03 0. -1.
        -11    1    3    3    0    0  0.84141196821E+01  0.38326719793E+01 -0.14297002491E+01  0.93557911257E+01  0.51100000000E-03 0.  1.
        -12    1    3    3    0    0 -0.13244977383E+02  0.35755536097E+02 -0.10391319479E+02  0.39520466950E+02  0.00000000000E+00 0.  1.
</event>
<event>
 7    1  0.2429906E-015  0.9000800E+02  0.7816164E-02  0.1186339E+00
        -11   -1    0    0    0    0  0.00000000000E+00  0.00000000000E+00  0.45593999997E+02  0.45594000000E+02  0.51100000000E-03 0. -1.
         11   -1    0    0    0    0 -0.00000000000E+00 -0.00000000000E+00 -0.45593999997E+02  0.45594000000E+02  0.51100000000E-03 0.  1.
    9900012    2    1    2    0    0 -0.33521655831E+00 -0.17393085269E+00  0.11179353029E+01  0.90007999397E+02  0.90000264188E+02 0.  0.
        -12    1    1    2    0    0  0.33521655831E+00  0.17393085269E+00 -0.11179353029E+01  0.11800006034E+01  0.00000000000E+00 0.  1.
         11    1    3    3    0    0 -0.11834450098E+01 -0.15617397967E+02 -0.12421024331E+02  0.19989634990E+02  0.51100000000E-03 0. -1.
        -11    1    3    3    0    0 -0.17077088900E+02 -0.17559917932E+02 -0.91409189150E+01  0.26144484733E+02  0.51100000000E-03 0.  1.
         12    1    3    3    0    0  0.17925317351E+02  0.33003385046E+02  0.22679878549E+02  0.43873879674E+02  0.00000000000E+00 0. -1.
</event>
<event>
 7    1  0.2429906E-015  0.9000773E+02  0.7816164E-02  0.1186339E+00
        -11   -1    0    0    0    0  0.00000000000E+00  0.00000000000E+00  0.45593999997E+02  0.45594000000E+02  0.51100000000E-03 0. -1.
         11   -1    0    0    0    0 -0.00000000000E+00 -0.00000000000E+00 -0.45593999997E+02  0.45594000000E+02  0.51100000000E-03 0.  1.
    9900012    2    1    2    0    0  0.41000825300E+00 -0.39226991088E+00  0.10349128665E+01  0.90007734313E+02  0.89999995606E+02 0.  0.
        -12    1    1    2    0    0 -0.41000825300E+00  0.39226991088E+00 -0.10349128665E+01  0.11802656870E+01  0.00000000000E+00 0.  1.
         11    1    3    3    0    0  0.73711696452E+01  0.50969692475E+01  0.21922984353E+01  0.92260181085E+01  0.51100000000E-03 0. -1.
        -11    1    3    3    0    0  0.59111627727E+01  0.23113068387E+02 -0.29891170591E+02  0.38244448685E+02  0.51100000000E-03 0.  1.
         12    1    3    3    0    0 -0.12872324165E+02 -0.28602307546E+02  0.28733785023E+02  0.42537267520E+02  0.00000000000E+00 0. -1.
</event>
<event>
 7    1  0.2429906E-015  0.9000775E+02  0.7816164E-02  0.1186339E+00
        -11   -1    0    0    0    0  0.00000000000E+00  0.00000000000E+00  0.45593999997E+02  0.45594000000E+02  0.51100000000E-03 0. -1.
         11   -1    0    0    0    0 -0.00000000000E+00 -0.00000000000E+00 -0.45593999997E+02  0.45594000000E+02  0.51100000000E-03 0.  1.
    9900012    2    1    2    0    0  0.39193561337E+00  0.10191195380E+01  0.44808635874E+00  0.90007745984E+02  0.90000007431E+02 0.  0.
        -12    1    1    2    0    0 -0.39193561337E+00 -0.10191195380E+01 -0.44808635874E+00  0.11802540162E+01  0.00000000000E+00 0.  1.
         11    1    3    3    0    0  0.15417414337E+00  0.74735172319E+01 -0.40978937456E+01  0.85246679051E+01  0.51100000000E-03 0. -1.
        -11    1    3    3    0    0 -0.16710854358E+02  0.21944430330E+02 -0.24931894023E+02  0.37180774813E+02  0.51100000000E-03 0.  1.
         12    1    3    3    0    0  0.16948615828E+02 -0.28398828024E+02  0.29477874127E+02  0.44302303266E+02  0.00000000000E+00 0. -1.
</event>
<event>
 7    1  0.2429906E-015  0.9000766E+02  0.7816164E-02  0.1186339E+00
        -11   -1    0    0    0    0  0.00000000000E+00  0.00000000000E+00  0.45593999997E+02  0.45594000000E+02  0.51100000000E-03 0. -1.
         11   -1    0    0    0    0 -0.00000000000E+00 -0.00000000000E+00 -0.45593999997E+02  0.45594000000E+02  0.51100000000E-03 0.  1.
    9900012    2    1    2    0    0  0.10503244140E+01  0.44379306534E+00  0.30505745843E+00  0.90007663729E+02  0.89999924090E+02 0.  0.
        -12    1    1    2    0    0 -0.10503244140E+01 -0.44379306534E+00 -0.30505745843E+00  0.11803362709E+01  0.00000000000E+00 0.  1.
         11    1    3    3    0    0 -0.90549254812E+01  0.29917846925E+01  0.28550238085E+01  0.99545774559E+01  0.51100000000E-03 0. -1.
        -11    1    3    3    0    0 -0.74507062588E+01  0.26175955500E+02  0.24691652234E+02  0.36747399370E+02  0.51100000000E-03 0.  1.
         12    1    3    3    0    0  0.17555956154E+02 -0.28723947128E+02 -0.27241618585E+02  0.43305686903E+02  0.00000000000E+00 0. -1.
</event>
<event>
 7    1  0.2429906E-015  0.9000776E+02  0.7816164E-02  0.1186339E+00
        -11   -1    0    0    0    0  0.00000000000E+00  0.00000000000E+00  0.45593999997E+02  0.45594000000E+02  0.51100000000E-03 0. -1.
         11   -1    0    0    0    0 -0.00000000000E+00 -0.00000000000E+00 -0.45593999997E+02  0.45594000000E+02  0.51100000000E-03 0.  1.
    9900012    2    1    2    0    0 -0.63251105435E+00 -0.47062748284E+00  0.87829626329E+00  0.90007760707E+02  0.90000022349E+02 0.  0.
        -12    1    1    2    0    0  0.63251105435E+00  0.47062748284E+00 -0.87829626329E+00  0.11802392925E+01  0.00000000000E+00 0.  1.
         11    1    3    3    0    0  0.14371651727E+02 -0.13058241471E+01  0.41047447971E+02  0.43510257816E+02  0.51100000000E-03 0. -1.
        -11    1    3    3    0    0 -0.68346443203E+01  0.47529407177E+01 -0.40470039963E+01  0.92564058931E+01  0.51100000000E-03 0.  1.
        -12    1    3    3    0    0 -0.81695184612E+01 -0.39177440535E+01 -0.36122147711E+02  0.37241096998E+02  0.00000000000E+00 0.  1.
</event>
<event>
 7    1  0.2429906E-015  0.9000759E+02  0.7816164E-02  0.1186339E+00
        -11   -1    0    0    0    0  0.00000000000E+00  0.00000000000E+00  0.45593999997E+02  0.45594000000E+02  0.51100000000E-03 0.  1.
         11   -1    0    0    0    0 -0.00000000000E+00 -0.00000000000E+00 -0.45593999997E+02  0.45594000000E+02  0.51100000000E-03 0. -1.
    9900012    2    1    2    0    0  0.11759414491E+01 -0.54903280131E-01  0.86659280916E-01  0.90007592234E+02  0.89999851652E+02 0.  0.
        -12    1    1    2    0    0 -0.11759414491E+01  0.54903280131E-01 -0.86659280916E-01  0.11804077655E+01  0.00000000000E+00 0.  1.
         11    1    3    3    0    0 -0.72782559758E+01 -0.60958480648E+01 -0.43129945885E+01  0.10427573843E+02  0.51100000000E-03 0. -1.
        -11    1    3    3    0    0 -0.32471253226E+02 -0.60805185147E+01  0.13919593812E+02  0.35848432094E+02  0.51100000000E-03 0.  1.
         12    1    3    3    0    0  0.40925450651E+02  0.12121463299E+02 -0.95199399425E+01  0.43731586297E+02  0.00000000000E+00 0. -1.
</event>
<event>
 7    1  0.2429906E-015  0.9000752E+02  0.7816164E-02  0.1186339E+00
        -11   -1    0    0    0    0  0.00000000000E+00  0.00000000000E+00  0.45593999997E+02  0.45594000000E+02  0.51100000000E-03 0. -1.
         11   -1    0    0    0    0 -0.00000000000E+00 -0.00000000000E+00 -0.45593999997E+02  0.45594000000E+02  0.51100000000E-03 0.  1.
    9900012    2    1    2    0    0 -0.69486321319E+00 -0.80265256994E+00  0.51619587979E+00  0.90007515261E+02  0.89999773662E+02 0.  0.
        -12    1    1    2    0    0  0.69486321319E+00  0.80265256994E+00 -0.51619587979E+00  0.11804847392E+01  0.00000000000E+00 0.  1.
         11    1    3    3    0    0  0.57746462478E+01 -0.43594790881E+01 -0.43325807203E+01  0.84334366166E+01  0.51100000000E-03 0. -1.
        -11    1    3    3    0    0  0.31454820426E+02 -0.11737415083E+02 -0.14212253016E+02  0.36457657315E+02  0.51100000000E-03 0.  1.
         12    1    3    3    0    0 -0.37924329887E+02  0.15294241601E+02  0.19061029616E+02  0.45116421329E+02  0.00000000000E+00 0. -1.
</event>
<event>
 7    1  0.2429906E-015  0.9000789E+02  0.7816164E-02  0.1186339E+00
        -11   -1    0    0    0    0  0.00000000000E+00  0.00000000000E+00  0.45593999997E+02  0.45594000000E+02  0.51100000000E-03 0.  1.
         11   -1    0    0    0    0 -0.00000000000E+00 -0.00000000000E+00 -0.45593999997E+02  0.45594000000E+02  0.51100000000E-03 0. -1.
    9900012    2    1    2    0    0  0.86452884539E+00  0.80158102309E+00 -0.52229885956E-01  0.90007885505E+02  0.90000148793E+02 0.  0.
        -12    1    1    2    0    0 -0.86452884539E+00 -0.80158102309E+00  0.52229885956E-01  0.11801144953E+01  0.00000000000E+00 0.  1.
         11    1    3    3    0    0  0.66074161194E+01 -0.48943883561E+01 -0.38866895008E+02  0.39727176001E+02  0.51100000000E-03 0. -1.
        -11    1    3    3    0    0  0.86904452957E+01  0.17131549652E+01  0.19465528775E+00  0.88598324090E+01  0.51100000000E-03 0.  1.
        -12    1    3    3    0    0 -0.14433332570E+02  0.39828144140E+01  0.38620009834E+02  0.41420877095E+02  0.00000000000E+00 0.  1.
</event>
<event>
 7    1  0.2429906E-015  0.9000776E+02  0.7816164E-02  0.1186339E+00
        -11   -1    0    0    0    0  0.00000000000E+00  0.00000000000E+00  0.45593999997E+02  0.45594000000E+02  0.51100000000E-03 0. -1.
         11   -1    0    0    0    0 -0.00000000000E+00 -0.00000000000E+00 -0.45593999997E+02  0.45594000000E+02  0.51100000000E-03 0.  1.
    9900012    2    1    2    0    0  0.10132206162E+01 -0.60114182866E+00 -0.70629528827E-01  0.90007755938E+02  0.90000017517E+02 0.  0.
        -12    1    1    2    0    0 -0.10132206162E+01  0.60114182866E+00  0.70629528827E-01  0.11802440618E+01  0.00000000000E+00 0.  1.
         11    1    3    3    0    0  0.21116477124E+00  0.44726581607E+01 -0.74681437012E+01  0.87076077189E+01  0.51100000000E-03 0. -1.
        -11    1    3    3    0    0 -0.39856610227E+02 -0.29581620918E+00  0.62568274118E+01  0.40345814846E+02  0.51100000000E-03 0.  1.
         12    1    3    3    0    0  0.40658666072E+02 -0.47779837801E+01  0.11406867606E+01  0.40954333373E+02  0.00000000000E+00 0. -1.
</event>
<event>
 7    1  0.2429906E-015  0.9000768E+02  0.7816164E-02  0.1186339E+00
        -11   -1    0    0    0    0  0.00000000000E+00  0.00000000000E+00  0.45593999997E+02  0.45594000000E+02  0.51100000000E-03 0. -1.
         11   -1    0    0    0    0 -0.00000000000E+00 -0.00000000000E+00 -0.45593999997E+02  0.45594000000E+02  0.51100000000E-03 0.  1.
    9900012    2    1    2    0    0 -0.94591078410E-01 -0.23867071464E+00  0.11520604144E+01  0.90007680390E+02  0.89999940972E+02 0.  0.
        -12    1    1    2    0    0  0.94591078410E-01  0.23867071464E+00 -0.11520604144E+01  0.11803196095E+01  0.00000000000E+00 0.  1.
         11    1    3    3    0    0 -0.39428679094E+01 -0.39414982803E+02 -0.36216209782E+01  0.39776918125E+02  0.51100000000E-03 0. -1.
        -11    1    3    3    0    0  0.88609031274E+01 -0.15004241025E+01  0.15502664164E+01  0.91197698953E+01  0.51100000000E-03 0.  1.
        -12    1    3    3    0    0 -0.50126262964E+01  0.40676736191E+02  0.32234149763E+01  0.41110992370E+02  0.00000000000E+00 0.  1.
</event>
<event>
 7    1  0.2429906E-015  0.9000772E+02  0.7816164E-02  0.1186339E+00
        -11   -1    0    0    0    0  0.00000000000E+00  0.00000000000E+00  0.45593999997E+02  0.45594000000E+02  0.51100000000E-03 0. -1.
         11   -1    0    0    0    0 -0.00000000000E+00 -0.00000000000E+00 -0.45593999997E+02  0.45594000000E+02  0.51100000000E-03 0.  1.
    9900012    2    1    2    0    0 -0.14671824336E+00 -0.69071377206E+00  0.94575708834E+00  0.90007716887E+02  0.89999977949E+02 0.  0.
        -12    1    1    2    0    0  0.14671824336E+00  0.69071377206E+00 -0.94575708834E+00  0.11802831135E+01  0.00000000000E+00 0.  1.
         11    1    3    3    0    0 -0.10978683636E+02  0.12118835941E+02  0.88238650809E+01  0.18581126827E+02  0.51100000000E-03 0.  1.
        -11    1    3    3    0    0 -0.19746344778E+02 -0.28085865001E+02  0.54030420600E+01  0.34755241456E+02  0.51100000000E-03 0. -1.
        -12    1    3    3    0    0  0.30578310170E+02  0.15276315288E+02 -0.13281150053E+02  0.36671348603E+02  0.00000000000E+00 0.  1.
</event>
<event>
 7    1  0.2429906E-015  0.9000835E+02  0.7816164E-02  0.1186338E+00
        -11   -1    0    0    0    0  0.00000000000E+00  0.00000000000E+00  0.45593999997E+02  0.45594000000E+02  0.51100000000E-03 0. -1.
         11   -1    0    0    0    0 -0.00000000000E+00 -0.00000000000E+00 -0.45593999997E+02  0.45594000000E+02  0.51100000000E-03 0.  1.
    9900012    2    1    2    0    0 -0.88551510589E+00 -0.27177207304E+00 -0.73045620052E+00  0.90008354577E+02  0.90000624056E+02 0.  0.
        -12    1    1    2    0    0  0.88551510589E+00  0.27177207304E+00  0.73045620052E+00  0.11796454227E+01  0.00000000000E+00 0.  1.
         11    1    3    3    0    0  0.15158541162E+02 -0.13598271929E+02 -0.34217541981E+02  0.39818771316E+02  0.51100000000E-03 0. -1.
        -11    1    3    3    0    0  0.78151476574E+00  0.92850263801E+01 -0.30150783357E+01  0.97935273441E+01  0.51100000000E-03 0.  1.
        -12    1    3    3    0    0 -0.16825571033E+02  0.40414734761E+01  0.36502164117E+02  0.40396055917E+02  0.00000000000E+00 0.  1.
</event>
<event>
 7    1  0.2429906E-015  0.9000775E+02  0.7816164E-02  0.1186339E+00
        -11   -1    0    0    0    0  0.00000000000E+00  0.00000000000E+00  0.45593999997E+02  0.45594000000E+02  0.51100000000E-03 0. -1.
         11   -1    0    0    0    0 -0.00000000000E+00 -0.00000000000E+00 -0.45593999997E+02  0.45594000000E+02  0.51100000000E-03 0.  1.
    9900012    2    1    2    0    0  0.11503954501E+01 -0.25684272887E+00 -0.60137544425E-01  0.90007748161E+02  0.90000009637E+02 0.  0.
        -12    1    1    2    0    0 -0.11503954501E+01  0.25684272887E+00  0.60137544425E-01  0.11802518389E+01  0.00000000000E+00 0.  1.
         11    1    3    3    0    0  0.39837118425E+01  0.13703488562E+02  0.75983688295E+01  0.16167583862E+02  0.51100000000E-03 0. -1.
        -11    1    3    3    0    0  0.20526058443E+01 -0.14179368147E+02 -0.39296269738E+02  0.41826600237E+02  0.51100000000E-03 0.  1.
         12    1    3    3    0    0 -0.48859222367E+01  0.21903685678E+00  0.31637763364E+02  0.32013564062E+02  0.00000000000E+00 0. -1.
</event>
<event>
 7    1  0.2429906E-015  0.9000773E+02  0.7816164E-02  0.1186339E+00
        -11   -1    0    0    0    0  0.00000000000E+00  0.00000000000E+00  0.45593999997E+02  0.45594000000E+02  0.51100000000E-03 0.  1.
         11   -1    0    0    0    0 -0.00000000000E+00 -0.00000000000E+00 -0.45593999997E+02  0.45594000000E+02  0.51100000000E-03 0. -1.
    9900012    2    1    2    0    0  0.69662948338E-01  0.14830998624E+00 -0.11688367527E+01  0.90007733872E+02  0.89999995159E+02 0.  0.
        -12    1    1    2    0    0 -0.69662948338E-01 -0.14830998624E+00  0.11688367527E+01  0.11802661280E+01  0.00000000000E+00 0.  1.
         11    1    3    3    0    0  0.15918026064E+02  0.35034012647E+02 -0.16441175871E+01  0.38515824265E+02  0.51100000000E-03 0. -1.
        -11    1    3    3    0    0 -0.50899226078E+01  0.28210396351E+01 -0.94003854683E+01  0.11055895440E+02  0.51100000000E-03 0.  1.
        -12    1    3    3    0    0 -0.10758440508E+02 -0.37706742296E+02  0.98756663027E+01  0.40436014166E+02  0.00000000000E+00 0.  1.
</event>
<event>
 7    1  0.2429906E-015  0.9000778E+02  0.7816164E-02  0.1186339E+00
        -11   -1    0    0    0    0  0.00000000000E+00  0.00000000000E+00  0.45593999997E+02  0.45594000000E+02  0.51100000000E-03 0. -1.
         11   -1    0    0    0    0 -0.00000000000E+00 -0.00000000000E+00 -0.45593999997E+02  0.45594000000E+02  0.51100000000E-03 0.  1.
    9900012    2    1    2    0    0  0.45712115337E+00  0.86786707578E+00  0.65632818372E+00  0.90007779811E+02  0.90000041704E+02 0.  0.
        -12    1    1    2    0    0 -0.45712115337E+00 -0.86786707578E+00 -0.65632818372E+00  0.11802201891E+01  0.00000000000E+00 0.  1.
         11    1    3    3    0    0  0.90096926692E+01 -0.50748333953E+01  0.83129611210E+01  0.13267773696E+02  0.51100000000E-03 0. -1.
        -11    1    3    3    0    0 -0.40553570385E+02 -0.73288641785E+01 -0.85347994179E+01  0.42084998782E+02  0.51100000000E-03 0.  1.
         12    1    3    3    0    0  0.32000998869E+02  0.13271564650E+02  0.87816648053E+00  0.34655007333E+02  0.00000000000E+00 0. -1.
</event>
<event>
 7    1  0.2429906E-015  0.9000783E+02  0.7816164E-02  0.1186339E+00
        -11   -1    0    0    0    0  0.00000000000E+00  0.00000000000E+00  0.45593999997E+02  0.45594000000E+02  0.51100000000E-03 0. -1.
         11   -1    0    0    0    0 -0.00000000000E+00 -0.00000000000E+00 -0.45593999997E+02  0.45594000000E+02  0.51100000000E-03 0.  1.
    9900012    2    1    2    0    0 -0.14559571187E+00  0.96312762390E+00 -0.66631937626E+00  0.90007832875E+02  0.90000095469E+02 0.  0.
        -12    1    1    2    0    0  0.14559571188E+00 -0.96312762390E+00  0.66631937626E+00  0.11801671248E+01  0.00000000000E+00 0.  1.
         11    1    3    3    0    0 -0.20064548158E+02  0.11766378575E+02  0.30869466583E+02  0.38651749313E+02  0.51100000000E-03 0. -1.
        -11    1    3    3    0    0  0.18725557120E+01 -0.21936185677E+01  0.72043662597E+01  0.77602397373E+01  0.51100000000E-03 0.  1.
        -12    1    3    3    0    0  0.18046396734E+02 -0.86096323836E+01 -0.38740152219E+02  0.43595843825E+02  0.00000000000E+00 0.  1.
</event>
<event>
 7    1  0.2429906E-015  0.9000786E+02  0.7816164E-02  0.1186339E+00
        -11   -1    0    0    0    0  0.00000000000E+00  0.00000000000E+00  0.45593999997E+02  0.45594000000E+02  0.51100000000E-03 0.  1.
         11   -1    0    0    0    0 -0.00000000000E+00 -0.00000000000E+00 -0.45593999997E+02  0.45594000000E+02  0.51100000000E-03 0. -1.
    9900012    2    1    2    0    0 -0.10340698214E+01 -0.34918299486E-01  0.56764452649E+00  0.90007855945E+02  0.90000118843E+02 0.  0.
        -12    1    1    2    0    0  0.10340698214E+01  0.34918299486E-01 -0.56764452649E+00  0.11801440554E+01  0.00000000000E+00 0.  1.
         11    1    3    3    0    0  0.90937249245E+01  0.24691204989E+02 -0.22830860290E+02  0.34836756718E+02  0.51100000000E-03 0. -1.
        -11    1    3    3    0    0  0.30510132760E+01  0.94627254759E+01 -0.25600175946E+01  0.10266720303E+02  0.51100000000E-03 0.  1.
        -12    1    3    3    0    0 -0.13178808022E+02 -0.34188848764E+02  0.25958522411E+02  0.44904378923E+02  0.00000000000E+00 0.  1.
</event>
<event>
 7    1  0.2429906E-015  0.9000780E+02  0.7816164E-02  0.1186339E+00
        -11   -1    0    0    0    0  0.00000000000E+00  0.00000000000E+00  0.45593999997E+02  0.45594000000E+02  0.51100000000E-03 0.  1.
         11   -1    0    0    0    0 -0.00000000000E+00 -0.00000000000E+00 -0.45593999997E+02  0.45594000000E+02  0.51100000000E-03 0. -1.
    9900012    2    1    2    0    0  0.33130625205E+00  0.91494558327E+00 -0.66782393540E+00  0.90007797449E+02  0.90000059575E+02 0.  0.
        -12    1    1    2    0    0 -0.33130625205E+00 -0.91494558327E+00  0.66782393540E+00  0.11802025511E+01  0.00000000000E+00 0.  1.
         11    1    3    3    0    0 -0.19580748063E+02 -0.11553072135E+02 -0.27660809682E+02  0.35805021477E+02  0.51100000000E-03 0. -1.
        -11    1    3    3    0    0 -0.63528543212E+01 -0.76016043191E+01 -0.21475825814E+01  0.10136826794E+02  0.51100000000E-03 0.  1.
        -12    1    3    3    0    0  0.26264908636E+02  0.20069622038E+02  0.29140568328E+02  0.44065949177E+02  0.00000000000E+00 0.  1.
</event>
<event>
 7    1  0.2429906E-015  0.9000772E+02  0.7816164E-02  0.1186339E+00
        -11   -1    0    0    0    0  0.00000000000E+00  0.00000000000E+00  0.45593999997E+02  0.45594000000E+02  0.51100000000E-03 0. -1.
         11   -1    0    0    0    0 -0.00000000000E+00 -0.00000000000E+00 -0.45593999997E+02  0.45594000000E+02  0.51100000000E-03 0.  1.
    9900012    2    1    2    0    0  0.73083628834E+00  0.85552806825E+00  0.35637230470E+00  0.90007724110E+02  0.89999985269E+02 0.  0.
        -12    1    1    2    0    0 -0.73083628834E+00 -0.85552806825E+00 -0.35637230470E+00  0.11802758896E+01  0.00000000000E+00 0.  1.
         11    1    3    3    0    0 -0.25816527794E+01 -0.29407607024E+02 -0.22913331530E+02  0.37369680813E+02  0.51100000000E-03 0. -1.
        -11    1    3    3    0    0  0.29148470388E+01  0.18709112115E+02 -0.70377958283E+01  0.20200440089E+02  0.51100000000E-03 0.  1.
        -12    1    3    3    0    0  0.39764202895E+00  0.11554022978E+02  0.30307499663E+02  0.32437603209E+02  0.00000000000E+00 0.  1.
</event>
<event>
 7    1  0.2429906E-015  0.9000773E+02  0.7816164E-02  0.1186339E+00
        -11   -1    0    0    0    0  0.00000000000E+00  0.00000000000E+00  0.45593999997E+02  0.45594000000E+02  0.51100000000E-03 0. -1.
         11   -1    0    0    0    0 -0.00000000000E+00 -0.00000000000E+00 -0.45593999997E+02  0.45594000000E+02  0.51100000000E-03 0.  1.
    9900012    2    1    2    0    0  0.88759989193E+00  0.77794283678E+00 -0.33987497791E-02  0.90007728770E+02  0.89999989990E+02 0.  0.
        -12    1    1    2    0    0 -0.88759989193E+00 -0.77794283678E+00  0.33987497791E-02  0.11802712303E+01  0.00000000000E+00 0.  1.
         11    1    3    3    0    0  0.14625805612E+01  0.18364926776E+01 -0.93367632791E+01  0.96274085841E+01  0.51100000000E-03 0. -1.
        -11    1    3    3    0    0 -0.11638612881E+02 -0.54381661270E+00 -0.33850078107E+02  0.35799173655E+02  0.51100000000E-03 0.  1.
         12    1    3    3    0    0  0.11063632212E+02 -0.51473322813E+00  0.43183442636E+02  0.44581146530E+02  0.00000000000E+00 0. -1.
</event>
<event>
 7    1  0.2429906E-015  0.9000775E+02  0.7816164E-02  0.1186339E+00
        -11   -1    0    0    0    0  0.00000000000E+00  0.00000000000E+00  0.45593999997E+02  0.45594000000E+02  0.51100000000E-03 0. -1.
         11   -1    0    0    0    0 -0.00000000000E+00 -0.00000000000E+00 -0.45593999997E+02  0.45594000000E+02  0.51100000000E-03 0.  1.
    9900012    2    1    2    0    0  0.65754086070E+00  0.41021834350E+00  0.89014213632E+00  0.90007749139E+02  0.90000010627E+02 0.  0.
        -12    1    1    2    0    0 -0.65754086070E+00 -0.41021834350E+00 -0.89014213632E+00  0.11802508613E+01  0.00000000000E+00 0.  1.
         11    1    3    3    0    0  0.44455381656E+01 -0.62184115764E+01  0.34786670596E+01  0.83983675133E+01  0.51100000000E-03 0. -1.
        -11    1    3    3    0    0  0.37736465336E+02  0.12159549405E+02 -0.15270015137E+00  0.39647430880E+02  0.51100000000E-03 0.  1.
         12    1    3    3    0    0 -0.41524462641E+02 -0.55309194848E+01 -0.24358247719E+01  0.41961950745E+02  0.00000000000E+00 0. -1.
</event>
<event>
 7    1  0.2429906E-015  0.9000756E+02  0.7816164E-02  0.1186339E+00
        -11   -1    0    0    0    0  0.00000000000E+00  0.00000000000E+00  0.45593999997E+02  0.45594000000E+02  0.51100000000E-03 0. -1.
         11   -1    0    0    0    0 -0.00000000000E+00 -0.00000000000E+00 -0.45593999997E+02  0.45594000000E+02  0.51100000000E-03 0.  1.
    9900012    2    1    2    0    0  0.62562928670E+00 -0.98543433640E+00 -0.17593926284E+00  0.90007556244E+02  0.89999815187E+02 0.  0.
        -12    1    1    2    0    0 -0.62562928670E+00  0.98543433640E+00  0.17593926284E+00  0.11804437555E+01  0.00000000000E+00 0.  1.
         11    1    3    3    0    0 -0.19204155832E+02  0.17058968988E+02  0.31233099842E+02  0.40439022616E+02  0.51100000000E-03 0. -1.
        -11    1    3    3    0    0  0.93944821999E+01  0.69509263686E+00  0.22230497423E+01  0.96789152283E+01  0.51100000000E-03 0.  1.
        -12    1    3    3    0    0  0.10435302919E+02 -0.18739495961E+02 -0.33632088847E+02  0.39889618400E+02  0.00000000000E+00 0.  1.
</event>
<event>
 7    1  0.2429906E-015  0.9000785E+02  0.7816164E-02  0.1186339E+00
        -11   -1    0    0    0    0  0.00000000000E+00  0.00000000000E+00  0.45593999997E+02  0.45594000000E+02  0.51100000000E-03 0.  1.
         11   -1    0    0    0    0 -0.00000000000E+00 -0.00000000000E+00 -0.45593999997E+02  0.45594000000E+02  0.51100000000E-03 0. -1.
    9900012    2    1    2    0    0 -0.20582437294E+00 -0.53900294595E+00 -0.10294933289E+01  0.90007854093E+02  0.90000116967E+02 0.  0.
        -12    1    1    2    0    0  0.20582437294E+00  0.53900294595E+00  0.10294933289E+01  0.11801459073E+01  0.00000000000E+00 0.  1.
         11    1    3    3    0    0  0.32255380448E+01  0.77026467935E+01  0.47781774485E+01  0.96211144518E+01  0.51100000000E-03 0. -1.
        -11    1    3    3    0    0 -0.22921391204E+02  0.24427953334E+02  0.15360876044E+02  0.36852022901E+02  0.51100000000E-03 0.  1.
         12    1    3    3    0    0  0.19490028787E+02 -0.32669603073E+02 -0.21168546821E+02  0.43534716740E+02  0.00000000000E+00 0. -1.
</event>
<event>
 7    1  0.2429906E-015  0.9000768E+02  0.7816164E-02  0.1186339E+00
        -11   -1    0    0    0    0  0.00000000000E+00  0.00000000000E+00  0.45593999997E+02  0.45594000000E+02  0.51100000000E-03 0. -1.
         11   -1    0    0    0    0 -0.00000000000E+00 -0.00000000000E+00 -0.45593999997E+02  0.45594000000E+02  0.51100000000E-03 0.  1.
    9900012    2    1    2    0    0  0.84932894299E+00  0.56519096590E+00  0.59359867908E+00  0.90007678064E+02  0.89999938614E+02 0.  0.
        -12    1    1    2    0    0 -0.84932894299E+00 -0.56519096590E+00 -0.59359867908E+00  0.11803219362E+01  0.00000000000E+00 0.  1.
         11    1    3    3    0    0  0.78907479867E+01 -0.15230517191E+02  0.16446431859E+02  0.23763789236E+02  0.51100000000E-03 0. -1.
        -11    1    3    3    0    0  0.34829399815E+01  0.20133961434E+02  0.20021302761E+02  0.28606989329E+02  0.51100000000E-03 0.  1.
        -12    1    3    3    0    0 -0.10524359025E+02 -0.43382532775E+01 -0.35874135941E+02  0.37636899499E+02  0.00000000000E+00 0.  1.
</event>
<event>
 7    1  0.2429906E-015  0.9000742E+02  0.7816164E-02  0.1186340E+00
        -11   -1    0    0    0    0  0.00000000000E+00  0.00000000000E+00  0.45593999997E+02  0.45594000000E+02  0.51100000000E-03 0.  1.
         11   -1    0    0    0    0 -0.00000000000E+00 -0.00000000000E+00 -0.45593999997E+02  0.45594000000E+02  0.51100000000E-03 0. -1.
    9900012    2    1    2    0    0 -0.25612941023E+00  0.71897912053E+00 -0.90068774733E+00  0.90007418928E+02  0.89999676057E+02 0.  0.
        -12    1    1    2    0    0  0.25612941023E+00 -0.71897912053E+00  0.90068774733E+00  0.11805810725E+01  0.00000000000E+00 0.  1.
         11    1    3    3    0    0  0.77008383776E+01  0.33094297609E+01 -0.48892997998E+00  0.83960877704E+01  0.51100000000E-03 0. -1.
        -11    1    3    3    0    0  0.35756173369E+02  0.65133892888E+01  0.47876271601E+01  0.36658553547E+02  0.51100000000E-03 0.  1.
         12    1    3    3    0    0 -0.43713141157E+02 -0.91038399292E+01 -0.51993849275E+01  0.44952777611E+02  0.00000000000E+00 0. -1.
</event>
<event>
 7    1  0.2429906E-015  0.9000745E+02  0.7816164E-02  0.1186340E+00
        -11   -1    0    0    0    0  0.00000000000E+00  0.00000000000E+00  0.45593999997E+02  0.45594000000E+02  0.51100000000E-03 0.  1.
         11   -1    0    0    0    0 -0.00000000000E+00 -0.00000000000E+00 -0.45593999997E+02  0.45594000000E+02  0.51100000000E-03 0. -1.
    9900012    2    1    2    0    0  0.30497003478E+00 -0.14773446704E+00 -0.11308730643E+01  0.90007446705E+02  0.89999704201E+02 0.  0.
        -12    1    1    2    0    0 -0.30497003478E+00  0.14773446704E+00  0.11308730643E+01  0.11805532950E+01  0.00000000000E+00 0.  1.
         11    1    3    3    0    0  0.97211935551E+01  0.15420407058E+02 -0.31130403987E+02  0.36074819620E+02  0.51100000000E-03 0. -1.
        -11    1    3    3    0    0 -0.24241984340E+01  0.13836169510E+02  0.57311804048E+01  0.15171115774E+02  0.51100000000E-03 0.  1.
        -12    1    3    3    0    0 -0.69920250863E+01 -0.29404311035E+02  0.24268350518E+02  0.38761511311E+02  0.00000000000E+00 0.  1.
</event>
<event>
 7    1  0.2429906E-015  0.9000775E+02  0.7816164E-02  0.1186339E+00
        -11   -1    0    0    0    0  0.00000000000E+00  0.00000000000E+00  0.45593999997E+02  0.45594000000E+02  0.51100000000E-03 0.  1.
         11   -1    0    0    0    0 -0.00000000000E+00 -0.00000000000E+00 -0.45593999997E+02  0.45594000000E+02  0.51100000000E-03 0. -1.
    9900012    2    1    2    0    0 -0.62652390168E+00 -0.58571563604E+00 -0.81079872726E+00  0.90007750204E+02  0.90000011706E+02 0.  0.
        -12    1    1    2    0    0  0.62652390168E+00  0.58571563604E+00  0.81079872726E+00  0.11802497964E+01  0.00000000000E+00 0.  1.
         11    1    3    3    0    0 -0.60466656502E+00  0.10054616247E+02 -0.43596363947E+01  0.10975762355E+02  0.51100000000E-03 0. -1.
        -11    1    3    3    0    0  0.12264631140E+02 -0.41600346447E+01  0.38926832274E+02  0.41024691789E+02  0.51100000000E-03 0.  1.
         12    1    3    3    0    0 -0.12286488477E+02 -0.64802972381E+01 -0.35377994606E+02  0.38007296059E+02  0.00000000000E+00 0. -1.
</event>
<event>
 7    1  0.2429906E-015  0.9000775E+02  0.7816164E-02  0.1186339E+00
        -11   -1    0    0    0    0  0.00000000000E+00  0.00000000000E+00  0.45593999997E+02  0.45594000000E+02  0.51100000000E-03 0.  1.
         11   -1    0    0    0    0 -0.00000000000E+00 -0.00000000000E+00 -0.45593999997E+02  0.45594000000E+02  0.51100000000E-03 0. -1.
    9900012    2    1    2    0    0 -0.61688894176E+00  0.45760255279E+00 -0.89612516802E+00  0.90007749018E+02  0.90000010505E+02 0.  0.
        -12    1    1    2    0    0  0.61688894176E+00 -0.45760255279E+00  0.89612516802E+00  0.11802509816E+01  0.00000000000E+00 0.  1.
         11    1    3    3    0    0 -0.99433708749E+01  0.15134656777E+01 -0.90019170872E+00  0.10098096261E+02  0.51100000000E-03 0. -1.
        -11    1    3    3    0    0  0.12398814576E+02 -0.19213224354E+02  0.34159173664E+02  0.41106298041E+02  0.51100000000E-03 0.  1.
         12    1    3    3    0    0 -0.30723326425E+01  0.18157361229E+02 -0.34155107124E+02  0.38803354717E+02  0.00000000000E+00 0. -1.
</event>
<event>
 7    1  0.2429906E-015  0.9000777E+02  0.7816164E-02  0.1186339E+00
        -11   -1    0    0    0    0  0.00000000000E+00  0.00000000000E+00  0.45593999997E+02  0.45594000000E+02  0.51100000000E-03 0.  1.
         11   -1    0    0    0    0 -0.00000000000E+00 -0.00000000000E+00 -0.45593999997E+02  0.45594000000E+02  0.51100000000E-03 0. -1.
    9900012    2    1    2    0    0 -0.25592627004E+00  0.10491976511E+01 -0.47604457914E+00  0.90007774425E+02  0.90000036247E+02 0.  0.
        -12    1    1    2    0    0  0.25592627004E+00 -0.10491976511E+01  0.47604457914E+00  0.11802255751E+01  0.00000000000E+00 0.  1.
         11    1    3    3    0    0 -0.17250187549E+02 -0.21746344033E+01  0.59814845398E+01  0.18386847550E+02  0.51100000000E-03 0. -1.
        -11    1    3    3    0    0 -0.31782277992E+01  0.15412588094E+02  0.26668797018E+02  0.30965686466E+02  0.51100000000E-03 0.  1.
         12    1    3    3    0    0  0.20172489078E+02 -0.12188756039E+02 -0.33126326137E+02  0.40655240409E+02  0.00000000000E+00 0. -1.
</event>
<event>
 7    1  0.2429906E-015  0.9000774E+02  0.7816164E-02  0.1186339E+00
        -11   -1    0    0    0    0  0.00000000000E+00  0.00000000000E+00  0.45593999997E+02  0.45594000000E+02  0.51100000000E-03 0.  1.
         11   -1    0    0    0    0 -0.00000000000E+00 -0.00000000000E+00 -0.45593999997E+02  0.45594000000E+02  0.51100000000E-03 0. -1.
    9900012    2    1    2    0    0  0.11421347765E+01  0.23875877410E+00  0.17756734062E+00  0.90007742503E+02  0.90000003904E+02 0.  0.
        -12    1    1    2    0    0 -0.11421347765E+01 -0.23875877410E+00 -0.17756734062E+00  0.11802574974E+01  0.00000000000E+00 0.  1.
         11    1    3    3    0    0 -0.10158355418E+02 -0.15717557097E+02 -0.31006005791E+02  0.36216103894E+02  0.51100000000E-03 0. -1.
        -11    1    3    3    0    0 -0.51036949986E+01 -0.54436596514E+00 -0.72385601925E+01  0.88736007835E+01  0.51100000000E-03 0.  1.
        -12    1    3    3    0    0  0.16404185193E+02  0.16500681836E+02  0.38422133324E+02  0.44918037825E+02  0.00000000000E+00 0.  1.
</event>
<event>
 7    1  0.2429906E-015  0.9000775E+02  0.7816164E-02  0.1186339E+00
        -11   -1    0    0    0    0  0.00000000000E+00  0.00000000000E+00  0.45593999997E+02  0.45594000000E+02  0.51100000000E-03 0.  1.
         11   -1    0    0    0    0 -0.00000000000E+00 -0.00000000000E+00 -0.45593999997E+02  0.45594000000E+02  0.51100000000E-03 0. -1.
    9900012    2    1    2    0    0 -0.17926379681E+00  0.17068403531E+00 -0.11540038335E+01  0.90007748588E+02  0.90000010069E+02 0.  0.
        -12    1    1    2    0    0  0.17926379681E+00 -0.17068403531E+00  0.11540038335E+01  0.11802514124E+01  0.00000000000E+00 0.  1.
         11    1    3    3    0    0 -0.31186660457E+02  0.15739813728E+02 -0.14401280217E+02  0.37785531607E+02  0.51100000000E-03 0. -1.
        -11    1    3    3    0    0 -0.93129424660E+00  0.96848959117E+01  0.14976253809E+01  0.98441556183E+01  0.51100000000E-03 0.  1.
        -12    1    3    3    0    0  0.31938690907E+02 -0.25254025605E+02  0.11749651003E+02  0.42378061362E+02  0.00000000000E+00 0.  1.
</event>
<event>
 7    1  0.2429906E-015  0.9000764E+02  0.7816164E-02  0.1186339E+00
        -11   -1    0    0    0    0  0.00000000000E+00  0.00000000000E+00  0.45593999997E+02  0.45594000000E+02  0.51100000000E-03 0.  1.
         11   -1    0    0    0    0 -0.00000000000E+00 -0.00000000000E+00 -0.45593999997E+02  0.45594000000E+02  0.51100000000E-03 0. -1.
    9900012    2    1    2    0    0  0.75555843974E+00 -0.82552579382E+00  0.37535632594E+00  0.90007638291E+02  0.89999898317E+02 0.  0.
        -12    1    1    2    0    0 -0.75555843974E+00  0.82552579382E+00 -0.37535632594E+00  0.11803617088E+01  0.00000000000E+00 0.  1.
         11    1    3    3    0    0 -0.11515635094E+01  0.41151012687E+01  0.37958818872E+01  0.57156693860E+01  0.51100000000E-03 0. -1.
        -11    1    3    3    0    0  0.16468853313E+02  0.30572612853E+02  0.19259364821E+02  0.39709330386E+02  0.51100000000E-03 0.  1.
         12    1    3    3    0    0 -0.14561731363E+02 -0.35513239916E+02 -0.22679890382E+02  0.44582638520E+02  0.00000000000E+00 0. -1.
</event>
<event>
 7    1  0.2429906E-015  0.9000781E+02  0.7816164E-02  0.1186339E+00
        -11   -1    0    0    0    0  0.00000000000E+00  0.00000000000E+00  0.45593999997E+02  0.45594000000E+02  0.51100000000E-03 0.  1.
         11   -1    0    0    0    0 -0.00000000000E+00 -0.00000000000E+00 -0.45593999997E+02  0.45594000000E+02  0.51100000000E-03 0. -1.
    9900012    2    1    2    0    0 -0.11065682757E+01 -0.41029161994E+00  0.50050850346E-02  0.90007806112E+02  0.90000068353E+02 0.  0.
        -12    1    1    2    0    0  0.11065682757E+01  0.41029161994E+00 -0.50050850346E-02  0.11801938879E+01  0.00000000000E+00 0.  1.
         11    1    3    3    0    0 -0.97679601763E+00  0.20412062077E+01 -0.47893579767E+01  0.52970372222E+01  0.51100000000E-03 0. -1.
        -11    1    3    3    0    0 -0.70389149742E+01  0.30495850067E+02  0.29456710223E+02  0.42979541328E+02  0.51100000000E-03 0.  1.
         12    1    3    3    0    0  0.69091427161E+01 -0.32947347894E+02 -0.24662347162E+02  0.41731227562E+02  0.00000000000E+00 0. -1.
</event>
<event>
 7    1  0.2429906E-015  0.9000772E+02  0.7816164E-02  0.1186339E+00
        -11   -1    0    0    0    0  0.00000000000E+00  0.00000000000E+00  0.45593999997E+02  0.45594000000E+02  0.51100000000E-03 0.  1.
         11   -1    0    0    0    0 -0.00000000000E+00 -0.00000000000E+00 -0.45593999997E+02  0.45594000000E+02  0.51100000000E-03 0. -1.
    9900012    2    1    2    0    0  0.92761126446E+00  0.40282759446E+00 -0.60854973545E+00  0.90007718038E+02  0.89999979116E+02 0.  0.
        -12    1    1    2    0    0 -0.92761126446E+00 -0.40282759446E+00  0.60854973545E+00  0.11802819618E+01  0.00000000000E+00 0.  1.
         11    1    3    3    0    0  0.66694321779E+01  0.50476457570E+01  0.58323734548E+01  0.10196893333E+02  0.51100000000E-03 0. -1.
        -11    1    3    3    0    0 -0.14537401128E+02  0.74827582305E+01  0.33432215664E+02  0.37216135570E+02  0.51100000000E-03 0.  1.
         12    1    3    3    0    0  0.87955802142E+01 -0.12127576393E+02 -0.39873138854E+02  0.42594689136E+02  0.00000000000E+00 0. -1.
</event>
<event>
 7    1  0.2451554E-015  0.9000780E+02  0.7816164E-02  0.1186339E+00
        -11   -1    0    0    0    0  0.00000000000E+00  0.00000000000E+00  0.45593999997E+02  0.45594000000E+02  0.51100000000E-03 0.  1.
         11   -1    0    0    0    0 -0.00000000000E+00 -0.00000000000E+00 -0.45593999997E+02  0.45594000000E+02  0.51100000000E-03 0. -1.
    9900012    2    1    2    0    0  0.42856261673E+00  0.68185937013E-01 -0.10975274399E+01  0.90007795899E+02  0.90000058005E+02 0.  0.
        -12    1    1    2    0    0 -0.42856261673E+00 -0.68185937013E-01  0.10975274399E+01  0.11802041009E+01  0.00000000000E+00 0.  1.
         11    1    3    3    0    0 -0.65000464442E+01  0.12326178075E+02 -0.40131155954E+02  0.42481701333E+02  0.51100000000E-03 0. -1.
        -11    1    3    3    0    0 -0.22943320651E+01  0.60345881890E+01  0.72029400545E+01  0.96727741587E+01  0.51100000000E-03 0.  1.
        -12    1    3    3    0    0  0.92229411260E+01 -0.18292580327E+02  0.31830688460E+02  0.37853320407E+02  0.00000000000E+00 0.  1.
</event>
<event>
 7    1  0.2429906E-015  0.9000775E+02  0.7816164E-02  0.1186339E+00
        -11   -1    0    0    0    0  0.00000000000E+00  0.00000000000E+00  0.45593999997E+02  0.45594000000E+02  0.51100000000E-03 0. -1.
         11   -1    0    0    0    0 -0.00000000000E+00 -0.00000000000E+00 -0.45593999997E+02  0.45594000000E+02  0.51100000000E-03 0.  1.
    9900012    2    1    2    0    0  0.94530529157E+00  0.59420335567E+00  0.38251367236E+00  0.90007747302E+02  0.90000008766E+02 0.  0.
        -12    1    1    2    0    0 -0.94530529157E+00 -0.59420335567E+00 -0.38251367236E+00  0.11802526982E+01  0.00000000000E+00 0.  1.
         11    1    3    3    0    0 -0.34092685135E+01  0.34092210079E+00 -0.93128694480E+01  0.99231485575E+01  0.51100000000E-03 0. -1.
        -11    1    3    3    0    0 -0.98554106296E+01 -0.56834697099E+01 -0.32888976479E+02  0.34801087925E+02  0.51100000000E-03 0.  1.
         12    1    3    3    0    0  0.14209984435E+02  0.59367509648E+01  0.42584359600E+02  0.45283510820E+02  0.00000000000E+00 0. -1.
</event>
<event>
 7    1  0.2429906E-015  0.9000774E+02  0.7816164E-02  0.1186339E+00
        -11   -1    0    0    0    0  0.00000000000E+00  0.00000000000E+00  0.45593999997E+02  0.45594000000E+02  0.51100000000E-03 0. -1.
         11   -1    0    0    0    0 -0.00000000000E+00 -0.00000000000E+00 -0.45593999997E+02  0.45594000000E+02  0.51100000000E-03 0.  1.
    9900012    2    1    2    0    0  0.41351195203E-01 -0.45333523356E+00  0.10889452399E+01  0.90007735415E+02  0.89999996722E+02 0.  0.
        -12    1    1    2    0    0 -0.41351195203E-01  0.45333523356E+00 -0.10889452399E+01  0.11802645851E+01  0.00000000000E+00 0.  1.
         11    1    3    3    0    0  0.19505206398E+01  0.88931567821E+01  0.35423875136E+01  0.97694051955E+01  0.51100000000E-03 0. -1.
        -11    1    3    3    0    0 -0.17915440832E+02  0.26965176993E+02 -0.18667650771E+02  0.37370643238E+02  0.51100000000E-03 0.  1.
         12    1    3    3    0    0  0.16006271388E+02 -0.36311669009E+02  0.16214208497E+02  0.42867686981E+02  0.00000000000E+00 0. -1.
</event>
<event>
 7    1  0.2429906E-015  0.9000714E+02  0.7816164E-02  0.1186340E+00
        -11   -1    0    0    0    0  0.00000000000E+00  0.00000000000E+00  0.45593999997E+02  0.45594000000E+02  0.51100000000E-03 0.  1.
         11   -1    0    0    0    0 -0.00000000000E+00 -0.00000000000E+00 -0.45593999997E+02  0.45594000000E+02  0.51100000000E-03 0. -1.
    9900012    2    1    2    0    0  0.75629693338E+00 -0.30394603588E+00 -0.85443298892E+00  0.90007142694E+02  0.89999396176E+02 0.  0.
        -12    1    1    2    0    0 -0.75629693338E+00  0.30394603588E+00  0.85443298892E+00  0.11808573058E+01  0.00000000000E+00 0.  1.
         11    1    3    3    0    0  0.24036289572E+01  0.37253145527E+02  0.46522902558E+01  0.37619384481E+02  0.51100000000E-03 0. -1.
        -11    1    3    3    0    0  0.77600715282E+01  0.40563915049E+01  0.22124075582E+01  0.90314876753E+01  0.51100000000E-03 0.  1.
        -12    1    3    3    0    0 -0.94074035520E+01 -0.41613483068E+02 -0.77191308029E+01  0.43356270538E+02  0.00000000000E+00 0.  1.
</event>
<event>
 7    1  0.2429906E-015  0.9000841E+02  0.7816164E-02  0.1186338E+00
        -11   -1    0    0    0    0  0.00000000000E+00  0.00000000000E+00  0.45593999997E+02  0.45594000000E+02  0.51100000000E-03 0.  1.
         11   -1    0    0    0    0 -0.00000000000E+00 -0.00000000000E+00 -0.45593999997E+02  0.45594000000E+02  0.51100000000E-03 0. -1.
    9900012    2    1    2    0    0  0.39641015550E+00 -0.11087343636E+01  0.70773027446E-01  0.90008406120E+02  0.90000676278E+02 0.  0.
        -12    1    1    2    0    0 -0.39641015550E+00  0.11087343636E+01 -0.70773027446E-01  0.11795938800E+01  0.00000000000E+00 0.  1.
         11    1    3    3    0    0  0.64698004877E+01  0.54856592577E+01 -0.39452243927E+01  0.93549757676E+01  0.51100000000E-03 0. -1.
        -11    1    3    3    0    0  0.22821850113E+02  0.22715457212E+02  0.18361057791E+02  0.37066929767E+02  0.51100000000E-03 0.  1.
         12    1    3    3    0    0 -0.28895240445E+02 -0.29309850833E+02 -0.14345060371E+02  0.43586500585E+02  0.00000000000E+00 0. -1.
</event>
<event>
 7    1  0.2429906E-015  0.9000778E+02  0.7816164E-02  0.1186339E+00
        -11   -1    0    0    0    0  0.00000000000E+00  0.00000000000E+00  0.45593999997E+02  0.45594000000E+02  0.51100000000E-03 0.  1.
         11   -1    0    0    0    0 -0.00000000000E+00 -0.00000000000E+00 -0.45593999997E+02  0.45594000000E+02  0.51100000000E-03 0. -1.
    9900012    2    1    2    0    0 -0.11268603442E+01  0.14577501853E+00 -0.31913474411E+00  0.90007783250E+02  0.90000045189E+02 0.  0.
        -12    1    1    2    0    0  0.11268603442E+01 -0.14577501853E+00  0.31913474411E+00  0.11802167497E+01  0.00000000000E+00 0.  1.
         11    1    3    3    0    0  0.96284595533E+01  0.22131004216E+01 -0.18873649191E+01  0.10058190366E+02  0.51100000000E-03 0. -1.
        -11    1    3    3    0    0 -0.14676184497E+02 -0.12781042840E+01  0.39318671180E+02  0.41987877364E+02  0.51100000000E-03 0.  1.
         12    1    3    3    0    0  0.39208645993E+01 -0.78922111907E+00 -0.37750441005E+02  0.37961715520E+02  0.00000000000E+00 0. -1.
</event>
<event>
 7    1  0.2429906E-015  0.9000809E+02  0.7816164E-02  0.1186338E+00
        -11   -1    0    0    0    0  0.00000000000E+00  0.00000000000E+00  0.45593999997E+02  0.45594000000E+02  0.51100000000E-03 0. -1.
         11   -1    0    0    0    0 -0.00000000000E+00 -0.00000000000E+00 -0.45593999997E+02  0.45594000000E+02  0.51100000000E-03 0.  1.
    9900012    2    1    2    0    0  0.11475146895E+01  0.27407901438E+00 -0.16341282526E-01  0.90008094789E+02  0.90000360840E+02 0.  0.
        -12    1    1    2    0    0 -0.11475146895E+01 -0.27407901438E+00  0.16341282526E-01  0.11799052107E+01  0.00000000000E+00 0.  1.
         11    1    3    3    0    0  0.25871698889E+02  0.12860415151E+02 -0.22415575811E+02  0.36567651285E+02  0.51100000000E-03 0. -1.
        -11    1    3    3    0    0  0.43215835756E+01 -0.19917533964E+00 -0.83255158302E+01  0.93824287643E+01  0.51100000000E-03 0.  1.
        -12    1    3    3    0    0 -0.29045767775E+02 -0.12387160797E+02  0.30724750359E+02  0.44058014740E+02  0.00000000000E+00 0.  1.
</event>
<event>
 7    1  0.2429906E-015  0.9000774E+02  0.7816164E-02  0.1186339E+00
        -11   -1    0    0    0    0  0.00000000000E+00  0.00000000000E+00  0.45593999997E+02  0.45594000000E+02  0.51100000000E-03 0.  1.
         11   -1    0    0    0    0 -0.00000000000E+00 -0.00000000000E+00 -0.45593999997E+02  0.45594000000E+02  0.51100000000E-03 0. -1.
    9900012    2    1    2    0    0  0.34790744567E+00 -0.13352577881E+00 -0.11198865461E+01  0.90007739605E+02  0.90000000968E+02 0.  0.
        -12    1    1    2    0    0 -0.34790744567E+00  0.13352577881E+00  0.11198865461E+01  0.11802603952E+01  0.00000000000E+00 0.  1.
         11    1    3    3    0    0 -0.31620240680E+01  0.11073573238E+02  0.71353299673E+01  0.13547522078E+02  0.51100000000E-03 0. -1.
        -11    1    3    3    0    0 -0.24068665151E+02 -0.92251688208E+00  0.23157187167E+02  0.33412677194E+02  0.51100000000E-03 0.  1.
         12    1    3    3    0    0  0.27578596665E+02 -0.10284582134E+02 -0.31412403680E+02  0.43047540332E+02  0.00000000000E+00 0. -1.
</event>
<event>
 7    1  0.2429906E-015  0.9000710E+02  0.7816164E-02  0.1186340E+00
        -11   -1    0    0    0    0  0.00000000000E+00  0.00000000000E+00  0.45593999997E+02  0.45594000000E+02  0.51100000000E-03 0. -1.
         11   -1    0    0    0    0 -0.00000000000E+00 -0.00000000000E+00 -0.45593999997E+02  0.45594000000E+02  0.51100000000E-03 0.  1.
    9900012    2    1    2    0    0 -0.19029615095E+00 -0.14461806412E+00  0.11564548742E+01  0.90007104202E+02  0.89999357175E+02 0.  0.
        -12    1    1    2    0    0  0.19029615095E+00  0.14461806412E+00 -0.11564548742E+01  0.11808957979E+01  0.00000000000E+00 0.  1.
         11    1    3    3    0    0  0.42268143433E+02  0.13778463064E+02 -0.29921879120E+01  0.44557773536E+02  0.51100000000E-03 0. -1.
        -11    1    3    3    0    0 -0.10198951585E+02 -0.69072734520E+00  0.25964532410E+01  0.10546908902E+02  0.51100000000E-03 0.  1.
        -12    1    3    3    0    0 -0.32259487999E+02 -0.13232353783E+02  0.15521895453E+01  0.34902421764E+02  0.00000000000E+00 0.  1.
</event>
<event>
 7    1  0.2429906E-015  0.9000771E+02  0.7816164E-02  0.1186339E+00
        -11   -1    0    0    0    0  0.00000000000E+00  0.00000000000E+00  0.45593999997E+02  0.45594000000E+02  0.51100000000E-03 0.  1.
         11   -1    0    0    0    0 -0.00000000000E+00 -0.00000000000E+00 -0.45593999997E+02  0.45594000000E+02  0.51100000000E-03 0. -1.
    9900012    2    1    2    0    0  0.51697132806E+00 -0.40326628290E+00 -0.98142893282E+00  0.90007709443E+02  0.89999970408E+02 0.  0.
        -12    1    1    2    0    0 -0.51697132806E+00  0.40326628290E+00  0.98142893282E+00  0.11802905571E+01  0.00000000000E+00 0.  1.
         11    1    3    3    0    0 -0.27643325767E+02  0.16483147922E+02 -0.17537208811E+02  0.36652439455E+02  0.51100000000E-03 0. -1.
        -11    1    3    3    0    0 -0.96834228883E+01 -0.40959617445E+01  0.56999117981E+01  0.11959706360E+02  0.51100000000E-03 0.  1.
        -12    1    3    3    0    0  0.37843719983E+02 -0.12790452461E+02  0.10855868080E+02  0.41395563628E+02  0.00000000000E+00 0.  1.
</event>
<event>
 7    1  0.2429906E-015  0.9000776E+02  0.7816164E-02  0.1186339E+00
        -11   -1    0    0    0    0  0.00000000000E+00  0.00000000000E+00  0.45593999997E+02  0.45594000000E+02  0.51100000000E-03 0. -1.
         11   -1    0    0    0    0 -0.00000000000E+00 -0.00000000000E+00 -0.45593999997E+02  0.45594000000E+02  0.51100000000E-03 0.  1.
    9900012    2    1    2    0    0 -0.20671841282E+00  0.76887263506E+00  0.87124431395E+00  0.90007760920E+02  0.90000022564E+02 0.  0.
        -12    1    1    2    0    0  0.20671841282E+00 -0.76887263506E+00 -0.87124431395E+00  0.11802390799E+01  0.00000000000E+00 0.  1.
         11    1    3    3    0    0  0.35263088403E+02  0.11425656514E+02  0.19750642835E+02  0.42001415728E+02  0.51100000000E-03 0. -1.
        -11    1    3    3    0    0  0.11875884308E+01 -0.67709093786E+01 -0.54534379734E+01  0.87747117380E+01  0.51100000000E-03 0.  1.
        -12    1    3    3    0    0 -0.36657395247E+02 -0.38858745002E+01 -0.13425960547E+02  0.39231633455E+02  0.00000000000E+00 0.  1.
</event>
<event>
 7    1  0.2429906E-015  0.9000772E+02  0.7816164E-02  0.1186339E+00
        -11   -1    0    0    0    0  0.00000000000E+00  0.00000000000E+00  0.45593999997E+02  0.45594000000E+02  0.51100000000E-03 0. -1.
         11   -1    0    0    0    0 -0.00000000000E+00 -0.00000000000E+00 -0.45593999997E+02  0.45594000000E+02  0.51100000000E-03 0.  1.
    9900012    2    1    2    0    0  0.91834139608E+00 -0.73115636676E+00 -0.12293041389E+00  0.90007723575E+02  0.89999984726E+02 0.  0.
        -12    1    1    2    0    0 -0.91834139608E+00  0.73115636676E+00  0.12293041389E+00  0.11802764249E+01  0.00000000000E+00 0.  1.
         11    1    3    3    0    0 -0.31013138185E+02 -0.89214432497E+01  0.22664617636E+02  0.39434652053E+02  0.51100000000E-03 0. -1.
        -11    1    3    3    0    0 -0.52803126673E+01 -0.31935933139E+01 -0.40625474890E+01  0.73881684118E+01  0.51100000000E-03 0.  1.
        -12    1    3    3    0    0  0.37211792248E+02  0.11383880197E+02 -0.18725000561E+02  0.43184903110E+02  0.00000000000E+00 0.  1.
</event>
<event>
 7    1  0.2429906E-015  0.9000772E+02  0.7816164E-02  0.1186339E+00
        -11   -1    0    0    0    0  0.00000000000E+00  0.00000000000E+00  0.45593999997E+02  0.45594000000E+02  0.51100000000E-03 0. -1.
         11   -1    0    0    0    0 -0.00000000000E+00 -0.00000000000E+00 -0.45593999997E+02  0.45594000000E+02  0.51100000000E-03 0.  1.
    9900012    2    1    2    0    0 -0.10168545686E+01  0.49181575727E+00  0.34232324477E+00  0.90007719882E+02  0.89999980985E+02 0.  0.
        -12    1    1    2    0    0  0.10168545686E+01 -0.49181575727E+00 -0.34232324477E+00  0.11802801179E+01  0.00000000000E+00 0.  1.
         11    1    3    3    0    0  0.32886211208E+02 -0.21705211926E+02  0.15000673880E+02  0.42162060309E+02  0.51100000000E-03 0. -1.
        -11    1    3    3    0    0 -0.13538933815E+02 -0.22131041998E+01 -0.53099188910E+01  0.14710397613E+02  0.51100000000E-03 0.  1.
        -12    1    3    3    0    0 -0.20364131962E+02  0.24410131884E+02 -0.93484317442E+01  0.33135261961E+02  0.00000000000E+00 0.  1.
</event>
<event>
 7    1  0.2429906E-015  0.9000771E+02  0.7816164E-02  0.1186339E+00
        -11   -1    0    0    0    0  0.00000000000E+00  0.00000000000E+00  0.45593999997E+02  0.45594000000E+02  0.51100000000E-03 0.  1.
         11   -1    0    0    0    0 -0.00000000000E+00 -0.00000000000E+00 -0.45593999997E+02  0.45594000000E+02  0.51100000000E-03 0. -1.
    9900012    2    1    2    0    0  0.65590960135E+00  0.26007750422E+00 -0.94616991004E+00  0.90007705455E+02  0.89999966367E+02 0.  0.
        -12    1    1    2    0    0 -0.65590960135E+00 -0.26007750422E+00  0.94616991004E+00  0.11802945446E+01  0.00000000000E+00 0.  1.
         11    1    3    3    0    0 -0.82012406813E+00  0.10437081728E+02 -0.43335126566E+01  0.11330693302E+02  0.51100000000E-03 0. -1.
        -11    1    3    3    0    0 -0.17734292881E+02  0.29176626899E+02 -0.35932004662E+01  0.34332081076E+02  0.51100000000E-03 0.  1.
         12    1    3    3    0    0  0.19210326550E+02 -0.39353631123E+02  0.69805432127E+01  0.44344931078E+02  0.00000000000E+00 0. -1.
</event>
<event>
 7    1  0.2429906E-015  0.9000770E+02  0.7816164E-02  0.1186339E+00
        -11   -1    0    0    0    0  0.00000000000E+00  0.00000000000E+00  0.45593999997E+02  0.45594000000E+02  0.51100000000E-03 0. -1.
         11   -1    0    0    0    0 -0.00000000000E+00 -0.00000000000E+00 -0.45593999997E+02  0.45594000000E+02  0.51100000000E-03 0.  1.
    9900012    2    1    2    0    0 -0.11676897541E+01  0.16843348291E+00  0.35252799656E-01  0.90007698361E+02  0.89999959179E+02 0.  0.
        -12    1    1    2    0    0  0.11676897541E+01 -0.16843348291E+00 -0.35252799656E-01  0.11803016394E+01  0.00000000000E+00 0.  1.
         11    1    3    3    0    0 -0.29534920969E+02 -0.26570202660E+02  0.32530055710E+01  0.39860623071E+02  0.51100000000E-03 0. -1.
        -11    1    3    3    0    0 -0.67070564742E+01  0.73330171503E+01 -0.55773717358E-01  0.99378497696E+01  0.51100000000E-03 0.  1.
        -12    1    3    3    0    0  0.35074287689E+02  0.19405618993E+02 -0.31619790540E+01  0.40209225520E+02  0.00000000000E+00 0.  1.
</event>
<event>
 7    1  0.2429906E-015  0.9000779E+02  0.7816164E-02  0.1186339E+00
        -11   -1    0    0    0    0  0.00000000000E+00  0.00000000000E+00  0.45593999997E+02  0.45594000000E+02  0.51100000000E-03 0.  1.
         11   -1    0    0    0    0 -0.00000000000E+00 -0.00000000000E+00 -0.45593999997E+02  0.45594000000E+02  0.51100000000E-03 0. -1.
    9900012    2    1    2    0    0  0.47691518952E+00 -0.10425669904E+01 -0.28016538766E+00  0.90007793801E+02  0.90000055879E+02 0.  0.
        -12    1    1    2    0    0 -0.47691518952E+00  0.10425669904E+01  0.28016538766E+00  0.11802061989E+01  0.00000000000E+00 0.  1.
         11    1    3    3    0    0  0.37829222101E+02 -0.18846242574E+01  0.12204789578E+01  0.37895796897E+02  0.51100000000E-03 0. -1.
        -11    1    3    3    0    0  0.47500261912E+01 -0.71255348869E+01  0.28897201116E+01  0.90380572484E+01  0.51100000000E-03 0.  1.
        -12    1    3    3    0    0 -0.42102333102E+02  0.79675921538E+01 -0.43903644571E+01  0.43073939655E+02  0.00000000000E+00 0.  1.
</event>
<event>
 7    1  0.2429906E-015  0.9000778E+02  0.7816164E-02  0.1186339E+00
        -11   -1    0    0    0    0  0.00000000000E+00  0.00000000000E+00  0.45593999997E+02  0.45594000000E+02  0.51100000000E-03 0.  1.
         11   -1    0    0    0    0 -0.00000000000E+00 -0.00000000000E+00 -0.45593999997E+02  0.45594000000E+02  0.51100000000E-03 0. -1.
    9900012    2    1    2    0    0 -0.10051045788E+01  0.54090554099E+00 -0.30016849086E+00  0.90007781740E+02  0.90000043659E+02 0.  0.
        -12    1    1    2    0    0  0.10051045788E+01 -0.54090554099E+00  0.30016849086E+00  0.11802182601E+01  0.00000000000E+00 0.  1.
         11    1    3    3    0    0 -0.19243773806E+02  0.15955450948E+02 -0.27759963143E+02  0.37356589769E+02  0.51100000000E-03 0. -1.
        -11    1    3    3    0    0 -0.80526551494E+01  0.48472015152E+01 -0.26491960799E+00  0.94027017471E+01  0.51100000000E-03 0.  1.
        -12    1    3    3    0    0  0.26291324376E+02 -0.20261746923E+02  0.27724714260E+02  0.43248490223E+02  0.00000000000E+00 0.  1.
</event>
<event>
 7    1  0.2429906E-015  0.9000765E+02  0.7816164E-02  0.1186339E+00
        -11   -1    0    0    0    0  0.00000000000E+00  0.00000000000E+00  0.45593999997E+02  0.45594000000E+02  0.51100000000E-03 0. -1.
         11   -1    0    0    0    0 -0.00000000000E+00 -0.00000000000E+00 -0.45593999997E+02  0.45594000000E+02  0.51100000000E-03 0.  1.
    9900012    2    1    2    0    0 -0.28469730558E+00 -0.39556870958E-01  0.11448157789E+01  0.90007652395E+02  0.89999912606E+02 0.  0.
        -12    1    1    2    0    0  0.28469730558E+00  0.39556870958E-01 -0.11448157789E+01  0.11803476054E+01  0.00000000000E+00 0.  1.
         11    1    3    3    0    0  0.80452351337E+01  0.25945471462E+02 -0.21205526257E+02  0.34461103317E+02  0.51100000000E-03 0. -1.
        -11    1    3    3    0    0  0.21157851593E+01  0.54473049217E+01 -0.84782895241E+01  0.10297138984E+02  0.51100000000E-03 0.  1.
        -12    1    3    3    0    0 -0.10445717599E+02 -0.31432333254E+02  0.30828631560E+02  0.45249410093E+02  0.00000000000E+00 0.  1.
</event>
<event>
 7    1  0.2429906E-015  0.9000775E+02  0.7816164E-02  0.1186339E+00
        -11   -1    0    0    0    0  0.00000000000E+00  0.00000000000E+00  0.45593999997E+02  0.45594000000E+02  0.51100000000E-03 0.  1.
         11   -1    0    0    0    0 -0.00000000000E+00 -0.00000000000E+00 -0.45593999997E+02  0.45594000000E+02  0.51100000000E-03 0. -1.
    9900012    2    1    2    0    0 -0.53344577376E+00 -0.98143990283E+00 -0.38104900755E+00  0.90007751288E+02  0.90000012805E+02 0.  0.
        -12    1    1    2    0    0  0.53344577376E+00  0.98143990283E+00  0.38104900755E+00  0.11802487122E+01  0.00000000000E+00 0.  1.
         11    1    3    3    0    0  0.27311491185E+02  0.87189406571E+01 -0.22487373084E+02  0.36436512256E+02  0.51100000000E-03 0. -1.
        -11    1    3    3    0    0  0.40721989560E+01 -0.20463765392E+00 -0.78077411232E+01  0.88082633143E+01  0.51100000000E-03 0.  1.
        -12    1    3    3    0    0 -0.31917135914E+02 -0.94957429060E+01  0.29914065199E+02  0.44762975717E+02  0.00000000000E+00 0.  1.
</event>
<event>
 7    1  0.2429906E-015  0.9000774E+02  0.7816164E-02  0.1186339E+00
        -11   -1    0    0    0    0  0.00000000000E+00  0.00000000000E+00  0.45593999997E+02  0.45594000000E+02  0.51100000000E-03 0.  1.
         11   -1    0    0    0    0 -0.00000000000E+00 -0.00000000000E+00 -0.45593999997E+02  0.45594000000E+02  0.51100000000E-03 0. -1.
    9900012    2    1    2    0    0 -0.28993357669E+00  0.46608866997E+00 -0.10448498771E+01  0.90007740964E+02  0.90000002344E+02 0.  0.
        -12    1    1    2    0    0  0.28993357669E+00 -0.46608866997E+00  0.10448498771E+01  0.11802590364E+01  0.00000000000E+00 0.  1.
         11    1    3    3    0    0 -0.84121049087E+01  0.51051879772E+01 -0.34306172173E+02  0.35689492890E+02  0.51100000000E-03 0. -1.
        -11    1    3    3    0    0 -0.17265542208E+01  0.84035090634E+00 -0.97076787334E+01  0.98957670635E+01  0.51100000000E-03 0.  1.
        -12    1    3    3    0    0  0.98487255527E+01 -0.54794502136E+01  0.42969001030E+02  0.44422481011E+02  0.00000000000E+00 0.  1.
</event>
<event>
 7    1  0.2429906E-015  0.9000777E+02  0.7816164E-02  0.1186339E+00
        -11   -1    0    0    0    0  0.00000000000E+00  0.00000000000E+00  0.45593999997E+02  0.45594000000E+02  0.51100000000E-03 0.  1.
         11   -1    0    0    0    0 -0.00000000000E+00 -0.00000000000E+00 -0.45593999997E+02  0.45594000000E+02  0.51100000000E-03 0. -1.
    9900012    2    1    2    0    0  0.33592665484E+00  0.71349019476E+00 -0.87808616419E+00  0.90007766850E+02  0.90000028573E+02 0.  0.
        -12    1    1    2    0    0 -0.33592665484E+00 -0.71349019476E+00  0.87808616419E+00  0.11802331495E+01  0.00000000000E+00 0.  1.
         11    1    3    3    0    0  0.89376801140E+01  0.17440340972E+01  0.17770139853E+01  0.92780148587E+01  0.51100000000E-03 0. -1.
        -11    1    3    3    0    0  0.30442052432E+02  0.53173872485E+01  0.18351740013E+02  0.35941334494E+02  0.51100000000E-03 0.  1.
         12    1    3    3    0    0 -0.39043805891E+02 -0.63479311509E+01 -0.21006840162E+02  0.44788417498E+02  0.00000000000E+00 0. -1.
</event>
<event>
 7    1  0.2429906E-015  0.9000777E+02  0.7816164E-02  0.1186339E+00
        -11   -1    0    0    0    0  0.00000000000E+00  0.00000000000E+00  0.45593999997E+02  0.45594000000E+02  0.51100000000E-03 0.  1.
         11   -1    0    0    0    0 -0.00000000000E+00 -0.00000000000E+00 -0.45593999997E+02  0.45594000000E+02  0.51100000000E-03 0. -1.
    9900012    2    1    2    0    0  0.24231080027E+00 -0.11483653054E+01 -0.12445092188E+00  0.90007768908E+02  0.90000030658E+02 0.  0.
        -12    1    1    2    0    0 -0.24231080027E+00  0.11483653054E+01  0.12445092188E+00  0.11802310920E+01  0.00000000000E+00 0.  1.
         11    1    3    3    0    0 -0.65332984226E+01  0.45881426893E+01  0.66187307213E+01  0.10370276671E+02  0.51100000000E-03 0. -1.
        -11    1    3    3    0    0 -0.28521634356E+02 -0.26002254113E+02 -0.18024812532E+01  0.38637414306E+02  0.51100000000E-03 0.  1.
         12    1    3    3    0    0  0.35297243579E+02  0.20265746118E+02 -0.49407003900E+01  0.41000077931E+02  0.00000000000E+00 0. -1.
</event>
<event>
 7    1  0.2429906E-015  0.9000776E+02  0.7816164E-02  0.1186339E+00
        -11   -1    0    0    0    0  0.00000000000E+00  0.00000000000E+00  0.45593999997E+02  0.45594000000E+02  0.51100000000E-03 0.  1.
         11   -1    0    0    0    0 -0.00000000000E+00 -0.00000000000E+00 -0.45593999997E+02  0.45594000000E+02  0.51100000000E-03 0. -1.
    9900012    2    1    2    0    0  0.64629128146E+00  0.82631405903E+00 -0.54081086115E+00  0.90007761155E+02  0.90000022802E+02 0.  0.
        -12    1    1    2    0    0 -0.64629128146E+00 -0.82631405903E+00  0.54081086115E+00  0.11802388454E+01  0.00000000000E+00 0.  1.
         11    1    3    3    0    0 -0.16038708114E+02 -0.33796485202E+01 -0.33854332334E+02  0.37613534800E+02  0.51100000000E-03 0. -1.
        -11    1    3    3    0    0 -0.20514965602E+00 -0.11876721467E+01 -0.76572400026E+01  0.77515144474E+01  0.51100000000E-03 0.  1.
        -12    1    3    3    0    0  0.16890149051E+02  0.53936347260E+01  0.40970761476E+02  0.44642711907E+02  0.00000000000E+00 0.  1.
</event>
<event>
 7    1  0.2429906E-015  0.9000767E+02  0.7816164E-02  0.1186339E+00
        -11   -1    0    0    0    0  0.00000000000E+00  0.00000000000E+00  0.45593999997E+02  0.45594000000E+02  0.51100000000E-03 0.  1.
         11   -1    0    0    0    0 -0.00000000000E+00 -0.00000000000E+00 -0.45593999997E+02  0.45594000000E+02  0.51100000000E-03 0. -1.
    9900012    2    1    2    0    0 -0.76876237936E+00 -0.88086558793E+00 -0.16205294729E+00  0.90007669141E+02  0.89999929573E+02 0.  0.
        -12    1    1    2    0    0  0.76876237936E+00  0.88086558793E+00  0.16205294729E+00  0.11803308594E+01  0.00000000000E+00 0.  1.
         11    1    3    3    0    0 -0.32511497539E+01 -0.73328541138E+00 -0.93439042564E+01  0.99204954126E+01  0.51100000000E-03 0. -1.
        -11    1    3    3    0    0 -0.36672020225E+02 -0.34058425878E+01 -0.71861040935E+01  0.37524351072E+02  0.51100000000E-03 0.  1.
         12    1    3    3    0    0  0.39154407599E+02  0.32582624113E+01  0.16367955403E+02  0.42562822656E+02  0.00000000000E+00 0. -1.
</event>
<event>
 7    1  0.2429906E-015  0.9000762E+02  0.7816164E-02  0.1186339E+00
        -11   -1    0    0    0    0  0.00000000000E+00  0.00000000000E+00  0.45593999997E+02  0.45594000000E+02  0.51100000000E-03 0.  1.
         11   -1    0    0    0    0 -0.00000000000E+00 -0.00000000000E+00 -0.45593999997E+02  0.45594000000E+02  0.51100000000E-03 0. -1.
    9900012    2    1    2    0    0  0.10508337294E+01 -0.38664665408E+00 -0.37355305592E+00  0.90007623345E+02  0.89999883173E+02 0.  0.
        -12    1    1    2    0    0 -0.10508337294E+01  0.38664665408E+00  0.37355305592E+00  0.11803766549E+01  0.00000000000E+00 0.  1.
         11    1    3    3    0    0 -0.66817678332E+01  0.24119042508E+02  0.26627644839E+02  0.36543203237E+02  0.51100000000E-03 0. -1.
        -11    1    3    3    0    0 -0.39520877035E+00  0.91218231863E+01  0.68235560156E+00  0.91558428144E+01  0.51100000000E-03 0.  1.
        -12    1    3    3    0    0  0.81278103329E+01 -0.33627512349E+02 -0.27683553496E+02  0.44308577293E+02  0.00000000000E+00 0.  1.
</event>
<event>
 7    1  0.2429906E-015  0.9000870E+02  0.7816164E-02  0.1186337E+00
        -11   -1    0    0    0    0  0.00000000000E+00  0.00000000000E+00  0.45593999997E+02  0.45594000000E+02  0.51100000000E-03 0.  1.
         11   -1    0    0    0    0 -0.00000000000E+00 -0.00000000000E+00 -0.45593999997E+02  0.45594000000E+02  0.51100000000E-03 0. -1.
    9900012    2    1    2    0    0 -0.68720434839E+00 -0.95550851240E+00 -0.74126032193E-01  0.90008703175E+02  0.90000977251E+02 0.  0.
        -12    1    1    2    0    0  0.68720434839E+00  0.95550851240E+00  0.74126032193E-01  0.11792968254E+01  0.00000000000E+00 0.  1.
         11    1    3    3    0    0  0.40900231729E+01  0.48252524294E+01  0.89825002916E+01  0.10986203271E+02  0.51100000000E-03 0. -1.
        -11    1    3    3    0    0  0.11771961297E+02 -0.32066179650E+02  0.17296447810E+02  0.38288197362E+02  0.51100000000E-03 0.  1.
         12    1    3    3    0    0 -0.16549188818E+02  0.26285418709E+02 -0.26353074134E+02  0.40734302541E+02  0.00000000000E+00 0. -1.
</event>
<event>
 7    1  0.2429906E-015  0.9000772E+02  0.7816164E-02  0.1186339E+00
        -11   -1    0    0    0    0  0.00000000000E+00  0.00000000000E+00  0.45593999997E+02  0.45594000000E+02  0.51100000000E-03 0. -1.
         11   -1    0    0    0    0 -0.00000000000E+00 -0.00000000000E+00 -0.45593999997E+02  0.45594000000E+02  0.51100000000E-03 0.  1.
    9900012    2    1    2    0    0 -0.37216740793E+00 -0.11187651292E+01 -0.54076284119E-01  0.90007716882E+02  0.89999977945E+02 0.  0.
        -12    1    1    2    0    0  0.37216740793E+00  0.11187651292E+01  0.54076284119E-01  0.11802831179E+01  0.00000000000E+00 0.  1.
         11    1    3    3    0    0 -0.41974509670E+01  0.65230011533E+00 -0.78312785730E+01  0.89091534059E+01  0.51100000000E-03 0. -1.
        -11    1    3    3    0    0 -0.22718467654E+02 -0.67971203392E+01 -0.27727270084E+02  0.36484669713E+02  0.51100000000E-03 0.  1.
         12    1    3    3    0    0  0.26543751214E+02  0.50260550947E+01  0.35504472373E+02  0.44613893764E+02  0.00000000000E+00 0. -1.
</event>
<event>
 7    1  0.2429906E-015  0.9000761E+02  0.7816164E-02  0.1186339E+00
        -11   -1    0    0    0    0  0.00000000000E+00  0.00000000000E+00  0.45593999997E+02  0.45594000000E+02  0.51100000000E-03 0.  1.
         11   -1    0    0    0    0 -0.00000000000E+00 -0.00000000000E+00 -0.45593999997E+02  0.45594000000E+02  0.51100000000E-03 0. -1.
    9900012    2    1    2    0    0 -0.33712763296E+00  0.93415542768E+00 -0.63797767914E+00  0.90007611537E+02  0.89999871209E+02 0.  0.
        -12    1    1    2    0    0  0.33712763296E+00 -0.93415542768E+00  0.63797767914E+00  0.11803884628E+01  0.00000000000E+00 0.  1.
         11    1    3    3    0    0 -0.14150527356E+02  0.12525381179E+02 -0.36342049682E+02  0.40961776982E+02  0.51100000000E-03 0. -1.
        -11    1    3    3    0    0 -0.21911822984E+01 -0.69540193172E+01 -0.22208557758E+01  0.76218019633E+01  0.51100000000E-03 0.  1.
        -12    1    3    3    0    0  0.16004582022E+02 -0.46372064344E+01  0.37924927779E+02  0.41424032592E+02  0.00000000000E+00 0.  1.
</event>
<event>
 7    1  0.2429906E-015  0.9000780E+02  0.7816164E-02  0.1186339E+00
        -11   -1    0    0    0    0  0.00000000000E+00  0.00000000000E+00  0.45593999997E+02  0.45594000000E+02  0.51100000000E-03 0.  1.
         11   -1    0    0    0    0 -0.00000000000E+00 -0.00000000000E+00 -0.45593999997E+02  0.45594000000E+02  0.51100000000E-03 0. -1.
    9900012    2    1    2    0    0 -0.10127365742E+01  0.49578772410E+00  0.34848213730E+00  0.90007796358E+02  0.90000058470E+02 0.  0.
        -12    1    1    2    0    0  0.10127365742E+01 -0.49578772410E+00 -0.34848213730E+00  0.11802036418E+01  0.00000000000E+00 0.  1.
         11    1    3    3    0    0 -0.90684030886E+01 -0.92096305524E+00 -0.17550178912E+02  0.19776068559E+02  0.51100000000E-03 0. -1.
        -11    1    3    3    0    0 -0.35789405706E+01 -0.26847471494E+02  0.27097019538E+02  0.38312452406E+02  0.51100000000E-03 0.  1.
         12    1    3    3    0    0  0.11634607085E+02  0.28264222273E+02 -0.91983584887E+01  0.31919275393E+02  0.00000000000E+00 0. -1.
</event>
<event>
 7    1  0.2429906E-015  0.9000775E+02  0.7816164E-02  0.1186339E+00
        -11   -1    0    0    0    0  0.00000000000E+00  0.00000000000E+00  0.45593999997E+02  0.45594000000E+02  0.51100000000E-03 0.  1.
         11   -1    0    0    0    0 -0.00000000000E+00 -0.00000000000E+00 -0.45593999997E+02  0.45594000000E+02  0.51100000000E-03 0. -1.
    9900012    2    1    2    0    0  0.83571499991E+00  0.58784747090E+00 -0.59076560437E+00  0.90007750785E+02  0.90000012295E+02 0.  0.
        -12    1    1    2    0    0 -0.83571499991E+00 -0.58784747090E+00  0.59076560437E+00  0.11802492150E+01  0.00000000000E+00 0.  1.
         11    1    3    3    0    0 -0.12111234358E+02 -0.11419875781E+02  0.14122415853E+02  0.21829754701E+02  0.51100000000E-03 0. -1.
        -11    1    3    3    0    0  0.37542645211E+01 -0.25655280720E+02  0.19036502055E+01  0.25998304084E+02  0.51100000000E-03 0.  1.
        -12    1    3    3    0    0  0.91926848370E+01  0.37663003971E+02 -0.16616831663E+02  0.42179691999E+02  0.00000000000E+00 0.  1.
</event>
<event>
 7    1  0.2429906E-015  0.9000779E+02  0.7816164E-02  0.1186339E+00
        -11   -1    0    0    0    0  0.00000000000E+00  0.00000000000E+00  0.45593999997E+02  0.45594000000E+02  0.51100000000E-03 0.  1.
         11   -1    0    0    0    0 -0.00000000000E+00 -0.00000000000E+00 -0.45593999997E+02  0.45594000000E+02  0.51100000000E-03 0. -1.
    9900012    2    1    2    0    0 -0.10421831348E+01 -0.39726464450E+00 -0.38591377231E+00  0.90007790559E+02  0.90000052595E+02 0.  0.
        -12    1    1    2    0    0  0.10421831348E+01  0.39726464450E+00  0.38591377231E+00  0.11802094407E+01  0.00000000000E+00 0.  1.
         11    1    3    3    0    0  0.11907139709E+02 -0.21002634686E+02  0.23312011055E+02  0.33560996700E+02  0.51100000000E-03 0. -1.
        -11    1    3    3    0    0  0.47727946138E+01 -0.27261202172E+01  0.10233566400E+02  0.11616246441E+02  0.51100000000E-03 0.  1.
        -12    1    3    3    0    0 -0.17722117458E+02  0.23331490258E+02 -0.33931491228E+02  0.44830547418E+02  0.00000000000E+00 0.  1.
</event>
<event>
 7    1  0.2429906E-015  0.9000782E+02  0.7816164E-02  0.1186339E+00
        -11   -1    0    0    0    0  0.00000000000E+00  0.00000000000E+00  0.45593999997E+02  0.45594000000E+02  0.51100000000E-03 0.  1.
         11   -1    0    0    0    0 -0.00000000000E+00 -0.00000000000E+00 -0.45593999997E+02  0.45594000000E+02  0.51100000000E-03 0. -1.
    9900012    2    1    2    0    0 -0.94336082006E+00 -0.49917075763E+00 -0.50370539225E+00  0.90007821961E+02  0.90000084411E+02 0.  0.
        -12    1    1    2    0    0  0.94336082006E+00  0.49917075763E+00  0.50370539225E+00  0.11801780392E+01  0.00000000000E+00 0.  1.
         11    1    3    3    0    0 -0.50797882797E+01 -0.83100555915E+01  0.45078875773E+01  0.10732302808E+02  0.51100000000E-03 0. -1.
        -11    1    3    3    0    0  0.26418990241E+00  0.12660353294E+02  0.35810976634E+02  0.37983949104E+02  0.51100000000E-03 0.  1.
         12    1    3    3    0    0  0.38722375572E+01 -0.48494684603E+01 -0.40822569603E+02  0.41291570048E+02  0.00000000000E+00 0. -1.
</event>
<event>
 7    1  0.2429906E-015  0.9000779E+02  0.7816164E-02  0.1186339E+00
        -11   -1    0    0    0    0  0.00000000000E+00  0.00000000000E+00  0.45593999997E+02  0.45594000000E+02  0.51100000000E-03 0.  1.
         11   -1    0    0    0    0 -0.00000000000E+00 -0.00000000000E+00 -0.45593999997E+02  0.45594000000E+02  0.51100000000E-03 0. -1.
    9900012    2    1    2    0    0 -0.61948723229E+00  0.70178134304E-01 -0.10021018428E+01  0.90007789212E+02  0.90000051229E+02 0.  0.
        -12    1    1    2    0    0  0.61948723229E+00 -0.70178134304E-01  0.10021018428E+01  0.11802107883E+01  0.00000000000E+00 0.  1.
         11    1    3    3    0    0 -0.20284208155E+02  0.26601385390E+01 -0.22116916276E+02  0.30127784906E+02  0.51100000000E-03 0. -1.
        -11    1    3    3    0    0  0.10798496135E+02  0.24317170085E+02  0.43479060816E+01  0.26959906662E+02  0.51100000000E-03 0.  1.
         12    1    3    3    0    0  0.88662247879E+01 -0.26907130489E+02  0.16766908352E+02  0.32920097643E+02  0.00000000000E+00 0. -1.
</event>
<event>
 7    1  0.2429906E-015  0.9000776E+02  0.7816164E-02  0.1186339E+00
        -11   -1    0    0    0    0  0.00000000000E+00  0.00000000000E+00  0.45593999997E+02  0.45594000000E+02  0.51100000000E-03 0. -1.
         11   -1    0    0    0    0 -0.00000000000E+00 -0.00000000000E+00 -0.45593999997E+02  0.45594000000E+02  0.51100000000E-03 0.  1.
    9900012    2    1    2    0    0 -0.11302605185E+01  0.28095363166E+00  0.19113260420E+00  0.90007764661E+02  0.90000026355E+02 0.  0.
        -12    1    1    2    0    0  0.11302605185E+01 -0.28095363166E+00 -0.19113260420E+00  0.11802353389E+01  0.00000000000E+00 0.  1.
         11    1    3    3    0    0  0.31204576339E+02 -0.29456598837E+02 -0.68871118969E+01  0.43460891731E+02  0.51100000000E-03 0. -1.
        -11    1    3    3    0    0 -0.50534924392E+01  0.37629538118E+01  0.62413571392E+01  0.88686045364E+01  0.51100000000E-03 0.  1.
        -12    1    3    3    0    0 -0.27281344418E+02  0.25974598657E+02  0.83688736192E+00  0.37678268393E+02  0.00000000000E+00 0.  1.
</event>
<event>
 7    1  0.2429906E-015  0.9000771E+02  0.7816164E-02  0.1186339E+00
        -11   -1    0    0    0    0  0.00000000000E+00  0.00000000000E+00  0.45593999997E+02  0.45594000000E+02  0.51100000000E-03 0.  1.
         11   -1    0    0    0    0 -0.00000000000E+00 -0.00000000000E+00 -0.45593999997E+02  0.45594000000E+02  0.51100000000E-03 0. -1.
    9900012    2    1    2    0    0 -0.81601058781E+00  0.73749473101E+00 -0.42814295676E+00  0.90007712684E+02  0.89999973691E+02 0.  0.
        -12    1    1    2    0    0  0.81601058781E+00 -0.73749473101E+00  0.42814295676E+00  0.11802873163E+01  0.00000000000E+00 0.  1.
         11    1    3    3    0    0  0.79067906212E+01 -0.79992816596E+00  0.57661968737E+01  0.98186684253E+01  0.51100000000E-03 0. -1.
        -11    1    3    3    0    0 -0.15479813614E+02  0.29346038189E+02 -0.28631342393E+02  0.43824289548E+02  0.51100000000E-03 0.  1.
         12    1    3    3    0    0  0.67570124053E+01 -0.27808615292E+02  0.22437002563E+02  0.36364754710E+02  0.00000000000E+00 0. -1.
</event>
<event>
 7    1  0.2429906E-015  0.9000790E+02  0.7816164E-02  0.1186339E+00
        -11   -1    0    0    0    0  0.00000000000E+00  0.00000000000E+00  0.45593999997E+02  0.45594000000E+02  0.51100000000E-03 0.  1.
         11   -1    0    0    0    0 -0.00000000000E+00 -0.00000000000E+00 -0.45593999997E+02  0.45594000000E+02  0.51100000000E-03 0. -1.
    9900012    2    1    2    0    0  0.36220777747E+00  0.10541513099E+01  0.38755659437E+00  0.90007902728E+02  0.90000166244E+02 0.  0.
        -12    1    1    2    0    0 -0.36220777747E+00 -0.10541513099E+01 -0.38755659437E+00  0.11800972723E+01  0.00000000000E+00 0.  1.
         11    1    3    3    0    0  0.31357618665E+01 -0.82253220890E+01 -0.14798829167E+01  0.89263082884E+01  0.51100000000E-03 0. -1.
        -11    1    3    3    0    0 -0.24387414240E+02 -0.91508493487E+00  0.33493825458E+02  0.41441762726E+02  0.51100000000E-03 0.  1.
         12    1    3    3    0    0  0.21613860151E+02  0.10194558334E+02 -0.31626385947E+02  0.39639831714E+02  0.00000000000E+00 0. -1.
</event>
<event>
 7    1  0.2429906E-015  0.9000790E+02  0.7816164E-02  0.1186339E+00
        -11   -1    0    0    0    0  0.00000000000E+00  0.00000000000E+00  0.45593999997E+02  0.45594000000E+02  0.51100000000E-03 0. -1.
         11   -1    0    0    0    0 -0.00000000000E+00 -0.00000000000E+00 -0.45593999997E+02  0.45594000000E+02  0.51100000000E-03 0.  1.
    9900012    2    1    2    0    0  0.23622869168E+00  0.85033317659E+00  0.78343561835E+00  0.90007897515E+02  0.90000160962E+02 0.  0.
        -12    1    1    2    0    0 -0.23622869168E+00 -0.85033317659E+00 -0.78343561835E+00  0.11801024846E+01  0.00000000000E+00 0.  1.
         11    1    3    3    0    0 -0.24342670510E+02  0.15214059646E+01 -0.18035169076E+02  0.30333934917E+02  0.51100000000E-03 0. -1.
        -11    1    3    3    0    0 -0.10203934358E+02  0.28173440241E+01  0.22158735159E+02  0.24557427550E+02  0.51100000000E-03 0.  1.
        -12    1    3    3    0    0  0.34782833560E+02 -0.34884168121E+01 -0.33401304652E+01  0.35116535049E+02  0.00000000000E+00 0.  1.
</event>
<event>
 7    1  0.2429906E-015  0.9000773E+02  0.7816164E-02  0.1186339E+00
        -11   -1    0    0    0    0  0.00000000000E+00  0.00000000000E+00  0.45593999997E+02  0.45594000000E+02  0.51100000000E-03 0.  1.
         11   -1    0    0    0    0 -0.00000000000E+00 -0.00000000000E+00 -0.45593999997E+02  0.45594000000E+02  0.51100000000E-03 0. -1.
    9900012    2    1    2    0    0 -0.74748148672E-01 -0.10266812570E+01  0.57739144393E+00  0.90007727757E+02  0.89999988963E+02 0.  0.
        -12    1    1    2    0    0  0.74748148672E-01  0.10266812570E+01 -0.57739144393E+00  0.11802722435E+01  0.00000000000E+00 0.  1.
         11    1    3    3    0    0  0.23079951524E+02  0.23609234109E+02  0.99086282899E+01  0.34471162041E+02  0.51100000000E-03 0. -1.
        -11    1    3    3    0    0  0.54119004444E+01  0.90657112608E+01 -0.14017309120E+01  0.10650851463E+02  0.51100000000E-03 0.  1.
        -12    1    3    3    0    0 -0.28566600117E+02 -0.33701626627E+02 -0.79295059340E+01  0.44885714252E+02  0.00000000000E+00 0.  1.
</event>
<event>
 7    1  0.2429906E-015  0.9000777E+02  0.7816164E-02  0.1186339E+00
        -11   -1    0    0    0    0  0.00000000000E+00  0.00000000000E+00  0.45593999997E+02  0.45594000000E+02  0.51100000000E-03 0. -1.
         11   -1    0    0    0    0 -0.00000000000E+00 -0.00000000000E+00 -0.45593999997E+02  0.45594000000E+02  0.51100000000E-03 0.  1.
    9900012    2    1    2    0    0  0.77534419833E+00  0.37910201479E+00  0.80502280445E+00  0.90007771768E+02  0.90000033556E+02 0.  0.
        -12    1    1    2    0    0 -0.77534419833E+00 -0.37910201479E+00 -0.80502280445E+00  0.11802282318E+01  0.00000000000E+00 0.  1.
         11    1    3    3    0    0 -0.14235036745E+01  0.33567966318E+01  0.95222137255E+01  0.10196420982E+02  0.51100000000E-03 0. -1.
        -11    1    3    3    0    0 -0.34853233419E+02 -0.30457483715E+01 -0.20965811345E+02  0.40787126750E+02  0.51100000000E-03 0.  1.
         12    1    3    3    0    0  0.37052081292E+02  0.68053754432E-01  0.12248620424E+02  0.39024224037E+02  0.00000000000E+00 0. -1.
</event>
<event>
 7    1  0.2429906E-015  0.9000773E+02  0.7816164E-02  0.1186339E+00
        -11   -1    0    0    0    0  0.00000000000E+00  0.00000000000E+00  0.45593999997E+02  0.45594000000E+02  0.51100000000E-03 0. -1.
         11   -1    0    0    0    0 -0.00000000000E+00 -0.00000000000E+00 -0.45593999997E+02  0.45594000000E+02  0.51100000000E-03 0.  1.
    9900012    2    1    2    0    0 -0.15966385438E+00  0.30436021889E+00  0.11291214463E+01  0.90007727604E+02  0.89999988808E+02 0.  0.
        -12    1    1    2    0    0  0.15966385438E+00 -0.30436021889E+00 -0.11291214463E+01  0.11802723965E+01  0.00000000000E+00 0.  1.
         11    1    3    3    0    0  0.89903196341E+01 -0.82686806975E+01  0.38463980721E+01  0.12805924644E+02  0.51100000000E-03 0. -1.
        -11    1    3    3    0    0  0.23439638061E+02 -0.11579577707E+02  0.19766356861E+02  0.32775175303E+02  0.51100000000E-03 0.  1.
         12    1    3    3    0    0 -0.32589621550E+02  0.20152618624E+02 -0.22483633487E+02  0.44426627656E+02  0.00000000000E+00 0. -1.
</event>
<event>
 7    1  0.2429906E-015  0.9000829E+02  0.7816164E-02  0.1186338E+00
        -11   -1    0    0    0    0  0.00000000000E+00  0.00000000000E+00  0.45593999997E+02  0.45594000000E+02  0.51100000000E-03 0.  1.
         11   -1    0    0    0    0 -0.00000000000E+00 -0.00000000000E+00 -0.45593999997E+02  0.45594000000E+02  0.51100000000E-03 0. -1.
    9900012    2    1    2    0    0 -0.90549153436E-01 -0.85710060580E+00 -0.80553698681E+00  0.90008292225E+02  0.90000560880E+02 0.  0.
        -12    1    1    2    0    0  0.90549153436E-01  0.85710060580E+00  0.80553698681E+00  0.11797077752E+01  0.00000000000E+00 0.  1.
         11    1    3    3    0    0 -0.12402528009E+02 -0.55665337268E+01  0.95076529650E+01  0.16589287625E+02  0.51100000000E-03 0. -1.
        -11    1    3    3    0    0  0.10144337415E+02  0.36614614736E+02 -0.15478379665E+02  0.41025819080E+02  0.51100000000E-03 0.  1.
         12    1    3    3    0    0  0.21676414412E+01 -0.31905181615E+02  0.51651897131E+01  0.32393185519E+02  0.00000000000E+00 0. -1.
</event>
<event>
 7    1  0.2429906E-015  0.9000777E+02  0.7816164E-02  0.1186339E+00
        -11   -1    0    0    0    0  0.00000000000E+00  0.00000000000E+00  0.45593999997E+02  0.45594000000E+02  0.51100000000E-03 0.  1.
         11   -1    0    0    0    0 -0.00000000000E+00 -0.00000000000E+00 -0.45593999997E+02  0.45594000000E+02  0.51100000000E-03 0. -1.
    9900012    2    1    2    0    0 -0.36648726776E+00  0.10362189556E+01 -0.42998048815E+00  0.90007768725E+02  0.90000030473E+02 0.  0.
        -12    1    1    2    0    0  0.36648726776E+00 -0.10362189556E+01  0.42998048815E+00  0.11802312746E+01  0.00000000000E+00 0.  1.
         11    1    3    3    0    0  0.21570828890E+02  0.28661970193E+02 -0.14306277992E+02  0.38619668365E+02  0.51100000000E-03 0. -1.
        -11    1    3    3    0    0 -0.86029669565E+00  0.79023724265E+01  0.49195644204E+00  0.79642715783E+01  0.51100000000E-03 0.  1.
        -12    1    3    3    0    0 -0.21077019462E+02 -0.35528123664E+02  0.13384341062E+02  0.43423828783E+02  0.00000000000E+00 0.  1.
</event>
<event>
 7    1  0.2429906E-015  0.9000775E+02  0.7816164E-02  0.1186339E+00
        -11   -1    0    0    0    0  0.00000000000E+00  0.00000000000E+00  0.45593999997E+02  0.45594000000E+02  0.51100000000E-03 0.  1.
         11   -1    0    0    0    0 -0.00000000000E+00 -0.00000000000E+00 -0.45593999997E+02  0.45594000000E+02  0.51100000000E-03 0. -1.
    9900012    2    1    2    0    0  0.78455017018E+00  0.85720991732E+00 -0.20654470430E+00  0.90007750651E+02  0.90000012159E+02 0.  0.
        -12    1    1    2    0    0 -0.78455017018E+00 -0.85720991732E+00  0.20654470430E+00  0.11802493494E+01  0.00000000000E+00 0.  1.
         11    1    3    3    0    0 -0.21720078853E+02  0.30535794651E+02  0.38339570451E+01  0.37668233397E+02  0.51100000000E-03 0. -1.
        -11    1    3    3    0    0  0.21729820717E+01  0.37959209581E+01  0.98552163932E+01  0.10782214866E+02  0.51100000000E-03 0.  1.
        -12    1    3    3    0    0  0.20331646951E+02 -0.33474505692E+02 -0.13895718143E+02  0.41557302388E+02  0.00000000000E+00 0.  1.
</event>
<event>
 7    1  0.2429906E-015  0.9000775E+02  0.7816164E-02  0.1186339E+00
        -11   -1    0    0    0    0  0.00000000000E+00  0.00000000000E+00  0.45593999997E+02  0.45594000000E+02  0.51100000000E-03 0.  1.
         11   -1    0    0    0    0 -0.00000000000E+00 -0.00000000000E+00 -0.45593999997E+02  0.45594000000E+02  0.51100000000E-03 0. -1.
    9900012    2    1    2    0    0 -0.18927340919E+00 -0.10792715727E+01  0.43857564978E+00  0.90007745726E+02  0.90000007169E+02 0.  0.
        -12    1    1    2    0    0  0.18927340919E+00  0.10792715727E+01 -0.43857564978E+00  0.11802542742E+01  0.00000000000E+00 0.  1.
         11    1    3    3    0    0  0.85300733302E+01 -0.32809225401E+02 -0.95930206349E+01  0.35231143433E+02  0.51100000000E-03 0. -1.
        -11    1    3    3    0    0  0.22142382705E+01 -0.92854287374E+01 -0.35874616416E+01  0.10197642828E+02  0.51100000000E-03 0.  1.
        -12    1    3    3    0    0 -0.10933585010E+02  0.41015382566E+02  0.13619057926E+02  0.44578959465E+02  0.00000000000E+00 0.  1.
</event>
<event>
 7    1  0.2563864E-015  0.9000775E+02  0.7816164E-02  0.1186339E+00
        -11   -1    0    0    0    0  0.00000000000E+00  0.00000000000E+00  0.45593999997E+02  0.45594000000E+02  0.51100000000E-03 0. -1.
         11   -1    0    0    0    0 -0.00000000000E+00 -0.00000000000E+00 -0.45593999997E+02  0.45594000000E+02  0.51100000000E-03 0.  1.
    9900012    2    1    2    0    0  0.99505918951E+00 -0.57648814250E+00  0.26554253854E+00  0.90007748243E+02  0.90000009720E+02 0.  0.
        -12    1    1    2    0    0 -0.99505918951E+00  0.57648814250E+00 -0.26554253854E+00  0.11802517566E+01  0.00000000000E+00 0.  1.
         11    1    3    3    0    0  0.31162717850E+02 -0.18757792252E+02  0.10873806787E+02  0.37963264193E+02  0.51100000000E-03 0. -1.
        -11    1    3    3    0    0 -0.12408835546E+01 -0.67475611474E+01  0.71688975186E+01  0.99228254709E+01  0.51100000000E-03 0.  1.
        -12    1    3    3    0    0 -0.28926775105E+02  0.24928865256E+02 -0.17777161767E+02  0.42121658579E+02  0.00000000000E+00 0.  1.
</event>
<event>
 7    1  0.2429906E-015  0.9000766E+02  0.7816164E-02  0.1186339E+00
        -11   -1    0    0    0    0  0.00000000000E+00  0.00000000000E+00  0.45593999997E+02  0.45594000000E+02  0.51100000000E-03 0. -1.
         11   -1    0    0    0    0 -0.00000000000E+00 -0.00000000000E+00 -0.45593999997E+02  0.45594000000E+02  0.51100000000E-03 0.  1.
    9900012    2    1    2    0    0 -0.67755103924E+00  0.45332140697E+00  0.85359088832E+00  0.90007663983E+02  0.89999924347E+02 0.  0.
        -12    1    1    2    0    0  0.67755103924E+00 -0.45332140697E+00 -0.85359088832E+00  0.11803360172E+01  0.00000000000E+00 0.  1.
         11    1    3    3    0    0  0.29108379676E+02 -0.89955098792E+01  0.23249055186E+02  0.38324085542E+02  0.51100000000E-03 0. -1.
        -11    1    3    3    0    0  0.35675754962E+01 -0.66319568595E+01 -0.10241635814E+02  0.12712259874E+02  0.51100000000E-03 0.  1.
        -12    1    3    3    0    0 -0.33353506211E+02  0.16080788146E+02 -0.12153828484E+02  0.38971318566E+02  0.00000000000E+00 0.  1.
</event>
<event>
 7    1  0.2429906E-015  0.9000729E+02  0.7816164E-02  0.1186340E+00
        -11   -1    0    0    0    0  0.00000000000E+00  0.00000000000E+00  0.45593999997E+02  0.45594000000E+02  0.51100000000E-03 0.  1.
         11   -1    0    0    0    0 -0.00000000000E+00 -0.00000000000E+00 -0.45593999997E+02  0.45594000000E+02  0.51100000000E-03 0. -1.
    9900012    2    1    2    0    0  0.66060225426E+00 -0.36753094803E+00 -0.90696753303E+00  0.90007294939E+02  0.89999550431E+02 0.  0.
        -12    1    1    2    0    0 -0.66060225426E+00  0.36753094803E+00  0.90696753303E+00  0.11807050614E+01  0.00000000000E+00 0.  1.
         11    1    3    3    0    0  0.10528254956E+02 -0.39989372369E+02  0.11110557185E+02  0.42818670415E+02  0.51100000000E-03 0. -1.
        -11    1    3    3    0    0  0.42260071879E+01  0.42786689958E+01  0.24330920672E+01  0.64873786999E+01  0.51100000000E-03 0.  1.
        -12    1    3    3    0    0 -0.14093659889E+02  0.35343172425E+02 -0.14450616785E+02  0.40701245824E+02  0.00000000000E+00 0.  1.
</event>
<event>
 7    1  0.2429906E-015  0.9000767E+02  0.7816164E-02  0.1186339E+00
        -11   -1    0    0    0    0  0.00000000000E+00  0.00000000000E+00  0.45593999997E+02  0.45594000000E+02  0.51100000000E-03 0.  1.
         11   -1    0    0    0    0 -0.00000000000E+00 -0.00000000000E+00 -0.45593999997E+02  0.45594000000E+02  0.51100000000E-03 0. -1.
    9900012    2    1    2    0    0  0.23699741689E+00  0.64283454816E+00 -0.96113516715E+00  0.90007667487E+02  0.89999927898E+02 0.  0.
        -12    1    1    2    0    0 -0.23699741689E+00 -0.64283454816E+00  0.96113516715E+00  0.11803325131E+01  0.00000000000E+00 0.  1.
         11    1    3    3    0    0  0.23068329086E+01 -0.84060927789E+01 -0.70012675956E+00  0.87449443461E+01  0.51100000000E-03 0. -1.
        -11    1    3    3    0    0  0.26642998341E+02  0.10987167803E+02  0.28531685028E+02  0.40553967349E+02  0.51100000000E-03 0.  1.
         12    1    3    3    0    0 -0.28712833833E+02 -0.19382404757E+01 -0.28792693435E+02  0.40708755792E+02  0.00000000000E+00 0. -1.
</event>
<event>
 7    1  0.2429906E-015  0.9000799E+02  0.7816164E-02  0.1186339E+00
        -11   -1    0    0    0    0  0.00000000000E+00  0.00000000000E+00  0.45593999997E+02  0.45594000000E+02  0.51100000000E-03 0.  1.
         11   -1    0    0    0    0 -0.00000000000E+00 -0.00000000000E+00 -0.45593999997E+02  0.45594000000E+02  0.51100000000E-03 0. -1.
    9900012    2    1    2    0    0 -0.24677354397E+00  0.10080003857E+01 -0.56164996702E+00  0.90007994642E+02  0.90000259371E+02 0.  0.
        -12    1    1    2    0    0  0.24677354397E+00 -0.10080003857E+01  0.56164996702E+00  0.11800053580E+01  0.00000000000E+00 0.  1.
         11    1    3    3    0    0 -0.56704501518E+01  0.31469841992E+02  0.10522699269E+01  0.31993940554E+02  0.51100000000E-03 0. -1.
        -11    1    3    3    0    0 -0.26393589586E+01 -0.10223868967E+01 -0.21433926289E+02  0.21620006639E+02  0.51100000000E-03 0.  1.
        -12    1    3    3    0    0  0.80630355665E+01 -0.29439454710E+02  0.19820006395E+02  0.36394047448E+02  0.00000000000E+00 0.  1.
</event>
<event>
 7    1  0.2521100E-015  0.9000778E+02  0.7816164E-02  0.1186339E+00
        -11   -1    0    0    0    0  0.00000000000E+00  0.00000000000E+00  0.45593999997E+02  0.45594000000E+02  0.51100000000E-03 0.  1.
         11   -1    0    0    0    0 -0.00000000000E+00 -0.00000000000E+00 -0.45593999997E+02  0.45594000000E+02  0.51100000000E-03 0. -1.
    9900012    2    1    2    0    0 -0.63287351839E+00  0.83313821118E+00 -0.54613292077E+00  0.90007784199E+02  0.90000046151E+02 0.  0.
        -12    1    1    2    0    0  0.63287351839E+00 -0.83313821118E+00  0.54613292077E+00  0.11802158008E+01  0.00000000000E+00 0.  1.
         11    1    3    3    0    0 -0.12997207046E+02 -0.24990967566E+02 -0.31839169885E+02  0.42511276035E+02  0.51100000000E-03 0. -1.
        -11    1    3    3    0    0  0.48082542541E+01 -0.30428171711E+01  0.69838795234E+01  0.90084748303E+01  0.51100000000E-03 0.  1.
        -12    1    3    3    0    0  0.75560792735E+01  0.28866922948E+02  0.24309157441E+02  0.38488033334E+02  0.00000000000E+00 0.  1.
</event>
<event>
 7    1  0.2429906E-015  0.9000771E+02  0.7816164E-02  0.1186339E+00
        -11   -1    0    0    0    0  0.00000000000E+00  0.00000000000E+00  0.45593999997E+02  0.45594000000E+02  0.51100000000E-03 0. -1.
         11   -1    0    0    0    0 -0.00000000000E+00 -0.00000000000E+00 -0.45593999997E+02  0.45594000000E+02  0.51100000000E-03 0.  1.
    9900012    2    1    2    0    0 -0.57004253279E+00 -0.85811603282E+00  0.57599017638E+00  0.90007713468E+02  0.89999974485E+02 0.  0.
        -12    1    1    2    0    0  0.57004253279E+00  0.85811603282E+00 -0.57599017638E+00  0.11802865323E+01  0.00000000000E+00 0.  1.
         11    1    3    3    0    0  0.25372162207E+01 -0.87026715727E+01  0.39437221978E+01  0.98856918669E+01  0.51100000000E-03 0. -1.
        -11    1    3    3    0    0 -0.81854456616E+01 -0.32956587932E+02  0.12307409288E+02  0.36119392748E+02  0.51100000000E-03 0.  1.
         12    1    3    3    0    0  0.50781869081E+01  0.40801143472E+02 -0.15675141310E+02  0.44002628853E+02  0.00000000000E+00 0. -1.
</event>
<event>
 7    1  0.2429906E-015  0.9000774E+02  0.7816164E-02  0.1186339E+00
        -11   -1    0    0    0    0  0.00000000000E+00  0.00000000000E+00  0.45593999997E+02  0.45594000000E+02  0.51100000000E-03 0.  1.
         11   -1    0    0    0    0 -0.00000000000E+00 -0.00000000000E+00 -0.45593999997E+02  0.45594000000E+02  0.51100000000E-03 0. -1.
    9900012    2    1    2    0    0 -0.82548639556E+00 -0.37401591753E+00 -0.75610822829E+00  0.90007739288E+02  0.90000000646E+02 0.  0.
        -12    1    1    2    0    0  0.82548639556E+00  0.37401591753E+00  0.75610822829E+00  0.11802607122E+01  0.00000000000E+00 0.  1.
         11    1    3    3    0    0 -0.69046031078E+01  0.44701791802E+01 -0.46067634993E+01  0.94275296965E+01  0.51100000000E-03 0. -1.
        -11    1    3    3    0    0 -0.28100288642E+02  0.22702474210E+02 -0.25629352196E+01  0.36215979819E+02  0.51100000000E-03 0.  1.
         12    1    3    3    0    0  0.34179405354E+02 -0.27546669308E+02  0.64135904907E+01  0.44364229773E+02  0.00000000000E+00 0. -1.
</event>
<event>
 7    1  0.2429906E-015  0.9000780E+02  0.7816164E-02  0.1186339E+00
        -11   -1    0    0    0    0  0.00000000000E+00  0.00000000000E+00  0.45593999997E+02  0.45594000000E+02  0.51100000000E-03 0.  1.
         11   -1    0    0    0    0 -0.00000000000E+00 -0.00000000000E+00 -0.45593999997E+02  0.45594000000E+02  0.51100000000E-03 0. -1.
    9900012    2    1    2    0    0 -0.63188348388E+00 -0.95738340052E+00 -0.27752225282E+00  0.90007797342E+02  0.90000059467E+02 0.  0.
        -12    1    1    2    0    0  0.63188348388E+00  0.95738340052E+00  0.27752225282E+00  0.11802026579E+01  0.00000000000E+00 0.  1.
         11    1    3    3    0    0  0.12953422798E+02  0.12220954138E+02 -0.35665195614E+02  0.39864132509E+02  0.51100000000E-03 0. -1.
        -11    1    3    3    0    0 -0.38177918687E+01 -0.49411987010E+01 -0.48624601214E+01  0.79141959825E+01  0.51100000000E-03 0.  1.
        -12    1    3    3    0    0 -0.97675144131E+01 -0.82371388373E+01  0.40250133483E+02  0.42229468851E+02  0.00000000000E+00 0.  1.
</event>
<event>
 7    1  0.2429906E-015  0.9000773E+02  0.7816164E-02  0.1186339E+00
        -11   -1    0    0    0    0  0.00000000000E+00  0.00000000000E+00  0.45593999997E+02  0.45594000000E+02  0.51100000000E-03 0.  1.
         11   -1    0    0    0    0 -0.00000000000E+00 -0.00000000000E+00 -0.45593999997E+02  0.45594000000E+02  0.51100000000E-03 0. -1.
    9900012    2    1    2    0    0  0.55799993464E+00 -0.79454330105E+00 -0.67110732226E+00  0.90007725446E+02  0.89999986622E+02 0.  0.
        -12    1    1    2    0    0 -0.55799993464E+00  0.79454330105E+00  0.67110732226E+00  0.11802745538E+01  0.00000000000E+00 0.  1.
         11    1    3    3    0    0  0.88875146343E+01  0.27667372104E+01  0.59016385085E+00  0.93268989916E+01  0.51100000000E-03 0. -1.
        -11    1    3    3    0    0  0.44502361443E+01  0.22899119467E+02  0.29851412340E+02  0.37885103841E+02  0.51100000000E-03 0.  1.
         12    1    3    3    0    0 -0.12779750844E+02 -0.26460399979E+02 -0.31112683513E+02  0.42795722614E+02  0.00000000000E+00 0. -1.
</event>
<event>
 7    1  0.2864146E-015  0.9000778E+02  0.7816164E-02  0.1186339E+00
        -11   -1    0    0    0    0  0.00000000000E+00  0.00000000000E+00  0.45593999997E+02  0.45594000000E+02  0.51100000000E-03 0. -1.
         11   -1    0    0    0    0 -0.00000000000E+00 -0.00000000000E+00 -0.45593999997E+02  0.45594000000E+02  0.51100000000E-03 0.  1.
    9900012    2    1    2    0    0  0.11584965085E+01 -0.17657623963E+00  0.14009590637E+00  0.90007779600E+02  0.90000041491E+02 0.  0.
        -12    1    1    2    0    0 -0.11584965085E+01  0.17657623963E+00 -0.14009590637E+00  0.11802203996E+01  0.00000000000E+00 0.  1.
         11    1    3    3    0    0 -0.23260973054E+01 -0.39154503409E+02  0.51124618361E+00  0.39226868837E+02  0.51100000000E-03 0. -1.
        -11    1    3    3    0    0  0.73235200532E+01 -0.17265795847E+01 -0.58492477978E+01  0.95304104368E+01  0.51100000000E-03 0.  1.
        -12    1    3    3    0    0 -0.38389262393E+01  0.40704506754E+02  0.54780975205E+01  0.41250500326E+02  0.00000000000E+00 0.  1.
</event>
<event>
 7    1  0.2429906E-015  0.9000831E+02  0.7816164E-02  0.1186338E+00
        -11   -1    0    0    0    0  0.00000000000E+00  0.00000000000E+00  0.45593999997E+02  0.45594000000E+02  0.51100000000E-03 0.  1.
         11   -1    0    0    0    0 -0.00000000000E+00 -0.00000000000E+00 -0.45593999997E+02  0.45594000000E+02  0.51100000000E-03 0. -1.
    9900012    2    1    2    0    0  0.81612266436E+00  0.37376646350E+00 -0.76544409132E+00  0.90008312656E+02  0.90000581581E+02 0.  0.
        -12    1    1    2    0    0 -0.81612266436E+00 -0.37376646350E+00  0.76544409132E+00  0.11796873439E+01  0.00000000000E+00 0.  1.
         11    1    3    3    0    0 -0.69209161133E+01 -0.29249322425E+02  0.18819202962E+02  0.35462435654E+02  0.51100000000E-03 0. -1.
        -11    1    3    3    0    0 -0.36953720368E+01 -0.86958008950E+01  0.11218927500E+01  0.95147974913E+01  0.51100000000E-03 0.  1.
        -12    1    3    3    0    0  0.11432410815E+02  0.38318889783E+02 -0.20706539803E+02  0.45031079510E+02  0.00000000000E+00 0.  1.
</event>
<event>
 7    1  0.2429906E-015  0.9000786E+02  0.7816164E-02  0.1186339E+00
        -11   -1    0    0    0    0  0.00000000000E+00  0.00000000000E+00  0.45593999997E+02  0.45594000000E+02  0.51100000000E-03 0. -1.
         11   -1    0    0    0    0 -0.00000000000E+00 -0.00000000000E+00 -0.45593999997E+02  0.45594000000E+02  0.51100000000E-03 0.  1.
    9900012    2    1    2    0    0 -0.35072316202E+00  0.11155394791E+01  0.15904590405E+00  0.90007859896E+02  0.90000122846E+02 0.  0.
        -12    1    1    2    0    0  0.35072316202E+00 -0.11155394791E+01 -0.15904590405E+00  0.11801401041E+01  0.00000000000E+00 0.  1.
         11    1    3    3    0    0  0.72335745670E+01  0.50772114113E+01  0.65429959246E+01  0.10996066236E+02  0.51100000000E-03 0. -1.
        -11    1    3    3    0    0  0.33836422372E+02  0.39883971285E+00 -0.14090474543E+02  0.36655204613E+02  0.51100000000E-03 0.  1.
         12    1    3    3    0    0 -0.41420720101E+02 -0.43605116451E+01  0.77065245223E+01  0.42356589048E+02  0.00000000000E+00 0. -1.
</event>
<event>
 7    1  0.2429906E-015  0.9000769E+02  0.7816164E-02  0.1186339E+00
        -11   -1    0    0    0    0  0.00000000000E+00  0.00000000000E+00  0.45593999997E+02  0.45594000000E+02  0.51100000000E-03 0.  1.
         11   -1    0    0    0    0 -0.00000000000E+00 -0.00000000000E+00 -0.45593999997E+02  0.45594000000E+02  0.51100000000E-03 0. -1.
    9900012    2    1    2    0    0  0.87450162807E+00  0.26315810379E+00 -0.74775189523E+00  0.90007687252E+02  0.89999947924E+02 0.  0.
        -12    1    1    2    0    0 -0.87450162807E+00 -0.26315810379E+00  0.74775189523E+00  0.11803127475E+01  0.00000000000E+00 0.  1.
         11    1    3    3    0    0 -0.49858884080E+01 -0.44956181603E+01  0.50475832769E+01  0.83992715790E+01  0.51100000000E-03 0. -1.
        -11    1    3    3    0    0  0.30567421217E+02 -0.26623622099E+02  0.32152928250E+01  0.40663529135E+02  0.51100000000E-03 0.  1.
         12    1    3    3    0    0 -0.24707031181E+02  0.31382398363E+02 -0.90106279971E+01  0.40944886539E+02  0.00000000000E+00 0. -1.
</event>
