<event>
 7    1  0.1161807E-013  0.5052886E+02  0.7816164E-02  0.1300439E+00
        -11   -1    0    0    0    0  0.00000000000E+00  0.00000000000E+00  0.45593999997E+02  0.45594000000E+02  0.51100000000E-03 0. -1.
         11   -1    0    0    0    0 -0.00000000000E+00 -0.00000000000E+00 -0.45593999997E+02  0.45594000000E+02  0.51100000000E-03 0.  1.
    9900012    2    1    2    0    0  0.21775389577E+02  0.30927859961E+01  0.34196970397E+02  0.50528859566E+02  0.29999999138E+02 0.  0.
        -12    1    1    2    0    0 -0.21775389577E+02 -0.30927859961E+01 -0.34196970397E+02  0.40659140434E+02  0.00000000000E+00 0.  1.
         11    1    3    3    0    0  0.16222225996E+02 -0.63541355904E+01  0.13280943488E+02  0.21907056296E+02  0.51100000000E-03 0. -1.
        -11    1    3    3    0    0  0.53599895913E+01  0.72612820820E+00 -0.56389162409E+00  0.54382648536E+01  0.51100000000E-03 0.  1.
         12    1    3    3    0    0  0.19317399027E+00  0.87207933783E+01  0.21479918533E+02  0.23183538417E+02  0.00000000000E+00 0. -1.
</event>
<event>
 7    1  0.1161807E-013  0.5052886E+02  0.7816164E-02  0.1300439E+00
        -11   -1    0    0    0    0  0.00000000000E+00  0.00000000000E+00  0.45593999997E+02  0.45594000000E+02  0.51100000000E-03 0. -1.
         11   -1    0    0    0    0 -0.00000000000E+00 -0.00000000000E+00 -0.45593999997E+02  0.45594000000E+02  0.51100000000E-03 0.  1.
    9900012    2    1    2    0    0 -0.73640801633E+01 -0.95211522596E+01 -0.38836629396E+02  0.50528858348E+02  0.29999995435E+02 0.  0.
         12    1    1    2    0    0  0.73640801633E+01  0.95211522596E+01  0.38836629396E+02  0.40659141652E+02  0.00000000000E+00 0. -1.
         11    1    3    3    0    0  0.80029592197E+00 -0.57977890290E+01 -0.32276561684E+02  0.32802915505E+02  0.51100000000E-03 0. -1.
        -11    1    3    3    0    0 -0.14965344167E+01  0.82870205238E+00 -0.91022924535E+01  0.92616462101E+01  0.51100000000E-03 0.  1.
         12    1    3    3    0    0 -0.66678416685E+01 -0.45520652831E+01  0.25422247418E+01  0.84642966333E+01  0.00000000000E+00 0. -1.
</event>
<event>
 7    1  0.1161807E-013  0.5052888E+02  0.7816164E-02  0.1300439E+00
        -11   -1    0    0    0    0  0.00000000000E+00  0.00000000000E+00  0.45593999997E+02  0.45594000000E+02  0.51100000000E-03 0. -1.
         11   -1    0    0    0    0 -0.00000000000E+00 -0.00000000000E+00 -0.45593999997E+02  0.45594000000E+02  0.51100000000E-03 0.  1.
    9900012    2    1    2    0    0  0.10729067957E+02 -0.22739965468E+02  0.31952230881E+02  0.50528880641E+02  0.30000063197E+02 0.  0.
        -12    1    1    2    0    0 -0.10729067957E+02  0.22739965468E+02 -0.31952230881E+02  0.40659119359E+02  0.00000000000E+00 0.  1.
         11    1    3    3    0    0  0.60973458493E+01 -0.12091342437E+02  0.48927506256E+01  0.14398513717E+02  0.51100000000E-03 0. -1.
        -11    1    3    3    0    0  0.77350960893E+01 -0.12349799302E+02  0.77610087842E+01  0.16510073044E+02  0.51100000000E-03 0.  1.
         12    1    3    3    0    0 -0.31033739813E+01  0.17011762709E+01  0.19298471472E+02  0.19620293879E+02  0.00000000000E+00 0. -1.
</event>
<event>
 7    1  0.1161807E-013  0.5052886E+02  0.7816164E-02  0.1300439E+00
        -11   -1    0    0    0    0  0.00000000000E+00  0.00000000000E+00  0.45593999997E+02  0.45594000000E+02  0.51100000000E-03 0. -1.
         11   -1    0    0    0    0 -0.00000000000E+00 -0.00000000000E+00 -0.45593999997E+02  0.45594000000E+02  0.51100000000E-03 0.  1.
    9900012    2    1    2    0    0 -0.71594220519E+01  0.14981562854E+02  0.37114160093E+02  0.50528862908E+02  0.30000009294E+02 0.  0.
        -12    1    1    2    0    0  0.71594220519E+01 -0.14981562854E+02 -0.37114160093E+02  0.40659137092E+02  0.00000000000E+00 0.  1.
         11    1    3    3    0    0  0.58926063563E+01  0.15975578821E+02  0.17818978188E+02  0.24646661280E+02  0.51100000000E-03 0. -1.
        -11    1    3    3    0    0  0.11844630862E+01  0.61206626320E+00 -0.51928428376E+00  0.14308159706E+01  0.51100000000E-03 0.  1.
         12    1    3    3    0    0 -0.14236491494E+02 -0.16060822302E+01  0.19814466189E+02  0.24451385657E+02  0.00000000000E+00 0. -1.
</event>
<event>
 7    1  0.1862138E-013  0.5052893E+02  0.7816164E-02  0.1300439E+00
        -11   -1    0    0    0    0  0.00000000000E+00  0.00000000000E+00  0.45593999997E+02  0.45594000000E+02  0.51100000000E-03 0. -1.
         11   -1    0    0    0    0 -0.00000000000E+00 -0.00000000000E+00 -0.45593999997E+02  0.45594000000E+02  0.51100000000E-03 0.  1.
    9900012    2    1    2    0    0  0.16376150375E+01 -0.10716070894E+02 -0.39187295109E+02  0.50528928978E+02  0.30000210121E+02 0.  0.
         12    1    1    2    0    0 -0.16376150375E+01  0.10716070894E+02  0.39187295109E+02  0.40659071022E+02  0.00000000000E+00 0. -1.
         11    1    3    3    0    0  0.67044772111E+01 -0.26961131589E+01 -0.28087187987E+01  0.77529312129E+01  0.51100000000E-03 0. -1.
        -11    1    3    3    0    0  0.77598754151E+01 -0.15688049542E+01 -0.15948832808E+02  0.17805675602E+02  0.51100000000E-03 0.  1.
        -12    1    3    3    0    0 -0.12826737589E+02 -0.64511527804E+01 -0.20429743502E+02  0.24970322163E+02  0.00000000000E+00 0.  1.
</event>
<event>
 7    1  0.1161807E-013  0.5052884E+02  0.7816164E-02  0.1300439E+00
        -11   -1    0    0    0    0  0.00000000000E+00  0.00000000000E+00  0.45593999997E+02  0.45594000000E+02  0.51100000000E-03 0. -1.
         11   -1    0    0    0    0 -0.00000000000E+00 -0.00000000000E+00 -0.45593999997E+02  0.45594000000E+02  0.51100000000E-03 0.  1.
    9900012    2    1    2    0    0 -0.18936490263E+02  0.30208211026E+02  0.19545865184E+02  0.50528837162E+02  0.29999931038E+02 0.  0.
        -12    1    1    2    0    0  0.18936490263E+02 -0.30208211026E+02 -0.19545865184E+02  0.40659162838E+02  0.00000000000E+00 0.  1.
         11    1    3    3    0    0 -0.16183229127E+02  0.23741956770E+02  0.12980829952E+02  0.31529024132E+02  0.51100000000E-03 0. -1.
        -11    1    3    3    0    0  0.27157763434E+01  0.81985034055E+01 -0.18333760762E+01  0.88290524597E+01  0.51100000000E-03 0.  1.
        -12    1    3    3    0    0 -0.54690374790E+01 -0.17322491491E+01  0.83984113086E+01  0.10170760570E+02  0.00000000000E+00 0.  1.
</event>
<event>
 7    1  0.1161807E-013  0.5052887E+02  0.7816164E-02  0.1300439E+00
        -11   -1    0    0    0    0  0.00000000000E+00  0.00000000000E+00  0.45593999997E+02  0.45594000000E+02  0.51100000000E-03 0. -1.
         11   -1    0    0    0    0 -0.00000000000E+00 -0.00000000000E+00 -0.45593999997E+02  0.45594000000E+02  0.51100000000E-03 0.  1.
    9900012    2    1    2    0    0 -0.29797883349E+02  0.15972780357E+02 -0.22585870563E+02  0.50528866788E+02  0.30000021090E+02 0.  0.
         12    1    1    2    0    0  0.29797883349E+02 -0.15972780357E+02  0.22585870563E+02  0.40659133212E+02  0.00000000000E+00 0. -1.
         11    1    3    3    0    0 -0.86020110636E+01  0.17999542481E+02 -0.94422814291E+01  0.22071130526E+02  0.51100000000E-03 0. -1.
        -11    1    3    3    0    0 -0.15704896132E+02  0.24902559358E+01 -0.31777810781E+01  0.16215530518E+02  0.51100000000E-03 0.  1.
        -12    1    3    3    0    0 -0.54909761534E+01 -0.45170180593E+01 -0.99658080559E+01  0.12242205744E+02  0.00000000000E+00 0.  1.
</event>
<event>
 7    1  0.1161807E-013  0.5052885E+02  0.7816164E-02  0.1300439E+00
        -11   -1    0    0    0    0  0.00000000000E+00  0.00000000000E+00  0.45593999997E+02  0.45594000000E+02  0.51100000000E-03 0. -1.
         11   -1    0    0    0    0 -0.00000000000E+00 -0.00000000000E+00 -0.45593999997E+02  0.45594000000E+02  0.51100000000E-03 0.  1.
    9900012    2    1    2    0    0 -0.84564461304E+00  0.39106079815E+02  0.11098017710E+02  0.50528848627E+02  0.29999965885E+02 0.  0.
        -12    1    1    2    0    0  0.84564461304E+00 -0.39106079815E+02 -0.11098017710E+02  0.40659151373E+02  0.00000000000E+00 0.  1.
         11    1    3    3    0    0 -0.74465712017E+01  0.10102853378E+02  0.15967524981E+01  0.12651825474E+02  0.51100000000E-03 0. -1.
        -11    1    3    3    0    0 -0.51584784299E+01  0.22784367193E+02  0.58445221473E+01  0.24081024220E+02  0.51100000000E-03 0.  1.
        -12    1    3    3    0    0  0.11759405018E+02  0.62188592439E+01  0.36567430649E+01  0.13795998932E+02  0.00000000000E+00 0.  1.
</event>
<event>
 7    1  0.1161807E-013  0.5052886E+02  0.7816164E-02  0.1300439E+00
        -11   -1    0    0    0    0  0.00000000000E+00  0.00000000000E+00  0.45593999997E+02  0.45594000000E+02  0.51100000000E-03 0. -1.
         11   -1    0    0    0    0 -0.00000000000E+00 -0.00000000000E+00 -0.45593999997E+02  0.45594000000E+02  0.51100000000E-03 0.  1.
    9900012    2    1    2    0    0  0.12013751582E+02  0.11280188361E+02 -0.37169785246E+02  0.50528858202E+02  0.29999994991E+02 0.  0.
         12    1    1    2    0    0 -0.12013751582E+02 -0.11280188361E+02  0.37169785246E+02  0.40659141798E+02  0.00000000000E+00 0. -1.
         11    1    3    3    0    0  0.94905230300E+00 -0.57093375241E+00  0.17857045376E+01  0.21012868867E+01  0.51100000000E-03 0. -1.
        -11    1    3    3    0    0  0.24814908856E+01  0.19278384279E+01  0.30751539449E+01  0.43966953573E+01  0.51100000000E-03 0.  1.
        -12    1    3    3    0    0  0.85832083938E+01  0.99232836856E+01 -0.42030643728E+02  0.44030875958E+02  0.00000000000E+00 0.  1.
</event>
<event>
 7    1  0.1161807E-013  0.5052886E+02  0.7816164E-02  0.1300439E+00
        -11   -1    0    0    0    0  0.00000000000E+00  0.00000000000E+00  0.45593999997E+02  0.45594000000E+02  0.51100000000E-03 0. -1.
         11   -1    0    0    0    0 -0.00000000000E+00 -0.00000000000E+00 -0.45593999997E+02  0.45594000000E+02  0.51100000000E-03 0.  1.
    9900012    2    1    2    0    0  0.29497061300E+02 -0.10733032398E+02 -0.25843594515E+02  0.50528856044E+02  0.29999988430E+02 0.  0.
         12    1    1    2    0    0 -0.29497061300E+02  0.10733032398E+02  0.25843594515E+02  0.40659143956E+02  0.00000000000E+00 0. -1.
         11    1    3    3    0    0  0.46260207090E+01 -0.52946169610E+01 -0.10208266203E+02  0.12395230352E+02  0.51100000000E-03 0. -1.
        -11    1    3    3    0    0  0.23739530418E+02 -0.97763261177E+01 -0.19480198535E+02  0.32227627776E+02  0.51100000000E-03 0.  1.
         12    1    3    3    0    0  0.11315101732E+01  0.43379106804E+01  0.38448702232E+01  0.59059979154E+01  0.00000000000E+00 0. -1.
</event>
<event>
 7    1  0.1161807E-013  0.5052887E+02  0.7816164E-02  0.1300439E+00
        -11   -1    0    0    0    0  0.00000000000E+00  0.00000000000E+00  0.45593999997E+02  0.45594000000E+02  0.51100000000E-03 0. -1.
         11   -1    0    0    0    0 -0.00000000000E+00 -0.00000000000E+00 -0.45593999997E+02  0.45594000000E+02  0.51100000000E-03 0.  1.
    9900012    2    1    2    0    0  0.19616745806E+02 -0.46221001747E+01  0.35312665545E+02  0.50528869735E+02  0.30000030045E+02 0.  0.
        -12    1    1    2    0    0 -0.19616745806E+02  0.46221001747E+01 -0.35312665545E+02  0.40659130265E+02  0.00000000000E+00 0.  1.
         11    1    3    3    0    0  0.14544991013E+02  0.29609466528E+00  0.28950487302E+01  0.14833264747E+02  0.51100000000E-03 0. -1.
        -11    1    3    3    0    0 -0.84508106739E-01 -0.76929867203E+01  0.10547750821E+02  0.13055429290E+02  0.51100000000E-03 0.  1.
        -12    1    3    3    0    0  0.51562628994E+01  0.27747918803E+01  0.21869865994E+02  0.22640175698E+02  0.00000000000E+00 0.  1.
</event>
<event>
 7    1  0.1161807E-013  0.5052886E+02  0.7816164E-02  0.1300439E+00
        -11   -1    0    0    0    0  0.00000000000E+00  0.00000000000E+00  0.45593999997E+02  0.45594000000E+02  0.51100000000E-03 0. -1.
         11   -1    0    0    0    0 -0.00000000000E+00 -0.00000000000E+00 -0.45593999997E+02  0.45594000000E+02  0.51100000000E-03 0.  1.
    9900012    2    1    2    0    0 -0.18459921383E+02 -0.17451503568E+02  0.31746521190E+02  0.50528864718E+02  0.30000014796E+02 0.  0.
        -12    1    1    2    0    0  0.18459921383E+02  0.17451503568E+02 -0.31746521190E+02  0.40659135282E+02  0.00000000000E+00 0.  1.
         11    1    3    3    0    0 -0.13847838703E+02 -0.20966548497E+02  0.24666717573E+02  0.35210875432E+02  0.51100000000E-03 0. -1.
        -11    1    3    3    0    0 -0.45979501401E+01  0.88295978279E+00 -0.25524924708E+01  0.53325398774E+01  0.51100000000E-03 0.  1.
        -12    1    3    3    0    0 -0.14132540199E-01  0.26320851470E+01  0.96322960882E+01  0.99854494080E+01  0.00000000000E+00 0.  1.
</event>
<event>
 7    1  0.1161807E-013  0.5052887E+02  0.7816164E-02  0.1300439E+00
        -11   -1    0    0    0    0  0.00000000000E+00  0.00000000000E+00  0.45593999997E+02  0.45594000000E+02  0.51100000000E-03 0. -1.
         11   -1    0    0    0    0 -0.00000000000E+00 -0.00000000000E+00 -0.45593999997E+02  0.45594000000E+02  0.51100000000E-03 0.  1.
    9900012    2    1    2    0    0 -0.20026992424E+02 -0.19525093183E+02  0.29510258622E+02  0.50528867529E+02  0.30000023340E+02 0.  0.
        -12    1    1    2    0    0  0.20026992424E+02  0.19525093183E+02 -0.29510258622E+02  0.40659132471E+02  0.00000000000E+00 0.  1.
         11    1    3    3    0    0 -0.49778131129E+00 -0.17104863226E+02  0.87640922340E+01  0.19225853562E+02  0.51100000000E-03 0. -1.
        -11    1    3    3    0    0 -0.45103009260E+01 -0.64077589407E+01  0.58678653880E+01  0.97894858679E+01  0.51100000000E-03 0.  1.
        -12    1    3    3    0    0 -0.15018910187E+02  0.39875289843E+01  0.14878301000E+02  0.21513528099E+02  0.00000000000E+00 0.  1.
</event>
<event>
 7    1  0.1161807E-013  0.5052886E+02  0.7816164E-02  0.1300439E+00
        -11   -1    0    0    0    0  0.00000000000E+00  0.00000000000E+00  0.45593999997E+02  0.45594000000E+02  0.51100000000E-03 0. -1.
         11   -1    0    0    0    0 -0.00000000000E+00 -0.00000000000E+00 -0.45593999997E+02  0.45594000000E+02  0.51100000000E-03 0.  1.
    9900012    2    1    2    0    0 -0.35908633540E+02  0.15658435652E+02 -0.10888007507E+02  0.50528864775E+02  0.30000014971E+02 0.  0.
         12    1    1    2    0    0  0.35908633540E+02 -0.15658435652E+02  0.10888007507E+02  0.40659135225E+02  0.00000000000E+00 0. -1.
         11    1    3    3    0    0 -0.11179353827E+01  0.45512123132E+00  0.51804556150E+01  0.53192138042E+01  0.51100000000E-03 0. -1.
        -11    1    3    3    0    0 -0.12211677740E+02  0.56570299748E+01  0.34277465392E+01  0.13887998703E+02  0.51100000000E-03 0.  1.
        -12    1    3    3    0    0 -0.22579020417E+02  0.95462844458E+01 -0.19496209661E+02  0.31321652269E+02  0.00000000000E+00 0.  1.
</event>
<event>
 7    1  0.1161807E-013  0.5052886E+02  0.7816164E-02  0.1300439E+00
        -11   -1    0    0    0    0  0.00000000000E+00  0.00000000000E+00  0.45593999997E+02  0.45594000000E+02  0.51100000000E-03 0. -1.
         11   -1    0    0    0    0 -0.00000000000E+00 -0.00000000000E+00 -0.45593999997E+02  0.45594000000E+02  0.51100000000E-03 0.  1.
    9900012    2    1    2    0    0  0.11035063610E+02  0.30319514607E+02 -0.24741054775E+02  0.50528863435E+02  0.30000010896E+02 0.  0.
         12    1    1    2    0    0 -0.11035063610E+02 -0.30319514607E+02  0.24741054775E+02  0.40659136565E+02  0.00000000000E+00 0. -1.
         11    1    3    3    0    0  0.42560075297E+01  0.11340329028E+02 -0.96702040073E+00  0.12151205343E+02  0.51100000000E-03 0. -1.
        -11    1    3    3    0    0  0.61565423229E+01  0.21036147863E+02 -0.94089267775E+01  0.23852681897E+02  0.51100000000E-03 0.  1.
        -12    1    3    3    0    0  0.62251375767E+00 -0.20569622849E+01 -0.14365107596E+02  0.14524976195E+02  0.00000000000E+00 0.  1.
</event>
<event>
 7    1  0.1161807E-013  0.5052893E+02  0.7816164E-02  0.1300439E+00
        -11   -1    0    0    0    0  0.00000000000E+00  0.00000000000E+00  0.45593999997E+02  0.45594000000E+02  0.51100000000E-03 0. -1.
         11   -1    0    0    0    0 -0.00000000000E+00 -0.00000000000E+00 -0.45593999997E+02  0.45594000000E+02  0.51100000000E-03 0.  1.
    9900012    2    1    2    0    0 -0.18892368495E+02  0.34833694680E+02 -0.91022944480E+01  0.50528934140E+02  0.30000225810E+02 0.  0.
         12    1    1    2    0    0  0.18892368495E+02 -0.34833694680E+02  0.91022944480E+01  0.40659065860E+02  0.00000000000E+00 0. -1.
         11    1    3    3    0    0 -0.96745932730E+01  0.14381669170E+02 -0.15492733951E+01  0.17402023199E+02  0.51100000000E-03 0. -1.
        -11    1    3    3    0    0 -0.85170688874E+01  0.25542294713E+02 -0.76402386151E+01  0.27987899671E+02  0.51100000000E-03 0.  1.
         12    1    3    3    0    0 -0.70070633435E+00 -0.50902692027E+01  0.87217562145E-01  0.51390112693E+01  0.00000000000E+00 0. -1.
</event>
<event>
 7    1  0.1161807E-013  0.5052887E+02  0.7816164E-02  0.1300439E+00
        -11   -1    0    0    0    0  0.00000000000E+00  0.00000000000E+00  0.45593999997E+02  0.45594000000E+02  0.51100000000E-03 0.  1.
         11   -1    0    0    0    0 -0.00000000000E+00 -0.00000000000E+00 -0.45593999997E+02  0.45594000000E+02  0.51100000000E-03 0. -1.
    9900012    2    1    2    0    0  0.23746066634E+02 -0.64485129865E+00  0.32998074743E+02  0.50528874941E+02  0.30000045871E+02 0.  0.
        -12    1    1    2    0    0 -0.23746066634E+02  0.64485129865E+00 -0.32998074743E+02  0.40659125059E+02  0.00000000000E+00 0.  1.
         11    1    3    3    0    0  0.24278101707E+01 -0.88784803150E+01  0.15452517056E+01  0.93332458461E+01  0.51100000000E-03 0. -1.
        -11    1    3    3    0    0  0.13734343554E+02  0.52750993082E+01  0.88444664140E+01  0.17166346495E+02  0.51100000000E-03 0.  1.
        -12    1    3    3    0    0  0.75839129090E+01  0.29585297082E+01  0.22608356624E+02  0.24029282600E+02  0.00000000000E+00 0.  1.
</event>
<event>
 7    1  0.1161807E-013  0.5052885E+02  0.7816164E-02  0.1300439E+00
        -11   -1    0    0    0    0  0.00000000000E+00  0.00000000000E+00  0.45593999997E+02  0.45594000000E+02  0.51100000000E-03 0. -1.
         11   -1    0    0    0    0 -0.00000000000E+00 -0.00000000000E+00 -0.45593999997E+02  0.45594000000E+02  0.51100000000E-03 0.  1.
    9900012    2    1    2    0    0  0.11947206708E+02 -0.12779815116E+02  0.36702951763E+02  0.50528854772E+02  0.29999984566E+02 0.  0.
        -12    1    1    2    0    0 -0.11947206708E+02  0.12779815116E+02 -0.36702951763E+02  0.40659145228E+02  0.00000000000E+00 0.  1.
         11    1    3    3    0    0  0.47966407285E+01 -0.82363002441E+01  0.49853872411E+01  0.10756323266E+02  0.51100000000E-03 0. -1.
        -11    1    3    3    0    0  0.12625605482E+02 -0.97448317855E+01  0.25062072813E+02  0.29706483370E+02  0.51100000000E-03 0.  1.
        -12    1    3    3    0    0 -0.54750395025E+01  0.52013169135E+01  0.66554917096E+01  0.10066048136E+02  0.00000000000E+00 0.  1.
</event>
<event>
 7    1  0.1161807E-013  0.5052886E+02  0.7816164E-02  0.1300439E+00
        -11   -1    0    0    0    0  0.00000000000E+00  0.00000000000E+00  0.45593999997E+02  0.45594000000E+02  0.51100000000E-03 0. -1.
         11   -1    0    0    0    0 -0.00000000000E+00 -0.00000000000E+00 -0.45593999997E+02  0.45594000000E+02  0.51100000000E-03 0.  1.
    9900012    2    1    2    0    0 -0.23725138783E+01 -0.24315744335E+01  0.40516958610E+02  0.50528864356E+02  0.30000013696E+02 0.  0.
        -12    1    1    2    0    0  0.23725138783E+01  0.24315744335E+01 -0.40516958610E+02  0.40659135644E+02  0.00000000000E+00 0.  1.
         11    1    3    3    0    0 -0.17298170198E+01 -0.66381461465E+01  0.57100927376E+01  0.89253801329E+01  0.51100000000E-03 0. -1.
        -11    1    3    3    0    0 -0.11422189066E+01 -0.90920047888E+01  0.10880281334E+02  0.14224968797E+02  0.51100000000E-03 0.  1.
         12    1    3    3    0    0  0.49952204811E+00  0.13298576502E+02  0.23926584539E+02  0.27378515426E+02  0.00000000000E+00 0. -1.
</event>
<event>
 7    1  0.1161807E-013  0.5052886E+02  0.7816164E-02  0.1300439E+00
        -11   -1    0    0    0    0  0.00000000000E+00  0.00000000000E+00  0.45593999997E+02  0.45594000000E+02  0.51100000000E-03 0. -1.
         11   -1    0    0    0    0 -0.00000000000E+00 -0.00000000000E+00 -0.45593999997E+02  0.45594000000E+02  0.51100000000E-03 0.  1.
    9900012    2    1    2    0    0  0.32894553535E+02 -0.23222111048E+02  0.56433436973E+01  0.50528862997E+02  0.30000009564E+02 0.  0.
        -12    1    1    2    0    0 -0.32894553535E+02  0.23222111048E+02 -0.56433436973E+01  0.40659137003E+02  0.00000000000E+00 0.  1.
         11    1    3    3    0    0  0.95650786755E+01 -0.83101850702E+01 -0.53504985842E+01  0.13754189955E+02  0.51100000000E-03 0. -1.
        -11    1    3    3    0    0  0.75869124808E+01 -0.11797232784E+01 -0.60807001227E+01  0.97942790571E+01  0.51100000000E-03 0.  1.
         12    1    3    3    0    0  0.15742562379E+02 -0.13732202699E+02  0.17074542404E+02  0.26980393984E+02  0.00000000000E+00 0. -1.
</event>
<event>
 7    1  0.1161807E-013  0.5052886E+02  0.7816164E-02  0.1300439E+00
        -11   -1    0    0    0    0  0.00000000000E+00  0.00000000000E+00  0.45593999997E+02  0.45594000000E+02  0.51100000000E-03 0.  1.
         11   -1    0    0    0    0 -0.00000000000E+00 -0.00000000000E+00 -0.45593999997E+02  0.45594000000E+02  0.51100000000E-03 0. -1.
    9900012    2    1    2    0    0 -0.31875041585E+02  0.69960262836E+01 -0.24252897267E+02  0.50528859752E+02  0.29999999703E+02 0.  0.
         12    1    1    2    0    0  0.31875041585E+02 -0.69960262836E+01  0.24252897267E+02  0.40659140248E+02  0.00000000000E+00 0. -1.
         11    1    3    3    0    0 -0.19787305115E+02  0.30732762767E+01 -0.49335785426E+01  0.20623352499E+02  0.51100000000E-03 0.  1.
        -11    1    3    3    0    0 -0.88248491739E+01  0.66522199906E+01 -0.99732962711E+00  0.11096155208E+02  0.51100000000E-03 0. -1.
         12    1    3    3    0    0 -0.32628872963E+01 -0.27294699838E+01 -0.18321989098E+02  0.18809352046E+02  0.00000000000E+00 0. -1.
</event>
<event>
 7    1  0.1161807E-013  0.5052884E+02  0.7816164E-02  0.1300439E+00
        -11   -1    0    0    0    0  0.00000000000E+00  0.00000000000E+00  0.45593999997E+02  0.45594000000E+02  0.51100000000E-03 0. -1.
         11   -1    0    0    0    0 -0.00000000000E+00 -0.00000000000E+00 -0.45593999997E+02  0.45594000000E+02  0.51100000000E-03 0.  1.
    9900012    2    1    2    0    0  0.29079253686E+02 -0.50733335055E+01 -0.27961139482E+02  0.50528843234E+02  0.29999949493E+02 0.  0.
         12    1    1    2    0    0 -0.29079253686E+02  0.50733335055E+01  0.27961139482E+02  0.40659156766E+02  0.00000000000E+00 0. -1.
         11    1    3    3    0    0  0.24136823322E+02 -0.99596994818E+01 -0.23791204907E+02  0.35324259157E+02  0.51100000000E-03 0. -1.
        -11    1    3    3    0    0  0.40649950782E+00 -0.31656037944E+01 -0.49934386498E+01  0.59262736220E+01  0.51100000000E-03 0.  1.
         12    1    3    3    0    0  0.45359308566E+01  0.80519697706E+01  0.82350407418E+00  0.92783104541E+01  0.00000000000E+00 0. -1.
</event>
<event>
 7    1  0.1161807E-013  0.5052888E+02  0.7816164E-02  0.1300439E+00
        -11   -1    0    0    0    0  0.00000000000E+00  0.00000000000E+00  0.45593999997E+02  0.45594000000E+02  0.51100000000E-03 0. -1.
         11   -1    0    0    0    0 -0.00000000000E+00 -0.00000000000E+00 -0.45593999997E+02  0.45594000000E+02  0.51100000000E-03 0.  1.
    9900012    2    1    2    0    0 -0.21121285212E+02  0.25676397674E+02  0.23404665285E+02  0.50528875027E+02  0.30000046131E+02 0.  0.
        -12    1    1    2    0    0  0.21121285212E+02 -0.25676397674E+02 -0.23404665285E+02  0.40659124973E+02  0.00000000000E+00 0.  1.
         11    1    3    3    0    0 -0.10981381880E+02 -0.53124838912E+00  0.10360128069E+02  0.15106463077E+02  0.51100000000E-03 0. -1.
        -11    1    3    3    0    0 -0.15676491031E+01  0.50585585097E+01 -0.42489453807E+01  0.67897036029E+01  0.51100000000E-03 0.  1.
        -12    1    3    3    0    0 -0.85722542283E+01  0.21149087554E+02  0.17293482597E+02  0.28632708346E+02  0.00000000000E+00 0.  1.
</event>
<event>
 7    1  0.1161807E-013  0.5052886E+02  0.7816164E-02  0.1300439E+00
        -11   -1    0    0    0    0  0.00000000000E+00  0.00000000000E+00  0.45593999997E+02  0.45594000000E+02  0.51100000000E-03 0. -1.
         11   -1    0    0    0    0 -0.00000000000E+00 -0.00000000000E+00 -0.45593999997E+02  0.45594000000E+02  0.51100000000E-03 0.  1.
    9900012    2    1    2    0    0  0.35527872186E+01 -0.31273304312E+02 -0.25739542017E+02  0.50528857328E+02  0.29999992333E+02 0.  0.
         12    1    1    2    0    0 -0.35527872186E+01  0.31273304312E+02  0.25739542017E+02  0.40659142672E+02  0.00000000000E+00 0. -1.
         11    1    3    3    0    0  0.82838935911E+01 -0.21043257066E+02 -0.19479945750E+02  0.29848112966E+02  0.51100000000E-03 0. -1.
        -11    1    3    3    0    0  0.29856893318E+01 -0.11477251424E+02 -0.43690462003E+01  0.12638441597E+02  0.51100000000E-03 0.  1.
         12    1    3    3    0    0 -0.77167957043E+01  0.12472041777E+01 -0.18905500668E+01  0.80423027646E+01  0.00000000000E+00 0. -1.
</event>
<event>
 7    1  0.1161807E-013  0.5052882E+02  0.7816164E-02  0.1300439E+00
        -11   -1    0    0    0    0  0.00000000000E+00  0.00000000000E+00  0.45593999997E+02  0.45594000000E+02  0.51100000000E-03 0. -1.
         11   -1    0    0    0    0 -0.00000000000E+00 -0.00000000000E+00 -0.45593999997E+02  0.45594000000E+02  0.51100000000E-03 0.  1.
    9900012    2    1    2    0    0  0.11884253712E+02 -0.13915051031E+02 -0.36308462785E+02  0.50528823898E+02  0.29999890719E+02 0.  0.
         12    1    1    2    0    0 -0.11884253712E+02  0.13915051031E+02  0.36308462785E+02  0.40659176102E+02  0.00000000000E+00 0. -1.
         11    1    3    3    0    0  0.76955014974E+01 -0.19551147059E+01 -0.36958524869E+01  0.87579987826E+01  0.51100000000E-03 0. -1.
        -11    1    3    3    0    0  0.12607084626E+02 -0.42533915950E+01 -0.10737943120E+02  0.17097758495E+02  0.51100000000E-03 0.  1.
         12    1    3    3    0    0 -0.84183324118E+01 -0.77065447305E+01 -0.21874667179E+02  0.24673066620E+02  0.00000000000E+00 0. -1.
</event>
<event>
 7    1  0.1161807E-013  0.5052887E+02  0.7816164E-02  0.1300439E+00
        -11   -1    0    0    0    0  0.00000000000E+00  0.00000000000E+00  0.45593999997E+02  0.45594000000E+02  0.51100000000E-03 0. -1.
         11   -1    0    0    0    0 -0.00000000000E+00 -0.00000000000E+00 -0.45593999997E+02  0.45594000000E+02  0.51100000000E-03 0.  1.
    9900012    2    1    2    0    0  0.11815593180E+02  0.30548674533E+02 -0.24090139988E+02  0.50528873072E+02  0.30000040190E+02 0.  0.
         12    1    1    2    0    0 -0.11815593180E+02 -0.30548674533E+02  0.24090139988E+02  0.40659126928E+02  0.00000000000E+00 0. -1.
         11    1    3    3    0    0  0.15055634823E+02  0.21279890847E+02 -0.27095514357E+01  0.26207776778E+02  0.51100000000E-03 0. -1.
        -11    1    3    3    0    0  0.15285213502E+00  0.40850411353E+01 -0.34459860794E+01  0.53465638660E+01  0.51100000000E-03 0.  1.
        -12    1    3    3    0    0 -0.33928937781E+01  0.51837425507E+01 -0.17934602473E+02  0.18974532429E+02  0.00000000000E+00 0.  1.
</event>
<event>
 7    1  0.1161807E-013  0.5052888E+02  0.7816164E-02  0.1300439E+00
        -11   -1    0    0    0    0  0.00000000000E+00  0.00000000000E+00  0.45593999997E+02  0.45594000000E+02  0.51100000000E-03 0.  1.
         11   -1    0    0    0    0 -0.00000000000E+00 -0.00000000000E+00 -0.45593999997E+02  0.45594000000E+02  0.51100000000E-03 0. -1.
    9900012    2    1    2    0    0 -0.28847352200E+02 -0.28045249283E+02  0.58701398220E+01  0.50528877066E+02  0.30000052328E+02 0.  0.
        -12    1    1    2    0    0  0.28847352200E+02  0.28045249283E+02 -0.58701398220E+01  0.40659122934E+02  0.00000000000E+00 0.  1.
         11    1    3    3    0    0 -0.62333500558E+01 -0.10444337179E+02 -0.17902178078E+01  0.12294051899E+02  0.51100000000E-03 0. -1.
        -11    1    3    3    0    0 -0.10568814768E+02 -0.22179814566E+02  0.52988439057E+01  0.25134075809E+02  0.51100000000E-03 0.  1.
        -12    1    3    3    0    0 -0.12045187376E+02  0.45789024618E+01  0.23615137241E+01  0.13100749358E+02  0.00000000000E+00 0.  1.
</event>
<event>
 7    1  0.1161807E-013  0.5052886E+02  0.7816164E-02  0.1300439E+00
        -11   -1    0    0    0    0  0.00000000000E+00  0.00000000000E+00  0.45593999997E+02  0.45594000000E+02  0.51100000000E-03 0. -1.
         11   -1    0    0    0    0 -0.00000000000E+00 -0.00000000000E+00 -0.45593999997E+02  0.45594000000E+02  0.51100000000E-03 0.  1.
    9900012    2    1    2    0    0 -0.25134397313E+02  0.30913355173E+02  0.81112529062E+01  0.50528857362E+02  0.29999992438E+02 0.  0.
        -12    1    1    2    0    0  0.25134397313E+02 -0.30913355173E+02 -0.81112529062E+01  0.40659142638E+02  0.00000000000E+00 0.  1.
         11    1    3    3    0    0 -0.70870837065E+01  0.39941411584E+01 -0.56817766452E+01  0.99228274782E+01  0.51100000000E-03 0. -1.
        -11    1    3    3    0    0 -0.24643967302E+01 -0.13904977513E+01 -0.30537471327E+01  0.41631847247E+01  0.51100000000E-03 0.  1.
         12    1    3    3    0    0 -0.15582916876E+02  0.28309711766E+02  0.16846776684E+02  0.36442845159E+02  0.00000000000E+00 0. -1.
</event>
<event>
 7    1  0.1183522E-013  0.5052885E+02  0.7816164E-02  0.1300439E+00
        -11   -1    0    0    0    0  0.00000000000E+00  0.00000000000E+00  0.45593999997E+02  0.45594000000E+02  0.51100000000E-03 0. -1.
         11   -1    0    0    0    0 -0.00000000000E+00 -0.00000000000E+00 -0.45593999997E+02  0.45594000000E+02  0.51100000000E-03 0.  1.
    9900012    2    1    2    0    0  0.16837343592E+02 -0.23845180731E+02 -0.28303314914E+02  0.50528850742E+02  0.29999972314E+02 0.  0.
         12    1    1    2    0    0 -0.16837343592E+02  0.23845180731E+02  0.28303314914E+02  0.40659149258E+02  0.00000000000E+00 0. -1.
         11    1    3    3    0    0 -0.19608733481E+01  0.15900202927E+01 -0.87497910931E+01  0.91067026553E+01  0.51100000000E-03 0. -1.
        -11    1    3    3    0    0  0.66309853466E+01 -0.14068591942E+02 -0.19277519149E+02  0.24769295321E+02  0.51100000000E-03 0.  1.
        -12    1    3    3    0    0  0.12167231593E+02 -0.11366609082E+02 -0.27600467208E+00  0.16652852766E+02  0.00000000000E+00 0.  1.
</event>
<event>
 7    1  0.1161807E-013  0.5052886E+02  0.7816164E-02  0.1300439E+00
        -11   -1    0    0    0    0  0.00000000000E+00  0.00000000000E+00  0.45593999997E+02  0.45594000000E+02  0.51100000000E-03 0. -1.
         11   -1    0    0    0    0 -0.00000000000E+00 -0.00000000000E+00 -0.45593999997E+02  0.45594000000E+02  0.51100000000E-03 0.  1.
    9900012    2    1    2    0    0  0.10495297818E+02 -0.19838884267E+02  0.33903292790E+02  0.50528857519E+02  0.29999992915E+02 0.  0.
        -12    1    1    2    0    0 -0.10495297818E+02  0.19838884267E+02 -0.33903292790E+02  0.40659142481E+02  0.00000000000E+00 0.  1.
         11    1    3    3    0    0 -0.11238087231E+01  0.33395716403E+01 -0.16088308936E+00  0.35272607525E+01  0.51100000000E-03 0. -1.
        -11    1    3    3    0    0  0.13716196164E+02 -0.59053462890E+01  0.17058361123E+02  0.22671454221E+02  0.51100000000E-03 0.  1.
         12    1    3    3    0    0 -0.20970896233E+01 -0.17273109618E+02  0.17005814757E+02  0.24330142546E+02  0.00000000000E+00 0. -1.
</event>
<event>
 7    1  0.1535733E-013  0.5052886E+02  0.7816164E-02  0.1300439E+00
        -11   -1    0    0    0    0  0.00000000000E+00  0.00000000000E+00  0.45593999997E+02  0.45594000000E+02  0.51100000000E-03 0. -1.
         11   -1    0    0    0    0 -0.00000000000E+00 -0.00000000000E+00 -0.45593999997E+02  0.45594000000E+02  0.51100000000E-03 0.  1.
    9900012    2    1    2    0    0  0.11278815531E+02 -0.30107550339E+02 -0.24889550031E+02  0.50528856281E+02  0.29999989151E+02 0.  0.
         12    1    1    2    0    0 -0.11278815531E+02  0.30107550339E+02  0.24889550031E+02  0.40659143719E+02  0.00000000000E+00 0. -1.
         11    1    3    3    0    0 -0.49127993830E+01 -0.43216276159E+01  0.25092980413E+01  0.70077556999E+01  0.51100000000E-03 0. -1.
        -11    1    3    3    0    0  0.81428997497E+01 -0.40581146964E+01 -0.23454076933E+01  0.93955334459E+01  0.51100000000E-03 0.  1.
        -12    1    3    3    0    0  0.80487151644E+01 -0.21727808027E+02 -0.25053440379E+02  0.34125567135E+02  0.00000000000E+00 0.  1.
</event>
<event>
 7    1  0.1161807E-013  0.5052886E+02  0.7816164E-02  0.1300439E+00
        -11   -1    0    0    0    0  0.00000000000E+00  0.00000000000E+00  0.45593999997E+02  0.45594000000E+02  0.51100000000E-03 0. -1.
         11   -1    0    0    0    0 -0.00000000000E+00 -0.00000000000E+00 -0.45593999997E+02  0.45594000000E+02  0.51100000000E-03 0.  1.
    9900012    2    1    2    0    0  0.17781794590E+02 -0.56842905994E+01  0.36120106514E+02  0.50528862367E+02  0.30000007651E+02 0.  0.
        -12    1    1    2    0    0 -0.17781794590E+02  0.56842905994E+01 -0.36120106514E+02  0.40659137633E+02  0.00000000000E+00 0.  1.
         11    1    3    3    0    0  0.66165241410E+01  0.56534391537E+01  0.15183536640E+02  0.17500844298E+02  0.51100000000E-03 0. -1.
        -11    1    3    3    0    0 -0.16809733841E+01  0.98408153748E+00  0.13659375236E+02  0.13797558483E+02  0.51100000000E-03 0.  1.
        -12    1    3    3    0    0  0.12846243834E+02 -0.12321811291E+02  0.72771946380E+01  0.19230459587E+02  0.00000000000E+00 0.  1.
</event>
<event>
 7    1  0.1161807E-013  0.5052886E+02  0.7816164E-02  0.1300439E+00
        -11   -1    0    0    0    0  0.00000000000E+00  0.00000000000E+00  0.45593999997E+02  0.45594000000E+02  0.51100000000E-03 0. -1.
         11   -1    0    0    0    0 -0.00000000000E+00 -0.00000000000E+00 -0.45593999997E+02  0.45594000000E+02  0.51100000000E-03 0.  1.
    9900012    2    1    2    0    0  0.18838927891E+02  0.57420457254E+01 -0.35570905889E+02  0.50528860327E+02  0.30000001451E+02 0.  0.
         12    1    1    2    0    0 -0.18838927891E+02 -0.57420457254E+01  0.35570905889E+02  0.40659139673E+02  0.00000000000E+00 0. -1.
         11    1    3    3    0    0  0.10814419602E+01  0.10405124538E+02 -0.46352241160E+01  0.11442090553E+02  0.51100000000E-03 0. -1.
        -11    1    3    3    0    0  0.77095461714E+01  0.49580191705E+01 -0.75458869971E+01  0.11872635221E+02  0.51100000000E-03 0.  1.
         12    1    3    3    0    0  0.10047939760E+02 -0.96210979830E+01 -0.23389794775E+02  0.27214134553E+02  0.00000000000E+00 0. -1.
</event>
<event>
 7    1  0.1161807E-013  0.5052889E+02  0.7816164E-02  0.1300439E+00
        -11   -1    0    0    0    0  0.00000000000E+00  0.00000000000E+00  0.45593999997E+02  0.45594000000E+02  0.51100000000E-03 0. -1.
         11   -1    0    0    0    0 -0.00000000000E+00 -0.00000000000E+00 -0.45593999997E+02  0.45594000000E+02  0.51100000000E-03 0.  1.
    9900012    2    1    2    0    0  0.47660558321E+01  0.21820021575E+02  0.33975499091E+02  0.50528890710E+02  0.30000093803E+02 0.  0.
        -12    1    1    2    0    0 -0.47660558321E+01 -0.21820021575E+02 -0.33975499091E+02  0.40659109290E+02  0.00000000000E+00 0.  1.
         11    1    3    3    0    0  0.50260630730E+01  0.68790122774E+01  0.80157440587E+01  0.11697618262E+02  0.51100000000E-03 0. -1.
        -11    1    3    3    0    0  0.81986308686E+01  0.10217181759E+01  0.91801736500E-01  0.82625591659E+01  0.51100000000E-03 0.  1.
        -12    1    3    3    0    0 -0.84586381096E+01  0.13919291122E+02  0.25867953296E+02  0.30568713282E+02  0.00000000000E+00 0.  1.
</event>
<event>
 7    1  0.1161807E-013  0.5052886E+02  0.7816164E-02  0.1300439E+00
        -11   -1    0    0    0    0  0.00000000000E+00  0.00000000000E+00  0.45593999997E+02  0.45594000000E+02  0.51100000000E-03 0. -1.
         11   -1    0    0    0    0 -0.00000000000E+00 -0.00000000000E+00 -0.45593999997E+02  0.45594000000E+02  0.51100000000E-03 0.  1.
    9900012    2    1    2    0    0 -0.65190742989E+01 -0.92945956430E+01  0.39042001816E+02  0.50528859039E+02  0.29999997536E+02 0.  0.
        -12    1    1    2    0    0  0.65190742989E+01  0.92945956430E+01 -0.39042001816E+02  0.40659140961E+02  0.00000000000E+00 0.  1.
         11    1    3    3    0    0 -0.44719135981E+01 -0.68314832798E+01  0.13410431677E+02  0.15700536712E+02  0.51100000000E-03 0. -1.
        -11    1    3    3    0    0  0.49136008499E+01 -0.70256365228E+01  0.25059952930E+02  0.26485926130E+02  0.51100000000E-03 0.  1.
        -12    1    3    3    0    0 -0.69607615506E+01  0.45625241596E+01  0.57161720883E+00  0.83423961969E+01  0.00000000000E+00 0.  1.
</event>
<event>
 7    1  0.1161807E-013  0.5052887E+02  0.7816164E-02  0.1300439E+00
        -11   -1    0    0    0    0  0.00000000000E+00  0.00000000000E+00  0.45593999997E+02  0.45594000000E+02  0.51100000000E-03 0. -1.
         11   -1    0    0    0    0 -0.00000000000E+00 -0.00000000000E+00 -0.45593999997E+02  0.45594000000E+02  0.51100000000E-03 0.  1.
    9900012    2    1    2    0    0  0.32410929817E+02 -0.14414305858E+02  0.19872705438E+02  0.50528868106E+02  0.30000025094E+02 0.  0.
        -12    1    1    2    0    0 -0.32410929817E+02  0.14414305858E+02 -0.19872705438E+02  0.40659131894E+02  0.00000000000E+00 0.  1.
         11    1    3    3    0    0  0.16660124330E+02 -0.85059560886E+01  0.69201751375E+01  0.19944920553E+02  0.51100000000E-03 0. -1.
        -11    1    3    3    0    0  0.76164468213E+01 -0.70673002893E+01  0.18112843407E+02  0.20881381471E+02  0.51100000000E-03 0.  1.
        -12    1    3    3    0    0  0.81343586655E+01  0.11589505197E+01 -0.51603131072E+01  0.97025660817E+01  0.00000000000E+00 0.  1.
</event>
<event>
 7    1  0.1161807E-013  0.5052886E+02  0.7816164E-02  0.1300439E+00
        -11   -1    0    0    0    0  0.00000000000E+00  0.00000000000E+00  0.45593999997E+02  0.45594000000E+02  0.51100000000E-03 0. -1.
         11   -1    0    0    0    0 -0.00000000000E+00 -0.00000000000E+00 -0.45593999997E+02  0.45594000000E+02  0.51100000000E-03 0.  1.
    9900012    2    1    2    0    0  0.44712569933E+01 -0.10240336462E+01  0.40399569157E+02  0.50528856231E+02  0.29999988998E+02 0.  0.
        -12    1    1    2    0    0 -0.44712569933E+01  0.10240336462E+01 -0.40399569157E+02  0.40659143769E+02  0.00000000000E+00 0.  1.
         11    1    3    3    0    0  0.13013334823E+01 -0.47256322613E+00  0.20010786211E+02  0.20058622831E+02  0.51100000000E-03 0. -1.
        -11    1    3    3    0    0  0.21145526179E+01  0.68865382749E+01  0.21681824328E+02  0.22847259106E+02  0.51100000000E-03 0.  1.
        -12    1    3    3    0    0  0.10553708930E+01 -0.74380086949E+01 -0.12930413823E+01  0.76229742938E+01  0.00000000000E+00 0.  1.
</event>
<event>
 7    1  0.1161807E-013  0.5052886E+02  0.7816164E-02  0.1300439E+00
        -11   -1    0    0    0    0  0.00000000000E+00  0.00000000000E+00  0.45593999997E+02  0.45594000000E+02  0.51100000000E-03 0. -1.
         11   -1    0    0    0    0 -0.00000000000E+00 -0.00000000000E+00 -0.45593999997E+02  0.45594000000E+02  0.51100000000E-03 0.  1.
    9900012    2    1    2    0    0 -0.67066890370E+01  0.19888021685E+02 -0.34823158816E+02  0.50528862351E+02  0.30000007603E+02 0.  0.
         12    1    1    2    0    0  0.67066890370E+01 -0.19888021685E+02  0.34823158816E+02  0.40659137649E+02  0.00000000000E+00 0. -1.
         11    1    3    3    0    0  0.91212650253E+01  0.16759017549E+01 -0.16875443701E+02  0.19255823086E+02  0.51100000000E-03 0.  1.
        -11    1    3    3    0    0 -0.63486122259E+01  0.42830059670E+01 -0.10129871539E+02  0.12698949365E+02  0.51100000000E-03 0. -1.
        -12    1    3    3    0    0 -0.94793418363E+01  0.13929113963E+02 -0.78178435758E+01  0.18574089900E+02  0.00000000000E+00 0.  1.
</event>
<event>
 7    1  0.1161807E-013  0.5052886E+02  0.7816164E-02  0.1300439E+00
        -11   -1    0    0    0    0  0.00000000000E+00  0.00000000000E+00  0.45593999997E+02  0.45594000000E+02  0.51100000000E-03 0. -1.
         11   -1    0    0    0    0 -0.00000000000E+00 -0.00000000000E+00 -0.45593999997E+02  0.45594000000E+02  0.51100000000E-03 0.  1.
    9900012    2    1    2    0    0  0.12060324665E+02  0.95707854329E+01 -0.37631291773E+02  0.50528862216E+02  0.30000007191E+02 0.  0.
         12    1    1    2    0    0 -0.12060324665E+02 -0.95707854329E+01  0.37631291773E+02  0.40659137784E+02  0.00000000000E+00 0. -1.
         11    1    3    3    0    0 -0.80426162954E+00 -0.15311909228E+01 -0.45953855900E+01  0.49100866991E+01  0.51100000000E-03 0. -1.
        -11    1    3    3    0    0  0.13771364408E+02 -0.47862527999E+01 -0.21442716360E+02  0.25929689135E+02  0.51100000000E-03 0.  1.
         12    1    3    3    0    0 -0.90677811288E+00  0.15888229156E+02 -0.11593189824E+02  0.19689086381E+02  0.00000000000E+00 0. -1.
</event>
<event>
 7    1  0.1161807E-013  0.5052878E+02  0.7816164E-02  0.1300439E+00
        -11   -1    0    0    0    0  0.00000000000E+00  0.00000000000E+00  0.45593999997E+02  0.45594000000E+02  0.51100000000E-03 0. -1.
         11   -1    0    0    0    0 -0.00000000000E+00 -0.00000000000E+00 -0.45593999997E+02  0.45594000000E+02  0.51100000000E-03 0.  1.
    9900012    2    1    2    0    0 -0.15631112370E+02  0.15867160681E+02  0.34015783364E+02  0.50528782350E+02  0.29999764431E+02 0.  0.
        -12    1    1    2    0    0  0.15631112370E+02 -0.15867160681E+02 -0.34015783364E+02  0.40659217650E+02  0.00000000000E+00 0.  1.
         11    1    3    3    0    0  0.44741332624E+01  0.57545617885E+01  0.31890049605E+01  0.79562932781E+01  0.51100000000E-03 0. -1.
        -11    1    3    3    0    0  0.11889272084E+01  0.35398697468E+01 -0.86167152797E+00  0.38323235529E+01  0.51100000000E-03 0.  1.
         12    1    3    3    0    0 -0.21294172841E+02  0.65727291453E+01  0.31688449932E+02  0.38740165519E+02  0.00000000000E+00 0. -1.
</event>
<event>
 7    1  0.1161807E-013  0.5052886E+02  0.7816164E-02  0.1300439E+00
        -11   -1    0    0    0    0  0.00000000000E+00  0.00000000000E+00  0.45593999997E+02  0.45594000000E+02  0.51100000000E-03 0. -1.
         11   -1    0    0    0    0 -0.00000000000E+00 -0.00000000000E+00 -0.45593999997E+02  0.45594000000E+02  0.51100000000E-03 0.  1.
    9900012    2    1    2    0    0 -0.81459003301E+01 -0.18572442013E+02 -0.35240238064E+02  0.50528859904E+02  0.30000000164E+02 0.  0.
         12    1    1    2    0    0  0.81459003301E+01  0.18572442013E+02  0.35240238064E+02  0.40659140096E+02  0.00000000000E+00 0. -1.
         11    1    3    3    0    0 -0.41250523739E+01 -0.26377427861E+01 -0.23348466010E+02  0.23856332689E+02  0.51100000000E-03 0. -1.
        -11    1    3    3    0    0 -0.90718742867E+01 -0.60448726583E+01 -0.11070928721E+02  0.15537208615E+02  0.51100000000E-03 0.  1.
         12    1    3    3    0    0  0.50510263305E+01 -0.98898265688E+01 -0.82084333318E+00  0.11135318600E+02  0.00000000000E+00 0. -1.
</event>
<event>
 7    1  0.1161807E-013  0.5052886E+02  0.7816164E-02  0.1300439E+00
        -11   -1    0    0    0    0  0.00000000000E+00  0.00000000000E+00  0.45593999997E+02  0.45594000000E+02  0.51100000000E-03 0. -1.
         11   -1    0    0    0    0 -0.00000000000E+00 -0.00000000000E+00 -0.45593999997E+02  0.45594000000E+02  0.51100000000E-03 0.  1.
    9900012    2    1    2    0    0  0.93770741679E+01 -0.13051336694E+02  0.37348346809E+02  0.50528856886E+02  0.29999990989E+02 0.  0.
        -12    1    1    2    0    0 -0.93770741679E+01  0.13051336694E+02 -0.37348346809E+02  0.40659143114E+02  0.00000000000E+00 0.  1.
         11    1    3    3    0    0 -0.68172482540E+01  0.17855122546E+01  0.31737788934E+01  0.77288938726E+01  0.51100000000E-03 0. -1.
        -11    1    3    3    0    0  0.10513729070E+02 -0.54153275538E+01  0.76516878033E+01  0.14085900680E+02  0.51100000000E-03 0.  1.
         12    1    3    3    0    0  0.56805933524E+01 -0.94215213943E+01  0.26522880112E+02  0.28714062333E+02  0.00000000000E+00 0. -1.
</event>
<event>
 7    1  0.1161807E-013  0.5052886E+02  0.7816164E-02  0.1300439E+00
        -11   -1    0    0    0    0  0.00000000000E+00  0.00000000000E+00  0.45593999997E+02  0.45594000000E+02  0.51100000000E-03 0. -1.
         11   -1    0    0    0    0 -0.00000000000E+00 -0.00000000000E+00 -0.45593999997E+02  0.45594000000E+02  0.51100000000E-03 0.  1.
    9900012    2    1    2    0    0 -0.94385155188E+01  0.15458526089E+01 -0.39518229190E+02  0.50528859898E+02  0.30000000146E+02 0.  0.
         12    1    1    2    0    0  0.94385155188E+01 -0.15458526089E+01  0.39518229190E+02  0.40659140102E+02  0.00000000000E+00 0. -1.
         11    1    3    3    0    0 -0.13403814568E+02  0.28455993831E+01 -0.28240896970E+02  0.31389615205E+02  0.51100000000E-03 0. -1.
        -11    1    3    3    0    0 -0.26232909358E+01 -0.44419449137E+01 -0.10624374978E+02  0.11810583131E+02  0.51100000000E-03 0.  1.
         12    1    3    3    0    0  0.65885899848E+01  0.31421981395E+01 -0.65295724266E+00  0.73286615624E+01  0.00000000000E+00 0. -1.
</event>
<event>
 7    1  0.1161807E-013  0.5052888E+02  0.7816164E-02  0.1300439E+00
        -11   -1    0    0    0    0  0.00000000000E+00  0.00000000000E+00  0.45593999997E+02  0.45594000000E+02  0.51100000000E-03 0. -1.
         11   -1    0    0    0    0 -0.00000000000E+00 -0.00000000000E+00 -0.45593999997E+02  0.45594000000E+02  0.51100000000E-03 0.  1.
    9900012    2    1    2    0    0  0.54445440143E+01 -0.53215878050E+01 -0.39939973522E+02  0.50528882434E+02  0.30000068646E+02 0.  0.
         12    1    1    2    0    0 -0.54445440143E+01  0.53215878050E+01  0.39939973522E+02  0.40659117566E+02  0.00000000000E+00 0. -1.
         11    1    3    3    0    0  0.16020472137E+01 -0.10072473318E+02 -0.14614181516E+02  0.17821211398E+02  0.51100000000E-03 0. -1.
        -11    1    3    3    0    0 -0.72095664110E+01  0.35134285794E+00 -0.39079714057E+01  0.82081380597E+01  0.51100000000E-03 0.  1.
         12    1    3    3    0    0  0.11052063212E+02  0.43995426555E+01 -0.21417820600E+02  0.24499532977E+02  0.00000000000E+00 0. -1.
</event>
<event>
 7    1  0.1161807E-013  0.5052885E+02  0.7816164E-02  0.1300439E+00
        -11   -1    0    0    0    0  0.00000000000E+00  0.00000000000E+00  0.45593999997E+02  0.45594000000E+02  0.51100000000E-03 0. -1.
         11   -1    0    0    0    0 -0.00000000000E+00 -0.00000000000E+00 -0.45593999997E+02  0.45594000000E+02  0.51100000000E-03 0.  1.
    9900012    2    1    2    0    0 -0.30688782907E+01 -0.38087488122E+02  0.13895744426E+02  0.50528850002E+02  0.29999970065E+02 0.  0.
        -12    1    1    2    0    0  0.30688782907E+01  0.38087488122E+02 -0.13895744426E+02  0.40659149998E+02  0.00000000000E+00 0.  1.
         11    1    3    3    0    0 -0.18812939164E+01 -0.17643895679E+01  0.28085217508E+01  0.38131525059E+01  0.51100000000E-03 0. -1.
        -11    1    3    3    0    0 -0.96148398349E+01 -0.35212897771E+01 -0.19546599709E+01  0.10424266046E+02  0.51100000000E-03 0.  1.
        -12    1    3    3    0    0  0.84272554606E+01 -0.32801808777E+02  0.13041882646E+02  0.36291431449E+02  0.00000000000E+00 0.  1.
</event>
<event>
 7    1  0.1161807E-013  0.5052886E+02  0.7816164E-02  0.1300439E+00
        -11   -1    0    0    0    0  0.00000000000E+00  0.00000000000E+00  0.45593999997E+02  0.45594000000E+02  0.51100000000E-03 0. -1.
         11   -1    0    0    0    0 -0.00000000000E+00 -0.00000000000E+00 -0.45593999997E+02  0.45594000000E+02  0.51100000000E-03 0.  1.
    9900012    2    1    2    0    0  0.30666528666E+02 -0.22636813698E+02  0.14152888093E+02  0.50528861345E+02  0.30000004543E+02 0.  0.
        -12    1    1    2    0    0 -0.30666528666E+02  0.22636813698E+02 -0.14152888093E+02  0.40659138655E+02  0.00000000000E+00 0.  1.
         11    1    3    3    0    0  0.53533242092E+00 -0.13406151211E+02  0.63623054602E+01  0.14848919224E+02  0.51100000000E-03 0. -1.
        -11    1    3    3    0    0  0.86109994638E+00  0.38344744238E+00  0.46125322592E+01  0.47078635453E+01  0.51100000000E-03 0.  1.
        -12    1    3    3    0    0  0.29270096299E+02 -0.96141099289E+01  0.31780503738E+01  0.30972078575E+02  0.00000000000E+00 0.  1.
</event>
<event>
 7    1  0.1161807E-013  0.5052885E+02  0.7816164E-02  0.1300439E+00
        -11   -1    0    0    0    0  0.00000000000E+00  0.00000000000E+00  0.45593999997E+02  0.45594000000E+02  0.51100000000E-03 0. -1.
         11   -1    0    0    0    0 -0.00000000000E+00 -0.00000000000E+00 -0.45593999997E+02  0.45594000000E+02  0.51100000000E-03 0.  1.
    9900012    2    1    2    0    0  0.24163645127E+01 -0.32798296939E+02  0.23908141099E+02  0.50528852070E+02  0.29999976353E+02 0.  0.
        -12    1    1    2    0    0 -0.24163645127E+01  0.32798296939E+02 -0.23908141099E+02  0.40659147930E+02  0.00000000000E+00 0.  1.
         11    1    3    3    0    0 -0.70699406580E+01 -0.22971011683E+01  0.12448237948E+02  0.14498943511E+02  0.51100000000E-03 0. -1.
        -11    1    3    3    0    0  0.14086502628E+00  0.87762507619E+00 -0.67123687579E+00  0.11138347878E+01  0.51100000000E-03 0.  1.
         12    1    3    3    0    0  0.93454401443E+01 -0.31378820847E+02  0.12131140028E+02  0.34916073771E+02  0.00000000000E+00 0. -1.
</event>
<event>
 7    1  0.1161807E-013  0.5052886E+02  0.7816164E-02  0.1300439E+00
        -11   -1    0    0    0    0  0.00000000000E+00  0.00000000000E+00  0.45593999997E+02  0.45594000000E+02  0.51100000000E-03 0.  1.
         11   -1    0    0    0    0 -0.00000000000E+00 -0.00000000000E+00 -0.45593999997E+02  0.45594000000E+02  0.51100000000E-03 0. -1.
    9900012    2    1    2    0    0  0.21619256070E+02  0.31447452231E+02 -0.14029657106E+02  0.50528858797E+02  0.29999996799E+02 0.  0.
         12    1    1    2    0    0 -0.21619256070E+02 -0.31447452231E+02  0.14029657106E+02  0.40659141203E+02  0.00000000000E+00 0. -1.
         11    1    3    3    0    0  0.17051316178E+01  0.16751364966E+01 -0.25519861743E+01  0.34965968901E+01  0.51100000000E-03 0. -1.
        -11    1    3    3    0    0  0.84743289802E+01 -0.34432346760E+00  0.59918909901E+01  0.10384390604E+02  0.51100000000E-03 0.  1.
         12    1    3    3    0    0  0.11439795472E+02  0.30116639202E+02 -0.17469561922E+02  0.36647871303E+02  0.00000000000E+00 0. -1.
</event>
<event>
 7    1  0.1161807E-013  0.5052885E+02  0.7816164E-02  0.1300439E+00
        -11   -1    0    0    0    0  0.00000000000E+00  0.00000000000E+00  0.45593999997E+02  0.45594000000E+02  0.51100000000E-03 0. -1.
         11   -1    0    0    0    0 -0.00000000000E+00 -0.00000000000E+00 -0.45593999997E+02  0.45594000000E+02  0.51100000000E-03 0.  1.
    9900012    2    1    2    0    0  0.29971036690E+02  0.66612140080E+01  0.26655792279E+02  0.50528854972E+02  0.29999985174E+02 0.  0.
        -12    1    1    2    0    0 -0.29971036690E+02 -0.66612140080E+01 -0.26655792279E+02  0.40659145028E+02  0.00000000000E+00 0.  1.
         11    1    3    3    0    0  0.80825206248E+01  0.17314681339E+01  0.51477953835E+01  0.97378087433E+01  0.51100000000E-03 0. -1.
        -11    1    3    3    0    0  0.25980546514E+02  0.35313259748E+01  0.24213823270E+02  0.35689890696E+02  0.51100000000E-03 0.  1.
        -12    1    3    3    0    0 -0.40920304488E+01  0.13984198993E+01 -0.27058263737E+01  0.51011555331E+01  0.00000000000E+00 0.  1.
</event>
<event>
 7    1  0.1161807E-013  0.5052882E+02  0.7816164E-02  0.1300439E+00
        -11   -1    0    0    0    0  0.00000000000E+00  0.00000000000E+00  0.45593999997E+02  0.45594000000E+02  0.51100000000E-03 0. -1.
         11   -1    0    0    0    0 -0.00000000000E+00 -0.00000000000E+00 -0.45593999997E+02  0.45594000000E+02  0.51100000000E-03 0.  1.
    9900012    2    1    2    0    0 -0.51241720312E+01  0.24214156936E+02 -0.32258126295E+02  0.50528815955E+02  0.29999866578E+02 0.  0.
         12    1    1    2    0    0  0.51241720312E+01 -0.24214156936E+02  0.32258126295E+02  0.40659184045E+02  0.00000000000E+00 0. -1.
         11    1    3    3    0    0 -0.59637592301E+01 -0.82084857668E+00 -0.68395666861E+01  0.91115250784E+01  0.51100000000E-03 0. -1.
        -11    1    3    3    0    0  0.77217575382E+00  0.86966034049E+01  0.24890877279E+01  0.90786961704E+01  0.51100000000E-03 0.  1.
        -12    1    3    3    0    0  0.67411445065E-01  0.16338402107E+02 -0.27907647337E+02  0.32338594707E+02  0.00000000000E+00 0.  1.
</event>
<event>
 7    1  0.1161807E-013  0.5052886E+02  0.7816164E-02  0.1300439E+00
        -11   -1    0    0    0    0  0.00000000000E+00  0.00000000000E+00  0.45593999997E+02  0.45594000000E+02  0.51100000000E-03 0. -1.
         11   -1    0    0    0    0 -0.00000000000E+00 -0.00000000000E+00 -0.45593999997E+02  0.45594000000E+02  0.51100000000E-03 0.  1.
    9900012    2    1    2    0    0 -0.23628641921E+02 -0.25665402160E+02 -0.20883973555E+02  0.50528856644E+02  0.29999990254E+02 0.  0.
         12    1    1    2    0    0  0.23628641921E+02  0.25665402160E+02  0.20883973555E+02  0.40659143356E+02  0.00000000000E+00 0. -1.
         11    1    3    3    0    0 -0.42570681561E+01 -0.71367538933E+01 -0.86644337930E-02  0.83099916218E+01  0.51100000000E-03 0.  1.
        -11    1    3    3    0    0 -0.62875157837E+01  0.57628055983E+01 -0.19155183199E+01  0.87413954143E+01  0.51100000000E-03 0. -1.
         12    1    3    3    0    0 -0.13084057981E+02 -0.24291453865E+02 -0.18959790801E+02  0.33477469608E+02  0.00000000000E+00 0. -1.
</event>
<event>
 7    1  0.1161807E-013  0.5052886E+02  0.7816164E-02  0.1300439E+00
        -11   -1    0    0    0    0  0.00000000000E+00  0.00000000000E+00  0.45593999997E+02  0.45594000000E+02  0.51100000000E-03 0. -1.
         11   -1    0    0    0    0 -0.00000000000E+00 -0.00000000000E+00 -0.45593999997E+02  0.45594000000E+02  0.51100000000E-03 0.  1.
    9900012    2    1    2    0    0 -0.10485112808E+02  0.27297523269E+02 -0.28250194901E+02  0.50528857372E+02  0.29999992469E+02 0.  0.
         12    1    1    2    0    0  0.10485112808E+02 -0.27297523269E+02  0.28250194901E+02  0.40659142628E+02  0.00000000000E+00 0. -1.
         11    1    3    3    0    0 -0.10987595795E+01 -0.45818986456E+01 -0.10910477022E+02  0.11884425814E+02  0.51100000000E-03 0. -1.
        -11    1    3    3    0    0 -0.95825102882E-01  0.10296509820E+02 -0.17474771564E+01  0.10444183721E+02  0.51100000000E-03 0.  1.
        -12    1    3    3    0    0 -0.92905281261E+01  0.21582912095E+02 -0.15592240723E+02  0.28200247838E+02  0.00000000000E+00 0.  1.
</event>
<event>
 7    1  0.1161807E-013  0.5052886E+02  0.7816164E-02  0.1300439E+00
        -11   -1    0    0    0    0  0.00000000000E+00  0.00000000000E+00  0.45593999997E+02  0.45594000000E+02  0.51100000000E-03 0. -1.
         11   -1    0    0    0    0 -0.00000000000E+00 -0.00000000000E+00 -0.45593999997E+02  0.45594000000E+02  0.51100000000E-03 0.  1.
    9900012    2    1    2    0    0 -0.12727209613E+02  0.53901793868E+01  0.38237808969E+02  0.50528856709E+02  0.29999990453E+02 0.  0.
        -12    1    1    2    0    0  0.12727209613E+02 -0.53901793868E+01 -0.38237808969E+02  0.40659143291E+02  0.00000000000E+00 0.  1.
         11    1    3    3    0    0  0.10756520709E+01 -0.24049148244E+01  0.30752364108E+01  0.40494100723E+01  0.51100000000E-03 0. -1.
        -11    1    3    3    0    0  0.57654847383E+01  0.84042995337E+01  0.16729362933E+02  0.19589401454E+02  0.51100000000E-03 0.  1.
         12    1    3    3    0    0 -0.19568346422E+02 -0.60920532257E+00  0.18433209625E+02  0.26890045183E+02  0.00000000000E+00 0. -1.
</event>
<event>
 7    1  0.1161807E-013  0.5052887E+02  0.7816164E-02  0.1300439E+00
        -11   -1    0    0    0    0  0.00000000000E+00  0.00000000000E+00  0.45593999997E+02  0.45594000000E+02  0.51100000000E-03 0. -1.
         11   -1    0    0    0    0 -0.00000000000E+00 -0.00000000000E+00 -0.45593999997E+02  0.45594000000E+02  0.51100000000E-03 0.  1.
    9900012    2    1    2    0    0  0.39764441883E+01 -0.32972120280E+02 -0.23456180216E+02  0.50528865547E+02  0.30000017315E+02 0.  0.
         12    1    1    2    0    0 -0.39764441883E+01  0.32972120280E+02  0.23456180216E+02  0.40659134453E+02  0.00000000000E+00 0. -1.
         11    1    3    3    0    0  0.48642961754E+01 -0.86181410171E+00 -0.12147765937E+02  0.13113821653E+02  0.51100000000E-03 0. -1.
        -11    1    3    3    0    0  0.53135822444E+01 -0.90821983706E+01 -0.82505007443E+01  0.13371284392E+02  0.51100000000E-03 0.  1.
         12    1    3    3    0    0 -0.62014342315E+01 -0.23028107808E+02 -0.30579135348E+01  0.24043759501E+02  0.00000000000E+00 0. -1.
</event>
<event>
 7    1  0.1161807E-013  0.5052886E+02  0.7816164E-02  0.1300439E+00
        -11   -1    0    0    0    0  0.00000000000E+00  0.00000000000E+00  0.45593999997E+02  0.45594000000E+02  0.51100000000E-03 0.  1.
         11   -1    0    0    0    0 -0.00000000000E+00 -0.00000000000E+00 -0.45593999997E+02  0.45594000000E+02  0.51100000000E-03 0. -1.
    9900012    2    1    2    0    0 -0.26144523477E+02 -0.30236880596E+02 -0.74404749442E+01  0.50528859288E+02  0.29999998292E+02 0.  0.
         12    1    1    2    0    0  0.26144523477E+02  0.30236880596E+02  0.74404749442E+01  0.40659140712E+02  0.00000000000E+00 0. -1.
         11    1    3    3    0    0 -0.22134690744E+02 -0.19245840550E+02  0.25030895526E+01  0.29438280697E+02  0.51100000000E-03 0. -1.
        -11    1    3    3    0    0 -0.75762337538E+01 -0.54823464419E+01 -0.21331244576E+00  0.93541938649E+01  0.51100000000E-03 0.  1.
         12    1    3    3    0    0  0.35664010208E+01 -0.55086936040E+01 -0.97302520510E+01  0.11736384726E+02  0.00000000000E+00 0. -1.
</event>
<event>
 7    1  0.1161807E-013  0.5052882E+02  0.7816164E-02  0.1300439E+00
        -11   -1    0    0    0    0  0.00000000000E+00  0.00000000000E+00  0.45593999997E+02  0.45594000000E+02  0.51100000000E-03 0. -1.
         11   -1    0    0    0    0 -0.00000000000E+00 -0.00000000000E+00 -0.45593999997E+02  0.45594000000E+02  0.51100000000E-03 0.  1.
    9900012    2    1    2    0    0 -0.72323475995E+01  0.12859425332E+02  0.37887960791E+02  0.50528815987E+02  0.29999866674E+02 0.  0.
        -12    1    1    2    0    0  0.72323475995E+01 -0.12859425332E+02 -0.37887960791E+02  0.40659184013E+02  0.00000000000E+00 0.  1.
         11    1    3    3    0    0 -0.78767379644E+01 -0.37569434479E+01  0.17173529424E+02  0.19263637719E+02  0.51100000000E-03 0. -1.
        -11    1    3    3    0    0 -0.70453460625E+01  0.54049001311E+01  0.12658397918E+02  0.15462369956E+02  0.51100000000E-03 0.  1.
        -12    1    3    3    0    0  0.76897364275E+01  0.11211468649E+02  0.80560334494E+01  0.15802808311E+02  0.00000000000E+00 0.  1.
</event>
<event>
 7    1  0.1161807E-013  0.5052886E+02  0.7816164E-02  0.1300439E+00
        -11   -1    0    0    0    0  0.00000000000E+00  0.00000000000E+00  0.45593999997E+02  0.45594000000E+02  0.51100000000E-03 0. -1.
         11   -1    0    0    0    0 -0.00000000000E+00 -0.00000000000E+00 -0.45593999997E+02  0.45594000000E+02  0.51100000000E-03 0.  1.
    9900012    2    1    2    0    0 -0.18382803588E+00  0.39024802201E+01  0.40471006038E+02  0.50528862352E+02  0.30000007604E+02 0.  0.
        -12    1    1    2    0    0  0.18382803588E+00 -0.39024802201E+01 -0.40471006038E+02  0.40659137648E+02  0.00000000000E+00 0.  1.
         11    1    3    3    0    0  0.34336700695E+01  0.17192177914E+01  0.29360312383E+02  0.29610365473E+02  0.51100000000E-03 0. -1.
        -11    1    3    3    0    0  0.79171294616E+00  0.91155887799E+01  0.37528664573E+01  0.98896296746E+01  0.51100000000E-03 0.  1.
        -12    1    3    3    0    0 -0.44092110516E+01 -0.69323263513E+01  0.73578271974E+01  0.11028867204E+02  0.00000000000E+00 0.  1.
</event>
<event>
 7    1  0.1161807E-013  0.5052886E+02  0.7816164E-02  0.1300439E+00
        -11   -1    0    0    0    0  0.00000000000E+00  0.00000000000E+00  0.45593999997E+02  0.45594000000E+02  0.51100000000E-03 0. -1.
         11   -1    0    0    0    0 -0.00000000000E+00 -0.00000000000E+00 -0.45593999997E+02  0.45594000000E+02  0.51100000000E-03 0.  1.
    9900012    2    1    2    0    0  0.25567441205E+02 -0.30672898209E+01  0.31465274585E+02  0.50528858084E+02  0.29999994633E+02 0.  0.
        -12    1    1    2    0    0 -0.25567441205E+02  0.30672898209E+01 -0.31465274585E+02  0.40659141916E+02  0.00000000000E+00 0.  1.
         11    1    3    3    0    0  0.12262509328E+02  0.54218818531E+00  0.10613762060E+02  0.16226985190E+02  0.51100000000E-03 0. -1.
        -11    1    3    3    0    0  0.17265872420E+02 -0.35842860279E+01  0.23614752506E+02  0.29472258022E+02  0.51100000000E-03 0.  1.
        -12    1    3    3    0    0 -0.39609405428E+01 -0.25191978264E-01 -0.27632399806E+01  0.48296148718E+01  0.00000000000E+00 0.  1.
</event>
<event>
 7    1  0.1161807E-013  0.5052885E+02  0.7816164E-02  0.1300439E+00
        -11   -1    0    0    0    0  0.00000000000E+00  0.00000000000E+00  0.45593999997E+02  0.45594000000E+02  0.51100000000E-03 0.  1.
         11   -1    0    0    0    0 -0.00000000000E+00 -0.00000000000E+00 -0.45593999997E+02  0.45594000000E+02  0.51100000000E-03 0. -1.
    9900012    2    1    2    0    0 -0.27369309184E+02  0.25073429827E+02 -0.16595491953E+02  0.50528851932E+02  0.29999975931E+02 0.  0.
         12    1    1    2    0    0  0.27369309184E+02 -0.25073429827E+02  0.16595491953E+02  0.40659148068E+02  0.00000000000E+00 0. -1.
         11    1    3    3    0    0 -0.16793837262E+01 -0.23238595762E+01  0.24314295432E+01  0.37593221350E+01  0.51100000000E-03 0. -1.
        -11    1    3    3    0    0 -0.59987530736E+01  0.95621562786E+01  0.36253489123E+01  0.11855927890E+02  0.51100000000E-03 0.  1.
         12    1    3    3    0    0 -0.19691172384E+02  0.17835133125E+02 -0.22652270409E+02  0.34913601907E+02  0.00000000000E+00 0. -1.
</event>
<event>
 7    1  0.1161807E-013  0.5052886E+02  0.7816164E-02  0.1300439E+00
        -11   -1    0    0    0    0  0.00000000000E+00  0.00000000000E+00  0.45593999997E+02  0.45594000000E+02  0.51100000000E-03 0. -1.
         11   -1    0    0    0    0 -0.00000000000E+00 -0.00000000000E+00 -0.45593999997E+02  0.45594000000E+02  0.51100000000E-03 0.  1.
    9900012    2    1    2    0    0  0.23478498874E+02  0.28358939231E+01  0.33073907991E+02  0.50528860886E+02  0.30000003148E+02 0.  0.
        -12    1    1    2    0    0 -0.23478498874E+02 -0.28358939231E+01 -0.33073907991E+02  0.40659139114E+02  0.00000000000E+00 0.  1.
         11    1    3    3    0    0  0.87262496635E+01  0.68989656666E+01  0.99393981627E+01  0.14917600228E+02  0.51100000000E-03 0. -1.
        -11    1    3    3    0    0  0.17853276985E+02  0.38452856342E+01  0.18221344599E+02  0.25798122412E+02  0.51100000000E-03 0.  1.
        -12    1    3    3    0    0 -0.31010277744E+01 -0.79083573777E+01  0.49131652293E+01  0.98131382463E+01  0.00000000000E+00 0.  1.
</event>
<event>
 7    1  0.1161807E-013  0.5052886E+02  0.7816164E-02  0.1300439E+00
        -11   -1    0    0    0    0  0.00000000000E+00  0.00000000000E+00  0.45593999997E+02  0.45594000000E+02  0.51100000000E-03 0.  1.
         11   -1    0    0    0    0 -0.00000000000E+00 -0.00000000000E+00 -0.45593999997E+02  0.45594000000E+02  0.51100000000E-03 0. -1.
    9900012    2    1    2    0    0  0.16430911738E+02  0.33545817733E+02 -0.16058294945E+02  0.50528860997E+02  0.30000003486E+02 0.  0.
        -12    1    1    2    0    0 -0.16430911738E+02 -0.33545817733E+02  0.16058294945E+02  0.40659139003E+02  0.00000000000E+00 0.  1.
         11    1    3    3    0    0 -0.36139763618E+01 -0.12003549879E+01 -0.68223364796E+00  0.38687362604E+01  0.51100000000E-03 0. -1.
        -11    1    3    3    0    0 -0.29399086558E+01  0.93231271581E+01 -0.31127356039E+01  0.10259282924E+02  0.51100000000E-03 0.  1.
         12    1    3    3    0    0  0.22984796756E+02  0.25423045563E+02 -0.12263325693E+02  0.36400841813E+02  0.00000000000E+00 0. -1.
</event>
<event>
 7    1  0.1161807E-013  0.5052886E+02  0.7816164E-02  0.1300439E+00
        -11   -1    0    0    0    0  0.00000000000E+00  0.00000000000E+00  0.45593999997E+02  0.45594000000E+02  0.51100000000E-03 0. -1.
         11   -1    0    0    0    0 -0.00000000000E+00 -0.00000000000E+00 -0.45593999997E+02  0.45594000000E+02  0.51100000000E-03 0.  1.
    9900012    2    1    2    0    0 -0.79551851151E+01  0.21131348280E+02 -0.33813417561E+02  0.50528855180E+02  0.29999985804E+02 0.  0.
         12    1    1    2    0    0  0.79551851151E+01 -0.21131348280E+02  0.33813417561E+02  0.40659144820E+02  0.00000000000E+00 0. -1.
         11    1    3    3    0    0  0.10652670546E+00 -0.55666983623E+01 -0.29186184649E+01  0.62863194797E+01  0.51100000000E-03 0. -1.
        -11    1    3    3    0    0  0.15819704571E+01  0.29941452230E+00 -0.75113867153E+01  0.76820056126E+01  0.51100000000E-03 0.  1.
        -12    1    3    3    0    0 -0.96436822777E+01  0.26398632120E+02 -0.23383412381E+02  0.36560530087E+02  0.00000000000E+00 0.  1.
</event>
<event>
 7    1  0.1161807E-013  0.5052885E+02  0.7816164E-02  0.1300439E+00
        -11   -1    0    0    0    0  0.00000000000E+00  0.00000000000E+00  0.45593999997E+02  0.45594000000E+02  0.51100000000E-03 0. -1.
         11   -1    0    0    0    0 -0.00000000000E+00 -0.00000000000E+00 -0.45593999997E+02  0.45594000000E+02  0.51100000000E-03 0.  1.
    9900012    2    1    2    0    0  0.93561597376E+01  0.21367771628E+02  0.33302359139E+02  0.50528849572E+02  0.29999968758E+02 0.  0.
        -12    1    1    2    0    0 -0.93561597376E+01 -0.21367771628E+02 -0.33302359139E+02  0.40659150428E+02  0.00000000000E+00 0.  1.
         11    1    3    3    0    0  0.83553806783E+01  0.26060066682E+00  0.30450331487E+01  0.88967705447E+01  0.51100000000E-03 0. -1.
        -11    1    3    3    0    0  0.96707850645E+01  0.68463097094E+01  0.13872549510E+02  0.18244003688E+02  0.51100000000E-03 0.  1.
        -12    1    3    3    0    0 -0.86700060052E+01  0.14260861251E+02  0.16384776480E+02  0.23388075339E+02  0.00000000000E+00 0.  1.
</event>
<event>
 7    1  0.1161807E-013  0.5052885E+02  0.7816164E-02  0.1300439E+00
        -11   -1    0    0    0    0  0.00000000000E+00  0.00000000000E+00  0.45593999997E+02  0.45594000000E+02  0.51100000000E-03 0. -1.
         11   -1    0    0    0    0 -0.00000000000E+00 -0.00000000000E+00 -0.45593999997E+02  0.45594000000E+02  0.51100000000E-03 0.  1.
    9900012    2    1    2    0    0 -0.93930939225E+01 -0.28312785328E+02  0.27628288166E+02  0.50528851786E+02  0.29999975490E+02 0.  0.
        -12    1    1    2    0    0  0.93930939225E+01  0.28312785328E+02 -0.27628288166E+02  0.40659148214E+02  0.00000000000E+00 0.  1.
         11    1    3    3    0    0 -0.26771752925E+01  0.52929502976E+00  0.89416023535E+01  0.93487792618E+01  0.51100000000E-03 0. -1.
        -11    1    3    3    0    0  0.24516603682E+01 -0.27841337111E+01 -0.39846599382E+01  0.54442220901E+01  0.51100000000E-03 0.  1.
         12    1    3    3    0    0 -0.91675789982E+01 -0.26057946646E+02  0.22671345751E+02  0.35735850435E+02  0.00000000000E+00 0. -1.
</event>
<event>
 7    1  0.1161807E-013  0.5052886E+02  0.7816164E-02  0.1300439E+00
        -11   -1    0    0    0    0  0.00000000000E+00  0.00000000000E+00  0.45593999997E+02  0.45594000000E+02  0.51100000000E-03 0.  1.
         11   -1    0    0    0    0 -0.00000000000E+00 -0.00000000000E+00 -0.45593999997E+02  0.45594000000E+02  0.51100000000E-03 0. -1.
    9900012    2    1    2    0    0 -0.37121377868E+02  0.11502516564E+02 -0.11952454886E+02  0.50528858840E+02  0.29999996929E+02 0.  0.
         12    1    1    2    0    0  0.37121377868E+02 -0.11502516564E+02  0.11952454886E+02  0.40659141160E+02  0.00000000000E+00 0. -1.
         11    1    3    3    0    0 -0.62630879239E+01  0.22514477252E+01 -0.49035216115E+01  0.82667896827E+01  0.51100000000E-03 0. -1.
        -11    1    3    3    0    0 -0.34279444024E+02  0.12777611165E+02 -0.74432046974E+01  0.37332946925E+02  0.51100000000E-03 0.  1.
        -12    1    3    3    0    0  0.34211540803E+01 -0.35265423264E+01  0.39427142248E+00  0.49291222318E+01  0.00000000000E+00 0.  1.
</event>
<event>
 7    1  0.1161807E-013  0.5052890E+02  0.7816164E-02  0.1300439E+00
        -11   -1    0    0    0    0  0.00000000000E+00  0.00000000000E+00  0.45593999997E+02  0.45594000000E+02  0.51100000000E-03 0. -1.
         11   -1    0    0    0    0 -0.00000000000E+00 -0.00000000000E+00 -0.45593999997E+02  0.45594000000E+02  0.51100000000E-03 0.  1.
    9900012    2    1    2    0    0 -0.32458727913E+02  0.19498181405E+02 -0.14812642145E+02  0.50528899381E+02  0.30000120159E+02 0.  0.
         12    1    1    2    0    0  0.32458727913E+02 -0.19498181405E+02  0.14812642145E+02  0.40659100619E+02  0.00000000000E+00 0. -1.
         11    1    3    3    0    0 -0.24460448732E+01 -0.60293369632E+01 -0.19455170667E+01  0.67912500069E+01  0.51100000000E-03 0. -1.
        -11    1    3    3    0    0 -0.47631678033E+01  0.12527561983E+02 -0.41488628297E+01  0.14029990727E+02  0.51100000000E-03 0.  1.
         12    1    3    3    0    0 -0.25249515236E+02  0.12999956385E+02 -0.87182622481E+01  0.29707658647E+02  0.00000000000E+00 0. -1.
</event>
<event>
 7    1  0.1161807E-013  0.5052885E+02  0.7816164E-02  0.1300439E+00
        -11   -1    0    0    0    0  0.00000000000E+00  0.00000000000E+00  0.45593999997E+02  0.45594000000E+02  0.51100000000E-03 0. -1.
         11   -1    0    0    0    0 -0.00000000000E+00 -0.00000000000E+00 -0.45593999997E+02  0.45594000000E+02  0.51100000000E-03 0.  1.
    9900012    2    1    2    0    0  0.16192145661E+02  0.18679443211E+02  0.32280943723E+02  0.50528849647E+02  0.29999968987E+02 0.  0.
        -12    1    1    2    0    0 -0.16192145661E+02 -0.18679443211E+02 -0.32280943723E+02  0.40659150353E+02  0.00000000000E+00 0.  1.
         11    1    3    3    0    0  0.12401347410E+02  0.79466826103E+01  0.16131478660E+02  0.21844170529E+02  0.51100000000E-03 0.  1.
        -11    1    3    3    0    0  0.10907002398E+02  0.12264492154E+02  0.10718500302E+02  0.19602722211E+02  0.51100000000E-03 0. -1.
        -12    1    3    3    0    0 -0.71162041468E+01 -0.15317315536E+01  0.54309647613E+01  0.90819569064E+01  0.00000000000E+00 0.  1.
</event>
<event>
 7    1  0.1161807E-013  0.5052885E+02  0.7816164E-02  0.1300439E+00
        -11   -1    0    0    0    0  0.00000000000E+00  0.00000000000E+00  0.45593999997E+02  0.45594000000E+02  0.51100000000E-03 0. -1.
         11   -1    0    0    0    0 -0.00000000000E+00 -0.00000000000E+00 -0.45593999997E+02  0.45594000000E+02  0.51100000000E-03 0.  1.
    9900012    2    1    2    0    0 -0.12498524914E+02 -0.22142924273E+02  0.31727662108E+02  0.50528846501E+02  0.29999959424E+02 0.  0.
        -12    1    1    2    0    0  0.12498524914E+02  0.22142924273E+02 -0.31727662108E+02  0.40659153499E+02  0.00000000000E+00 0.  1.
         11    1    3    3    0    0  0.60530044951E+01 -0.25659778956E+01  0.97223714885E+01  0.11736592930E+02  0.51100000000E-03 0. -1.
        -11    1    3    3    0    0  0.72630881409E+00 -0.75013458461E+01  0.11467635266E+02  0.13722404048E+02  0.51100000000E-03 0.  1.
        -12    1    3    3    0    0 -0.19277838223E+02 -0.12075600531E+02  0.10537655353E+02  0.25069849523E+02  0.00000000000E+00 0.  1.
</event>
<event>
 7    1  0.1161807E-013  0.5052885E+02  0.7816164E-02  0.1300439E+00
        -11   -1    0    0    0    0  0.00000000000E+00  0.00000000000E+00  0.45593999997E+02  0.45594000000E+02  0.51100000000E-03 0. -1.
         11   -1    0    0    0    0 -0.00000000000E+00 -0.00000000000E+00 -0.45593999997E+02  0.45594000000E+02  0.51100000000E-03 0.  1.
    9900012    2    1    2    0    0  0.69247377960E+00 -0.19521535775E+02  0.35659450951E+02  0.50528851938E+02  0.29999975952E+02 0.  0.
        -12    1    1    2    0    0 -0.69247377960E+00  0.19521535775E+02 -0.35659450951E+02  0.40659148062E+02  0.00000000000E+00 0.  1.
         11    1    3    3    0    0 -0.62796719197E+00 -0.40703864444E+00  0.26179481665E+01  0.27228066614E+01  0.51100000000E-03 0. -1.
        -11    1    3    3    0    0 -0.89595830979E+01 -0.21200444028E+02  0.16894216411E+02  0.28550788162E+02  0.51100000000E-03 0.  1.
        -12    1    3    3    0    0  0.10280024069E+02  0.20859468972E+01  0.16147286374E+02  0.19255257115E+02  0.00000000000E+00 0.  1.
</event>
<event>
 7    1  0.1161807E-013  0.5052885E+02  0.7816164E-02  0.1300439E+00
        -11   -1    0    0    0    0  0.00000000000E+00  0.00000000000E+00  0.45593999997E+02  0.45594000000E+02  0.51100000000E-03 0. -1.
         11   -1    0    0    0    0 -0.00000000000E+00 -0.00000000000E+00 -0.45593999997E+02  0.45594000000E+02  0.51100000000E-03 0.  1.
    9900012    2    1    2    0    0 -0.10904942505E+02  0.46431051938E+01  0.38893315813E+02  0.50528853283E+02  0.29999980039E+02 0.  0.
        -12    1    1    2    0    0  0.10904942505E+02 -0.46431051938E+01 -0.38893315813E+02  0.40659146717E+02  0.00000000000E+00 0.  1.
         11    1    3    3    0    0  0.14950355223E+01 -0.37593794484E+01  0.40693233873E+01  0.57382452145E+01  0.51100000000E-03 0. -1.
        -11    1    3    3    0    0  0.43597081545E+01  0.41629474090E+01  0.13155572996E+00  0.60294687572E+01  0.51100000000E-03 0.  1.
         12    1    3    3    0    0 -0.16759686181E+02  0.42395372332E+01  0.34692436695E+02  0.38761139311E+02  0.00000000000E+00 0. -1.
</event>
<event>
 7    1  0.1161807E-013  0.5052886E+02  0.7816164E-02  0.1300439E+00
        -11   -1    0    0    0    0  0.00000000000E+00  0.00000000000E+00  0.45593999997E+02  0.45594000000E+02  0.51100000000E-03 0.  1.
         11   -1    0    0    0    0 -0.00000000000E+00 -0.00000000000E+00 -0.45593999997E+02  0.45594000000E+02  0.51100000000E-03 0. -1.
    9900012    2    1    2    0    0  0.35703713677E+02 -0.90890602893E+01  0.17198821875E+02  0.50528860054E+02  0.30000000621E+02 0.  0.
        -12    1    1    2    0    0 -0.35703713677E+02  0.90890602893E+01 -0.17198821875E+02  0.40659139946E+02  0.00000000000E+00 0.  1.
         11    1    3    3    0    0  0.97858966820E+01 -0.43813891836E+01  0.18035094044E+01  0.10872579799E+02  0.51100000000E-03 0. -1.
        -11    1    3    3    0    0  0.24597627814E+02  0.39916175605E+01  0.39670567541E+01  0.25233189342E+02  0.51100000000E-03 0.  1.
        -12    1    3    3    0    0  0.13201891806E+01 -0.86992886662E+01  0.11428255716E+02  0.14423090913E+02  0.00000000000E+00 0.  1.
</event>
<event>
 7    1  0.1161807E-013  0.5052886E+02  0.7816164E-02  0.1300439E+00
        -11   -1    0    0    0    0  0.00000000000E+00  0.00000000000E+00  0.45593999997E+02  0.45594000000E+02  0.51100000000E-03 0.  1.
         11   -1    0    0    0    0 -0.00000000000E+00 -0.00000000000E+00 -0.45593999997E+02  0.45594000000E+02  0.51100000000E-03 0. -1.
    9900012    2    1    2    0    0 -0.17219731953E+02 -0.32329389877E+02  0.17648146571E+02  0.50528859629E+02  0.29999999328E+02 0.  0.
        -12    1    1    2    0    0  0.17219731953E+02  0.32329389877E+02 -0.17648146571E+02  0.40659140371E+02  0.00000000000E+00 0.  1.
         11    1    3    3    0    0 -0.28513725787E+01 -0.95820954003E+01  0.12565724975E+02  0.16057531636E+02  0.51100000000E-03 0. -1.
        -11    1    3    3    0    0 -0.10688245074E+02 -0.36948022375E+01  0.92667777709E+01  0.14620646937E+02  0.51100000000E-03 0.  1.
         12    1    3    3    0    0 -0.36801143002E+01 -0.19052492239E+02 -0.41843561750E+01  0.19850681056E+02  0.00000000000E+00 0. -1.
</event>
<event>
 7    1  0.1161807E-013  0.5052886E+02  0.7816164E-02  0.1300439E+00
        -11   -1    0    0    0    0  0.00000000000E+00  0.00000000000E+00  0.45593999997E+02  0.45594000000E+02  0.51100000000E-03 0. -1.
         11   -1    0    0    0    0 -0.00000000000E+00 -0.00000000000E+00 -0.45593999997E+02  0.45594000000E+02  0.51100000000E-03 0.  1.
    9900012    2    1    2    0    0  0.35405421659E+02 -0.13714084819E+02  0.14544599825E+02  0.50528863396E+02  0.30000010780E+02 0.  0.
        -12    1    1    2    0    0 -0.35405421659E+02  0.13714084819E+02 -0.14544599825E+02  0.40659136604E+02  0.00000000000E+00 0.  1.
         11    1    3    3    0    0  0.17317987121E+02 -0.10156891314E+01  0.80310454215E+01  0.19116537165E+02  0.51100000000E-03 0. -1.
        -11    1    3    3    0    0  0.61081789387E+01  0.59686945991E+01  0.21550163865E+01  0.88079090056E+01  0.51100000000E-03 0.  1.
        -12    1    3    3    0    0  0.11979255599E+02 -0.18667090287E+02  0.43585380174E+01  0.22604417226E+02  0.00000000000E+00 0.  1.
</event>
<event>
 7    1  0.1161807E-013  0.5052885E+02  0.7816164E-02  0.1300439E+00
        -11   -1    0    0    0    0  0.00000000000E+00  0.00000000000E+00  0.45593999997E+02  0.45594000000E+02  0.51100000000E-03 0. -1.
         11   -1    0    0    0    0 -0.00000000000E+00 -0.00000000000E+00 -0.45593999997E+02  0.45594000000E+02  0.51100000000E-03 0.  1.
    9900012    2    1    2    0    0  0.86384563709E+01  0.14267540271E+02 -0.37080728701E+02  0.50528854966E+02  0.29999985155E+02 0.  0.
         12    1    1    2    0    0 -0.86384563709E+01 -0.14267540271E+02  0.37080728701E+02  0.40659145034E+02  0.00000000000E+00 0. -1.
         11    1    3    3    0    0 -0.21463631173E+01  0.75745312841E+01  0.11991011855E+01  0.79635571649E+01  0.51100000000E-03 0.  1.
        -11    1    3    3    0    0  0.22476453583E+01  0.10352866984E+01  0.44036902872E+00  0.25134942504E+01  0.51100000000E-03 0. -1.
        -12    1    3    3    0    0  0.85371741299E+01  0.56577222885E+01 -0.38720198916E+02  0.40051803551E+02  0.00000000000E+00 0.  1.
</event>
<event>
 7    1  0.1161807E-013  0.5052886E+02  0.7816164E-02  0.1300439E+00
        -11   -1    0    0    0    0  0.00000000000E+00  0.00000000000E+00  0.45593999997E+02  0.45594000000E+02  0.51100000000E-03 0.  1.
         11   -1    0    0    0    0 -0.00000000000E+00 -0.00000000000E+00 -0.45593999997E+02  0.45594000000E+02  0.51100000000E-03 0. -1.
    9900012    2    1    2    0    0  0.79854834833E+01 -0.38899257563E+02  0.87318438060E+01  0.50528864720E+02  0.30000014804E+02 0.  0.
        -12    1    1    2    0    0 -0.79854834833E+01  0.38899257563E+02 -0.87318438060E+01  0.40659135280E+02  0.00000000000E+00 0.  1.
         11    1    3    3    0    0  0.42646016263E+01 -0.54856130717E+01  0.11121884434E+02  0.13113927384E+02  0.51100000000E-03 0. -1.
        -11    1    3    3    0    0 -0.84025169710E+00 -0.25477868416E+01 -0.54396312496E+01  0.60652146786E+01  0.51100000000E-03 0.  1.
         12    1    3    3    0    0  0.45611335542E+01 -0.30865857650E+02  0.30495906218E+01  0.31349722658E+02  0.00000000000E+00 0. -1.
</event>
<event>
 7    1  0.1161807E-013  0.5052888E+02  0.7816164E-02  0.1300439E+00
        -11   -1    0    0    0    0  0.00000000000E+00  0.00000000000E+00  0.45593999997E+02  0.45594000000E+02  0.51100000000E-03 0. -1.
         11   -1    0    0    0    0 -0.00000000000E+00 -0.00000000000E+00 -0.45593999997E+02  0.45594000000E+02  0.51100000000E-03 0.  1.
    9900012    2    1    2    0    0 -0.28136494902E+02  0.28414680990E+02 -0.73557773960E+01  0.50528881684E+02  0.30000066368E+02 0.  0.
         12    1    1    2    0    0  0.28136494902E+02 -0.28414680990E+02  0.73557773960E+01  0.40659118316E+02  0.00000000000E+00 0. -1.
         11    1    3    3    0    0  0.41718153167E+00  0.46979391952E+01  0.42068238162E+00  0.47351501602E+01  0.51100000000E-03 0. -1.
        -11    1    3    3    0    0 -0.18366261543E+01 -0.41087358837E+01  0.33902863059E+01  0.56346204566E+01  0.51100000000E-03 0.  1.
        -12    1    3    3    0    0 -0.26717050279E+02  0.27825477678E+02 -0.11166746083E+02  0.40159111068E+02  0.00000000000E+00 0.  1.
</event>
<event>
 7    1  0.1161807E-013  0.5052887E+02  0.7816164E-02  0.1300439E+00
        -11   -1    0    0    0    0  0.00000000000E+00  0.00000000000E+00  0.45593999997E+02  0.45594000000E+02  0.51100000000E-03 0. -1.
         11   -1    0    0    0    0 -0.00000000000E+00 -0.00000000000E+00 -0.45593999997E+02  0.45594000000E+02  0.51100000000E-03 0.  1.
    9900012    2    1    2    0    0  0.64266038038E+01  0.51473470158E+01 -0.39816684205E+02  0.50528871151E+02  0.30000034349E+02 0.  0.
         12    1    1    2    0    0 -0.64266038038E+01 -0.51473470158E+01  0.39816684205E+02  0.40659128849E+02  0.00000000000E+00 0. -1.
         11    1    3    3    0    0  0.37685735195E+01  0.90084484393E+00  0.30216841398E+00  0.38865117800E+01  0.51100000000E-03 0. -1.
        -11    1    3    3    0    0  0.61846530842E+01  0.84626684785E+01 -0.39777260617E+02  0.41135108532E+02  0.51100000000E-03 0.  1.
         12    1    3    3    0    0 -0.35266227998E+01 -0.42161663067E+01 -0.34159200185E+00  0.55072508381E+01  0.00000000000E+00 0. -1.
</event>
<event>
 7    1  0.1161807E-013  0.5052885E+02  0.7816164E-02  0.1300439E+00
        -11   -1    0    0    0    0  0.00000000000E+00  0.00000000000E+00  0.45593999997E+02  0.45594000000E+02  0.51100000000E-03 0. -1.
         11   -1    0    0    0    0 -0.00000000000E+00 -0.00000000000E+00 -0.45593999997E+02  0.45594000000E+02  0.51100000000E-03 0.  1.
    9900012    2    1    2    0    0  0.17771126090E+02 -0.67683472846E+01 -0.35938040037E+02  0.50528853807E+02  0.29999981630E+02 0.  0.
         12    1    1    2    0    0 -0.17771126090E+02  0.67683472846E+01  0.35938040037E+02  0.40659146193E+02  0.00000000000E+00 0. -1.
         11    1    3    3    0    0  0.54124012257E+01  0.12154172823E+01 -0.17742854051E+00  0.55500276887E+01  0.51100000000E-03 0.  1.
        -11    1    3    3    0    0  0.15999387419E+02 -0.64216871176E+01 -0.12280124659E+02  0.21166481170E+02  0.51100000000E-03 0. -1.
         12    1    3    3    0    0 -0.36406625546E+01 -0.15620774492E+01 -0.23480486837E+02  0.23812344948E+02  0.00000000000E+00 0. -1.
</event>
<event>
 7    1  0.1161807E-013  0.5052886E+02  0.7816164E-02  0.1300439E+00
        -11   -1    0    0    0    0  0.00000000000E+00  0.00000000000E+00  0.45593999997E+02  0.45594000000E+02  0.51100000000E-03 0.  1.
         11   -1    0    0    0    0 -0.00000000000E+00 -0.00000000000E+00 -0.45593999997E+02  0.45594000000E+02  0.51100000000E-03 0. -1.
    9900012    2    1    2    0    0  0.22079531263E+02  0.13268653792E+02  0.31457958109E+02  0.50528855855E+02  0.29999987857E+02 0.  0.
        -12    1    1    2    0    0 -0.22079531263E+02 -0.13268653792E+02 -0.31457958109E+02  0.40659144145E+02  0.00000000000E+00 0.  1.
         11    1    3    3    0    0  0.49780085702E+01  0.39658121437E+01  0.45459038803E+01  0.78213475587E+01  0.51100000000E-03 0. -1.
        -11    1    3    3    0    0  0.10829899827E+02  0.52481307515E+01 -0.25601435041E+01  0.12303818174E+02  0.51100000000E-03 0.  1.
        -12    1    3    3    0    0  0.62716228655E+01  0.40547108965E+01  0.29472197733E+02  0.30403690122E+02  0.00000000000E+00 0.  1.
</event>
<event>
 7    1  0.1161807E-013  0.5052889E+02  0.7816164E-02  0.1300439E+00
        -11   -1    0    0    0    0  0.00000000000E+00  0.00000000000E+00  0.45593999997E+02  0.45594000000E+02  0.51100000000E-03 0.  1.
         11   -1    0    0    0    0 -0.00000000000E+00 -0.00000000000E+00 -0.45593999997E+02  0.45594000000E+02  0.51100000000E-03 0. -1.
    9900012    2    1    2    0    0 -0.34108588283E+02 -0.14529721166E+02 -0.16692943248E+02  0.50528893441E+02  0.30000102104E+02 0.  0.
         12    1    1    2    0    0  0.34108588283E+02  0.14529721166E+02  0.16692943248E+02  0.40659106559E+02  0.00000000000E+00 0. -1.
         11    1    3    3    0    0  0.17758967978E+00  0.70788413603E-01 -0.49792424801E+01  0.49829113007E+01  0.51100000000E-03 0. -1.
        -11    1    3    3    0    0 -0.99515353377E+01  0.62518417729E+01 -0.51633508459E+01  0.12836618455E+02  0.51100000000E-03 0.  1.
         12    1    3    3    0    0 -0.24334642625E+02 -0.20852351353E+02 -0.65503499225E+01  0.32709363686E+02  0.00000000000E+00 0. -1.
</event>
<event>
 7    1  0.1161807E-013  0.5052886E+02  0.7816164E-02  0.1300439E+00
        -11   -1    0    0    0    0  0.00000000000E+00  0.00000000000E+00  0.45593999997E+02  0.45594000000E+02  0.51100000000E-03 0.  1.
         11   -1    0    0    0    0 -0.00000000000E+00 -0.00000000000E+00 -0.45593999997E+02  0.45594000000E+02  0.51100000000E-03 0. -1.
    9900012    2    1    2    0    0  0.18536852686E+02 -0.33757915791E+02 -0.13036627811E+02  0.50528862641E+02  0.30000008485E+02 0.  0.
         12    1    1    2    0    0 -0.18536852686E+02  0.33757915791E+02  0.13036627811E+02  0.40659137359E+02  0.00000000000E+00 0. -1.
         11    1    3    3    0    0 -0.11503271325E+00 -0.15158966906E+02 -0.17962482448E+01  0.15265451785E+02  0.51100000000E-03 0.  1.
        -11    1    3    3    0    0 -0.77775856980E+00 -0.11860887660E+02 -0.12538824348E+00  0.11887021786E+02  0.51100000000E-03 0. -1.
        -12    1    3    3    0    0  0.19429643969E+02 -0.67380612249E+01 -0.11114991323E+02  0.23376389070E+02  0.00000000000E+00 0.  1.
</event>
<event>
 7    1  0.1161807E-013  0.5052887E+02  0.7816164E-02  0.1300439E+00
        -11   -1    0    0    0    0  0.00000000000E+00  0.00000000000E+00  0.45593999997E+02  0.45594000000E+02  0.51100000000E-03 0. -1.
         11   -1    0    0    0    0 -0.00000000000E+00 -0.00000000000E+00 -0.45593999997E+02  0.45594000000E+02  0.51100000000E-03 0.  1.
    9900012    2    1    2    0    0  0.22106305814E+02  0.16608021787E+02 -0.29810233187E+02  0.50528866376E+02  0.30000019836E+02 0.  0.
         12    1    1    2    0    0 -0.22106305814E+02 -0.16608021787E+02  0.29810233187E+02  0.40659133624E+02  0.00000000000E+00 0. -1.
         11    1    3    3    0    0  0.66840484290E+01 -0.16795917521E+00 -0.82878623752E+01  0.10648632621E+02  0.51100000000E-03 0. -1.
        -11    1    3    3    0    0  0.97063241402E+00  0.13468651329E+01 -0.18442279326E+02  0.18516852863E+02  0.51100000000E-03 0.  1.
         12    1    3    3    0    0  0.14451624971E+02  0.15429115829E+02 -0.30800914862E+01  0.21363380892E+02  0.00000000000E+00 0. -1.
</event>
<event>
 7    1  0.1161807E-013  0.5052885E+02  0.7816164E-02  0.1300439E+00
        -11   -1    0    0    0    0  0.00000000000E+00  0.00000000000E+00  0.45593999997E+02  0.45594000000E+02  0.51100000000E-03 0. -1.
         11   -1    0    0    0    0 -0.00000000000E+00 -0.00000000000E+00 -0.45593999997E+02  0.45594000000E+02  0.51100000000E-03 0.  1.
    9900012    2    1    2    0    0 -0.15607230891E+02 -0.30092909547E+02  0.22449889792E+02  0.50528850811E+02  0.29999972524E+02 0.  0.
        -12    1    1    2    0    0  0.15607230891E+02  0.30092909547E+02 -0.22449889792E+02  0.40659149189E+02  0.00000000000E+00 0.  1.
         11    1    3    3    0    0 -0.68937774979E+00 -0.43299573098E+01  0.17116854120E+01  0.47067652584E+01  0.51100000000E-03 0. -1.
        -11    1    3    3    0    0 -0.12688402264E+02 -0.71691699237E+01  0.22718021682E+02  0.26990758767E+02  0.51100000000E-03 0.  1.
        -12    1    3    3    0    0 -0.22294508774E+01 -0.18593782314E+02 -0.19798173016E+01  0.18831326785E+02  0.00000000000E+00 0.  1.
</event>
<event>
 7    1  0.1161807E-013  0.5052883E+02  0.7816164E-02  0.1300439E+00
        -11   -1    0    0    0    0  0.00000000000E+00  0.00000000000E+00  0.45593999997E+02  0.45594000000E+02  0.51100000000E-03 0. -1.
         11   -1    0    0    0    0 -0.00000000000E+00 -0.00000000000E+00 -0.45593999997E+02  0.45594000000E+02  0.51100000000E-03 0.  1.
    9900012    2    1    2    0    0  0.76487661309E+01  0.24633444565E+02  0.31430203608E+02  0.50528832358E+02  0.29999916437E+02 0.  0.
        -12    1    1    2    0    0 -0.76487661309E+01 -0.24633444565E+02 -0.31430203608E+02  0.40659167642E+02  0.00000000000E+00 0.  1.
         11    1    3    3    0    0  0.14004724798E+01  0.82537177081E+01  0.49357099473E+01  0.97183543935E+01  0.51100000000E-03 0. -1.
        -11    1    3    3    0    0 -0.96638555041E+01  0.99684849114E+01  0.12073938866E+02  0.18399478107E+02  0.51100000000E-03 0.  1.
         12    1    3    3    0    0  0.15912149155E+02  0.64112419458E+01  0.14420554795E+02  0.22410999858E+02  0.00000000000E+00 0. -1.
</event>
<event>
 7    1  0.1161807E-013  0.5052887E+02  0.7816164E-02  0.1300439E+00
        -11   -1    0    0    0    0  0.00000000000E+00  0.00000000000E+00  0.45593999997E+02  0.45594000000E+02  0.51100000000E-03 0.  1.
         11   -1    0    0    0    0 -0.00000000000E+00 -0.00000000000E+00 -0.45593999997E+02  0.45594000000E+02  0.51100000000E-03 0. -1.
    9900012    2    1    2    0    0  0.39560746025E+02 -0.60070396969E+01  0.72130097261E+01  0.50528872350E+02  0.30000037994E+02 0.  0.
        -12    1    1    2    0    0 -0.39560746025E+02  0.60070396969E+01 -0.72130097261E+01  0.40659127650E+02  0.00000000000E+00 0.  1.
         11    1    3    3    0    0  0.33682308853E+02 -0.76888635531E+01  0.68930770980E+01  0.35229690100E+02  0.51100000000E-03 0. -1.
        -11    1    3    3    0    0  0.75046716879E+01 -0.45655617721E+01 -0.46172123456E+00  0.87964560021E+01  0.51100000000E-03 0.  1.
        -12    1    3    3    0    0 -0.16262345158E+01  0.62473856283E+01  0.78165386270E+00  0.65027262475E+01  0.00000000000E+00 0.  1.
</event>
<event>
 7    1  0.1161807E-013  0.5052885E+02  0.7816164E-02  0.1300439E+00
        -11   -1    0    0    0    0  0.00000000000E+00  0.00000000000E+00  0.45593999997E+02  0.45594000000E+02  0.51100000000E-03 0.  1.
         11   -1    0    0    0    0 -0.00000000000E+00 -0.00000000000E+00 -0.45593999997E+02  0.45594000000E+02  0.51100000000E-03 0. -1.
    9900012    2    1    2    0    0 -0.68218680614E+01  0.38727792010E+02  0.10333761716E+02  0.50528851103E+02  0.29999973412E+02 0.  0.
         12    1    1    2    0    0  0.68218680614E+01 -0.38727792010E+02 -0.10333761716E+02  0.40659148897E+02  0.00000000000E+00 0. -1.
         11    1    3    3    0    0 -0.13079240402E+02  0.10991205589E+02 -0.15769470587E+01  0.17156919655E+02  0.51100000000E-03 0. -1.
        -11    1    3    3    0    0  0.56757164393E+01  0.14327382348E+02 -0.25052393042E-01  0.15410654429E+02  0.51100000000E-03 0.  1.
        -12    1    3    3    0    0  0.58165590094E+00  0.13409204074E+02  0.11935761168E+02  0.17961277019E+02  0.00000000000E+00 0.  1.
</event>
<event>
 7    1  0.1161807E-013  0.5052886E+02  0.7816164E-02  0.1300439E+00
        -11   -1    0    0    0    0  0.00000000000E+00  0.00000000000E+00  0.45593999997E+02  0.45594000000E+02  0.51100000000E-03 0. -1.
         11   -1    0    0    0    0 -0.00000000000E+00 -0.00000000000E+00 -0.45593999997E+02  0.45594000000E+02  0.51100000000E-03 0.  1.
    9900012    2    1    2    0    0 -0.16205003739E+02 -0.17750070895E+02 -0.32794793996E+02  0.50528859869E+02  0.30000000058E+02 0.  0.
         12    1    1    2    0    0  0.16205003739E+02  0.17750070895E+02  0.32794793996E+02  0.40659140131E+02  0.00000000000E+00 0. -1.
         11    1    3    3    0    0 -0.98846144899E+01 -0.19503197522E+02 -0.11220908548E+02  0.24576189821E+02  0.51100000000E-03 0. -1.
        -11    1    3    3    0    0  0.15717983257E+01 -0.23041570434E+01 -0.18425909863E+00  0.27952891324E+01  0.51100000000E-03 0.  1.
        -12    1    3    3    0    0 -0.78921875752E+01  0.40572836709E+01 -0.21389626349E+02  0.23157380916E+02  0.00000000000E+00 0.  1.
</event>
<event>
 7    1  0.1161807E-013  0.5052887E+02  0.7816164E-02  0.1300439E+00
        -11   -1    0    0    0    0  0.00000000000E+00  0.00000000000E+00  0.45593999997E+02  0.45594000000E+02  0.51100000000E-03 0.  1.
         11   -1    0    0    0    0 -0.00000000000E+00 -0.00000000000E+00 -0.45593999997E+02  0.45594000000E+02  0.51100000000E-03 0. -1.
    9900012    2    1    2    0    0 -0.40008258822E+02  0.26273409702E+01  0.67528609521E+01  0.50528870330E+02  0.30000031854E+02 0.  0.
        -12    1    1    2    0    0  0.40008258822E+02 -0.26273409702E+01 -0.67528609521E+01  0.40659129670E+02  0.00000000000E+00 0.  1.
         11    1    3    3    0    0 -0.10878879315E+02 -0.91998214764E+01  0.33713384708E+01  0.14640787332E+02  0.51100000000E-03 0. -1.
        -11    1    3    3    0    0 -0.45392785390E+01 -0.35327265985E+01 -0.25542716053E+01  0.62936087080E+01  0.51100000000E-03 0.  1.
        -12    1    3    3    0    0 -0.24590100967E+02  0.15359889045E+02  0.59357940865E+01  0.29594474290E+02  0.00000000000E+00 0.  1.
</event>
<event>
 7    1  0.1161807E-013  0.5052892E+02  0.7816164E-02  0.1300439E+00
        -11   -1    0    0    0    0  0.00000000000E+00  0.00000000000E+00  0.45593999997E+02  0.45594000000E+02  0.51100000000E-03 0. -1.
         11   -1    0    0    0    0 -0.00000000000E+00 -0.00000000000E+00 -0.45593999997E+02  0.45594000000E+02  0.51100000000E-03 0.  1.
    9900012    2    1    2    0    0 -0.21084887221E+01 -0.14149985799E+02  0.38059076622E+02  0.50528915700E+02  0.30000169760E+02 0.  0.
        -12    1    1    2    0    0  0.21084887221E+01  0.14149985799E+02 -0.38059076622E+02  0.40659084300E+02  0.00000000000E+00 0.  1.
         11    1    3    3    0    0  0.33052725123E+00 -0.41932265799E+01  0.12331445816E+02  0.13029081072E+02  0.51100000000E-03 0. -1.
        -11    1    3    3    0    0 -0.89418545526E+01 -0.15435920080E+02  0.21698898084E+02  0.28090328760E+02  0.51100000000E-03 0.  1.
         12    1    3    3    0    0  0.65028385792E+01  0.54791608603E+01  0.40287327228E+01  0.94095058676E+01  0.00000000000E+00 0. -1.
</event>
<event>
 7    1  0.1161807E-013  0.5052887E+02  0.7816164E-02  0.1300439E+00
        -11   -1    0    0    0    0  0.00000000000E+00  0.00000000000E+00  0.45593999997E+02  0.45594000000E+02  0.51100000000E-03 0. -1.
         11   -1    0    0    0    0 -0.00000000000E+00 -0.00000000000E+00 -0.45593999997E+02  0.45594000000E+02  0.51100000000E-03 0.  1.
    9900012    2    1    2    0    0 -0.25090541603E+02 -0.10477584448E+02  0.30229952778E+02  0.50528866970E+02  0.30000021642E+02 0.  0.
        -12    1    1    2    0    0  0.25090541603E+02  0.10477584448E+02 -0.30229952778E+02  0.40659133030E+02  0.00000000000E+00 0.  1.
         11    1    3    3    0    0 -0.50823177002E+01  0.69471244394E+01  0.12911576190E+02  0.15517773396E+02  0.51100000000E-03 0. -1.
        -11    1    3    3    0    0  0.61323151405E+00  0.14996782924E+01 -0.65566912738E+00  0.17478530076E+01  0.51100000000E-03 0.  1.
         12    1    3    3    0    0 -0.20621455417E+02 -0.18924387180E+02  0.17974045715E+02  0.33263240567E+02  0.00000000000E+00 0. -1.
</event>
<event>
 7    1  0.1161807E-013  0.5052888E+02  0.7816164E-02  0.1300439E+00
        -11   -1    0    0    0    0  0.00000000000E+00  0.00000000000E+00  0.45593999997E+02  0.45594000000E+02  0.51100000000E-03 0. -1.
         11   -1    0    0    0    0 -0.00000000000E+00 -0.00000000000E+00 -0.45593999997E+02  0.45594000000E+02  0.51100000000E-03 0.  1.
    9900012    2    1    2    0    0  0.82391628558E+01 -0.23795957404E+02 -0.31922295014E+02  0.50528876641E+02  0.30000051039E+02 0.  0.
         12    1    1    2    0    0 -0.82391628558E+01  0.23795957404E+02  0.31922295014E+02  0.40659123359E+02  0.00000000000E+00 0. -1.
         11    1    3    3    0    0  0.10925170588E+02 -0.13300550115E+02 -0.96530786653E+01  0.19734384047E+02  0.51100000000E-03 0. -1.
        -11    1    3    3    0    0  0.24637347066E+01 -0.14322050491E+02 -0.12856150628E+02  0.19402879379E+02  0.51100000000E-03 0.  1.
         12    1    3    3    0    0 -0.51497424390E+01  0.38266432020E+01 -0.94130657203E+01  0.11391613215E+02  0.00000000000E+00 0. -1.
</event>
<event>
 7    1  0.1161807E-013  0.5052884E+02  0.7816164E-02  0.1300439E+00
        -11   -1    0    0    0    0  0.00000000000E+00  0.00000000000E+00  0.45593999997E+02  0.45594000000E+02  0.51100000000E-03 0. -1.
         11   -1    0    0    0    0 -0.00000000000E+00 -0.00000000000E+00 -0.45593999997E+02  0.45594000000E+02  0.51100000000E-03 0.  1.
    9900012    2    1    2    0    0 -0.11746862918E+02  0.12254992552E+02 -0.36945817504E+02  0.50528842828E+02  0.29999948261E+02 0.  0.
         12    1    1    2    0    0  0.11746862918E+02 -0.12254992552E+02  0.36945817504E+02  0.40659157172E+02  0.00000000000E+00 0. -1.
         11    1    3    3    0    0 -0.48875621780E+00  0.93201005249E+00  0.42047364943E+00  0.11332800754E+01  0.51100000000E-03 0. -1.
        -11    1    3    3    0    0 -0.35758919282E+01  0.17500221686E+02 -0.34944197857E+02  0.39244639460E+02  0.51100000000E-03 0.  1.
        -12    1    3    3    0    0 -0.76822147721E+01 -0.61772391869E+01 -0.24220932960E+01  0.10150923294E+02  0.00000000000E+00 0.  1.
</event>
<event>
 7    1  0.1161807E-013  0.5052885E+02  0.7816164E-02  0.1300439E+00
        -11   -1    0    0    0    0  0.00000000000E+00  0.00000000000E+00  0.45593999997E+02  0.45594000000E+02  0.51100000000E-03 0. -1.
         11   -1    0    0    0    0 -0.00000000000E+00 -0.00000000000E+00 -0.45593999997E+02  0.45594000000E+02  0.51100000000E-03 0.  1.
    9900012    2    1    2    0    0 -0.48703266180E+01  0.10647733968E+02 -0.38936772821E+02  0.50528848536E+02  0.29999965611E+02 0.  0.
         12    1    1    2    0    0  0.48703266180E+01 -0.10647733968E+02  0.38936772821E+02  0.40659151464E+02  0.00000000000E+00 0. -1.
         11    1    3    3    0    0  0.52233716178E+01  0.34507371922E+01 -0.10988761130E+02  0.12646899606E+02  0.51100000000E-03 0. -1.
        -11    1    3    3    0    0 -0.86258462201E+01  0.14643955918E+02 -0.23760478131E+02  0.29213198887E+02  0.51100000000E-03 0.  1.
         12    1    3    3    0    0 -0.14678520157E+01 -0.74469591414E+01 -0.41875335602E+01  0.86687500432E+01  0.00000000000E+00 0. -1.
</event>
<event>
 7    1  0.1161807E-013  0.5052885E+02  0.7816164E-02  0.1300439E+00
        -11   -1    0    0    0    0  0.00000000000E+00  0.00000000000E+00  0.45593999997E+02  0.45594000000E+02  0.51100000000E-03 0. -1.
         11   -1    0    0    0    0 -0.00000000000E+00 -0.00000000000E+00 -0.45593999997E+02  0.45594000000E+02  0.51100000000E-03 0.  1.
    9900012    2    1    2    0    0 -0.15922544670E+02 -0.11348991630E-01  0.37411744490E+02  0.50528853632E+02  0.29999981100E+02 0.  0.
        -12    1    1    2    0    0  0.15922544670E+02  0.11348991630E-01 -0.37411744490E+02  0.40659146368E+02  0.00000000000E+00 0.  1.
         11    1    3    3    0    0 -0.62525501873E+01  0.11524779549E+02  0.23016678423E+02  0.26489288654E+02  0.51100000000E-03 0. -1.
        -11    1    3    3    0    0 -0.52953806354E+01  0.11459843351E+00  0.40022832510E+00  0.53117202343E+01  0.51100000000E-03 0.  1.
        -12    1    3    3    0    0 -0.43746138473E+01 -0.11650726974E+02  0.13994837742E+02  0.18727844744E+02  0.00000000000E+00 0.  1.
</event>
<event>
 7    1  0.1161807E-013  0.5052887E+02  0.7816164E-02  0.1300439E+00
        -11   -1    0    0    0    0  0.00000000000E+00  0.00000000000E+00  0.45593999997E+02  0.45594000000E+02  0.51100000000E-03 0. -1.
         11   -1    0    0    0    0 -0.00000000000E+00 -0.00000000000E+00 -0.45593999997E+02  0.45594000000E+02  0.51100000000E-03 0.  1.
    9900012    2    1    2    0    0  0.13783523677E+01  0.31117345282E+02 -0.26133808225E+02  0.50528868615E+02  0.30000026642E+02 0.  0.
         12    1    1    2    0    0 -0.13783523677E+01 -0.31117345282E+02  0.26133808225E+02  0.40659131385E+02  0.00000000000E+00 0. -1.
         11    1    3    3    0    0 -0.19044557715E+01  0.43528995436E+01 -0.52876157646E+00  0.47806145303E+01  0.51100000000E-03 0. -1.
        -11    1    3    3    0    0  0.50299514750E-01  0.14030587556E+02  0.29306763113E+01  0.14333484612E+02  0.51100000000E-03 0.  1.
        -12    1    3    3    0    0  0.32325086244E+01  0.12733858183E+02 -0.28535722960E+02  0.31414769473E+02  0.00000000000E+00 0.  1.
</event>
<event>
 7    1  0.1161807E-013  0.5052885E+02  0.7816164E-02  0.1300439E+00
        -11   -1    0    0    0    0  0.00000000000E+00  0.00000000000E+00  0.45593999997E+02  0.45594000000E+02  0.51100000000E-03 0. -1.
         11   -1    0    0    0    0 -0.00000000000E+00 -0.00000000000E+00 -0.45593999997E+02  0.45594000000E+02  0.51100000000E-03 0.  1.
    9900012    2    1    2    0    0 -0.30745238432E+01  0.32661249564E+02 -0.24019918752E+02  0.50528850762E+02  0.29999972375E+02 0.  0.
         12    1    1    2    0    0  0.30745238432E+01 -0.32661249564E+02  0.24019918752E+02  0.40659149238E+02  0.00000000000E+00 0. -1.
         11    1    3    3    0    0  0.71905351109E+01  0.68657907626E+01 -0.39999069352E+00  0.99500186328E+01  0.51100000000E-03 0.  1.
        -11    1    3    3    0    0  0.44664612269E+01  0.34206847382E+01 -0.14597634037E+01  0.58121656399E+01  0.51100000000E-03 0. -1.
         12    1    3    3    0    0 -0.14731520181E+02  0.22374774064E+02 -0.22160164654E+02  0.34766666489E+02  0.00000000000E+00 0. -1.
</event>
<event>
 7    1  0.1161807E-013  0.5052885E+02  0.7816164E-02  0.1300439E+00
        -11   -1    0    0    0    0  0.00000000000E+00  0.00000000000E+00  0.45593999997E+02  0.45594000000E+02  0.51100000000E-03 0. -1.
         11   -1    0    0    0    0 -0.00000000000E+00 -0.00000000000E+00 -0.45593999997E+02  0.45594000000E+02  0.51100000000E-03 0.  1.
    9900012    2    1    2    0    0 -0.29300824023E+02  0.19617194052E+02  0.20243356992E+02  0.50528854741E+02  0.29999984470E+02 0.  0.
        -12    1    1    2    0    0  0.29300824023E+02 -0.19617194052E+02 -0.20243356992E+02  0.40659145259E+02  0.00000000000E+00 0.  1.
         11    1    3    3    0    0 -0.27436400257E+02  0.94530279035E+01  0.10135391292E+02  0.30738281547E+02  0.51100000000E-03 0. -1.
        -11    1    3    3    0    0 -0.41937781368E+01 -0.19823168272E+01  0.24876200555E+01  0.52636117701E+01  0.51100000000E-03 0.  1.
         12    1    3    3    0    0  0.23293543704E+01  0.12146482975E+02  0.76203456443E+01  0.14526961423E+02  0.00000000000E+00 0. -1.
</event>
<event>
 7    1  0.1161807E-013  0.5052886E+02  0.7816164E-02  0.1300439E+00
        -11   -1    0    0    0    0  0.00000000000E+00  0.00000000000E+00  0.45593999997E+02  0.45594000000E+02  0.51100000000E-03 0. -1.
         11   -1    0    0    0    0 -0.00000000000E+00 -0.00000000000E+00 -0.45593999997E+02  0.45594000000E+02  0.51100000000E-03 0.  1.
    9900012    2    1    2    0    0  0.16455398685E+02 -0.20952903790E+01  0.37121354227E+02  0.50528864160E+02  0.30000013099E+02 0.  0.
        -12    1    1    2    0    0 -0.16455398685E+02  0.20952903790E+01 -0.37121354227E+02  0.40659135840E+02  0.00000000000E+00 0.  1.
         11    1    3    3    0    0  0.52784172356E+01  0.74658513386E+00  0.49492021740E+01  0.72741790118E+01  0.51100000000E-03 0. -1.
        -11    1    3    3    0    0  0.12887606947E+02 -0.71969908357E+01  0.48538362508E+01  0.15538559024E+02  0.51100000000E-03 0.  1.
        -12    1    3    3    0    0 -0.17106254978E+01  0.43551153228E+01  0.27318315802E+02  0.27716126124E+02  0.00000000000E+00 0.  1.
</event>
<event>
 7    1  0.1161807E-013  0.5052888E+02  0.7816164E-02  0.1300439E+00
        -11   -1    0    0    0    0  0.00000000000E+00  0.00000000000E+00  0.45593999997E+02  0.45594000000E+02  0.51100000000E-03 0. -1.
         11   -1    0    0    0    0 -0.00000000000E+00 -0.00000000000E+00 -0.45593999997E+02  0.45594000000E+02  0.51100000000E-03 0.  1.
    9900012    2    1    2    0    0 -0.21560215992E+02  0.28254839507E+02  0.19748050794E+02  0.50528875816E+02  0.30000048531E+02 0.  0.
        -12    1    1    2    0    0  0.21560215992E+02 -0.28254839507E+02 -0.19748050794E+02  0.40659124184E+02  0.00000000000E+00 0.  1.
         11    1    3    3    0    0 -0.64511808346E+01  0.18550055696E+02  0.63718482405E+01  0.20647584622E+02  0.51100000000E-03 0. -1.
        -11    1    3    3    0    0  0.24710983430E+01  0.60801562035E+01 -0.13056394364E+01  0.66917352816E+01  0.51100000000E-03 0.  1.
        -12    1    3    3    0    0 -0.17580133501E+02  0.36246276080E+01  0.14681841990E+02  0.23189555913E+02  0.00000000000E+00 0.  1.
</event>
<event>
 7    1  0.1161807E-013  0.5052892E+02  0.7816164E-02  0.1300439E+00
        -11   -1    0    0    0    0  0.00000000000E+00  0.00000000000E+00  0.45593999997E+02  0.45594000000E+02  0.51100000000E-03 0.  1.
         11   -1    0    0    0    0 -0.00000000000E+00 -0.00000000000E+00 -0.45593999997E+02  0.45594000000E+02  0.51100000000E-03 0. -1.
    9900012    2    1    2    0    0  0.15001439861E+02  0.30990634295E+02 -0.21626326256E+02  0.50528922302E+02  0.30000189830E+02 0.  0.
         12    1    1    2    0    0 -0.15001439861E+02 -0.30990634295E+02  0.21626326256E+02  0.40659077698E+02  0.00000000000E+00 0. -1.
         11    1    3    3    0    0  0.77031405873E+01  0.69213614170E+01  0.13708024000E+01  0.10446181994E+02  0.51100000000E-03 0. -1.
        -11    1    3    3    0    0  0.22514056945E+01  0.25280324264E+02 -0.12323333802E+02  0.28213971339E+02  0.51100000000E-03 0.  1.
         12    1    3    3    0    0  0.50468935791E+01 -0.12110513858E+01 -0.10673794854E+02  0.11868768969E+02  0.00000000000E+00 0. -1.
</event>
<event>
 7    1  0.1161807E-013  0.5052886E+02  0.7816164E-02  0.1300439E+00
        -11   -1    0    0    0    0  0.00000000000E+00  0.00000000000E+00  0.45593999997E+02  0.45594000000E+02  0.51100000000E-03 0. -1.
         11   -1    0    0    0    0 -0.00000000000E+00 -0.00000000000E+00 -0.45593999997E+02  0.45594000000E+02  0.51100000000E-03 0.  1.
    9900012    2    1    2    0    0  0.10791419902E+02  0.18226674043E+02  0.34705893923E+02  0.50528862488E+02  0.30000008020E+02 0.  0.
        -12    1    1    2    0    0 -0.10791419902E+02 -0.18226674043E+02 -0.34705893923E+02  0.40659137512E+02  0.00000000000E+00 0.  1.
         11    1    3    3    0    0 -0.14627612205E+00  0.39878916298E+01  0.54984468118E+01  0.67939380302E+01  0.51100000000E-03 0. -1.
        -11    1    3    3    0    0 -0.57156265386E+00  0.82568312504E+01 -0.31645674273E+01  0.88609499168E+01  0.51100000000E-03 0.  1.
         12    1    3    3    0    0  0.11509258678E+02  0.59819511632E+01  0.32372014539E+02  0.34873974541E+02  0.00000000000E+00 0. -1.
</event>
<event>
 7    1  0.1161807E-013  0.5052885E+02  0.7816164E-02  0.1300439E+00
        -11   -1    0    0    0    0  0.00000000000E+00  0.00000000000E+00  0.45593999997E+02  0.45594000000E+02  0.51100000000E-03 0. -1.
         11   -1    0    0    0    0 -0.00000000000E+00 -0.00000000000E+00 -0.45593999997E+02  0.45594000000E+02  0.51100000000E-03 0.  1.
    9900012    2    1    2    0    0 -0.63042555167E+01 -0.14045952006E+02 -0.37631551911E+02  0.50528854601E+02  0.29999984044E+02 0.  0.
         12    1    1    2    0    0  0.63042555167E+01  0.14045952006E+02  0.37631551911E+02  0.40659145399E+02  0.00000000000E+00 0. -1.
         11    1    3    3    0    0  0.14213974449E+01  0.70650539599E+00  0.15191364872E+01  0.21971109436E+01  0.51100000000E-03 0. -1.
        -11    1    3    3    0    0 -0.86857516452E+01  0.16997383346E+01 -0.25302485750E+02  0.26805730310E+02  0.51100000000E-03 0.  1.
        -12    1    3    3    0    0  0.96009868357E+00 -0.16452195737E+02 -0.13848202648E+02  0.21526013347E+02  0.00000000000E+00 0.  1.
</event>
<event>
 7    1  0.1161807E-013  0.5052883E+02  0.7816164E-02  0.1300439E+00
        -11   -1    0    0    0    0  0.00000000000E+00  0.00000000000E+00  0.45593999997E+02  0.45594000000E+02  0.51100000000E-03 0. -1.
         11   -1    0    0    0    0 -0.00000000000E+00 -0.00000000000E+00 -0.45593999997E+02  0.45594000000E+02  0.51100000000E-03 0.  1.
    9900012    2    1    2    0    0  0.13643196430E+02 -0.24283758896E+02 -0.29619759512E+02  0.50528832418E+02  0.29999916617E+02 0.  0.
         12    1    1    2    0    0 -0.13643196430E+02  0.24283758896E+02  0.29619759512E+02  0.40659167582E+02  0.00000000000E+00 0. -1.
         11    1    3    3    0    0  0.92568525764E+01  0.13548988076E+01 -0.44417575333E+01  0.10356364258E+02  0.51100000000E-03 0. -1.
        -11    1    3    3    0    0  0.10972465661E+02 -0.12874932826E+02 -0.12827070769E+02  0.21229522904E+02  0.51100000000E-03 0.  1.
        -12    1    3    3    0    0 -0.65861218074E+01 -0.12763724877E+02 -0.12350931210E+02  0.18942945256E+02  0.00000000000E+00 0.  1.
</event>
<event>
 7    1  0.1161807E-013  0.5052891E+02  0.7816164E-02  0.1300439E+00
        -11   -1    0    0    0    0  0.00000000000E+00  0.00000000000E+00  0.45593999997E+02  0.45594000000E+02  0.51100000000E-03 0. -1.
         11   -1    0    0    0    0 -0.00000000000E+00 -0.00000000000E+00 -0.45593999997E+02  0.45594000000E+02  0.51100000000E-03 0.  1.
    9900012    2    1    2    0    0 -0.91663557699E+01  0.15627409028E+02  0.36399497597E+02  0.50528912254E+02  0.30000159287E+02 0.  0.
        -12    1    1    2    0    0  0.91663557699E+01 -0.15627409028E+02 -0.36399497597E+02  0.40659087746E+02  0.00000000000E+00 0.  1.
         11    1    3    3    0    0 -0.30152201776E+00  0.16184197092E+02  0.12382896651E+02  0.20380266946E+02  0.51100000000E-03 0. -1.
        -11    1    3    3    0    0 -0.85654561372E+00  0.58030544957E+01  0.26011706694E+01  0.64167905514E+01  0.51100000000E-03 0.  1.
        -12    1    3    3    0    0 -0.80082881384E+01 -0.63598425597E+01  0.21415430276E+02  0.23731854757E+02  0.00000000000E+00 0.  1.
</event>
<event>
 7    1  0.1161807E-013  0.5052883E+02  0.7816164E-02  0.1300439E+00
        -11   -1    0    0    0    0  0.00000000000E+00  0.00000000000E+00  0.45593999997E+02  0.45594000000E+02  0.51100000000E-03 0. -1.
         11   -1    0    0    0    0 -0.00000000000E+00 -0.00000000000E+00 -0.45593999997E+02  0.45594000000E+02  0.51100000000E-03 0.  1.
    9900012    2    1    2    0    0  0.28129855043E+01  0.10202477289E+02  0.39257669843E+02  0.50528830409E+02  0.29999910511E+02 0.  0.
        -12    1    1    2    0    0 -0.28129855043E+01 -0.10202477289E+02 -0.39257669843E+02  0.40659169591E+02  0.00000000000E+00 0.  1.
         11    1    3    3    0    0  0.77746352878E+00 -0.64121209552E+00  0.11911315606E+02  0.11953871432E+02  0.51100000000E-03 0. -1.
        -11    1    3    3    0    0  0.72371213317E+01 -0.17027531217E+01  0.23218173031E+02  0.24379476051E+02  0.51100000000E-03 0.  1.
        -12    1    3    3    0    0 -0.52015993561E+01  0.12546442507E+02  0.41281812067E+01  0.14195482926E+02  0.00000000000E+00 0.  1.
</event>
<event>
 7    1  0.1161807E-013  0.5052886E+02  0.7816164E-02  0.1300439E+00
        -11   -1    0    0    0    0  0.00000000000E+00  0.00000000000E+00  0.45593999997E+02  0.45594000000E+02  0.51100000000E-03 0. -1.
         11   -1    0    0    0    0 -0.00000000000E+00 -0.00000000000E+00 -0.45593999997E+02  0.45594000000E+02  0.51100000000E-03 0.  1.
    9900012    2    1    2    0    0 -0.17163908236E+02  0.13884647649E+02  0.34143552181E+02  0.50528863981E+02  0.30000012556E+02 0.  0.
        -12    1    1    2    0    0  0.17163908236E+02 -0.13884647649E+02 -0.34143552181E+02  0.40659136019E+02  0.00000000000E+00 0.  1.
         11    1    3    3    0    0 -0.55119481258E+01 -0.34013152757E+01  0.42283313327E+00  0.64907091959E+01  0.51100000000E-03 0.  1.
        -11    1    3    3    0    0 -0.10697845067E+02 -0.28698529133E+00  0.11881374040E+02  0.15990412721E+02  0.51100000000E-03 0. -1.
        -12    1    3    3    0    0 -0.95411504306E+00  0.17572948216E+02  0.21839345008E+02  0.28047742064E+02  0.00000000000E+00 0.  1.
</event>
<event>
 7    1  0.1161807E-013  0.5052886E+02  0.7816164E-02  0.1300439E+00
        -11   -1    0    0    0    0  0.00000000000E+00  0.00000000000E+00  0.45593999997E+02  0.45594000000E+02  0.51100000000E-03 0. -1.
         11   -1    0    0    0    0 -0.00000000000E+00 -0.00000000000E+00 -0.45593999997E+02  0.45594000000E+02  0.51100000000E-03 0.  1.
    9900012    2    1    2    0    0 -0.26552775071E+02 -0.25276032082E+02 -0.17585165170E+02  0.50528859628E+02  0.29999999324E+02 0.  0.
         12    1    1    2    0    0  0.26552775071E+02  0.25276032082E+02  0.17585165170E+02  0.40659140372E+02  0.00000000000E+00 0. -1.
         11    1    3    3    0    0 -0.49563083395E+01 -0.27264934884E-01 -0.64527186390E+00  0.49982108572E+01  0.51100000000E-03 0. -1.
        -11    1    3    3    0    0 -0.24277546632E+02 -0.97174917617E+01 -0.76969755249E+01  0.27259353424E+02  0.51100000000E-03 0.  1.
         12    1    3    3    0    0  0.26810799004E+01 -0.15531275385E+02 -0.92429177815E+01  0.18271295347E+02  0.00000000000E+00 0. -1.
</event>
<event>
 7    1  0.1161807E-013  0.5052886E+02  0.7816164E-02  0.1300439E+00
        -11   -1    0    0    0    0  0.00000000000E+00  0.00000000000E+00  0.45593999997E+02  0.45594000000E+02  0.51100000000E-03 0. -1.
         11   -1    0    0    0    0 -0.00000000000E+00 -0.00000000000E+00 -0.45593999997E+02  0.45594000000E+02  0.51100000000E-03 0.  1.
    9900012    2    1    2    0    0 -0.20495830244E+02  0.72165447011E+01 -0.34365796123E+02  0.50528861814E+02  0.30000005971E+02 0.  0.
         12    1    1    2    0    0  0.20495830244E+02 -0.72165447011E+01  0.34365796123E+02  0.40659138186E+02  0.00000000000E+00 0. -1.
         11    1    3    3    0    0 -0.16421820823E+01  0.83572575522E+01 -0.18990650657E+02  0.20813104728E+02  0.51100000000E-03 0. -1.
        -11    1    3    3    0    0  0.31472008168E+00 -0.48984291682E+01 -0.84100778117E-01  0.49092494587E+01  0.51100000000E-03 0.  1.
        -12    1    3    3    0    0 -0.19168368243E+02  0.37577163171E+01 -0.15291044688E+02  0.24806507627E+02  0.00000000000E+00 0.  1.
</event>
<event>
 7    1  0.1161807E-013  0.5052886E+02  0.7816164E-02  0.1300439E+00
        -11   -1    0    0    0    0  0.00000000000E+00  0.00000000000E+00  0.45593999997E+02  0.45594000000E+02  0.51100000000E-03 0. -1.
         11   -1    0    0    0    0 -0.00000000000E+00 -0.00000000000E+00 -0.45593999997E+02  0.45594000000E+02  0.51100000000E-03 0.  1.
    9900012    2    1    2    0    0  0.37339947769E+02 -0.88947117993E+01 -0.13408135768E+02  0.50528859550E+02  0.29999999088E+02 0.  0.
         12    1    1    2    0    0 -0.37339947769E+02  0.88947117993E+01  0.13408135768E+02  0.40659140450E+02  0.00000000000E+00 0. -1.
         11    1    3    3    0    0  0.41720538841E+01  0.63748360174E+01  0.20026512383E+01  0.78775110349E+01  0.51100000000E-03 0. -1.
        -11    1    3    3    0    0  0.79241463034E+01 -0.44269351373E+01 -0.11881323297E+02  0.14951778920E+02  0.51100000000E-03 0.  1.
        -12    1    3    3    0    0  0.25243747581E+02 -0.10842612679E+02 -0.35294637100E+01  0.27699569595E+02  0.00000000000E+00 0.  1.
</event>
<event>
 7    1  0.1161807E-013  0.5052881E+02  0.7816164E-02  0.1300439E+00
        -11   -1    0    0    0    0  0.00000000000E+00  0.00000000000E+00  0.45593999997E+02  0.45594000000E+02  0.51100000000E-03 0.  1.
         11   -1    0    0    0    0 -0.00000000000E+00 -0.00000000000E+00 -0.45593999997E+02  0.45594000000E+02  0.51100000000E-03 0. -1.
    9900012    2    1    2    0    0 -0.26909352439E+02  0.30388181775E+02  0.23695026400E+01  0.50528814285E+02  0.29999861499E+02 0.  0.
        -12    1    1    2    0    0  0.26909352439E+02 -0.30388181775E+02 -0.23695026400E+01  0.40659185715E+02  0.00000000000E+00 0.  1.
         11    1    3    3    0    0 -0.14204562814E+02  0.11802243916E+02  0.84458104876E+01  0.20307493229E+02  0.51100000000E-03 0. -1.
        -11    1    3    3    0    0 -0.16406227440E+02  0.88811895352E+01 -0.10577700235E+01  0.18685788826E+02  0.51100000000E-03 0.  1.
        -12    1    3    3    0    0  0.37014378148E+01  0.97047483240E+01 -0.50185378241E+01  0.11535532230E+02  0.00000000000E+00 0.  1.
</event>
<event>
 7    1  0.1161807E-013  0.5052887E+02  0.7816164E-02  0.1300439E+00
        -11   -1    0    0    0    0  0.00000000000E+00  0.00000000000E+00  0.45593999997E+02  0.45594000000E+02  0.51100000000E-03 0. -1.
         11   -1    0    0    0    0 -0.00000000000E+00 -0.00000000000E+00 -0.45593999997E+02  0.45594000000E+02  0.51100000000E-03 0.  1.
    9900012    2    1    2    0    0 -0.27496852597E+02  0.18356908653E+02 -0.23666684132E+02  0.50528868974E+02  0.30000027733E+02 0.  0.
         12    1    1    2    0    0  0.27496852597E+02 -0.18356908653E+02  0.23666684132E+02  0.40659131026E+02  0.00000000000E+00 0. -1.
         11    1    3    3    0    0 -0.27273977213E+01  0.12685830984E+00 -0.78548984069E+01  0.83159016712E+01  0.51100000000E-03 0. -1.
        -11    1    3    3    0    0 -0.11395820622E+02  0.13928546590E+00 -0.16085905990E+02  0.19713967127E+02  0.51100000000E-03 0.  1.
         12    1    3    3    0    0 -0.13373634253E+02  0.18090764877E+02  0.27412026561E+00  0.22499000176E+02  0.00000000000E+00 0. -1.
</event>
<event>
 7    1  0.1161807E-013  0.5052886E+02  0.7816164E-02  0.1300439E+00
        -11   -1    0    0    0    0  0.00000000000E+00  0.00000000000E+00  0.45593999997E+02  0.45594000000E+02  0.51100000000E-03 0. -1.
         11   -1    0    0    0    0 -0.00000000000E+00 -0.00000000000E+00 -0.45593999997E+02  0.45594000000E+02  0.51100000000E-03 0.  1.
    9900012    2    1    2    0    0  0.73820942872E+01 -0.29501234558E+02 -0.26987916171E+02  0.50528858644E+02  0.29999996335E+02 0.  0.
         12    1    1    2    0    0 -0.73820942872E+01  0.29501234558E+02  0.26987916171E+02  0.40659141356E+02  0.00000000000E+00 0. -1.
         11    1    3    3    0    0  0.28229660158E+00  0.19446680017E+01  0.31020368016E+01  0.36720644858E+01  0.51100000000E-03 0. -1.
        -11    1    3    3    0    0  0.11483225152E+01  0.41555535985E+00  0.12663332764E+01  0.17592416218E+01  0.51100000000E-03 0.  1.
        -12    1    3    3    0    0  0.59514751705E+01 -0.31861457920E+02 -0.31356286249E+02  0.45097552537E+02  0.00000000000E+00 0.  1.
</event>
<event>
 7    1  0.1161807E-013  0.5052885E+02  0.7816164E-02  0.1300439E+00
        -11   -1    0    0    0    0  0.00000000000E+00  0.00000000000E+00  0.45593999997E+02  0.45594000000E+02  0.51100000000E-03 0. -1.
         11   -1    0    0    0    0 -0.00000000000E+00 -0.00000000000E+00 -0.45593999997E+02  0.45594000000E+02  0.51100000000E-03 0.  1.
    9900012    2    1    2    0    0  0.17952433481E+02 -0.28902734804E+02 -0.22260012939E+02  0.50528854374E+02  0.29999983354E+02 0.  0.
         12    1    1    2    0    0 -0.17952433481E+02  0.28902734804E+02  0.22260012939E+02  0.40659145626E+02  0.00000000000E+00 0. -1.
         11    1    3    3    0    0 -0.49416793967E+01 -0.36122517789E+01 -0.29631548900E+01  0.68006503614E+01  0.51100000000E-03 0. -1.
        -11    1    3    3    0    0  0.20713728575E+02 -0.25389126323E+02 -0.22574474172E+02  0.39790365308E+02  0.51100000000E-03 0.  1.
         12    1    3    3    0    0  0.21803843024E+01  0.98643298316E-01  0.32776161236E+01  0.39378387042E+01  0.00000000000E+00 0. -1.
</event>
<event>
 7    1  0.1161807E-013  0.5052889E+02  0.7816164E-02  0.1300439E+00
        -11   -1    0    0    0    0  0.00000000000E+00  0.00000000000E+00  0.45593999997E+02  0.45594000000E+02  0.51100000000E-03 0. -1.
         11   -1    0    0    0    0 -0.00000000000E+00 -0.00000000000E+00 -0.45593999997E+02  0.45594000000E+02  0.51100000000E-03 0.  1.
    9900012    2    1    2    0    0  0.21969064137E+02 -0.92754778405E+01 -0.32931577661E+02  0.50528891851E+02  0.30000097271E+02 0.  0.
         12    1    1    2    0    0 -0.21969064137E+02  0.92754778405E+01  0.32931577661E+02  0.40659108149E+02  0.00000000000E+00 0. -1.
         11    1    3    3    0    0  0.59954836447E+01 -0.89404345468E+01 -0.47817487903E+00  0.10775242248E+02  0.51100000000E-03 0. -1.
        -11    1    3    3    0    0  0.46376049507E+01 -0.37861091641E+00  0.70945042907E+00  0.47068084810E+01  0.51100000000E-03 0.  1.
        -12    1    3    3    0    0  0.11335975542E+02  0.43567622685E-01 -0.33162853211E+02  0.35046841123E+02  0.00000000000E+00 0.  1.
</event>
<event>
 7    1  0.1161807E-013  0.5052886E+02  0.7816164E-02  0.1300439E+00
        -11   -1    0    0    0    0  0.00000000000E+00  0.00000000000E+00  0.45593999997E+02  0.45594000000E+02  0.51100000000E-03 0.  1.
         11   -1    0    0    0    0 -0.00000000000E+00 -0.00000000000E+00 -0.45593999997E+02  0.45594000000E+02  0.51100000000E-03 0. -1.
    9900012    2    1    2    0    0 -0.37950423816E+02 -0.14467406084E+02 -0.19039362973E+01  0.50528862281E+02  0.30000007389E+02 0.  0.
         12    1    1    2    0    0  0.37950423816E+02  0.14467406084E+02  0.19039362973E+01  0.40659137719E+02  0.00000000000E+00 0. -1.
         11    1    3    3    0    0  0.27172914293E+00  0.12166379102E+01 -0.32368071584E+01  0.34685682023E+01  0.51100000000E-03 0. -1.
        -11    1    3    3    0    0 -0.89731358739E+01  0.29148758950E+01 -0.65854925588E+01  0.11505754273E+02  0.51100000000E-03 0.  1.
        -12    1    3    3    0    0 -0.29249017085E+02 -0.18598919890E+02  0.79183634199E+01  0.35554539805E+02  0.00000000000E+00 0.  1.
</event>
<event>
 7    1  0.1161807E-013  0.5052885E+02  0.7816164E-02  0.1300439E+00
        -11   -1    0    0    0    0  0.00000000000E+00  0.00000000000E+00  0.45593999997E+02  0.45594000000E+02  0.51100000000E-03 0. -1.
         11   -1    0    0    0    0 -0.00000000000E+00 -0.00000000000E+00 -0.45593999997E+02  0.45594000000E+02  0.51100000000E-03 0.  1.
    9900012    2    1    2    0    0 -0.80489889512E+01 -0.12299144591E+02 -0.37909252576E+02  0.50528848365E+02  0.29999965090E+02 0.  0.
         12    1    1    2    0    0  0.80489889512E+01  0.12299144591E+02  0.37909252576E+02  0.40659151635E+02  0.00000000000E+00 0. -1.
         11    1    3    3    0    0  0.22393370605E+01  0.71652111618E+00  0.27377611187E+00  0.23670628637E+01  0.51100000000E-03 0. -1.
        -11    1    3    3    0    0 -0.10303631508E+02 -0.52187668968E+01 -0.27388960891E+01  0.11870210707E+02  0.51100000000E-03 0.  1.
        -12    1    3    3    0    0  0.15305496778E-01 -0.77968988100E+01 -0.35444132599E+02  0.36291574794E+02  0.00000000000E+00 0.  1.
</event>
<event>
 7    1  0.1161807E-013  0.5052886E+02  0.7816164E-02  0.1300439E+00
        -11   -1    0    0    0    0  0.00000000000E+00  0.00000000000E+00  0.45593999997E+02  0.45594000000E+02  0.51100000000E-03 0. -1.
         11   -1    0    0    0    0 -0.00000000000E+00 -0.00000000000E+00 -0.45593999997E+02  0.45594000000E+02  0.51100000000E-03 0.  1.
    9900012    2    1    2    0    0  0.25094063033E+02 -0.29285057736E+02 -0.12877861325E+02  0.50528856891E+02  0.29999991004E+02 0.  0.
         12    1    1    2    0    0 -0.25094063033E+02  0.29285057736E+02  0.12877861325E+02  0.40659143109E+02  0.00000000000E+00 0. -1.
         11    1    3    3    0    0  0.46076187516E+01 -0.54070781138E+01 -0.61439053555E+01  0.93922424142E+01  0.51100000000E-03 0. -1.
        -11    1    3    3    0    0  0.23351873420E+02 -0.13845940031E+02 -0.11723967307E+02  0.29571463563E+02  0.51100000000E-03 0.  1.
         12    1    3    3    0    0 -0.28654291382E+01 -0.10032039591E+02  0.49900113382E+01  0.11565150914E+02  0.00000000000E+00 0. -1.
</event>
<event>
 7    1  0.1161807E-013  0.5052887E+02  0.7816164E-02  0.1300439E+00
        -11   -1    0    0    0    0  0.00000000000E+00  0.00000000000E+00  0.45593999997E+02  0.45594000000E+02  0.51100000000E-03 0. -1.
         11   -1    0    0    0    0 -0.00000000000E+00 -0.00000000000E+00 -0.45593999997E+02  0.45594000000E+02  0.51100000000E-03 0.  1.
    9900012    2    1    2    0    0 -0.30919470216E+02  0.24485999352E+02 -0.98786318698E+01  0.50528866090E+02  0.30000018966E+02 0.  0.
         12    1    1    2    0    0  0.30919470216E+02 -0.24485999352E+02  0.98786318698E+01  0.40659133910E+02  0.00000000000E+00 0. -1.
         11    1    3    3    0    0  0.41081564112E+01  0.55533581563E+00 -0.34353117967E+01  0.53839311259E+01  0.51100000000E-03 0. -1.
        -11    1    3    3    0    0 -0.18985502288E+01 -0.97847667117E+00 -0.28207527239E+01  0.35381571132E+01  0.51100000000E-03 0.  1.
        -12    1    3    3    0    0 -0.33129076399E+02  0.24909140207E+02 -0.36225673493E+01  0.41606777851E+02  0.00000000000E+00 0.  1.
</event>
<event>
 7    1  0.1161807E-013  0.5052884E+02  0.7816164E-02  0.1300439E+00
        -11   -1    0    0    0    0  0.00000000000E+00  0.00000000000E+00  0.45593999997E+02  0.45594000000E+02  0.51100000000E-03 0. -1.
         11   -1    0    0    0    0 -0.00000000000E+00 -0.00000000000E+00 -0.45593999997E+02  0.45594000000E+02  0.51100000000E-03 0.  1.
    9900012    2    1    2    0    0 -0.17271217760E+02 -0.21270437132E+02  0.30040654569E+02  0.50528838848E+02  0.29999936161E+02 0.  0.
        -12    1    1    2    0    0  0.17271217760E+02  0.21270437132E+02 -0.30040654569E+02  0.40659161152E+02  0.00000000000E+00 0.  1.
         11    1    3    3    0    0 -0.12881813188E+02 -0.14558065709E+02  0.85692718518E+01  0.21244077022E+02  0.51100000000E-03 0. -1.
        -11    1    3    3    0    0 -0.26819375155E+01 -0.12964288001E+02  0.12422620104E+02  0.18154532291E+02  0.51100000000E-03 0.  1.
        -12    1    3    3    0    0 -0.17074670563E+01  0.62519165779E+01  0.90487626131E+01  0.11130229534E+02  0.00000000000E+00 0.  1.
</event>
<event>
 7    1  0.1161807E-013  0.5052887E+02  0.7816164E-02  0.1300439E+00
        -11   -1    0    0    0    0  0.00000000000E+00  0.00000000000E+00  0.45593999997E+02  0.45594000000E+02  0.51100000000E-03 0. -1.
         11   -1    0    0    0    0 -0.00000000000E+00 -0.00000000000E+00 -0.45593999997E+02  0.45594000000E+02  0.51100000000E-03 0.  1.
    9900012    2    1    2    0    0 -0.17046881764E+02 -0.24394299417E+02  0.27703551421E+02  0.50528870849E+02  0.30000033434E+02 0.  0.
        -12    1    1    2    0    0  0.17046881764E+02  0.24394299417E+02 -0.27703551421E+02  0.40659129151E+02  0.00000000000E+00 0.  1.
         11    1    3    3    0    0  0.36223406884E+01 -0.19775079325E+01 -0.15869017611E+01  0.44215548336E+01  0.51100000000E-03 0. -1.
        -11    1    3    3    0    0 -0.13724430941E+02 -0.95258304469E+01  0.44773307093E+01  0.17295893759E+02  0.51100000000E-03 0.  1.
         12    1    3    3    0    0 -0.69447915110E+01 -0.12890961038E+02  0.24813122473E+02  0.28811422257E+02  0.00000000000E+00 0. -1.
</event>
<event>
 7    1  0.1161807E-013  0.5052885E+02  0.7816164E-02  0.1300439E+00
        -11   -1    0    0    0    0  0.00000000000E+00  0.00000000000E+00  0.45593999997E+02  0.45594000000E+02  0.51100000000E-03 0. -1.
         11   -1    0    0    0    0 -0.00000000000E+00 -0.00000000000E+00 -0.45593999997E+02  0.45594000000E+02  0.51100000000E-03 0.  1.
    9900012    2    1    2    0    0 -0.46743531940E+01  0.17737257134E+02 -0.36286448282E+02  0.50528853460E+02  0.29999980578E+02 0.  0.
         12    1    1    2    0    0  0.46743531940E+01 -0.17737257134E+02  0.36286448282E+02  0.40659146540E+02  0.00000000000E+00 0. -1.
         11    1    3    3    0    0  0.38627360269E+01 -0.86618159838E+00 -0.92913490673E+00  0.40662380785E+01  0.51100000000E-03 0. -1.
        -11    1    3    3    0    0 -0.50948023455E+01 -0.29012663488E+01 -0.12492448852E+01  0.59945784181E+01  0.51100000000E-03 0.  1.
        -12    1    3    3    0    0 -0.34422868754E+01  0.21504705082E+02 -0.34108068490E+02  0.40468036964E+02  0.00000000000E+00 0.  1.
</event>
<event>
 7    1  0.1161807E-013  0.5052887E+02  0.7816164E-02  0.1300439E+00
        -11   -1    0    0    0    0  0.00000000000E+00  0.00000000000E+00  0.45593999997E+02  0.45594000000E+02  0.51100000000E-03 0. -1.
         11   -1    0    0    0    0 -0.00000000000E+00 -0.00000000000E+00 -0.45593999997E+02  0.45594000000E+02  0.51100000000E-03 0.  1.
    9900012    2    1    2    0    0  0.11015757940E+01  0.12063098628E+02  0.38812797580E+02  0.50528867278E+02  0.30000022578E+02 0.  0.
        -12    1    1    2    0    0 -0.11015757940E+01 -0.12063098628E+02 -0.38812797580E+02  0.40659132722E+02  0.00000000000E+00 0.  1.
         11    1    3    3    0    0  0.87223756647E-01  0.12090873390E+01  0.58754516355E+01  0.59992026436E+01  0.51100000000E-03 0. -1.
        -11    1    3    3    0    0 -0.13357159301E+02  0.34317325265E+01  0.14971445276E+02  0.20355212272E+02  0.51100000000E-03 0.  1.
         12    1    3    3    0    0  0.14371511339E+02  0.74222787621E+01  0.17965900668E+02  0.24174452362E+02  0.00000000000E+00 0. -1.
</event>
<event>
 7    1  0.1161807E-013  0.5052885E+02  0.7816164E-02  0.1300439E+00
        -11   -1    0    0    0    0  0.00000000000E+00  0.00000000000E+00  0.45593999997E+02  0.45594000000E+02  0.51100000000E-03 0. -1.
         11   -1    0    0    0    0 -0.00000000000E+00 -0.00000000000E+00 -0.45593999997E+02  0.45594000000E+02  0.51100000000E-03 0.  1.
    9900012    2    1    2    0    0  0.25229734797E+01  0.25558458467E+02 -0.31520883074E+02  0.50528852639E+02  0.29999978080E+02 0.  0.
         12    1    1    2    0    0 -0.25229734797E+01 -0.25558458467E+02  0.31520883074E+02  0.40659147361E+02  0.00000000000E+00 0. -1.
         11    1    3    3    0    0 -0.51434643447E+01  0.91239940606E+01 -0.18206913331E+02  0.21004622977E+02  0.51100000000E-03 0. -1.
        -11    1    3    3    0    0  0.75419087743E+00  0.12152875451E+02 -0.16740885288E+02  0.20700686609E+02  0.51100000000E-03 0.  1.
         12    1    3    3    0    0  0.69122469470E+01  0.42815889559E+01  0.34269155456E+01  0.88235430525E+01  0.00000000000E+00 0. -1.
</event>
<event>
 7    1  0.1161807E-013  0.5052886E+02  0.7816164E-02  0.1300439E+00
        -11   -1    0    0    0    0  0.00000000000E+00  0.00000000000E+00  0.45593999997E+02  0.45594000000E+02  0.51100000000E-03 0.  1.
         11   -1    0    0    0    0 -0.00000000000E+00 -0.00000000000E+00 -0.45593999997E+02  0.45594000000E+02  0.51100000000E-03 0. -1.
    9900012    2    1    2    0    0  0.17037364352E+02 -0.23898544165E+02 -0.28138116828E+02  0.50528858152E+02  0.29999994838E+02 0.  0.
         12    1    1    2    0    0 -0.17037364352E+02  0.23898544165E+02  0.28138116828E+02  0.40659141848E+02  0.00000000000E+00 0. -1.
         11    1    3    3    0    0  0.11395378110E+02 -0.73497202253E+00 -0.69786640818E+01  0.13382696992E+02  0.51100000000E-03 0. -1.
        -11    1    3    3    0    0 -0.12915823505E+01 -0.50448083198E+01 -0.16349323471E+02  0.17158632060E+02  0.51100000000E-03 0.  1.
        -12    1    3    3    0    0  0.69335685920E+01 -0.18118763822E+02 -0.48101292745E+01  0.19987529099E+02  0.00000000000E+00 0.  1.
</event>
<event>
 7    1  0.1161807E-013  0.5052886E+02  0.7816164E-02  0.1300439E+00
        -11   -1    0    0    0    0  0.00000000000E+00  0.00000000000E+00  0.45593999997E+02  0.45594000000E+02  0.51100000000E-03 0. -1.
         11   -1    0    0    0    0 -0.00000000000E+00 -0.00000000000E+00 -0.45593999997E+02  0.45594000000E+02  0.51100000000E-03 0.  1.
    9900012    2    1    2    0    0 -0.24404386198E+01  0.18815789641E+02  0.35960761130E+02  0.50528855622E+02  0.29999987149E+02 0.  0.
        -12    1    1    2    0    0  0.24404386198E+01 -0.18815789641E+02 -0.35960761130E+02  0.40659144378E+02  0.00000000000E+00 0.  1.
         11    1    3    3    0    0  0.25616952746E+01  0.10381805395E+02  0.31064973109E+02  0.32853869185E+02  0.51100000000E-03 0. -1.
        -11    1    3    3    0    0  0.43362543362E+01  0.17969540980E+01  0.40284567915E+01  0.61855161531E+01  0.51100000000E-03 0.  1.
        -12    1    3    3    0    0 -0.93383882306E+01  0.66370301483E+01  0.86733123002E+00  0.11489470284E+02  0.00000000000E+00 0.  1.
</event>
<event>
 7    1  0.1161807E-013  0.5052886E+02  0.7816164E-02  0.1300439E+00
        -11   -1    0    0    0    0  0.00000000000E+00  0.00000000000E+00  0.45593999997E+02  0.45594000000E+02  0.51100000000E-03 0. -1.
         11   -1    0    0    0    0 -0.00000000000E+00 -0.00000000000E+00 -0.45593999997E+02  0.45594000000E+02  0.51100000000E-03 0.  1.
    9900012    2    1    2    0    0  0.18042967533E+02 -0.99694252814E+00 -0.36422834238E+02  0.50528862949E+02  0.30000009420E+02 0.  0.
         12    1    1    2    0    0 -0.18042967533E+02  0.99694252814E+00  0.36422834238E+02  0.40659137051E+02  0.00000000000E+00 0. -1.
         11    1    3    3    0    0  0.73786516193E+01  0.72078562172E+01 -0.47403040007E+01  0.11352011859E+02  0.51100000000E-03 0. -1.
        -11    1    3    3    0    0  0.65398303459E+01 -0.67844322770E+01 -0.26088352678E+01  0.97777259110E+01  0.51100000000E-03 0.  1.
         12    1    3    3    0    0  0.41244855674E+01 -0.14203664683E+01 -0.29073694970E+02  0.29399125179E+02  0.00000000000E+00 0. -1.
</event>
<event>
 7    1  0.1161807E-013  0.5052885E+02  0.7816164E-02  0.1300439E+00
        -11   -1    0    0    0    0  0.00000000000E+00  0.00000000000E+00  0.45593999997E+02  0.45594000000E+02  0.51100000000E-03 0. -1.
         11   -1    0    0    0    0 -0.00000000000E+00 -0.00000000000E+00 -0.45593999997E+02  0.45594000000E+02  0.51100000000E-03 0.  1.
    9900012    2    1    2    0    0 -0.80770492982E+01 -0.22810252015E+02 -0.32674452242E+02  0.50528854022E+02  0.29999982285E+02 0.  0.
         12    1    1    2    0    0  0.80770492982E+01  0.22810252015E+02  0.32674452242E+02  0.40659145978E+02  0.00000000000E+00 0. -1.
         11    1    3    3    0    0 -0.56747299349E+01 -0.12142105297E+02 -0.17235439108E+00  0.13403842254E+02  0.51100000000E-03 0. -1.
        -11    1    3    3    0    0 -0.52098721272E+01 -0.78367918373E+01 -0.81514597346E+01  0.12450075098E+02  0.51100000000E-03 0.  1.
         12    1    3    3    0    0  0.28075527639E+01 -0.28313548809E+01 -0.24350638116E+02  0.24674936670E+02  0.00000000000E+00 0. -1.
</event>
<event>
 7    1  0.1161807E-013  0.5052891E+02  0.7816164E-02  0.1300439E+00
        -11   -1    0    0    0    0  0.00000000000E+00  0.00000000000E+00  0.45593999997E+02  0.45594000000E+02  0.51100000000E-03 0. -1.
         11   -1    0    0    0    0 -0.00000000000E+00 -0.00000000000E+00 -0.45593999997E+02  0.45594000000E+02  0.51100000000E-03 0.  1.
    9900012    2    1    2    0    0  0.37536001167E+01 -0.36048587896E+02 -0.18427456751E+02  0.50528912880E+02  0.30000161188E+02 0.  0.
         12    1    1    2    0    0 -0.37536001167E+01  0.36048587896E+02  0.18427456751E+02  0.40659087120E+02  0.00000000000E+00 0. -1.
         11    1    3    3    0    0  0.34783983323E+01 -0.13912300581E+02 -0.76971319936E+01  0.16275662923E+02  0.51100000000E-03 0. -1.
        -11    1    3    3    0    0 -0.36080431324E+01 -0.25721716370E+02 -0.49867886276E+01  0.26447924859E+02  0.51100000000E-03 0.  1.
        -12    1    3    3    0    0  0.38832449169E+01  0.35854290549E+01 -0.57435361301E+01  0.78053250970E+01  0.00000000000E+00 0.  1.
</event>
<event>
 7    1  0.1161807E-013  0.5052886E+02  0.7816164E-02  0.1300439E+00
        -11   -1    0    0    0    0  0.00000000000E+00  0.00000000000E+00  0.45593999997E+02  0.45594000000E+02  0.51100000000E-03 0. -1.
         11   -1    0    0    0    0 -0.00000000000E+00 -0.00000000000E+00 -0.45593999997E+02  0.45594000000E+02  0.51100000000E-03 0.  1.
    9900012    2    1    2    0    0  0.39773276165E+02 -0.84158900823E+01 -0.65183604585E+00  0.50528860892E+02  0.30000003168E+02 0.  0.
         12    1    1    2    0    0 -0.39773276165E+02  0.84158900823E+01  0.65183604585E+00  0.40659139108E+02  0.00000000000E+00 0. -1.
         11    1    3    3    0    0  0.29121709644E+02 -0.11157849963E+02  0.37291937468E+01  0.31408254880E+02  0.51100000000E-03 0. -1.
        -11    1    3    3    0    0  0.89259770772E+01 -0.24659193959E+01  0.31691456362E+01  0.97876100032E+01  0.51100000000E-03 0.  1.
        -12    1    3    3    0    0  0.17255894440E+01  0.52078792765E+01 -0.75501754289E+01  0.93329960085E+01  0.00000000000E+00 0.  1.
</event>
<event>
 7    1  0.1161807E-013  0.5052886E+02  0.7816164E-02  0.1300439E+00
        -11   -1    0    0    0    0  0.00000000000E+00  0.00000000000E+00  0.45593999997E+02  0.45594000000E+02  0.51100000000E-03 0. -1.
         11   -1    0    0    0    0 -0.00000000000E+00 -0.00000000000E+00 -0.45593999997E+02  0.45594000000E+02  0.51100000000E-03 0.  1.
    9900012    2    1    2    0    0  0.12140187866E+01  0.26435269675E+02  0.30868568548E+02  0.50528857749E+02  0.29999993613E+02 0.  0.
        -12    1    1    2    0    0 -0.12140187866E+01 -0.26435269675E+02 -0.30868568548E+02  0.40659142251E+02  0.00000000000E+00 0.  1.
         11    1    3    3    0    0  0.43337956548E+01  0.21804286448E+01  0.56484602071E+01  0.74458818702E+01  0.51100000000E-03 0. -1.
        -11    1    3    3    0    0  0.97178459951E+01  0.17583061956E+02  0.11522775207E+02  0.23159770017E+02  0.51100000000E-03 0.  1.
         12    1    3    3    0    0 -0.12837622863E+02  0.66717790746E+01  0.13697333134E+02  0.19923205861E+02  0.00000000000E+00 0. -1.
</event>
<event>
 7    1  0.1161807E-013  0.5052886E+02  0.7816164E-02  0.1300439E+00
        -11   -1    0    0    0    0  0.00000000000E+00  0.00000000000E+00  0.45593999997E+02  0.45594000000E+02  0.51100000000E-03 0. -1.
         11   -1    0    0    0    0 -0.00000000000E+00 -0.00000000000E+00 -0.45593999997E+02  0.45594000000E+02  0.51100000000E-03 0.  1.
    9900012    2    1    2    0    0 -0.19777496675E+02 -0.15014006216E+02  0.32196204597E+02  0.50528863907E+02  0.30000012331E+02 0.  0.
        -12    1    1    2    0    0  0.19777496675E+02  0.15014006216E+02 -0.32196204597E+02  0.40659136093E+02  0.00000000000E+00 0.  1.
         11    1    3    3    0    0 -0.39009181381E+01 -0.18685384288E+01 -0.29281194605E+01  0.52232635408E+01  0.51100000000E-03 0. -1.
        -11    1    3    3    0    0  0.95068401483E+00 -0.80179774047E+01  0.21772002482E+02  0.23220935685E+02  0.51100000000E-03 0.  1.
         12    1    3    3    0    0 -0.16827262552E+02 -0.51274903822E+01  0.13352321576E+02  0.22084664681E+02  0.00000000000E+00 0. -1.
</event>
<event>
 7    1  0.1161807E-013  0.5052885E+02  0.7816164E-02  0.1300439E+00
        -11   -1    0    0    0    0  0.00000000000E+00  0.00000000000E+00  0.45593999997E+02  0.45594000000E+02  0.51100000000E-03 0. -1.
         11   -1    0    0    0    0 -0.00000000000E+00 -0.00000000000E+00 -0.45593999997E+02  0.45594000000E+02  0.51100000000E-03 0.  1.
    9900012    2    1    2    0    0  0.15360806009E+02 -0.20128688922E+02 -0.31812698308E+02  0.50528852781E+02  0.29999978513E+02 0.  0.
         12    1    1    2    0    0 -0.15360806009E+02  0.20128688922E+02  0.31812698308E+02  0.40659147219E+02  0.00000000000E+00 0. -1.
         11    1    3    3    0    0 -0.50327378770E+01 -0.90781033161E+00 -0.33015390620E+01  0.60870954137E+01  0.51100000000E-03 0. -1.
        -11    1    3    3    0    0 -0.31011721948E+01 -0.46222444890E+00 -0.63831302142E+01  0.71116293503E+01  0.51100000000E-03 0.  1.
        -12    1    3    3    0    0  0.23494716081E+02 -0.18758654142E+02 -0.22128029031E+02  0.37330128017E+02  0.00000000000E+00 0.  1.
</event>
<event>
 7    1  0.1161807E-013  0.5052880E+02  0.7816164E-02  0.1300439E+00
        -11   -1    0    0    0    0  0.00000000000E+00  0.00000000000E+00  0.45593999997E+02  0.45594000000E+02  0.51100000000E-03 0. -1.
         11   -1    0    0    0    0 -0.00000000000E+00 -0.00000000000E+00 -0.45593999997E+02  0.45594000000E+02  0.51100000000E-03 0.  1.
    9900012    2    1    2    0    0 -0.14993630779E+02 -0.24711834587E+02 -0.28595229962E+02  0.50528795518E+02  0.29999804455E+02 0.  0.
         12    1    1    2    0    0  0.14993630779E+02  0.24711834587E+02  0.28595229962E+02  0.40659204482E+02  0.00000000000E+00 0. -1.
         11    1    3    3    0    0  0.65531540821E+01  0.10301030750E+01 -0.13578394035E+01  0.67711645140E+01  0.51100000000E-03 0. -1.
        -11    1    3    3    0    0 -0.10628286192E+02 -0.78137814692E+01 -0.11826934229E+02  0.17716998102E+02  0.51100000000E-03 0.  1.
        -12    1    3    3    0    0 -0.10918498669E+02 -0.17928156192E+02 -0.15410456330E+02  0.26040632902E+02  0.00000000000E+00 0.  1.
</event>
<event>
 7    1  0.1731265E-013  0.5052886E+02  0.7816164E-02  0.1300439E+00
        -11   -1    0    0    0    0  0.00000000000E+00  0.00000000000E+00  0.45593999997E+02  0.45594000000E+02  0.51100000000E-03 0. -1.
         11   -1    0    0    0    0 -0.00000000000E+00 -0.00000000000E+00 -0.45593999997E+02  0.45594000000E+02  0.51100000000E-03 0.  1.
    9900012    2    1    2    0    0 -0.37236269083E+01  0.72058288252E+01 -0.39841891576E+02  0.50528859690E+02  0.29999999514E+02 0.  0.
         12    1    1    2    0    0  0.37236269083E+01 -0.72058288252E+01  0.39841891576E+02  0.40659140310E+02  0.00000000000E+00 0. -1.
         11    1    3    3    0    0 -0.97809465573E+00 -0.13420804483E+00  0.30248021058E+01  0.31818405043E+01  0.51100000000E-03 0. -1.
        -11    1    3    3    0    0 -0.47521166464E+01  0.12783518899E+02 -0.23952569560E+02  0.27563137645E+02  0.51100000000E-03 0.  1.
        -12    1    3    3    0    0  0.20065843938E+01 -0.54434820292E+01 -0.18914124121E+02  0.19783881540E+02  0.00000000000E+00 0.  1.
</event>
<event>
 7    1  0.1161807E-013  0.5052885E+02  0.7816164E-02  0.1300439E+00
        -11   -1    0    0    0    0  0.00000000000E+00  0.00000000000E+00  0.45593999997E+02  0.45594000000E+02  0.51100000000E-03 0. -1.
         11   -1    0    0    0    0 -0.00000000000E+00 -0.00000000000E+00 -0.45593999997E+02  0.45594000000E+02  0.51100000000E-03 0.  1.
    9900012    2    1    2    0    0 -0.36178932823E+01  0.83766985584E+01  0.39622067890E+02  0.50528849807E+02  0.29999969474E+02 0.  0.
        -12    1    1    2    0    0  0.36178932823E+01 -0.83766985584E+01 -0.39622067890E+02  0.40659150193E+02  0.00000000000E+00 0.  1.
         11    1    3    3    0    0  0.19427316641E+01 -0.40638877845E+01  0.58549353990E+01  0.73871279285E+01  0.51100000000E-03 0. -1.
        -11    1    3    3    0    0  0.89260501376E+01  0.49601629360E+01  0.16411760338E+02  0.19329342075E+02  0.51100000000E-03 0.  1.
        -12    1    3    3    0    0 -0.14486675084E+02  0.74804234069E+01  0.17355372153E+02  0.23812379804E+02  0.00000000000E+00 0.  1.
</event>
<event>
 7    1  0.1161807E-013  0.5052886E+02  0.7816164E-02  0.1300439E+00
        -11   -1    0    0    0    0  0.00000000000E+00  0.00000000000E+00  0.45593999997E+02  0.45594000000E+02  0.51100000000E-03 0. -1.
         11   -1    0    0    0    0 -0.00000000000E+00 -0.00000000000E+00 -0.45593999997E+02  0.45594000000E+02  0.51100000000E-03 0.  1.
    9900012    2    1    2    0    0  0.40732381671E+01 -0.38397982212E+01  0.40271952737E+02  0.50528862075E+02  0.30000006765E+02 0.  0.
        -12    1    1    2    0    0 -0.40732381671E+01  0.38397982212E+01 -0.40271952737E+02  0.40659137925E+02  0.00000000000E+00 0.  1.
         11    1    3    3    0    0  0.54882737893E+01  0.15519603792E+01  0.30832705926E+02  0.31355788703E+02  0.51100000000E-03 0. -1.
        -11    1    3    3    0    0  0.62211618787E+01  0.86503448449E+00  0.60889432975E+01  0.87479352148E+01  0.51100000000E-03 0.  1.
        -12    1    3    3    0    0 -0.76361975009E+01 -0.62567930848E+01  0.33503035132E+01  0.10425138158E+02  0.00000000000E+00 0.  1.
</event>
<event>
 7    1  0.1161807E-013  0.5052887E+02  0.7816164E-02  0.1300439E+00
        -11   -1    0    0    0    0  0.00000000000E+00  0.00000000000E+00  0.45593999997E+02  0.45594000000E+02  0.51100000000E-03 0. -1.
         11   -1    0    0    0    0 -0.00000000000E+00 -0.00000000000E+00 -0.45593999997E+02  0.45594000000E+02  0.51100000000E-03 0.  1.
    9900012    2    1    2    0    0  0.66771963697E+00  0.11206686881E+02 -0.39078497044E+02  0.50528872961E+02  0.30000039853E+02 0.  0.
         12    1    1    2    0    0 -0.66771963697E+00 -0.11206686881E+02  0.39078497044E+02  0.40659127039E+02  0.00000000000E+00 0. -1.
         11    1    3    3    0    0  0.26823908835E+01  0.15804402115E+02 -0.21719588803E+02  0.26994719578E+02  0.51100000000E-03 0. -1.
        -11    1    3    3    0    0 -0.34654811528E+01  0.42002758722E+01 -0.20514381973E+01  0.58189583226E+01  0.51100000000E-03 0.  1.
        -12    1    3    3    0    0  0.14508099063E+01 -0.87979911069E+01 -0.15307470044E+02  0.17715195061E+02  0.00000000000E+00 0.  1.
</event>
<event>
 7    1  0.2356183E-013  0.5052888E+02  0.7816164E-02  0.1300439E+00
        -11   -1    0    0    0    0  0.00000000000E+00  0.00000000000E+00  0.45593999997E+02  0.45594000000E+02  0.51100000000E-03 0. -1.
         11   -1    0    0    0    0 -0.00000000000E+00 -0.00000000000E+00 -0.45593999997E+02  0.45594000000E+02  0.51100000000E-03 0.  1.
    9900012    2    1    2    0    0 -0.13069352932E+02  0.29612632420E+02 -0.24605861319E+02  0.50528875610E+02  0.30000047905E+02 0.  0.
         12    1    1    2    0    0  0.13069352932E+02 -0.29612632420E+02  0.24605861319E+02  0.40659124390E+02  0.00000000000E+00 0. -1.
         11    1    3    3    0    0 -0.68106516570E+01 -0.19110221777E+01 -0.41841992375E+00  0.70860466588E+01  0.51100000000E-03 0. -1.
        -11    1    3    3    0    0 -0.29308903982E+01  0.17222848676E+02 -0.30941154705E+01  0.17742327521E+02  0.51100000000E-03 0.  1.
        -12    1    3    3    0    0 -0.33278108772E+01  0.14300805921E+02 -0.21093325924E+02  0.25700501431E+02  0.00000000000E+00 0.  1.
</event>
<event>
 7    1  0.1161807E-013  0.5052886E+02  0.7816164E-02  0.1300439E+00
        -11   -1    0    0    0    0  0.00000000000E+00  0.00000000000E+00  0.45593999997E+02  0.45594000000E+02  0.51100000000E-03 0. -1.
         11   -1    0    0    0    0 -0.00000000000E+00 -0.00000000000E+00 -0.45593999997E+02  0.45594000000E+02  0.51100000000E-03 0.  1.
    9900012    2    1    2    0    0  0.12581458017E+02 -0.33798321401E+01  0.38515571834E+02  0.50528860501E+02  0.30000001977E+02 0.  0.
        -12    1    1    2    0    0 -0.12581458017E+02  0.33798321401E+01 -0.38515571834E+02  0.40659139499E+02  0.00000000000E+00 0.  1.
         11    1    3    3    0    0 -0.89208266836E+00  0.29374085352E+01 -0.21970031796E+01  0.37750501483E+01  0.51100000000E-03 0. -1.
        -11    1    3    3    0    0 -0.17169642299E+01 -0.66951329548E+01  0.19277822729E+02  0.20479434096E+02  0.51100000000E-03 0.  1.
         12    1    3    3    0    0  0.15190504915E+02  0.37789227951E+00  0.21434752285E+02  0.26274376256E+02  0.00000000000E+00 0. -1.
</event>
<event>
 7    1  0.1161807E-013  0.5052885E+02  0.7816164E-02  0.1300439E+00
        -11   -1    0    0    0    0  0.00000000000E+00  0.00000000000E+00  0.45593999997E+02  0.45594000000E+02  0.51100000000E-03 0. -1.
         11   -1    0    0    0    0 -0.00000000000E+00 -0.00000000000E+00 -0.45593999997E+02  0.45594000000E+02  0.51100000000E-03 0.  1.
    9900012    2    1    2    0    0 -0.24968669986E+02 -0.79047879730E+01 -0.31100579736E+02  0.50528853259E+02  0.29999979966E+02 0.  0.
         12    1    1    2    0    0  0.24968669986E+02  0.79047879730E+01  0.31100579736E+02  0.40659146741E+02  0.00000000000E+00 0. -1.
         11    1    3    3    0    0 -0.69650167334E+01  0.32665570839E+01 -0.52020957102E+01  0.92867461104E+01  0.51100000000E-03 0. -1.
        -11    1    3    3    0    0 -0.10844315430E+00  0.15056706720E+01  0.39354091036E+01  0.42150028665E+01  0.51100000000E-03 0.  1.
        -12    1    3    3    0    0 -0.17895210098E+02 -0.12677015729E+02 -0.29833893130E+02  0.37027104282E+02  0.00000000000E+00 0.  1.
</event>
<event>
 7    1  0.1161807E-013  0.5052886E+02  0.7816164E-02  0.1300439E+00
        -11   -1    0    0    0    0  0.00000000000E+00  0.00000000000E+00  0.45593999997E+02  0.45594000000E+02  0.51100000000E-03 0. -1.
         11   -1    0    0    0    0 -0.00000000000E+00 -0.00000000000E+00 -0.45593999997E+02  0.45594000000E+02  0.51100000000E-03 0.  1.
    9900012    2    1    2    0    0 -0.32836191369E+02 -0.14711152910E+02 -0.18934949895E+02  0.50528858211E+02  0.29999995017E+02 0.  0.
         12    1    1    2    0    0  0.32836191369E+02  0.14711152910E+02  0.18934949895E+02  0.40659141789E+02  0.00000000000E+00 0. -1.
         11    1    3    3    0    0 -0.46708563297E+01 -0.38625048811E+00  0.24909307499E+01  0.53076194809E+01  0.51100000000E-03 0. -1.
        -11    1    3    3    0    0 -0.73814683153E+01  0.68637285413E+01 -0.65578919909E+01  0.12025090087E+02  0.51100000000E-03 0.  1.
        -12    1    3    3    0    0 -0.20783866724E+02 -0.21188630963E+02 -0.14867988654E+02  0.33196148642E+02  0.00000000000E+00 0.  1.
</event>
<event>
 7    1  0.1161807E-013  0.5052886E+02  0.7816164E-02  0.1300439E+00
        -11   -1    0    0    0    0  0.00000000000E+00  0.00000000000E+00  0.45593999997E+02  0.45594000000E+02  0.51100000000E-03 0. -1.
         11   -1    0    0    0    0 -0.00000000000E+00 -0.00000000000E+00 -0.45593999997E+02  0.45594000000E+02  0.51100000000E-03 0.  1.
    9900012    2    1    2    0    0  0.83619571440E+01 -0.10768341494E+02  0.38305174926E+02  0.50528856724E+02  0.29999990499E+02 0.  0.
        -12    1    1    2    0    0 -0.83619571440E+01  0.10768341494E+02 -0.38305174926E+02  0.40659143276E+02  0.00000000000E+00 0.  1.
         11    1    3    3    0    0  0.35887328453E+01 -0.19085983628E+02  0.19909142971E+02  0.27812366828E+02  0.51100000000E-03 0.  1.
        -11    1    3    3    0    0  0.70347792250E+01  0.41113287306E+01  0.87705488466E+01  0.11971368761E+02  0.51100000000E-03 0. -1.
        -12    1    3    3    0    0 -0.22615549262E+01  0.42063134041E+01  0.96254831086E+01  0.10745121135E+02  0.00000000000E+00 0.  1.
</event>
<event>
 7    1  0.1161807E-013  0.5052886E+02  0.7816164E-02  0.1300439E+00
        -11   -1    0    0    0    0  0.00000000000E+00  0.00000000000E+00  0.45593999997E+02  0.45594000000E+02  0.51100000000E-03 0. -1.
         11   -1    0    0    0    0 -0.00000000000E+00 -0.00000000000E+00 -0.45593999997E+02  0.45594000000E+02  0.51100000000E-03 0.  1.
    9900012    2    1    2    0    0  0.17854730825E+02 -0.17882309416E+02 -0.31852737617E+02  0.50528864537E+02  0.30000014245E+02 0.  0.
         12    1    1    2    0    0 -0.17854730825E+02  0.17882309416E+02  0.31852737617E+02  0.40659135463E+02  0.00000000000E+00 0. -1.
         11    1    3    3    0    0 -0.32833479376E+01 -0.12444968494E+01 -0.19189249553E+02  0.19507855975E+02  0.51100000000E-03 0. -1.
        -11    1    3    3    0    0  0.38823639585E+01 -0.31671477494E+01 -0.66364712373E+01  0.83154269594E+01  0.51100000000E-03 0.  1.
        -12    1    3    3    0    0  0.17255714804E+02 -0.13470664818E+02 -0.60270168270E+01  0.22705581602E+02  0.00000000000E+00 0.  1.
</event>
<event>
 7    1  0.1161807E-013  0.5052888E+02  0.7816164E-02  0.1300439E+00
        -11   -1    0    0    0    0  0.00000000000E+00  0.00000000000E+00  0.45593999997E+02  0.45594000000E+02  0.51100000000E-03 0. -1.
         11   -1    0    0    0    0 -0.00000000000E+00 -0.00000000000E+00 -0.45593999997E+02  0.45594000000E+02  0.51100000000E-03 0.  1.
    9900012    2    1    2    0    0  0.37463719127E+02  0.11534316875E+01  0.15757645856E+02  0.50528879763E+02  0.30000060528E+02 0.  0.
        -12    1    1    2    0    0 -0.37463719127E+02 -0.11534316875E+01 -0.15757645856E+02  0.40659120237E+02  0.00000000000E+00 0.  1.
         11    1    3    3    0    0  0.13219710854E+02  0.96071286102E+01  0.14406481426E+02  0.21785416740E+02  0.51100000000E-03 0.  1.
        -11    1    3    3    0    0  0.17042439453E+02  0.61504240616E+00  0.18419008309E+01  0.17152714613E+02  0.51100000000E-03 0. -1.
        -12    1    3    3    0    0  0.72015688203E+01 -0.90687393289E+01 -0.49073640064E+00  0.11590748410E+02  0.00000000000E+00 0.  1.
</event>
<event>
 7    1  0.1161807E-013  0.5052886E+02  0.7816164E-02  0.1300439E+00
        -11   -1    0    0    0    0  0.00000000000E+00  0.00000000000E+00  0.45593999997E+02  0.45594000000E+02  0.51100000000E-03 0. -1.
         11   -1    0    0    0    0 -0.00000000000E+00 -0.00000000000E+00 -0.45593999997E+02  0.45594000000E+02  0.51100000000E-03 0.  1.
    9900012    2    1    2    0    0  0.13624046732E+01  0.25962450665E+02 -0.31261163634E+02  0.50528863969E+02  0.30000012520E+02 0.  0.
         12    1    1    2    0    0 -0.13624046732E+01 -0.25962450665E+02  0.31261163634E+02  0.40659136031E+02  0.00000000000E+00 0. -1.
         11    1    3    3    0    0  0.56127568764E+01  0.19092148165E+01 -0.75629631523E+01  0.96097113835E+01  0.51100000000E-03 0. -1.
        -11    1    3    3    0    0 -0.24624668298E+01 -0.28418606380E+00 -0.14703908477E+02  0.14911385897E+02  0.51100000000E-03 0.  1.
         12    1    3    3    0    0 -0.17878853733E+01  0.24337421912E+02 -0.89942920041E+01  0.26007766688E+02  0.00000000000E+00 0. -1.
</event>
<event>
 7    1  0.1161807E-013  0.5052887E+02  0.7816164E-02  0.1300439E+00
        -11   -1    0    0    0    0  0.00000000000E+00  0.00000000000E+00  0.45593999997E+02  0.45594000000E+02  0.51100000000E-03 0. -1.
         11   -1    0    0    0    0 -0.00000000000E+00 -0.00000000000E+00 -0.45593999997E+02  0.45594000000E+02  0.51100000000E-03 0.  1.
    9900012    2    1    2    0    0 -0.26467620365E+02 -0.15835084846E+01 -0.30824061131E+02  0.50528866075E+02  0.30000018923E+02 0.  0.
         12    1    1    2    0    0  0.26467620365E+02  0.15835084846E+01  0.30824061131E+02  0.40659133925E+02  0.00000000000E+00 0. -1.
         11    1    3    3    0    0 -0.31960546550E+01  0.95892052933E+01 -0.13191478439E+02  0.16618746258E+02  0.51100000000E-03 0. -1.
        -11    1    3    3    0    0 -0.64468736112E+01  0.24480319142E+01 -0.68742565601E+01  0.97370654269E+01  0.51100000000E-03 0.  1.
        -12    1    3    3    0    0 -0.16824692099E+02 -0.13620745692E+02 -0.10758326132E+02  0.24173054391E+02  0.00000000000E+00 0.  1.
</event>
<event>
 7    1  0.1161807E-013  0.5052887E+02  0.7816164E-02  0.1300439E+00
        -11   -1    0    0    0    0  0.00000000000E+00  0.00000000000E+00  0.45593999997E+02  0.45594000000E+02  0.51100000000E-03 0. -1.
         11   -1    0    0    0    0 -0.00000000000E+00 -0.00000000000E+00 -0.45593999997E+02  0.45594000000E+02  0.51100000000E-03 0.  1.
    9900012    2    1    2    0    0  0.27010569168E+01 -0.28064404752E+02  0.29296043438E+02  0.50528872074E+02  0.30000037157E+02 0.  0.
        -12    1    1    2    0    0 -0.27010569168E+01  0.28064404752E+02 -0.29296043438E+02  0.40659127926E+02  0.00000000000E+00 0.  1.
         11    1    3    3    0    0  0.10336928445E+00  0.16767432137E+01  0.34466634260E+01  0.38342720361E+01  0.51100000000E-03 0. -1.
        -11    1    3    3    0    0 -0.35692426061E+01 -0.36533248862E+01 -0.40641483141E+01  0.65271415861E+01  0.51100000000E-03 0.  1.
         12    1    3    3    0    0  0.61669302384E+01 -0.26087823080E+02  0.29913528326E+02  0.40167458452E+02  0.00000000000E+00 0. -1.
</event>
<event>
 7    1  0.1161807E-013  0.5052887E+02  0.7816164E-02  0.1300439E+00
        -11   -1    0    0    0    0  0.00000000000E+00  0.00000000000E+00  0.45593999997E+02  0.45594000000E+02  0.51100000000E-03 0.  1.
         11   -1    0    0    0    0 -0.00000000000E+00 -0.00000000000E+00 -0.45593999997E+02  0.45594000000E+02  0.51100000000E-03 0. -1.
    9900012    2    1    2    0    0 -0.18599119641E+01 -0.38203008276E+02  0.13792596672E+02  0.50528870191E+02  0.30000031433E+02 0.  0.
        -12    1    1    2    0    0  0.18599119641E+01  0.38203008276E+02 -0.13792596672E+02  0.40659129809E+02  0.00000000000E+00 0.  1.
         11    1    3    3    0    0  0.62834463269E+01 -0.14474955882E+02  0.55679750641E+01  0.16733451291E+02  0.51100000000E-03 0. -1.
        -11    1    3    3    0    0  0.70611644522E+01 -0.10119206312E+02  0.23480274558E+01  0.12560717057E+02  0.51100000000E-03 0.  1.
        -12    1    3    3    0    0 -0.15204522743E+02 -0.13608846083E+02  0.58765941518E+01  0.21234701843E+02  0.00000000000E+00 0.  1.
</event>
<event>
 7    1  0.1161807E-013  0.5052890E+02  0.7816164E-02  0.1300439E+00
        -11   -1    0    0    0    0  0.00000000000E+00  0.00000000000E+00  0.45593999997E+02  0.45594000000E+02  0.51100000000E-03 0. -1.
         11   -1    0    0    0    0 -0.00000000000E+00 -0.00000000000E+00 -0.45593999997E+02  0.45594000000E+02  0.51100000000E-03 0.  1.
    9900012    2    1    2    0    0 -0.20872210546E+02  0.34603820363E+02  0.44820307193E+01  0.50528903157E+02  0.30000131635E+02 0.  0.
        -12    1    1    2    0    0  0.20872210546E+02 -0.34603820363E+02 -0.44820307193E+01  0.40659096843E+02  0.00000000000E+00 0.  1.
         11    1    3    3    0    0 -0.18273385743E+02  0.68930235210E+01  0.19562008016E+01  0.19627967842E+02  0.51100000000E-03 0. -1.
        -11    1    3    3    0    0 -0.10213826849E+01 -0.13458361017E+01 -0.27108627123E-01  0.16897433356E+01  0.51100000000E-03 0.  1.
         12    1    3    3    0    0 -0.15774421178E+01  0.29056632943E+02  0.25529385448E+01  0.29211191979E+02  0.00000000000E+00 0. -1.
</event>
<event>
 7    1  0.1161807E-013  0.5052887E+02  0.7816164E-02  0.1300439E+00
        -11   -1    0    0    0    0  0.00000000000E+00  0.00000000000E+00  0.45593999997E+02  0.45594000000E+02  0.51100000000E-03 0. -1.
         11   -1    0    0    0    0 -0.00000000000E+00 -0.00000000000E+00 -0.45593999997E+02  0.45594000000E+02  0.51100000000E-03 0.  1.
    9900012    2    1    2    0    0 -0.21124940562E+02 -0.23929935778E+02  0.25184515638E+02  0.50528871037E+02  0.30000034005E+02 0.  0.
        -12    1    1    2    0    0  0.21124940562E+02  0.23929935778E+02 -0.25184515638E+02  0.40659128963E+02  0.00000000000E+00 0.  1.
         11    1    3    3    0    0  0.15679730414E+01  0.10971215715E+00 -0.37692215970E+01  0.40838227097E+01  0.51100000000E-03 0. -1.
        -11    1    3    3    0    0  0.17708824979E+01 -0.50069843188E+01  0.38708530389E+01  0.65718658157E+01  0.51100000000E-03 0.  1.
         12    1    3    3    0    0 -0.24463796101E+02 -0.19032663616E+02  0.25082884196E+02  0.39873182512E+02  0.00000000000E+00 0. -1.
</event>
<event>
 7    1  0.1161807E-013  0.5052886E+02  0.7816164E-02  0.1300439E+00
        -11   -1    0    0    0    0  0.00000000000E+00  0.00000000000E+00  0.45593999997E+02  0.45594000000E+02  0.51100000000E-03 0. -1.
         11   -1    0    0    0    0 -0.00000000000E+00 -0.00000000000E+00 -0.45593999997E+02  0.45594000000E+02  0.51100000000E-03 0.  1.
    9900012    2    1    2    0    0  0.10442288265E+02 -0.27861083600E+02  0.27710723748E+02  0.50528861123E+02  0.30000003869E+02 0.  0.
        -12    1    1    2    0    0 -0.10442288265E+02  0.27861083600E+02 -0.27710723748E+02  0.40659138877E+02  0.00000000000E+00 0.  1.
         11    1    3    3    0    0  0.14195264555E+00 -0.10901044033E+02  0.20413822330E+02  0.23142537759E+02  0.51100000000E-03 0. -1.
        -11    1    3    3    0    0  0.47309308037E+01  0.28345816339E+01  0.33346068163E+01  0.64448554824E+01  0.51100000000E-03 0.  1.
         12    1    3    3    0    0  0.55694048163E+01 -0.19794621201E+02  0.39622946019E+01  0.20941467881E+02  0.00000000000E+00 0. -1.
</event>
<event>
 7    1  0.1161807E-013  0.5052886E+02  0.7816164E-02  0.1300439E+00
        -11   -1    0    0    0    0  0.00000000000E+00  0.00000000000E+00  0.45593999997E+02  0.45594000000E+02  0.51100000000E-03 0. -1.
         11   -1    0    0    0    0 -0.00000000000E+00 -0.00000000000E+00 -0.45593999997E+02  0.45594000000E+02  0.51100000000E-03 0.  1.
    9900012    2    1    2    0    0  0.11689665403E+02  0.19769076611E+02 -0.33551471077E+02  0.50528857378E+02  0.29999992487E+02 0.  0.
         12    1    1    2    0    0 -0.11689665403E+02 -0.19769076611E+02  0.33551471077E+02  0.40659142622E+02  0.00000000000E+00 0. -1.
         11    1    3    3    0    0 -0.90419974655E+01  0.56562353240E+01 -0.62371028737E+01  0.12355248631E+02  0.51100000000E-03 0. -1.
        -11    1    3    3    0    0  0.10106638093E+02  0.11821965397E+02 -0.13492957794E+02  0.20590359630E+02  0.51100000000E-03 0.  1.
        -12    1    3    3    0    0  0.10625024775E+02  0.22908758899E+01 -0.13821410410E+02  0.17583249117E+02  0.00000000000E+00 0.  1.
</event>
<event>
 7    1  0.1161807E-013  0.5052886E+02  0.7816164E-02  0.1300439E+00
        -11   -1    0    0    0    0  0.00000000000E+00  0.00000000000E+00  0.45593999997E+02  0.45594000000E+02  0.51100000000E-03 0. -1.
         11   -1    0    0    0    0 -0.00000000000E+00 -0.00000000000E+00 -0.45593999997E+02  0.45594000000E+02  0.51100000000E-03 0.  1.
    9900012    2    1    2    0    0 -0.28629383548E+02 -0.27868634439E+02  0.75407643184E+01  0.50528861860E+02  0.30000006109E+02 0.  0.
        -12    1    1    2    0    0  0.28629383548E+02  0.27868634439E+02 -0.75407643184E+01  0.40659138140E+02  0.00000000000E+00 0.  1.
         11    1    3    3    0    0 -0.10673637748E+02 -0.12973390880E+02  0.29812287853E+00  0.16802508479E+02  0.51100000000E-03 0. -1.
        -11    1    3    3    0    0 -0.10497806137E+02 -0.20281651515E+02  0.15112748150E+01  0.22887404258E+02  0.51100000000E-03 0.  1.
        -12    1    3    3    0    0 -0.74579396635E+01  0.53864079557E+01  0.57313666250E+01  0.10838949122E+02  0.00000000000E+00 0.  1.
</event>
<event>
 7    1  0.1161807E-013  0.5052886E+02  0.7816164E-02  0.1300439E+00
        -11   -1    0    0    0    0  0.00000000000E+00  0.00000000000E+00  0.45593999997E+02  0.45594000000E+02  0.51100000000E-03 0. -1.
         11   -1    0    0    0    0 -0.00000000000E+00 -0.00000000000E+00 -0.45593999997E+02  0.45594000000E+02  0.51100000000E-03 0.  1.
    9900012    2    1    2    0    0  0.29360190319E+02  0.24824801628E+02  0.13224004226E+02  0.50528857864E+02  0.29999993964E+02 0.  0.
        -12    1    1    2    0    0 -0.29360190319E+02 -0.24824801628E+02 -0.13224004226E+02  0.40659142136E+02  0.00000000000E+00 0.  1.
         11    1    3    3    0    0  0.10428948028E+02  0.78541523725E+01  0.12143954067E+02  0.17830487573E+02  0.51100000000E-03 0.  1.
        -11    1    3    3    0    0  0.11188297860E+02  0.57804328063E+01  0.10293412463E+02  0.16264862521E+02  0.51100000000E-03 0. -1.
        -12    1    3    3    0    0  0.77429444314E+01  0.11190216450E+02 -0.92133623045E+01  0.16433507769E+02  0.00000000000E+00 0.  1.
</event>
<event>
 7    1  0.1161807E-013  0.5052887E+02  0.7816164E-02  0.1300439E+00
        -11   -1    0    0    0    0  0.00000000000E+00  0.00000000000E+00  0.45593999997E+02  0.45594000000E+02  0.51100000000E-03 0. -1.
         11   -1    0    0    0    0 -0.00000000000E+00 -0.00000000000E+00 -0.45593999997E+02  0.45594000000E+02  0.51100000000E-03 0.  1.
    9900012    2    1    2    0    0  0.13533117003E+02  0.28315600993E+02 -0.25850462393E+02  0.50528869152E+02  0.30000028274E+02 0.  0.
         12    1    1    2    0    0 -0.13533117003E+02 -0.28315600993E+02  0.25850462393E+02  0.40659130848E+02  0.00000000000E+00 0. -1.
         11    1    3    3    0    0 -0.45710676671E+01 -0.63990343840E+00 -0.57204302305E+01  0.73503372923E+01  0.51100000000E-03 0. -1.
        -11    1    3    3    0    0  0.72372760771E+01  0.11261967090E+02 -0.17817222461E+02  0.22285948134E+02  0.51100000000E-03 0.  1.
        -12    1    3    3    0    0  0.10866908593E+02  0.17693537341E+02 -0.23128097017E+01  0.20892583726E+02  0.00000000000E+00 0.  1.
</event>
<event>
 7    1  0.1161807E-013  0.5052885E+02  0.7816164E-02  0.1300439E+00
        -11   -1    0    0    0    0  0.00000000000E+00  0.00000000000E+00  0.45593999997E+02  0.45594000000E+02  0.51100000000E-03 0. -1.
         11   -1    0    0    0    0 -0.00000000000E+00 -0.00000000000E+00 -0.45593999997E+02  0.45594000000E+02  0.51100000000E-03 0.  1.
    9900012    2    1    2    0    0 -0.18848032682E+02  0.46665692908E+01 -0.35723120443E+02  0.50528849257E+02  0.29999967803E+02 0.  0.
         12    1    1    2    0    0  0.18848032682E+02 -0.46665692908E+01  0.35723120443E+02  0.40659150743E+02  0.00000000000E+00 0. -1.
         11    1    3    3    0    0  0.19101225068E+01 -0.45299476165E+00 -0.26987330068E+01  0.33372042713E+01  0.51100000000E-03 0. -1.
        -11    1    3    3    0    0 -0.99555246758E+01 -0.70771077556E+01 -0.27324884857E+02  0.29930707618E+02  0.51100000000E-03 0.  1.
        -12    1    3    3    0    0 -0.10802630513E+02  0.12196671808E+02 -0.56995025784E+01  0.17260937369E+02  0.00000000000E+00 0.  1.
</event>
<event>
 7    1  0.1161807E-013  0.5052886E+02  0.7816164E-02  0.1300439E+00
        -11   -1    0    0    0    0  0.00000000000E+00  0.00000000000E+00  0.45593999997E+02  0.45594000000E+02  0.51100000000E-03 0. -1.
         11   -1    0    0    0    0 -0.00000000000E+00 -0.00000000000E+00 -0.45593999997E+02  0.45594000000E+02  0.51100000000E-03 0.  1.
    9900012    2    1    2    0    0  0.40486269953E+01  0.27228256020E+02  0.29923177827E+02  0.50528857391E+02  0.29999992525E+02 0.  0.
        -12    1    1    2    0    0 -0.40486269953E+01 -0.27228256020E+02 -0.29923177827E+02  0.40659142609E+02  0.00000000000E+00 0.  1.
         11    1    3    3    0    0  0.11598193291E+02  0.22762399700E+02  0.14409178797E+02  0.29330348815E+02  0.51100000000E-03 0. -1.
        -11    1    3    3    0    0  0.13057225406E+01  0.19021071841E+00  0.96698893547E+01  0.97595005950E+01  0.51100000000E-03 0.  1.
        -12    1    3    3    0    0 -0.88552888366E+01  0.42756456018E+01  0.58441096751E+01  0.11439007981E+02  0.00000000000E+00 0.  1.
</event>
<event>
 7    1  0.1161807E-013  0.5052886E+02  0.7816164E-02  0.1300439E+00
        -11   -1    0    0    0    0  0.00000000000E+00  0.00000000000E+00  0.45593999997E+02  0.45594000000E+02  0.51100000000E-03 0. -1.
         11   -1    0    0    0    0 -0.00000000000E+00 -0.00000000000E+00 -0.45593999997E+02  0.45594000000E+02  0.51100000000E-03 0.  1.
    9900012    2    1    2    0    0 -0.20474746753E+02 -0.45073132844E+01  0.34837260449E+02  0.50528857815E+02  0.29999993816E+02 0.  0.
        -12    1    1    2    0    0  0.20474746753E+02  0.45073132844E+01 -0.34837260449E+02  0.40659142185E+02  0.00000000000E+00 0.  1.
         11    1    3    3    0    0 -0.13776191176E+01 -0.16591496889E+01 -0.70232172854E+00  0.22680097431E+01  0.51100000000E-03 0. -1.
        -11    1    3    3    0    0 -0.28279251329E+01 -0.10934761614E+02  0.42277170216E+01  0.12059840944E+02  0.51100000000E-03 0.  1.
         12    1    3    3    0    0 -0.16269202502E+02  0.80865980190E+01  0.31311865155E+02  0.36201007128E+02  0.00000000000E+00 0. -1.
</event>
<event>
 7    1  0.1161807E-013  0.5052886E+02  0.7816164E-02  0.1300439E+00
        -11   -1    0    0    0    0  0.00000000000E+00  0.00000000000E+00  0.45593999997E+02  0.45594000000E+02  0.51100000000E-03 0. -1.
         11   -1    0    0    0    0 -0.00000000000E+00 -0.00000000000E+00 -0.45593999997E+02  0.45594000000E+02  0.51100000000E-03 0.  1.
    9900012    2    1    2    0    0  0.17018187309E+02  0.86996501908E+01  0.35886808181E+02  0.50528860632E+02  0.30000002377E+02 0.  0.
        -12    1    1    2    0    0 -0.17018187309E+02 -0.86996501908E+01 -0.35886808181E+02  0.40659139368E+02  0.00000000000E+00 0.  1.
         11    1    3    3    0    0 -0.16332331240E+01 -0.64862614362E+01  0.15101862634E+02  0.16516818493E+02  0.51100000000E-03 0.  1.
        -11    1    3    3    0    0  0.60395767666E+01  0.18563323764E+00  0.98894512135E+01  0.11589313732E+02  0.51100000000E-03 0. -1.
         12    1    3    3    0    0  0.12611843666E+02  0.15000278389E+02  0.10895494333E+02  0.22422728407E+02  0.00000000000E+00 0. -1.
</event>
<event>
 7    1  0.1161807E-013  0.5052885E+02  0.7816164E-02  0.1300439E+00
        -11   -1    0    0    0    0  0.00000000000E+00  0.00000000000E+00  0.45593999997E+02  0.45594000000E+02  0.51100000000E-03 0. -1.
         11   -1    0    0    0    0 -0.00000000000E+00 -0.00000000000E+00 -0.45593999997E+02  0.45594000000E+02  0.51100000000E-03 0.  1.
    9900012    2    1    2    0    0  0.30965997400E+02 -0.26080140869E+02  0.37549457162E+01  0.50528851460E+02  0.29999974497E+02 0.  0.
         12    1    1    2    0    0 -0.30965997400E+02  0.26080140869E+02 -0.37549457162E+01  0.40659148540E+02  0.00000000000E+00 0. -1.
         11    1    3    3    0    0  0.22649897165E+02 -0.95750394288E+01 -0.81794911236E+01  0.25915310088E+02  0.51100000000E-03 0. -1.
        -11    1    3    3    0    0  0.19840160131E+01 -0.13651542156E+01 -0.19644563885E+01  0.31079019830E+01  0.51100000000E-03 0.  1.
        -12    1    3    3    0    0  0.63320842218E+01 -0.15139947225E+02  0.13898893228E+02  0.21505639389E+02  0.00000000000E+00 0.  1.
</event>
<event>
 7    1  0.1161807E-013  0.5052887E+02  0.7816164E-02  0.1300439E+00
        -11   -1    0    0    0    0  0.00000000000E+00  0.00000000000E+00  0.45593999997E+02  0.45594000000E+02  0.51100000000E-03 0. -1.
         11   -1    0    0    0    0 -0.00000000000E+00 -0.00000000000E+00 -0.45593999997E+02  0.45594000000E+02  0.51100000000E-03 0.  1.
    9900012    2    1    2    0    0  0.20907574657E+01  0.17356478182E+02  0.36708942343E+02  0.50528867574E+02  0.30000023478E+02 0.  0.
        -12    1    1    2    0    0 -0.20907574657E+01 -0.17356478182E+02 -0.36708942343E+02  0.40659132426E+02  0.00000000000E+00 0.  1.
         11    1    3    3    0    0  0.40046415203E+00  0.20006429047E+02  0.27312008006E+02  0.33857988073E+02  0.51100000000E-03 0. -1.
        -11    1    3    3    0    0 -0.19893842323E+01  0.47254260364E+01  0.56107711186E+01  0.76005298273E+01  0.51100000000E-03 0.  1.
         12    1    3    3    0    0  0.36796775460E+01 -0.73753769016E+01  0.37861632183E+01  0.90703496734E+01  0.00000000000E+00 0. -1.
</event>
<event>
 7    1  0.1161807E-013  0.5052887E+02  0.7816164E-02  0.1300439E+00
        -11   -1    0    0    0    0  0.00000000000E+00  0.00000000000E+00  0.45593999997E+02  0.45594000000E+02  0.51100000000E-03 0. -1.
         11   -1    0    0    0    0 -0.00000000000E+00 -0.00000000000E+00 -0.45593999997E+02  0.45594000000E+02  0.51100000000E-03 0.  1.
    9900012    2    1    2    0    0  0.15757629989E+02  0.77484436383E+01 -0.36671839715E+02  0.50528866835E+02  0.30000021230E+02 0.  0.
         12    1    1    2    0    0 -0.15757629989E+02 -0.77484436383E+01  0.36671839715E+02  0.40659133165E+02  0.00000000000E+00 0. -1.
         11    1    3    3    0    0  0.11120989885E+02  0.56272469678E+01 -0.87348284071E+01  0.15219709328E+02  0.51100000000E-03 0. -1.
        -11    1    3    3    0    0  0.35107320361E+01  0.31982568295E+01 -0.31270725751E+02  0.31629296157E+02  0.51100000000E-03 0.  1.
         12    1    3    3    0    0  0.11259080681E+01 -0.10770601589E+01  0.33337144429E+01  0.36798613494E+01  0.00000000000E+00 0. -1.
</event>
<event>
 7    1  0.1161807E-013  0.5052885E+02  0.7816164E-02  0.1300439E+00
        -11   -1    0    0    0    0  0.00000000000E+00  0.00000000000E+00  0.45593999997E+02  0.45594000000E+02  0.51100000000E-03 0. -1.
         11   -1    0    0    0    0 -0.00000000000E+00 -0.00000000000E+00 -0.45593999997E+02  0.45594000000E+02  0.51100000000E-03 0.  1.
    9900012    2    1    2    0    0 -0.33042008874E+01  0.29291891611E+02 -0.28004169425E+02  0.50528853885E+02  0.29999981869E+02 0.  0.
         12    1    1    2    0    0  0.33042008874E+01 -0.29291891611E+02  0.28004169425E+02  0.40659146115E+02  0.00000000000E+00 0. -1.
         11    1    3    3    0    0  0.11481091086E+02  0.16556347177E+02 -0.11213056627E+02  0.23057769267E+02  0.51100000000E-03 0. -1.
        -11    1    3    3    0    0 -0.63601282541E+00  0.41999274678E+01 -0.51849025570E+00  0.42793382029E+01  0.51100000000E-03 0.  1.
        -12    1    3    3    0    0 -0.14149279148E+02  0.85356169656E+01 -0.16272622542E+02  0.23191746415E+02  0.00000000000E+00 0.  1.
</event>
<event>
 7    1  0.1161807E-013  0.5052886E+02  0.7816164E-02  0.1300439E+00
        -11   -1    0    0    0    0  0.00000000000E+00  0.00000000000E+00  0.45593999997E+02  0.45594000000E+02  0.51100000000E-03 0. -1.
         11   -1    0    0    0    0 -0.00000000000E+00 -0.00000000000E+00 -0.45593999997E+02  0.45594000000E+02  0.51100000000E-03 0.  1.
    9900012    2    1    2    0    0 -0.18577237589E+02  0.15811913766E+02 -0.32527457616E+02  0.50528857457E+02  0.29999992725E+02 0.  0.
         12    1    1    2    0    0  0.18577237589E+02 -0.15811913766E+02  0.32527457616E+02  0.40659142543E+02  0.00000000000E+00 0. -1.
         11    1    3    3    0    0  0.47326211082E+00 -0.68346364780E+00 -0.22470226546E+01  0.23958736726E+01  0.51100000000E-03 0. -1.
        -11    1    3    3    0    0 -0.46085153394E+01  0.20969618831E+02 -0.22608655155E+02  0.31178752633E+02  0.51100000000E-03 0.  1.
        -12    1    3    3    0    0 -0.14441984361E+02 -0.44742414173E+01 -0.76717798064E+01  0.16954231151E+02  0.00000000000E+00 0.  1.
</event>
<event>
 7    1  0.1161807E-013  0.5052885E+02  0.7816164E-02  0.1300439E+00
        -11   -1    0    0    0    0  0.00000000000E+00  0.00000000000E+00  0.45593999997E+02  0.45594000000E+02  0.51100000000E-03 0. -1.
         11   -1    0    0    0    0 -0.00000000000E+00 -0.00000000000E+00 -0.45593999997E+02  0.45594000000E+02  0.51100000000E-03 0.  1.
    9900012    2    1    2    0    0 -0.28552337750E+02 -0.52673284773E+01 -0.28463756060E+02  0.50528854051E+02  0.29999982372E+02 0.  0.
         12    1    1    2    0    0  0.28552337750E+02  0.52673284773E+01  0.28463756060E+02  0.40659145949E+02  0.00000000000E+00 0. -1.
         11    1    3    3    0    0 -0.88822222146E+01 -0.72175613386E+01 -0.21142165755E+02  0.24041177929E+02  0.51100000000E-03 0. -1.
        -11    1    3    3    0    0 -0.45617870793E+01 -0.32109736648E+01 -0.88368376913E+01  0.10450356639E+02  0.51100000000E-03 0.  1.
         12    1    3    3    0    0 -0.15108328456E+02  0.51612065261E+01  0.15152473865E+01  0.16037319483E+02  0.00000000000E+00 0. -1.
</event>
<event>
 7    1  0.1161807E-013  0.5052886E+02  0.7816164E-02  0.1300439E+00
        -11   -1    0    0    0    0  0.00000000000E+00  0.00000000000E+00  0.45593999997E+02  0.45594000000E+02  0.51100000000E-03 0. -1.
         11   -1    0    0    0    0 -0.00000000000E+00 -0.00000000000E+00 -0.45593999997E+02  0.45594000000E+02  0.51100000000E-03 0.  1.
    9900012    2    1    2    0    0 -0.44982965086E+01 -0.33824824557E+02  0.22109091636E+02  0.50528863748E+02  0.30000011848E+02 0.  0.
        -12    1    1    2    0    0  0.44982965086E+01  0.33824824557E+02 -0.22109091636E+02  0.40659136252E+02  0.00000000000E+00 0.  1.
         11    1    3    3    0    0  0.60741875928E+01 -0.49266657172E+01  0.12237085587E+02  0.14522880359E+02  0.51100000000E-03 0. -1.
        -11    1    3    3    0    0  0.28625621925E+01 -0.11225459331E+02 -0.29606761744E+00  0.11588479443E+02  0.51100000000E-03 0.  1.
         12    1    3    3    0    0 -0.13435046294E+02 -0.17672699509E+02  0.10168073667E+02  0.24417503946E+02  0.00000000000E+00 0. -1.
</event>
<event>
 7    1  0.1161807E-013  0.5052887E+02  0.7816164E-02  0.1300439E+00
        -11   -1    0    0    0    0  0.00000000000E+00  0.00000000000E+00  0.45593999997E+02  0.45594000000E+02  0.51100000000E-03 0. -1.
         11   -1    0    0    0    0 -0.00000000000E+00 -0.00000000000E+00 -0.45593999997E+02  0.45594000000E+02  0.51100000000E-03 0.  1.
    9900012    2    1    2    0    0 -0.24836736038E+01 -0.25363279823E+02  0.31681224433E+02  0.50528873355E+02  0.30000041048E+02 0.  0.
        -12    1    1    2    0    0  0.24836736038E+01  0.25363279823E+02 -0.31681224433E+02  0.40659126645E+02  0.00000000000E+00 0.  1.
         11    1    3    3    0    0 -0.68302695178E+01  0.87194294983E+00  0.29518688363E+01  0.74917552070E+01  0.51100000000E-03 0. -1.
        -11    1    3    3    0    0 -0.42820253691E+00  0.71800482658E+00 -0.18293972143E+01  0.20113634113E+01  0.51100000000E-03 0.  1.
         12    1    3    3    0    0  0.47747984509E+01 -0.26953227600E+02  0.30558752811E+02  0.41025754736E+02  0.00000000000E+00 0. -1.
</event>
<event>
 7    1  0.1161807E-013  0.5052889E+02  0.7816164E-02  0.1300439E+00
        -11   -1    0    0    0    0  0.00000000000E+00  0.00000000000E+00  0.45593999997E+02  0.45594000000E+02  0.51100000000E-03 0. -1.
         11   -1    0    0    0    0 -0.00000000000E+00 -0.00000000000E+00 -0.45593999997E+02  0.45594000000E+02  0.51100000000E-03 0.  1.
    9900012    2    1    2    0    0  0.39867157515E+02  0.60132404129E+00 -0.79631058159E+01  0.50528894093E+02  0.30000104085E+02 0.  0.
         12    1    1    2    0    0 -0.39867157515E+02 -0.60132404129E+00  0.79631058159E+01  0.40659105907E+02  0.00000000000E+00 0. -1.
         11    1    3    3    0    0  0.28518271361E+02  0.10434196141E+02 -0.60735870366E+01  0.30968576174E+02  0.51100000000E-03 0. -1.
        -11    1    3    3    0    0  0.13814286762E+02 -0.67920945756E+01 -0.25092729900E+01  0.15596907343E+02  0.51100000000E-03 0.  1.
        -12    1    3    3    0    0 -0.24654006084E+01 -0.30407775238E+01  0.61975421075E+00  0.39634105756E+01  0.00000000000E+00 0.  1.
</event>
<event>
 7    1  0.1161807E-013  0.5052885E+02  0.7816164E-02  0.1300439E+00
        -11   -1    0    0    0    0  0.00000000000E+00  0.00000000000E+00  0.45593999997E+02  0.45594000000E+02  0.51100000000E-03 0. -1.
         11   -1    0    0    0    0 -0.00000000000E+00 -0.00000000000E+00 -0.45593999997E+02  0.45594000000E+02  0.51100000000E-03 0.  1.
    9900012    2    1    2    0    0 -0.30426683657E+02 -0.15336577985E+02 -0.22184962512E+02  0.50528852636E+02  0.29999978073E+02 0.  0.
         12    1    1    2    0    0  0.30426683657E+02  0.15336577985E+02  0.22184962512E+02  0.40659147364E+02  0.00000000000E+00 0. -1.
         11    1    3    3    0    0 -0.32028924687E+01  0.13655473068E+01 -0.11483999160E+02  0.12000228189E+02  0.51100000000E-03 0. -1.
        -11    1    3    3    0    0 -0.31875272002E+01  0.40383825154E+01 -0.43806153505E+00  0.51634059653E+01  0.51100000000E-03 0.  1.
        -12    1    3    3    0    0 -0.24036263988E+02 -0.20740507807E+02 -0.10262901817E+02  0.33365218482E+02  0.00000000000E+00 0.  1.
</event>
<event>
 7    1  0.1161807E-013  0.5052888E+02  0.7816164E-02  0.1300439E+00
        -11   -1    0    0    0    0  0.00000000000E+00  0.00000000000E+00  0.45593999997E+02  0.45594000000E+02  0.51100000000E-03 0. -1.
         11   -1    0    0    0    0 -0.00000000000E+00 -0.00000000000E+00 -0.45593999997E+02  0.45594000000E+02  0.51100000000E-03 0.  1.
    9900012    2    1    2    0    0 -0.20327224595E+00  0.52205847648E+01 -0.40322060226E+02  0.50528875984E+02  0.30000049041E+02 0.  0.
         12    1    1    2    0    0  0.20327224595E+00 -0.52205847648E+01  0.40322060226E+02  0.40659124016E+02  0.00000000000E+00 0. -1.
         11    1    3    3    0    0 -0.11860802021E+02  0.81815890573E+01 -0.23907226070E+02  0.27913661220E+02  0.51100000000E-03 0. -1.
        -11    1    3    3    0    0  0.45263124459E+01 -0.37540992842E+01 -0.13761276044E+02  0.14965075490E+02  0.51100000000E-03 0.  1.
        -12    1    3    3    0    0  0.71312173291E+01  0.79309499173E+00 -0.26535581111E+01  0.76501392739E+01  0.00000000000E+00 0.  1.
</event>
<event>
 7    1  0.1161807E-013  0.5052887E+02  0.7816164E-02  0.1300439E+00
        -11   -1    0    0    0    0  0.00000000000E+00  0.00000000000E+00  0.45593999997E+02  0.45594000000E+02  0.51100000000E-03 0. -1.
         11   -1    0    0    0    0 -0.00000000000E+00 -0.00000000000E+00 -0.45593999997E+02  0.45594000000E+02  0.51100000000E-03 0.  1.
    9900012    2    1    2    0    0  0.12978262055E+02 -0.26990073417E+02 -0.27500288137E+02  0.50528865767E+02  0.30000017984E+02 0.  0.
         12    1    1    2    0    0 -0.12978262055E+02  0.26990073417E+02  0.27500288137E+02  0.40659134233E+02  0.00000000000E+00 0. -1.
         11    1    3    3    0    0  0.80915696675E+01 -0.94001917531E+01 -0.13793032711E+02  0.18549524423E+02  0.51100000000E-03 0. -1.
        -11    1    3    3    0    0  0.29269425289E+01 -0.22659810943E+02 -0.82906909501E+01  0.24305752019E+02  0.51100000000E-03 0.  1.
         12    1    3    3    0    0  0.19597498583E+01  0.50699292791E+01 -0.54165644758E+01  0.76735893246E+01  0.00000000000E+00 0. -1.
</event>
<event>
 7    1  0.1161807E-013  0.5052886E+02  0.7816164E-02  0.1300439E+00
        -11   -1    0    0    0    0  0.00000000000E+00  0.00000000000E+00  0.45593999997E+02  0.45594000000E+02  0.51100000000E-03 0. -1.
         11   -1    0    0    0    0 -0.00000000000E+00 -0.00000000000E+00 -0.45593999997E+02  0.45594000000E+02  0.51100000000E-03 0.  1.
    9900012    2    1    2    0    0 -0.16236565519E+01 -0.99973942075E+01 -0.39377422336E+02  0.50528861527E+02  0.30000005097E+02 0.  0.
         12    1    1    2    0    0  0.16236565519E+01  0.99973942075E+01  0.39377422336E+02  0.40659138473E+02  0.00000000000E+00 0. -1.
         11    1    3    3    0    0  0.76963838516E+01  0.53403354783E+01 -0.15825926963E+02  0.18390581065E+02  0.51100000000E-03 0. -1.
        -11    1    3    3    0    0  0.29356590122E+01 -0.26809067013E+01 -0.65031486389E+01  0.76220926955E+01  0.51100000000E-03 0.  1.
         12    1    3    3    0    0 -0.12255699416E+02 -0.12656822984E+02 -0.17048346734E+02  0.24516187766E+02  0.00000000000E+00 0. -1.
</event>
<event>
 7    1  0.1161807E-013  0.5052886E+02  0.7816164E-02  0.1300439E+00
        -11   -1    0    0    0    0  0.00000000000E+00  0.00000000000E+00  0.45593999997E+02  0.45594000000E+02  0.51100000000E-03 0. -1.
         11   -1    0    0    0    0 -0.00000000000E+00 -0.00000000000E+00 -0.45593999997E+02  0.45594000000E+02  0.51100000000E-03 0.  1.
    9900012    2    1    2    0    0 -0.16182079830E+02 -0.29497481966E+01  0.37183395023E+02  0.50528860960E+02  0.30000003374E+02 0.  0.
        -12    1    1    2    0    0  0.16182079830E+02  0.29497481966E+01 -0.37183395023E+02  0.40659139040E+02  0.00000000000E+00 0.  1.
         11    1    3    3    0    0  0.34996835697E+00 -0.78440719374E-01  0.65270135070E+01  0.65368598255E+01  0.51100000000E-03 0. -1.
        -11    1    3    3    0    0 -0.52379864502E+01 -0.13975669514E+02  0.19777406028E+02  0.24777038360E+02  0.51100000000E-03 0.  1.
        -12    1    3    3    0    0 -0.11294061737E+02  0.11104362037E+02  0.10878975488E+02  0.19214962775E+02  0.00000000000E+00 0.  1.
</event>
<event>
 7    1  0.1161807E-013  0.5052887E+02  0.7816164E-02  0.1300439E+00
        -11   -1    0    0    0    0  0.00000000000E+00  0.00000000000E+00  0.45593999997E+02  0.45594000000E+02  0.51100000000E-03 0. -1.
         11   -1    0    0    0    0 -0.00000000000E+00 -0.00000000000E+00 -0.45593999997E+02  0.45594000000E+02  0.51100000000E-03 0.  1.
    9900012    2    1    2    0    0  0.21827032415E+02  0.14753148126E+02 -0.30969176592E+02  0.50528872827E+02  0.30000039445E+02 0.  0.
         12    1    1    2    0    0 -0.21827032415E+02 -0.14753148126E+02  0.30969176592E+02  0.40659127173E+02  0.00000000000E+00 0. -1.
         11    1    3    3    0    0  0.35651017108E+01 -0.13631501942E+01 -0.39046092138E+00  0.38367419320E+01  0.51100000000E-03 0. -1.
        -11    1    3    3    0    0  0.20310213647E+02  0.33329837608E+01 -0.25537096457E+02  0.32798732519E+02  0.51100000000E-03 0.  1.
         12    1    3    3    0    0 -0.20482829429E+01  0.12783314560E+02 -0.50416192141E+01  0.13893398376E+02  0.00000000000E+00 0. -1.
</event>
<event>
 7    1  0.1161807E-013  0.5052886E+02  0.7816164E-02  0.1300439E+00
        -11   -1    0    0    0    0  0.00000000000E+00  0.00000000000E+00  0.45593999997E+02  0.45594000000E+02  0.51100000000E-03 0. -1.
         11   -1    0    0    0    0 -0.00000000000E+00 -0.00000000000E+00 -0.45593999997E+02  0.45594000000E+02  0.51100000000E-03 0.  1.
    9900012    2    1    2    0    0  0.31532749659E+02 -0.32012789203E+01  0.25467689290E+02  0.50528859753E+02  0.29999999706E+02 0.  0.
        -12    1    1    2    0    0 -0.31532749659E+02  0.32012789203E+01 -0.25467689290E+02  0.40659140247E+02  0.00000000000E+00 0.  1.
         11    1    3    3    0    0  0.21512743131E+02  0.24498247178E+01  0.17893129056E+02  0.28088499886E+02  0.51100000000E-03 0. -1.
        -11    1    3    3    0    0  0.61787763020E+01 -0.49082615302E+01  0.13324370423E+02  0.15485708097E+02  0.51100000000E-03 0.  1.
        -12    1    3    3    0    0  0.38412302266E+01 -0.74284210793E+00 -0.57498101883E+01  0.69546517708E+01  0.00000000000E+00 0.  1.
</event>
<event>
 7    1  0.1161807E-013  0.5052886E+02  0.7816164E-02  0.1300439E+00
        -11   -1    0    0    0    0  0.00000000000E+00  0.00000000000E+00  0.45593999997E+02  0.45594000000E+02  0.51100000000E-03 0. -1.
         11   -1    0    0    0    0 -0.00000000000E+00 -0.00000000000E+00 -0.45593999997E+02  0.45594000000E+02  0.51100000000E-03 0.  1.
    9900012    2    1    2    0    0 -0.14212277684E+02  0.10098134488E+02  0.36731524241E+02  0.50528855516E+02  0.29999986826E+02 0.  0.
        -12    1    1    2    0    0  0.14212277684E+02 -0.10098134488E+02 -0.36731524241E+02  0.40659144484E+02  0.00000000000E+00 0.  1.
         11    1    3    3    0    0 -0.32316693354E+00  0.42284786206E+01  0.65341059589E+01  0.77896732445E+01  0.51100000000E-03 0. -1.
        -11    1    3    3    0    0 -0.39286655728E+01  0.71589246289E+01 -0.24950599810E+01  0.85387317323E+01  0.51100000000E-03 0.  1.
         12    1    3    3    0    0 -0.99604451781E+01 -0.12892687613E+01  0.32692478263E+02  0.34200450539E+02  0.00000000000E+00 0. -1.
</event>
<event>
 7    1  0.1161807E-013  0.5052885E+02  0.7816164E-02  0.1300439E+00
        -11   -1    0    0    0    0  0.00000000000E+00  0.00000000000E+00  0.45593999997E+02  0.45594000000E+02  0.51100000000E-03 0. -1.
         11   -1    0    0    0    0 -0.00000000000E+00 -0.00000000000E+00 -0.45593999997E+02  0.45594000000E+02  0.51100000000E-03 0.  1.
    9900012    2    1    2    0    0  0.29836901092E+02 -0.66714775349E+01  0.26803299124E+02  0.50528854371E+02  0.29999983347E+02 0.  0.
        -12    1    1    2    0    0 -0.29836901092E+02  0.66714775349E+01 -0.26803299124E+02  0.40659145629E+02  0.00000000000E+00 0.  1.
         11    1    3    3    0    0  0.44299660606E+01  0.96081245147E+00  0.40658580341E+00  0.45511616255E+01  0.51100000000E-03 0. -1.
        -11    1    3    3    0    0  0.25199915780E+01 -0.72933237812E+01 -0.33764789750E+01  0.84227988140E+01  0.51100000000E-03 0.  1.
         12    1    3    3    0    0  0.22886943454E+02 -0.33896620519E+00  0.29773192296E+02  0.37554893932E+02  0.00000000000E+00 0. -1.
</event>
<event>
 7    1  0.1161807E-013  0.5052885E+02  0.7816164E-02  0.1300439E+00
        -11   -1    0    0    0    0  0.00000000000E+00  0.00000000000E+00  0.45593999997E+02  0.45594000000E+02  0.51100000000E-03 0. -1.
         11   -1    0    0    0    0 -0.00000000000E+00 -0.00000000000E+00 -0.45593999997E+02  0.45594000000E+02  0.51100000000E-03 0.  1.
    9900012    2    1    2    0    0 -0.48135487004E+01 -0.13157537523E+02  0.38169032445E+02  0.50528854872E+02  0.29999984870E+02 0.  0.
        -12    1    1    2    0    0  0.48135487004E+01  0.13157537523E+02 -0.38169032445E+02  0.40659145128E+02  0.00000000000E+00 0.  1.
         11    1    3    3    0    0 -0.14996169259E+02 -0.15611512681E+01  0.27597502801E+02  0.31447487130E+02  0.51100000000E-03 0. -1.
        -11    1    3    3    0    0  0.11952819330E+01 -0.92877799210E-01  0.31237488791E+00  0.12389122312E+01  0.51100000000E-03 0.  1.
        -12    1    3    3    0    0  0.89873386255E+01 -0.11503508455E+02  0.10259154756E+02  0.17842455511E+02  0.00000000000E+00 0.  1.
</event>
<event>
 7    1  0.1161807E-013  0.5052885E+02  0.7816164E-02  0.1300439E+00
        -11   -1    0    0    0    0  0.00000000000E+00  0.00000000000E+00  0.45593999997E+02  0.45594000000E+02  0.51100000000E-03 0. -1.
         11   -1    0    0    0    0 -0.00000000000E+00 -0.00000000000E+00 -0.45593999997E+02  0.45594000000E+02  0.51100000000E-03 0.  1.
    9900012    2    1    2    0    0 -0.18732711832E+02  0.50041143093E+01 -0.35738081214E+02  0.50528854639E+02  0.29999984160E+02 0.  0.
         12    1    1    2    0    0  0.18732711832E+02 -0.50041143093E+01  0.35738081214E+02  0.40659145361E+02  0.00000000000E+00 0. -1.
         11    1    3    3    0    0  0.33212070301E+01  0.24226636764E+00  0.16245484697E+01  0.37051676239E+01  0.51100000000E-03 0. -1.
        -11    1    3    3    0    0  0.24074962003E+01  0.24056783830E+01 -0.68203684056E+01  0.76223849212E+01  0.51100000000E-03 0.  1.
         12    1    3    3    0    0 -0.24461415063E+02  0.23561695586E+01 -0.30542261278E+02  0.39201302094E+02  0.00000000000E+00 0. -1.
</event>
<event>
 7    1  0.1161807E-013  0.5052885E+02  0.7816164E-02  0.1300439E+00
        -11   -1    0    0    0    0  0.00000000000E+00  0.00000000000E+00  0.45593999997E+02  0.45594000000E+02  0.51100000000E-03 0. -1.
         11   -1    0    0    0    0 -0.00000000000E+00 -0.00000000000E+00 -0.45593999997E+02  0.45594000000E+02  0.51100000000E-03 0.  1.
    9900012    2    1    2    0    0 -0.15486098565E+02 -0.11481550173E+02 -0.35798337407E+02  0.50528853375E+02  0.29999980319E+02 0.  0.
         12    1    1    2    0    0  0.15486098565E+02  0.11481550173E+02  0.35798337407E+02  0.40659146625E+02  0.00000000000E+00 0. -1.
         11    1    3    3    0    0 -0.69245576113E+01  0.74726015385E+01 -0.13026300649E+02  0.16537042683E+02  0.51100000000E-03 0. -1.
        -11    1    3    3    0    0 -0.17675846287E+01  0.10454432952E+01 -0.78916703218E+01  0.81544937201E+01  0.51100000000E-03 0.  1.
        -12    1    3    3    0    0 -0.67939563250E+01 -0.19999595007E+02 -0.14880366437E+02  0.25837316971E+02  0.00000000000E+00 0.  1.
</event>
<event>
 7    1  0.1161807E-013  0.5052886E+02  0.7816164E-02  0.1300439E+00
        -11   -1    0    0    0    0  0.00000000000E+00  0.00000000000E+00  0.45593999997E+02  0.45594000000E+02  0.51100000000E-03 0. -1.
         11   -1    0    0    0    0 -0.00000000000E+00 -0.00000000000E+00 -0.45593999997E+02  0.45594000000E+02  0.51100000000E-03 0.  1.
    9900012    2    1    2    0    0  0.27831251445E+02 -0.24935938308E+02  0.16024558164E+02  0.50528855387E+02  0.29999986435E+02 0.  0.
        -12    1    1    2    0    0 -0.27831251445E+02  0.24935938308E+02 -0.16024558164E+02  0.40659144613E+02  0.00000000000E+00 0.  1.
         11    1    3    3    0    0  0.24558651551E+02 -0.12189545365E+02  0.84044003330E+01  0.28676581516E+02  0.51100000000E-03 0. -1.
        -11    1    3    3    0    0  0.67402557911E+01  0.30915180775E-01  0.35330689599E+00  0.67495799797E+01  0.51100000000E-03 0.  1.
        -12    1    3    3    0    0 -0.34676558966E+01 -0.12777308123E+02  0.72668509348E+01  0.15102693892E+02  0.00000000000E+00 0.  1.
</event>
<event>
 7    1  0.1161807E-013  0.5052887E+02  0.7816164E-02  0.1300439E+00
        -11   -1    0    0    0    0  0.00000000000E+00  0.00000000000E+00  0.45593999997E+02  0.45594000000E+02  0.51100000000E-03 0. -1.
         11   -1    0    0    0    0 -0.00000000000E+00 -0.00000000000E+00 -0.45593999997E+02  0.45594000000E+02  0.51100000000E-03 0.  1.
    9900012    2    1    2    0    0  0.95022345315E+01 -0.30097713668E+02 -0.25632019294E+02  0.50528865206E+02  0.30000016279E+02 0.  0.
         12    1    1    2    0    0 -0.95022345315E+01  0.30097713668E+02  0.25632019294E+02  0.40659134794E+02  0.00000000000E+00 0. -1.
         11    1    3    3    0    0 -0.19512601095E+01  0.43065646878E+01 -0.31970032226E+01  0.57074289563E+01  0.51100000000E-03 0. -1.
        -11    1    3    3    0    0  0.12857998157E+01  0.73887646753E+00 -0.31125051299E+01  0.34477395559E+01  0.51100000000E-03 0.  1.
        -12    1    3    3    0    0  0.10167694825E+02 -0.35143154824E+02 -0.19322510941E+02  0.41373696694E+02  0.00000000000E+00 0.  1.
</event>
<event>
 7    1  0.1161807E-013  0.5052886E+02  0.7816164E-02  0.1300439E+00
        -11   -1    0    0    0    0  0.00000000000E+00  0.00000000000E+00  0.45593999997E+02  0.45594000000E+02  0.51100000000E-03 0. -1.
         11   -1    0    0    0    0 -0.00000000000E+00 -0.00000000000E+00 -0.45593999997E+02  0.45594000000E+02  0.51100000000E-03 0.  1.
    9900012    2    1    2    0    0 -0.13687760668E+02 -0.32465322360E+02 -0.20293195642E+02  0.50528859116E+02  0.29999997769E+02 0.  0.
         12    1    1    2    0    0  0.13687760668E+02  0.32465322360E+02  0.20293195642E+02  0.40659140884E+02  0.00000000000E+00 0. -1.
         11    1    3    3    0    0  0.53910611001E+01 -0.38710031329E+01 -0.67312956101E+01  0.94529649259E+01  0.51100000000E-03 0. -1.
        -11    1    3    3    0    0  0.35516545629E+01 -0.40422693655E+01 -0.19743227272E+01  0.57316788335E+01  0.51100000000E-03 0.  1.
         12    1    3    3    0    0 -0.22630476331E+02 -0.24552049862E+02 -0.11587577305E+02  0.35344215357E+02  0.00000000000E+00 0. -1.
</event>
<event>
 7    1  0.1161807E-013  0.5052886E+02  0.7816164E-02  0.1300439E+00
        -11   -1    0    0    0    0  0.00000000000E+00  0.00000000000E+00  0.45593999997E+02  0.45594000000E+02  0.51100000000E-03 0. -1.
         11   -1    0    0    0    0 -0.00000000000E+00 -0.00000000000E+00 -0.45593999997E+02  0.45594000000E+02  0.51100000000E-03 0.  1.
    9900012    2    1    2    0    0 -0.11616846032E+02  0.18733143518E+02 -0.34165534296E+02  0.50528861894E+02  0.30000006214E+02 0.  0.
         12    1    1    2    0    0  0.11616846032E+02 -0.18733143518E+02  0.34165534296E+02  0.40659138106E+02  0.00000000000E+00 0. -1.
         11    1    3    3    0    0  0.88571698235E-01  0.11096168258E+02 -0.23676308200E+01  0.11346297675E+02  0.51100000000E-03 0. -1.
        -11    1    3    3    0    0  0.72413106520E+00  0.78184614544E+01 -0.21985597390E+02  0.23345646236E+02  0.51100000000E-03 0.  1.
        -12    1    3    3    0    0 -0.12429548795E+02 -0.18148619472E+00 -0.98123060852E+01  0.15836917983E+02  0.00000000000E+00 0.  1.
</event>
<event>
 7    1  0.1161807E-013  0.5052891E+02  0.7816164E-02  0.1300439E+00
        -11   -1    0    0    0    0  0.00000000000E+00  0.00000000000E+00  0.45593999997E+02  0.45594000000E+02  0.51100000000E-03 0. -1.
         11   -1    0    0    0    0 -0.00000000000E+00 -0.00000000000E+00 -0.45593999997E+02  0.45594000000E+02  0.51100000000E-03 0.  1.
    9900012    2    1    2    0    0 -0.37637812310E+02 -0.83729497417E+01 -0.12901579606E+02  0.50528905579E+02  0.30000138996E+02 0.  0.
         12    1    1    2    0    0  0.37637812310E+02  0.83729497417E+01  0.12901579606E+02  0.40659094421E+02  0.00000000000E+00 0. -1.
         11    1    3    3    0    0 -0.16918184950E+02 -0.11186437936E+02 -0.11602952380E+01  0.20315207629E+02  0.51100000000E-03 0.  1.
        -11    1    3    3    0    0 -0.41393731932E+01 -0.54419361318E+01 -0.92833687542E+01  0.11529527960E+02  0.51100000000E-03 0. -1.
         12    1    3    3    0    0 -0.16580254167E+02  0.82554243264E+01 -0.24579156135E+01  0.18684169990E+02  0.00000000000E+00 0. -1.
</event>
<event>
 7    1  0.1161807E-013  0.5052884E+02  0.7816164E-02  0.1300439E+00
        -11   -1    0    0    0    0  0.00000000000E+00  0.00000000000E+00  0.45593999997E+02  0.45594000000E+02  0.51100000000E-03 0.  1.
         11   -1    0    0    0    0 -0.00000000000E+00 -0.00000000000E+00 -0.45593999997E+02  0.45594000000E+02  0.51100000000E-03 0. -1.
    9900012    2    1    2    0    0 -0.67488890807E+01 -0.40058332466E+02 -0.17175890261E+01  0.50528836017E+02  0.29999927556E+02 0.  0.
        -12    1    1    2    0    0  0.67488890807E+01  0.40058332466E+02  0.17175890261E+01  0.40659163983E+02  0.00000000000E+00 0.  1.
         11    1    3    3    0    0 -0.38315412928E+01 -0.22058685549E+01 -0.74828576182E+01  0.86913591086E+01  0.51100000000E-03 0. -1.
        -11    1    3    3    0    0 -0.41691765845E+01 -0.12752755669E+02  0.94873580958E+01  0.16432430570E+02  0.51100000000E-03 0.  1.
         12    1    3    3    0    0  0.12518287966E+01 -0.25099708242E+02 -0.37220895037E+01  0.25405046338E+02  0.00000000000E+00 0. -1.
</event>
<event>
 7    1  0.1161807E-013  0.5052886E+02  0.7816164E-02  0.1300439E+00
        -11   -1    0    0    0    0  0.00000000000E+00  0.00000000000E+00  0.45593999997E+02  0.45594000000E+02  0.51100000000E-03 0. -1.
         11   -1    0    0    0    0 -0.00000000000E+00 -0.00000000000E+00 -0.45593999997E+02  0.45594000000E+02  0.51100000000E-03 0.  1.
    9900012    2    1    2    0    0 -0.23836009129E+02  0.18186382972E+02 -0.27463893607E+02  0.50528864386E+02  0.30000013787E+02 0.  0.
         12    1    1    2    0    0  0.23836009129E+02 -0.18186382972E+02  0.27463893607E+02  0.40659135614E+02  0.00000000000E+00 0. -1.
         11    1    3    3    0    0 -0.61599776468E+01  0.18380792977E+02 -0.91765900744E+01  0.21447812959E+02  0.51100000000E-03 0. -1.
        -11    1    3    3    0    0 -0.81216538607E+01  0.65783601845E+01 -0.57669412726E+01  0.11937072340E+02  0.51100000000E-03 0.  1.
        -12    1    3    3    0    0 -0.95543776219E+01 -0.67727701897E+01 -0.12520362260E+02  0.17143979086E+02  0.00000000000E+00 0.  1.
</event>
<event>
 7    1  0.1161807E-013  0.5052887E+02  0.7816164E-02  0.1300439E+00
        -11   -1    0    0    0    0  0.00000000000E+00  0.00000000000E+00  0.45593999997E+02  0.45594000000E+02  0.51100000000E-03 0. -1.
         11   -1    0    0    0    0 -0.00000000000E+00 -0.00000000000E+00 -0.45593999997E+02  0.45594000000E+02  0.51100000000E-03 0.  1.
    9900012    2    1    2    0    0  0.79976873921E+01 -0.49036564577E+01  0.39562051973E+02  0.50528870563E+02  0.30000032563E+02 0.  0.
        -12    1    1    2    0    0 -0.79976873921E+01  0.49036564577E+01 -0.39562051973E+02  0.40659129437E+02  0.00000000000E+00 0.  1.
         11    1    3    3    0    0  0.65346328080E+01 -0.12136046166E+02  0.12679895068E+02  0.18728715431E+02  0.51100000000E-03 0. -1.
        -11    1    3    3    0    0 -0.61746865871E+01  0.49021053320E+01  0.76913047538E+01  0.11014243515E+02  0.51100000000E-03 0.  1.
         12    1    3    3    0    0  0.76377411712E+01  0.23302843766E+01  0.19190852151E+02  0.20785911617E+02  0.00000000000E+00 0. -1.
</event>
<event>
 7    1  0.1161807E-013  0.5052886E+02  0.7816164E-02  0.1300439E+00
        -11   -1    0    0    0    0  0.00000000000E+00  0.00000000000E+00  0.45593999997E+02  0.45594000000E+02  0.51100000000E-03 0. -1.
         11   -1    0    0    0    0 -0.00000000000E+00 -0.00000000000E+00 -0.45593999997E+02  0.45594000000E+02  0.51100000000E-03 0.  1.
    9900012    2    1    2    0    0 -0.11279381318E+02  0.71244140365E+01 -0.38408126181E+02  0.50528857424E+02  0.29999992625E+02 0.  0.
         12    1    1    2    0    0  0.11279381318E+02 -0.71244140365E+01  0.38408126181E+02  0.40659142576E+02  0.00000000000E+00 0. -1.
         11    1    3    3    0    0 -0.71579082471E+00  0.21059102996E+00 -0.52992774455E+01  0.53515462058E+01  0.51100000000E-03 0. -1.
        -11    1    3    3    0    0 -0.31918885704E+01  0.63095089423E+01 -0.36400919747E+02  0.37081329729E+02  0.51100000000E-03 0.  1.
         12    1    3    3    0    0 -0.73717019228E+01  0.60431406421E+00  0.32920710117E+01  0.80959814892E+01  0.00000000000E+00 0. -1.
</event>
<event>
 7    1  0.1161807E-013  0.5052887E+02  0.7816164E-02  0.1300439E+00
        -11   -1    0    0    0    0  0.00000000000E+00  0.00000000000E+00  0.45593999997E+02  0.45594000000E+02  0.51100000000E-03 0. -1.
         11   -1    0    0    0    0 -0.00000000000E+00 -0.00000000000E+00 -0.45593999997E+02  0.45594000000E+02  0.51100000000E-03 0.  1.
    9900012    2    1    2    0    0  0.19433200067E+02  0.73531040030E+01  0.34949217083E+02  0.50528865995E+02  0.30000018677E+02 0.  0.
        -12    1    1    2    0    0 -0.19433200067E+02 -0.73531040030E+01 -0.34949217083E+02  0.40659134005E+02  0.00000000000E+00 0.  1.
         11    1    3    3    0    0 -0.59952184365E+00  0.73947243842E+01  0.69985165333E+01  0.10199049421E+02  0.51100000000E-03 0. -1.
        -11    1    3    3    0    0  0.18483553592E+02  0.35964511629E+01  0.88177207571E+01  0.20792508602E+02  0.51100000000E-03 0.  1.
         12    1    3    3    0    0  0.15491683190E+01 -0.36380715441E+01  0.19132979793E+02  0.19537307972E+02  0.00000000000E+00 0. -1.
</event>
<event>
 7    1  0.1161807E-013  0.5052886E+02  0.7816164E-02  0.1300439E+00
        -11   -1    0    0    0    0  0.00000000000E+00  0.00000000000E+00  0.45593999997E+02  0.45594000000E+02  0.51100000000E-03 0. -1.
         11   -1    0    0    0    0 -0.00000000000E+00 -0.00000000000E+00 -0.45593999997E+02  0.45594000000E+02  0.51100000000E-03 0.  1.
    9900012    2    1    2    0    0 -0.22475012315E+02  0.62462142877E+01  0.33302019754E+02  0.50528857225E+02  0.29999992021E+02 0.  0.
        -12    1    1    2    0    0  0.22475012315E+02 -0.62462142877E+01 -0.33302019754E+02  0.40659142775E+02  0.00000000000E+00 0.  1.
         11    1    3    3    0    0 -0.36282661969E+01  0.21122623157E+01  0.48413295267E+01  0.64081541440E+01  0.51100000000E-03 0. -1.
        -11    1    3    3    0    0 -0.20796160234E+02  0.10183480538E+02  0.11190157467E+02  0.25717760025E+02  0.51100000000E-03 0.  1.
         12    1    3    3    0    0  0.19494141158E+01 -0.60495285657E+01  0.17270532761E+02  0.18402943056E+02  0.00000000000E+00 0. -1.
</event>
<event>
 7    1  0.1161807E-013  0.5052886E+02  0.7816164E-02  0.1300439E+00
        -11   -1    0    0    0    0  0.00000000000E+00  0.00000000000E+00  0.45593999997E+02  0.45594000000E+02  0.51100000000E-03 0. -1.
         11   -1    0    0    0    0 -0.00000000000E+00 -0.00000000000E+00 -0.45593999997E+02  0.45594000000E+02  0.51100000000E-03 0.  1.
    9900012    2    1    2    0    0 -0.11342097581E+02 -0.39358004461E+00  0.39043153968E+02  0.50528856446E+02  0.29999989652E+02 0.  0.
        -12    1    1    2    0    0  0.11342097581E+02  0.39358004461E+00 -0.39043153968E+02  0.40659143554E+02  0.00000000000E+00 0.  1.
         11    1    3    3    0    0 -0.14426001355E+02 -0.27542220956E+01  0.97033193698E+01  0.17602547017E+02  0.51100000000E-03 0. -1.
        -11    1    3    3    0    0  0.52746194423E+01  0.89198100225E+00  0.24094564693E+01  0.58670879581E+01  0.51100000000E-03 0.  1.
        -12    1    3    3    0    0 -0.21907156687E+01  0.14686610487E+01  0.26930378129E+02  0.27059221471E+02  0.00000000000E+00 0.  1.
</event>
<event>
 7    1  0.1161807E-013  0.5052886E+02  0.7816164E-02  0.1300439E+00
        -11   -1    0    0    0    0  0.00000000000E+00  0.00000000000E+00  0.45593999997E+02  0.45594000000E+02  0.51100000000E-03 0. -1.
         11   -1    0    0    0    0 -0.00000000000E+00 -0.00000000000E+00 -0.45593999997E+02  0.45594000000E+02  0.51100000000E-03 0.  1.
    9900012    2    1    2    0    0 -0.40987201512E+01  0.22920989163E+02  0.33331581402E+02  0.50528861177E+02  0.30000004033E+02 0.  0.
        -12    1    1    2    0    0  0.40987201512E+01 -0.22920989163E+02 -0.33331581402E+02  0.40659138823E+02  0.00000000000E+00 0.  1.
         11    1    3    3    0    0 -0.11298912441E+02 -0.10177169899E+01  0.95966631721E+01  0.14859243404E+02  0.51100000000E-03 0. -1.
        -11    1    3    3    0    0  0.14560245615E+01 -0.18600307677E+00  0.20149618759E+00  0.14816226385E+01  0.51100000000E-03 0.  1.
        -12    1    3    3    0    0  0.57441677286E+01  0.24124709229E+02  0.23533422043E+02  0.34187995135E+02  0.00000000000E+00 0.  1.
</event>
<event>
 7    1  0.1161807E-013  0.5052886E+02  0.7816164E-02  0.1300439E+00
        -11   -1    0    0    0    0  0.00000000000E+00  0.00000000000E+00  0.45593999997E+02  0.45594000000E+02  0.51100000000E-03 0. -1.
         11   -1    0    0    0    0 -0.00000000000E+00 -0.00000000000E+00 -0.45593999997E+02  0.45594000000E+02  0.51100000000E-03 0.  1.
    9900012    2    1    2    0    0 -0.43469877240E+00  0.13816044906E+02 -0.38237331597E+02  0.50528860960E+02  0.30000003373E+02 0.  0.
         12    1    1    2    0    0  0.43469877240E+00 -0.13816044906E+02  0.38237331597E+02  0.40659139040E+02  0.00000000000E+00 0. -1.
         11    1    3    3    0    0  0.63020138766E+00  0.15761072737E+01 -0.24466028183E+02  0.24524840534E+02  0.51100000000E-03 0. -1.
        -11    1    3    3    0    0  0.25102440434E+01  0.52964745258E+01 -0.16672487329E+02  0.17672741766E+02  0.51100000000E-03 0.  1.
        -12    1    3    3    0    0 -0.35751442035E+01  0.69434631067E+01  0.29011839147E+01  0.83312786592E+01  0.00000000000E+00 0.  1.
</event>
<event>
 7    1  0.1161807E-013  0.5052885E+02  0.7816164E-02  0.1300439E+00
        -11   -1    0    0    0    0  0.00000000000E+00  0.00000000000E+00  0.45593999997E+02  0.45594000000E+02  0.51100000000E-03 0.  1.
         11   -1    0    0    0    0 -0.00000000000E+00 -0.00000000000E+00 -0.45593999997E+02  0.45594000000E+02  0.51100000000E-03 0. -1.
    9900012    2    1    2    0    0  0.73811734090E+01  0.39974919946E+02  0.83087811654E+00  0.50528852148E+02  0.29999976590E+02 0.  0.
         12    1    1    2    0    0 -0.73811734090E+01 -0.39974919946E+02 -0.83087811654E+00  0.40659147852E+02  0.00000000000E+00 0. -1.
         11    1    3    3    0    0  0.69044198252E+01  0.31176945240E+01  0.21515202300E+00  0.75787415130E+01  0.51100000000E-03 0. -1.
        -11    1    3    3    0    0  0.57715991564E+00  0.13690022998E+02 -0.10491691888E+02  0.17257619830E+02  0.51100000000E-03 0.  1.
        -12    1    3    3    0    0 -0.10040633184E+00  0.23167202424E+02  0.11107417981E+02  0.25692490806E+02  0.00000000000E+00 0.  1.
</event>
<event>
 7    1  0.1161807E-013  0.5052880E+02  0.7816164E-02  0.1300439E+00
        -11   -1    0    0    0    0  0.00000000000E+00  0.00000000000E+00  0.45593999997E+02  0.45594000000E+02  0.51100000000E-03 0. -1.
         11   -1    0    0    0    0 -0.00000000000E+00 -0.00000000000E+00 -0.45593999997E+02  0.45594000000E+02  0.51100000000E-03 0.  1.
    9900012    2    1    2    0    0 -0.21872661178E+02 -0.45905551642E+01  0.33965926861E+02  0.50528798198E+02  0.29999812601E+02 0.  0.
        -12    1    1    2    0    0  0.21872661178E+02  0.45905551642E+01 -0.33965926861E+02  0.40659201802E+02  0.00000000000E+00 0.  1.
         11    1    3    3    0    0 -0.54717862004E+01  0.10303250929E+02  0.16427678855E+02  0.20148599375E+02  0.51100000000E-03 0. -1.
        -11    1    3    3    0    0 -0.11377497767E+02 -0.63014541628E+01  0.15476652010E+02  0.20215898142E+02  0.51100000000E-03 0.  1.
        -12    1    3    3    0    0 -0.50233772104E+01 -0.85923519299E+01  0.20615959951E+01  0.10164300681E+02  0.00000000000E+00 0.  1.
</event>
<event>
 7    1  0.1161807E-013  0.5052886E+02  0.7816164E-02  0.1300439E+00
        -11   -1    0    0    0    0  0.00000000000E+00  0.00000000000E+00  0.45593999997E+02  0.45594000000E+02  0.51100000000E-03 0. -1.
         11   -1    0    0    0    0 -0.00000000000E+00 -0.00000000000E+00 -0.45593999997E+02  0.45594000000E+02  0.51100000000E-03 0.  1.
    9900012    2    1    2    0    0 -0.17461370447E+02 -0.39118777573E+00  0.36716657665E+02  0.50528862825E+02  0.30000009042E+02 0.  0.
        -12    1    1    2    0    0  0.17461370447E+02  0.39118777573E+00 -0.36716657665E+02  0.40659137175E+02  0.00000000000E+00 0.  1.
         11    1    3    3    0    0 -0.10556585369E+01  0.90530776248E+01  0.30014805114E+01  0.95959113662E+01  0.51100000000E-03 0.  1.
        -11    1    3    3    0    0 -0.37483631830E+01  0.11787498125E+01  0.16925305043E+02  0.17375431757E+02  0.51100000000E-03 0. -1.
         12    1    3    3    0    0 -0.12657348727E+02 -0.10623015213E+02  0.16789872111E+02  0.23557519702E+02  0.00000000000E+00 0. -1.
</event>
<event>
 7    1  0.1161807E-013  0.5052887E+02  0.7816164E-02  0.1300439E+00
        -11   -1    0    0    0    0  0.00000000000E+00  0.00000000000E+00  0.45593999997E+02  0.45594000000E+02  0.51100000000E-03 0. -1.
         11   -1    0    0    0    0 -0.00000000000E+00 -0.00000000000E+00 -0.45593999997E+02  0.45594000000E+02  0.51100000000E-03 0.  1.
    9900012    2    1    2    0    0  0.13061921001E+02 -0.13363625667E+02  0.36110451802E+02  0.50528868177E+02  0.30000025312E+02 0.  0.
        -12    1    1    2    0    0 -0.13061921001E+02  0.13363625667E+02 -0.36110451802E+02  0.40659131823E+02  0.00000000000E+00 0.  1.
         11    1    3    3    0    0  0.89671802220E+01  0.41353218122E+01  0.18512688540E+02  0.20981678790E+02  0.51100000000E-03 0. -1.
        -11    1    3    3    0    0  0.10088043968E+01  0.28462049106E+01  0.12589271441E+01  0.32716152768E+01  0.51100000000E-03 0.  1.
        -12    1    3    3    0    0  0.30859363822E+01 -0.20345152390E+02  0.16338836118E+02  0.26275574110E+02  0.00000000000E+00 0.  1.
</event>
<event>
 7    1  0.1161807E-013  0.5052879E+02  0.7816164E-02  0.1300439E+00
        -11   -1    0    0    0    0  0.00000000000E+00  0.00000000000E+00  0.45593999997E+02  0.45594000000E+02  0.51100000000E-03 0. -1.
         11   -1    0    0    0    0 -0.00000000000E+00 -0.00000000000E+00 -0.45593999997E+02  0.45594000000E+02  0.51100000000E-03 0.  1.
    9900012    2    1    2    0    0  0.84921143609E+01  0.12041719828E+02  0.37895276091E+02  0.50528794735E+02  0.29999802077E+02 0.  0.
        -12    1    1    2    0    0 -0.84921143609E+01 -0.12041719828E+02 -0.37895276091E+02  0.40659205265E+02  0.00000000000E+00 0.  1.
         11    1    3    3    0    0  0.40309507791E+01 -0.45833318254E+01  0.25479223249E+02  0.26200120466E+02  0.51100000000E-03 0. -1.
        -11    1    3    3    0    0 -0.16952782717E+00 -0.13033471929E+01  0.35761611286E+01  0.38100370429E+01  0.51100000000E-03 0.  1.
        -12    1    3    3    0    0  0.46306914090E+01  0.17928398847E+02  0.88398917138E+01  0.20518637227E+02  0.00000000000E+00 0.  1.
</event>
<event>
 7    1  0.1161807E-013  0.5052885E+02  0.7816164E-02  0.1300439E+00
        -11   -1    0    0    0    0  0.00000000000E+00  0.00000000000E+00  0.45593999997E+02  0.45594000000E+02  0.51100000000E-03 0.  1.
         11   -1    0    0    0    0 -0.00000000000E+00 -0.00000000000E+00 -0.45593999997E+02  0.45594000000E+02  0.51100000000E-03 0. -1.
    9900012    2    1    2    0    0  0.25128177818E+02  0.25301059534E+02  0.19534519559E+02  0.50528851111E+02  0.29999973437E+02 0.  0.
        -12    1    1    2    0    0 -0.25128177818E+02 -0.25301059534E+02 -0.19534519559E+02  0.40659148889E+02  0.00000000000E+00 0.  1.
         11    1    3    3    0    0  0.22950814954E+01  0.17615697900E+00 -0.79816791939E+00  0.24362887022E+01  0.51100000000E-03 0. -1.
        -11    1    3    3    0    0  0.54188204418E+01 -0.44236157337E+01  0.10127084716E+02  0.12308120744E+02  0.51100000000E-03 0.  1.
         12    1    3    3    0    0  0.17414275880E+02  0.29548518289E+02  0.10205602762E+02  0.35784441665E+02  0.00000000000E+00 0. -1.
</event>
<event>
 7    1  0.1161807E-013  0.5052887E+02  0.7816164E-02  0.1300439E+00
        -11   -1    0    0    0    0  0.00000000000E+00  0.00000000000E+00  0.45593999997E+02  0.45594000000E+02  0.51100000000E-03 0. -1.
         11   -1    0    0    0    0 -0.00000000000E+00 -0.00000000000E+00 -0.45593999997E+02  0.45594000000E+02  0.51100000000E-03 0.  1.
    9900012    2    1    2    0    0  0.88902127262E+01  0.67018996530E+01  0.39105163260E+02  0.50528866526E+02  0.30000020293E+02 0.  0.
        -12    1    1    2    0    0 -0.88902127262E+01 -0.67018996530E+01 -0.39105163260E+02  0.40659133474E+02  0.00000000000E+00 0.  1.
         11    1    3    3    0    0  0.39692422156E+01 -0.13291106356E+01  0.21236887618E+02  0.21645480240E+02  0.51100000000E-03 0. -1.
        -11    1    3    3    0    0  0.99501966091E+01  0.57193671684E+01  0.19912298365E+02  0.22982976304E+02  0.51100000000E-03 0.  1.
        -12    1    3    3    0    0 -0.50292260985E+01  0.23116431202E+01 -0.20440227232E+01  0.59004099822E+01  0.00000000000E+00 0.  1.
</event>
<event>
 7    1  0.1161807E-013  0.5052885E+02  0.7816164E-02  0.1300439E+00
        -11   -1    0    0    0    0  0.00000000000E+00  0.00000000000E+00  0.45593999997E+02  0.45594000000E+02  0.51100000000E-03 0. -1.
         11   -1    0    0    0    0 -0.00000000000E+00 -0.00000000000E+00 -0.45593999997E+02  0.45594000000E+02  0.51100000000E-03 0.  1.
    9900012    2    1    2    0    0  0.74229358768E+01  0.11232822325E+02 -0.38365216076E+02  0.50528854916E+02  0.29999985001E+02 0.  0.
         12    1    1    2    0    0 -0.74229358768E+01 -0.11232822325E+02  0.38365216076E+02  0.40659145084E+02  0.00000000000E+00 0. -1.
         11    1    3    3    0    0 -0.29039672921E+01 -0.39618277156E+01 -0.25347608311E+02  0.25819185739E+02  0.51100000000E-03 0. -1.
        -11    1    3    3    0    0  0.57285178061E+00 -0.27278060323E+00 -0.44869461777E+01  0.45315841251E+01  0.51100000000E-03 0.  1.
        -12    1    3    3    0    0  0.97540513883E+01  0.15467430644E+02 -0.85306615872E+01  0.20178085051E+02  0.00000000000E+00 0.  1.
</event>
<event>
 7    1  0.1161807E-013  0.5052887E+02  0.7816164E-02  0.1300439E+00
        -11   -1    0    0    0    0  0.00000000000E+00  0.00000000000E+00  0.45593999997E+02  0.45594000000E+02  0.51100000000E-03 0. -1.
         11   -1    0    0    0    0 -0.00000000000E+00 -0.00000000000E+00 -0.45593999997E+02  0.45594000000E+02  0.51100000000E-03 0.  1.
    9900012    2    1    2    0    0 -0.30813581176E+02  0.17174918568E+02 -0.20216582804E+02  0.50528870239E+02  0.30000031577E+02 0.  0.
         12    1    1    2    0    0  0.30813581176E+02 -0.17174918568E+02  0.20216582804E+02  0.40659129761E+02  0.00000000000E+00 0. -1.
         11    1    3    3    0    0 -0.11918971895E+01  0.10371167400E+02 -0.57173654522E+01  0.11902520747E+02  0.51100000000E-03 0. -1.
        -11    1    3    3    0    0 -0.26103991307E+02  0.65988734741E+01 -0.18967959877E+02  0.32935497498E+02  0.51100000000E-03 0.  1.
        -12    1    3    3    0    0 -0.35176926792E+01  0.20487769422E+00  0.44687425257E+01  0.56908519939E+01  0.00000000000E+00 0.  1.
</event>
<event>
 7    1  0.1161807E-013  0.5052886E+02  0.7816164E-02  0.1300439E+00
        -11   -1    0    0    0    0  0.00000000000E+00  0.00000000000E+00  0.45593999997E+02  0.45594000000E+02  0.51100000000E-03 0. -1.
         11   -1    0    0    0    0 -0.00000000000E+00 -0.00000000000E+00 -0.45593999997E+02  0.45594000000E+02  0.51100000000E-03 0.  1.
    9900012    2    1    2    0    0  0.18422819327E+02  0.22876890181E+02  0.28114293340E+02  0.50528857531E+02  0.29999992951E+02 0.  0.
        -12    1    1    2    0    0 -0.18422819327E+02 -0.22876890181E+02 -0.28114293340E+02  0.40659142469E+02  0.00000000000E+00 0.  1.
         11    1    3    3    0    0  0.14325627870E+02  0.68730500511E+01  0.20304320489E+02  0.25782316840E+02  0.51100000000E-03 0. -1.
        -11    1    3    3    0    0  0.83922486532E+01  0.30006061001E+01 -0.13675944112E+00  0.89135951126E+01  0.51100000000E-03 0.  1.
        -12    1    3    3    0    0 -0.42950571965E+01  0.13003234030E+02  0.79467322922E+01  0.15832945578E+02  0.00000000000E+00 0.  1.
</event>
<event>
 7    1  0.1161807E-013  0.5052882E+02  0.7816164E-02  0.1300439E+00
        -11   -1    0    0    0    0  0.00000000000E+00  0.00000000000E+00  0.45593999997E+02  0.45594000000E+02  0.51100000000E-03 0. -1.
         11   -1    0    0    0    0 -0.00000000000E+00 -0.00000000000E+00 -0.45593999997E+02  0.45594000000E+02  0.51100000000E-03 0.  1.
    9900012    2    1    2    0    0  0.49222847831E+01  0.49984520373E+01 -0.40049410252E+02  0.50528823031E+02  0.29999888084E+02 0.  0.
         12    1    1    2    0    0 -0.49222847831E+01 -0.49984520373E+01  0.40049410252E+02  0.40659176969E+02  0.00000000000E+00 0. -1.
         11    1    3    3    0    0  0.29445169723E+00 -0.32806172902E+01 -0.35249750629E+01  0.48243757173E+01  0.51100000000E-03 0. -1.
        -11    1    3    3    0    0  0.69189714186E+01 -0.59770924049E+01 -0.26746505634E+02  0.28266116871E+02  0.51100000000E-03 0.  1.
         12    1    3    3    0    0 -0.22911383327E+01  0.14256161732E+02 -0.97779295558E+01  0.17438330442E+02  0.00000000000E+00 0. -1.
</event>
<event>
 7    1  0.1161807E-013  0.5052886E+02  0.7816164E-02  0.1300439E+00
        -11   -1    0    0    0    0  0.00000000000E+00  0.00000000000E+00  0.45593999997E+02  0.45594000000E+02  0.51100000000E-03 0. -1.
         11   -1    0    0    0    0 -0.00000000000E+00 -0.00000000000E+00 -0.45593999997E+02  0.45594000000E+02  0.51100000000E-03 0.  1.
    9900012    2    1    2    0    0 -0.11865137238E+02 -0.11745732139E+02 -0.37073192871E+02  0.50528864067E+02  0.30000012819E+02 0.  0.
         12    1    1    2    0    0  0.11865137238E+02  0.11745732139E+02  0.37073192871E+02  0.40659135933E+02  0.00000000000E+00 0. -1.
         11    1    3    3    0    0  0.12088786842E+01 -0.59027656997E+01 -0.61968766889E+01  0.86432234460E+01  0.51100000000E-03 0. -1.
        -11    1    3    3    0    0 -0.80994402332E+01 -0.12127584015E+02 -0.60343809766E+01  0.15782679753E+02  0.51100000000E-03 0.  1.
         12    1    3    3    0    0 -0.49745756890E+01  0.62846175765E+01 -0.24841935205E+02  0.26102960869E+02  0.00000000000E+00 0. -1.
</event>
<event>
 7    1  0.1161807E-013  0.5052887E+02  0.7816164E-02  0.1300439E+00
        -11   -1    0    0    0    0  0.00000000000E+00  0.00000000000E+00  0.45593999997E+02  0.45594000000E+02  0.51100000000E-03 0. -1.
         11   -1    0    0    0    0 -0.00000000000E+00 -0.00000000000E+00 -0.45593999997E+02  0.45594000000E+02  0.51100000000E-03 0.  1.
    9900012    2    1    2    0    0 -0.28498116874E+01 -0.37490213554E+02  0.15476671994E+02  0.50528869230E+02  0.30000028512E+02 0.  0.
        -12    1    1    2    0    0  0.28498116874E+01  0.37490213554E+02 -0.15476671994E+02  0.40659130770E+02  0.00000000000E+00 0.  1.
         11    1    3    3    0    0  0.12707857577E+01 -0.57860800574E+01  0.85828658834E+01  0.10428768187E+02  0.51100000000E-03 0. -1.
        -11    1    3    3    0    0  0.17267597992E+01  0.34363952582E+01  0.11670880866E+01  0.40190305595E+01  0.51100000000E-03 0.  1.
        -12    1    3    3    0    0 -0.58473572443E+01 -0.35140528754E+02  0.57267180242E+01  0.36081070483E+02  0.00000000000E+00 0.  1.
</event>
<event>
 7    1  0.1161807E-013  0.5052885E+02  0.7816164E-02  0.1300439E+00
        -11   -1    0    0    0    0  0.00000000000E+00  0.00000000000E+00  0.45593999997E+02  0.45594000000E+02  0.51100000000E-03 0. -1.
         11   -1    0    0    0    0 -0.00000000000E+00 -0.00000000000E+00 -0.45593999997E+02  0.45594000000E+02  0.51100000000E-03 0.  1.
    9900012    2    1    2    0    0 -0.40339434244E+02  0.45690246327E+01 -0.22405699116E+01  0.50528854722E+02  0.29999984413E+02 0.  0.
         12    1    1    2    0    0  0.40339434244E+02 -0.45690246327E+01  0.22405699116E+01  0.40659145278E+02  0.00000000000E+00 0. -1.
         11    1    3    3    0    0 -0.28584559004E+02  0.62821021505E+01  0.45595810166E+01  0.29619783932E+02  0.51100000000E-03 0. -1.
        -11    1    3    3    0    0 -0.92005916705E+01  0.56799102876E+01 -0.42943040361E+00  0.10821121878E+02  0.51100000000E-03 0.  1.
         12    1    3    3    0    0 -0.25542835693E+01 -0.73929878054E+01 -0.63707205246E+01  0.10087948912E+02  0.00000000000E+00 0. -1.
</event>
<event>
 7    1  0.1161807E-013  0.5052886E+02  0.7816164E-02  0.1300439E+00
        -11   -1    0    0    0    0  0.00000000000E+00  0.00000000000E+00  0.45593999997E+02  0.45594000000E+02  0.51100000000E-03 0. -1.
         11   -1    0    0    0    0 -0.00000000000E+00 -0.00000000000E+00 -0.45593999997E+02  0.45594000000E+02  0.51100000000E-03 0.  1.
    9900012    2    1    2    0    0  0.38184518896E+01  0.17170876754E+02  0.36657144880E+02  0.50528857681E+02  0.29999993408E+02 0.  0.
        -12    1    1    2    0    0 -0.38184518896E+01 -0.17170876754E+02 -0.36657144880E+02  0.40659142319E+02  0.00000000000E+00 0.  1.
         11    1    3    3    0    0  0.76704924588E+01 -0.41779949390E+01  0.10381791512E+02  0.13567376000E+02  0.51100000000E-03 0. -1.
        -11    1    3    3    0    0  0.37229554182E+01  0.45335401087E+01  0.12924414318E+02  0.14193444567E+02  0.51100000000E-03 0.  1.
         12    1    3    3    0    0 -0.75749959873E+01  0.16815331585E+02  0.13350939050E+02  0.22768037114E+02  0.00000000000E+00 0. -1.
</event>
<event>
 7    1  0.1161807E-013  0.5052885E+02  0.7816164E-02  0.1300439E+00
        -11   -1    0    0    0    0  0.00000000000E+00  0.00000000000E+00  0.45593999997E+02  0.45594000000E+02  0.51100000000E-03 0. -1.
         11   -1    0    0    0    0 -0.00000000000E+00 -0.00000000000E+00 -0.45593999997E+02  0.45594000000E+02  0.51100000000E-03 0.  1.
    9900012    2    1    2    0    0  0.14023084894E+02  0.10767580643E+02  0.36613918617E+02  0.50528846795E+02  0.29999960319E+02 0.  0.
        -12    1    1    2    0    0 -0.14023084894E+02 -0.10767580643E+02 -0.36613918617E+02  0.40659153205E+02  0.00000000000E+00 0.  1.
         11    1    3    3    0    0 -0.36123316361E+01 -0.73524700887E+01  0.10105567299E+02  0.13008852638E+02  0.51100000000E-03 0. -1.
        -11    1    3    3    0    0  0.60590357629E+00 -0.76062872299E+00  0.19061392822E+01  0.21398697209E+01  0.51100000000E-03 0.  1.
        -12    1    3    3    0    0  0.17029512954E+02  0.18880679455E+02  0.24602212035E+02  0.35380124436E+02  0.00000000000E+00 0.  1.
</event>
<event>
 7    1  0.1161807E-013  0.5052886E+02  0.7816164E-02  0.1300439E+00
        -11   -1    0    0    0    0  0.00000000000E+00  0.00000000000E+00  0.45593999997E+02  0.45594000000E+02  0.51100000000E-03 0. -1.
         11   -1    0    0    0    0 -0.00000000000E+00 -0.00000000000E+00 -0.45593999997E+02  0.45594000000E+02  0.51100000000E-03 0.  1.
    9900012    2    1    2    0    0  0.21260400021E+02  0.22972135466E+02 -0.25950760319E+02  0.50528861075E+02  0.30000003725E+02 0.  0.
         12    1    1    2    0    0 -0.21260400021E+02 -0.22972135466E+02  0.25950760319E+02  0.40659138925E+02  0.00000000000E+00 0. -1.
         11    1    3    3    0    0  0.70027446555E+01 -0.21894205309E+01  0.13577501986E+01  0.74616004205E+01  0.51100000000E-03 0. -1.
        -11    1    3    3    0    0  0.59644712596E+01  0.60135374002E+01  0.28199326133E+00  0.84744952611E+01  0.51100000000E-03 0.  1.
         12    1    3    3    0    0  0.82931841063E+01  0.19148018597E+02 -0.27590503779E+02  0.34592765394E+02  0.00000000000E+00 0. -1.
</event>
<event>
 7    1  0.1161807E-013  0.5052886E+02  0.7816164E-02  0.1300439E+00
        -11   -1    0    0    0    0  0.00000000000E+00  0.00000000000E+00  0.45593999997E+02  0.45594000000E+02  0.51100000000E-03 0. -1.
         11   -1    0    0    0    0 -0.00000000000E+00 -0.00000000000E+00 -0.45593999997E+02  0.45594000000E+02  0.51100000000E-03 0.  1.
    9900012    2    1    2    0    0  0.20533511071E+02  0.42993591837E+00 -0.35090674916E+02  0.50528863414E+02  0.30000010835E+02 0.  0.
         12    1    1    2    0    0 -0.20533511071E+02 -0.42993591837E+00  0.35090674916E+02  0.40659136586E+02  0.00000000000E+00 0. -1.
         11    1    3    3    0    0  0.10022798348E+02  0.13988030116E+01 -0.26900816234E+02  0.28741382203E+02  0.51100000000E-03 0. -1.
        -11    1    3    3    0    0  0.11135513302E+02  0.60425502399E+01 -0.29394955414E+01  0.13005871912E+02  0.51100000000E-03 0.  1.
         12    1    3    3    0    0 -0.62480057901E+00 -0.70114173332E+01 -0.52503631409E+01  0.87816092998E+01  0.00000000000E+00 0. -1.
</event>
<event>
 7    1  0.1231178E-013  0.5052894E+02  0.7816164E-02  0.1300438E+00
        -11   -1    0    0    0    0  0.00000000000E+00  0.00000000000E+00  0.45593999997E+02  0.45594000000E+02  0.51100000000E-03 0. -1.
         11   -1    0    0    0    0 -0.00000000000E+00 -0.00000000000E+00 -0.45593999997E+02  0.45594000000E+02  0.51100000000E-03 0.  1.
    9900012    2    1    2    0    0  0.92351783820E+01  0.46298284449E+01 -0.39324738165E+02  0.50528943654E+02  0.30000254730E+02 0.  0.
         12    1    1    2    0    0 -0.92351783820E+01 -0.46298284449E+01  0.39324738165E+02  0.40659056346E+02  0.00000000000E+00 0. -1.
         11    1    3    3    0    0 -0.36591368745E+00 -0.61869009849E+01 -0.61222271256E+01  0.87116761798E+01  0.51100000000E-03 0. -1.
        -11    1    3    3    0    0  0.31837820870E+01 -0.33819754110E+01 -0.22353071511E+02  0.22830550416E+02  0.51100000000E-03 0.  1.
        -12    1    3    3    0    0  0.64173099825E+01  0.14198704841E+02 -0.10849439528E+02  0.18986717058E+02  0.00000000000E+00 0.  1.
</event>
<event>
 7    1  0.1161807E-013  0.5052887E+02  0.7816164E-02  0.1300439E+00
        -11   -1    0    0    0    0  0.00000000000E+00  0.00000000000E+00  0.45593999997E+02  0.45594000000E+02  0.51100000000E-03 0. -1.
         11   -1    0    0    0    0 -0.00000000000E+00 -0.00000000000E+00 -0.45593999997E+02  0.45594000000E+02  0.51100000000E-03 0.  1.
    9900012    2    1    2    0    0  0.46894001923E+01 -0.14807391204E+02 -0.37575466259E+02  0.50528868516E+02  0.30000026340E+02 0.  0.
         12    1    1    2    0    0 -0.46894001923E+01  0.14807391204E+02  0.37575466259E+02  0.40659131484E+02  0.00000000000E+00 0. -1.
         11    1    3    3    0    0  0.79397873311E+01 -0.83907929836E+01 -0.29062784198E+02  0.31274447323E+02  0.51100000000E-03 0. -1.
        -11    1    3    3    0    0  0.24190175876E+01 -0.50041569453E+01 -0.11440485374E+02  0.12719195677E+02  0.51100000000E-03 0.  1.
         12    1    3    3    0    0 -0.56694047264E+01 -0.14124412753E+01  0.29278033122E+01  0.65352255158E+01  0.00000000000E+00 0. -1.
</event>
<event>
 7    1  0.1161807E-013  0.5052886E+02  0.7816164E-02  0.1300439E+00
        -11   -1    0    0    0    0  0.00000000000E+00  0.00000000000E+00  0.45593999997E+02  0.45594000000E+02  0.51100000000E-03 0. -1.
         11   -1    0    0    0    0 -0.00000000000E+00 -0.00000000000E+00 -0.45593999997E+02  0.45594000000E+02  0.51100000000E-03 0.  1.
    9900012    2    1    2    0    0  0.11791711959E+02  0.23803323964E+02 -0.30781860658E+02  0.50528860212E+02  0.30000001102E+02 0.  0.
         12    1    1    2    0    0 -0.11791711959E+02 -0.23803323964E+02  0.30781860658E+02  0.40659139788E+02  0.00000000000E+00 0. -1.
         11    1    3    3    0    0 -0.12464769430E+01  0.60791085746E+00 -0.92226038025E+00  0.16654803662E+01  0.51100000000E-03 0. -1.
        -11    1    3    3    0    0  0.13621904721E+01  0.25870219916E+02 -0.15600603429E+02  0.30240745179E+02  0.51100000000E-03 0.  1.
         12    1    3    3    0    0  0.11675998430E+02 -0.26748068092E+01 -0.14258996849E+02  0.18622634667E+02  0.00000000000E+00 0. -1.
</event>
<event>
 7    1  0.1161807E-013  0.5052884E+02  0.7816164E-02  0.1300439E+00
        -11   -1    0    0    0    0  0.00000000000E+00  0.00000000000E+00  0.45593999997E+02  0.45594000000E+02  0.51100000000E-03 0.  1.
         11   -1    0    0    0    0 -0.00000000000E+00 -0.00000000000E+00 -0.45593999997E+02  0.45594000000E+02  0.51100000000E-03 0. -1.
    9900012    2    1    2    0    0 -0.39595505459E+01  0.33665769646E+02 -0.22452292331E+02  0.50528837228E+02  0.29999931238E+02 0.  0.
         12    1    1    2    0    0  0.39595505459E+01 -0.33665769646E+02  0.22452292331E+02  0.40659162772E+02  0.00000000000E+00 0. -1.
         11    1    3    3    0    0  0.36503089448E+01  0.75634999891E+01  0.33683233536E+01  0.90485849696E+01  0.51100000000E-03 0.  1.
        -11    1    3    3    0    0 -0.11888207953E+02  0.15464668172E+02 -0.99388159816E+01  0.21892133596E+02  0.51100000000E-03 0. -1.
         12    1    3    3    0    0  0.42783484627E+01  0.10637601485E+02 -0.15881799703E+02  0.19588118662E+02  0.00000000000E+00 0. -1.
</event>
<event>
 7    1  0.1161807E-013  0.5052886E+02  0.7816164E-02  0.1300439E+00
        -11   -1    0    0    0    0  0.00000000000E+00  0.00000000000E+00  0.45593999997E+02  0.45594000000E+02  0.51100000000E-03 0. -1.
         11   -1    0    0    0    0 -0.00000000000E+00 -0.00000000000E+00 -0.45593999997E+02  0.45594000000E+02  0.51100000000E-03 0.  1.
    9900012    2    1    2    0    0 -0.24864271876E+02  0.18618743049E+02 -0.26235014493E+02  0.50528860878E+02  0.30000003126E+02 0.  0.
         12    1    1    2    0    0  0.24864271876E+02 -0.18618743049E+02  0.26235014493E+02  0.40659139122E+02  0.00000000000E+00 0. -1.
         11    1    3    3    0    0 -0.14371560260E+02  0.58390200607E+01 -0.86448317158E+01  0.17758632133E+02  0.51100000000E-03 0. -1.
        -11    1    3    3    0    0 -0.15780140775E+02  0.14986104383E+02 -0.12443101959E+02  0.25068445386E+02  0.51100000000E-03 0.  1.
         12    1    3    3    0    0  0.52874291587E+01 -0.22063813947E+01 -0.51470808186E+01  0.77017833598E+01  0.00000000000E+00 0. -1.
</event>
<event>
 7    1  0.1161807E-013  0.5052883E+02  0.7816164E-02  0.1300439E+00
        -11   -1    0    0    0    0  0.00000000000E+00  0.00000000000E+00  0.45593999997E+02  0.45594000000E+02  0.51100000000E-03 0. -1.
         11   -1    0    0    0    0 -0.00000000000E+00 -0.00000000000E+00 -0.45593999997E+02  0.45594000000E+02  0.51100000000E-03 0.  1.
    9900012    2    1    2    0    0  0.27525283360E+02  0.13231027289E+02 -0.26841517195E+02  0.50528826958E+02  0.29999900021E+02 0.  0.
         12    1    1    2    0    0 -0.27525283360E+02 -0.13231027289E+02  0.26841517195E+02  0.40659173042E+02  0.00000000000E+00 0. -1.
         11    1    3    3    0    0  0.19606856225E+02  0.99120558102E+01 -0.47801161429E+01  0.22483931418E+02  0.51100000000E-03 0. -1.
        -11    1    3    3    0    0  0.35064209969E+00  0.30548925106E+01  0.14095641280E+01  0.33826305482E+01  0.51100000000E-03 0.  1.
        -12    1    3    3    0    0  0.75677850347E+01  0.26407896855E+00 -0.23470965180E+02  0.24662264991E+02  0.00000000000E+00 0.  1.
</event>
<event>
 7    1  0.1161807E-013  0.5052886E+02  0.7816164E-02  0.1300439E+00
        -11   -1    0    0    0    0  0.00000000000E+00  0.00000000000E+00  0.45593999997E+02  0.45594000000E+02  0.51100000000E-03 0. -1.
         11   -1    0    0    0    0 -0.00000000000E+00 -0.00000000000E+00 -0.45593999997E+02  0.45594000000E+02  0.51100000000E-03 0.  1.
    9900012    2    1    2    0    0  0.12503182834E+01  0.36951085729E+02 -0.16918025504E+02  0.50528860568E+02  0.30000002183E+02 0.  0.
         12    1    1    2    0    0 -0.12503182834E+01 -0.36951085729E+02  0.16918025504E+02  0.40659139432E+02  0.00000000000E+00 0. -1.
         11    1    3    3    0    0 -0.30312523430E+01 -0.33770636956E+01 -0.31129273112E+01  0.55030324983E+01  0.51100000000E-03 0. -1.
        -11    1    3    3    0    0  0.31192012302E+01  0.87547029152E+00 -0.20851418841E+01  0.38527498600E+01  0.51100000000E-03 0.  1.
        -12    1    3    3    0    0  0.11623693961E+01  0.39452679133E+02 -0.11719956309E+02  0.41173078210E+02  0.00000000000E+00 0.  1.
</event>
<event>
 7    1  0.1161807E-013  0.5052885E+02  0.7816164E-02  0.1300439E+00
        -11   -1    0    0    0    0  0.00000000000E+00  0.00000000000E+00  0.45593999997E+02  0.45594000000E+02  0.51100000000E-03 0. -1.
         11   -1    0    0    0    0 -0.00000000000E+00 -0.00000000000E+00 -0.45593999997E+02  0.45594000000E+02  0.51100000000E-03 0.  1.
    9900012    2    1    2    0    0 -0.16529232021E+02 -0.27147408430E+02 -0.25356829147E+02  0.50528854903E+02  0.29999984962E+02 0.  0.
         12    1    1    2    0    0  0.16529232021E+02  0.27147408430E+02  0.25356829147E+02  0.40659145097E+02  0.00000000000E+00 0. -1.
         11    1    3    3    0    0 -0.11857906923E+02 -0.50523497242E+01 -0.10560189337E+02  0.16662946721E+02  0.51100000000E-03 0. -1.
        -11    1    3    3    0    0 -0.54456638970E+01  0.16659330382E+01 -0.66039350718E+01  0.87202377755E+01  0.51100000000E-03 0.  1.
        -12    1    3    3    0    0  0.77433879962E+00 -0.23760991744E+02 -0.81927047379E+01  0.25145670406E+02  0.00000000000E+00 0.  1.
</event>
<event>
 7    1  0.1161807E-013  0.5052886E+02  0.7816164E-02  0.1300439E+00
        -11   -1    0    0    0    0  0.00000000000E+00  0.00000000000E+00  0.45593999997E+02  0.45594000000E+02  0.51100000000E-03 0. -1.
         11   -1    0    0    0    0 -0.00000000000E+00 -0.00000000000E+00 -0.45593999997E+02  0.45594000000E+02  0.51100000000E-03 0.  1.
    9900012    2    1    2    0    0  0.32587342979E+02 -0.21389713144E+02 -0.11563356073E+02  0.50528856447E+02  0.29999989655E+02 0.  0.
         12    1    1    2    0    0 -0.32587342979E+02  0.21389713144E+02  0.11563356073E+02  0.40659143553E+02  0.00000000000E+00 0. -1.
         11    1    3    3    0    0  0.27042594355E+02 -0.12824489060E+02 -0.66766635296E+01  0.30665082183E+02  0.51100000000E-03 0. -1.
        -11    1    3    3    0    0  0.87645377748E+01  0.13034874646E+01 -0.25955492701E+01  0.92332593514E+01  0.51100000000E-03 0.  1.
         12    1    3    3    0    0 -0.32197891510E+01 -0.98687115484E+01 -0.22911432735E+01  0.10630514912E+02  0.00000000000E+00 0. -1.
</event>
<event>
 7    1  0.1161807E-013  0.5052886E+02  0.7816164E-02  0.1300439E+00
        -11   -1    0    0    0    0  0.00000000000E+00  0.00000000000E+00  0.45593999997E+02  0.45594000000E+02  0.51100000000E-03 0. -1.
         11   -1    0    0    0    0 -0.00000000000E+00 -0.00000000000E+00 -0.45593999997E+02  0.45594000000E+02  0.51100000000E-03 0.  1.
    9900012    2    1    2    0    0  0.32233992526E+01 -0.96666104293E+01 -0.39361553000E+02  0.50528861857E+02  0.30000006101E+02 0.  0.
         12    1    1    2    0    0 -0.32233992526E+01  0.96666104293E+01  0.39361553000E+02  0.40659138143E+02  0.00000000000E+00 0. -1.
         11    1    3    3    0    0  0.26221006073E+01 -0.88998248852E+00 -0.87802834147E-01  0.27704133308E+01  0.51100000000E-03 0. -1.
        -11    1    3    3    0    0 -0.87490188201E+01  0.19414712533E+01 -0.41737700980E+01  0.98861012555E+01  0.51100000000E-03 0.  1.
        -12    1    3    3    0    0  0.93503174654E+01 -0.10718099194E+02 -0.35099980068E+02  0.37872347271E+02  0.00000000000E+00 0.  1.
</event>
<event>
 7    1  0.1161807E-013  0.5052887E+02  0.7816164E-02  0.1300439E+00
        -11   -1    0    0    0    0  0.00000000000E+00  0.00000000000E+00  0.45593999997E+02  0.45594000000E+02  0.51100000000E-03 0.  1.
         11   -1    0    0    0    0 -0.00000000000E+00 -0.00000000000E+00 -0.45593999997E+02  0.45594000000E+02  0.51100000000E-03 0. -1.
    9900012    2    1    2    0    0  0.33419094507E+02 -0.19891322294E+02  0.11860212632E+02  0.50528865430E+02  0.30000016961E+02 0.  0.
        -12    1    1    2    0    0 -0.33419094507E+02  0.19891322294E+02 -0.11860212632E+02  0.40659134570E+02  0.00000000000E+00 0.  1.
         11    1    3    3    0    0  0.42001736337E+01  0.17418269170E+01 -0.34207274785E+01  0.56900611864E+01  0.51100000000E-03 0. -1.
        -11    1    3    3    0    0  0.39284001988E+01  0.19448019844E+01 -0.33918121007E+01  0.55424698888E+01  0.51100000000E-03 0.  1.
        -12    1    3    3    0    0  0.25290520675E+02 -0.23577951196E+02  0.18672752211E+02  0.39296334355E+02  0.00000000000E+00 0.  1.
</event>
<event>
 7    1  0.1161807E-013  0.5052886E+02  0.7816164E-02  0.1300439E+00
        -11   -1    0    0    0    0  0.00000000000E+00  0.00000000000E+00  0.45593999997E+02  0.45594000000E+02  0.51100000000E-03 0. -1.
         11   -1    0    0    0    0 -0.00000000000E+00 -0.00000000000E+00 -0.45593999997E+02  0.45594000000E+02  0.51100000000E-03 0.  1.
    9900012    2    1    2    0    0  0.27105786517E+01  0.17312833397E+02  0.36689021179E+02  0.50528859430E+02  0.29999998722E+02 0.  0.
        -12    1    1    2    0    0 -0.27105786517E+01 -0.17312833397E+02 -0.36689021179E+02  0.40659140570E+02  0.00000000000E+00 0.  1.
         11    1    3    3    0    0  0.14662959895E+01  0.25150759060E+01  0.17991367979E+02  0.18225393076E+02  0.51100000000E-03 0. -1.
        -11    1    3    3    0    0 -0.94690933913E+01  0.24187212248E+01  0.89376744706E+01  0.13243714253E+02  0.51100000000E-03 0.  1.
        -12    1    3    3    0    0  0.10713376054E+02  0.12379036266E+02  0.97599787288E+01  0.19059752100E+02  0.00000000000E+00 0.  1.
</event>
<event>
 7    1  0.1161807E-013  0.5052886E+02  0.7816164E-02  0.1300439E+00
        -11   -1    0    0    0    0  0.00000000000E+00  0.00000000000E+00  0.45593999997E+02  0.45594000000E+02  0.51100000000E-03 0. -1.
         11   -1    0    0    0    0 -0.00000000000E+00 -0.00000000000E+00 -0.45593999997E+02  0.45594000000E+02  0.51100000000E-03 0.  1.
    9900012    2    1    2    0    0  0.27730852800E+01  0.78774527488E+01  0.39792226998E+02  0.50528860889E+02  0.30000003160E+02 0.  0.
        -12    1    1    2    0    0 -0.27730852800E+01 -0.78774527488E+01 -0.39792226998E+02  0.40659139111E+02  0.00000000000E+00 0.  1.
         11    1    3    3    0    0  0.14390129482E+00  0.54064702073E+01  0.84585911995E+01  0.10039840289E+02  0.51100000000E-03 0. -1.
        -11    1    3    3    0    0  0.88525665738E+01  0.48754584777E+01  0.32211556999E+02  0.33759775397E+02  0.51100000000E-03 0.  1.
        -12    1    3    3    0    0 -0.62233825886E+01 -0.24044759362E+01 -0.87792120088E+00  0.67292452033E+01  0.00000000000E+00 0.  1.
</event>
<event>
 7    1  0.1161807E-013  0.5052886E+02  0.7816164E-02  0.1300439E+00
        -11   -1    0    0    0    0  0.00000000000E+00  0.00000000000E+00  0.45593999997E+02  0.45594000000E+02  0.51100000000E-03 0. -1.
         11   -1    0    0    0    0 -0.00000000000E+00 -0.00000000000E+00 -0.45593999997E+02  0.45594000000E+02  0.51100000000E-03 0.  1.
    9900012    2    1    2    0    0 -0.21489958198E+02 -0.12401727576E+02  0.32210933952E+02  0.50528863066E+02  0.30000009774E+02 0.  0.
        -12    1    1    2    0    0  0.21489958198E+02  0.12401727576E+02 -0.32210933952E+02  0.40659136934E+02  0.00000000000E+00 0.  1.
         11    1    3    3    0    0 -0.72458760374E+01  0.79583848827E+01  0.11352369386E+02  0.15643366020E+02  0.51100000000E-03 0. -1.
        -11    1    3    3    0    0 -0.15069173178E+02 -0.14898780716E+02  0.20280941798E+02  0.29332068586E+02  0.51100000000E-03 0.  1.
        -12    1    3    3    0    0  0.82509101742E+00 -0.54613317432E+01  0.57762276819E+00  0.55534284599E+01  0.00000000000E+00 0.  1.
</event>
<event>
 7    1  0.1161807E-013  0.5052888E+02  0.7816164E-02  0.1300439E+00
        -11   -1    0    0    0    0  0.00000000000E+00  0.00000000000E+00  0.45593999997E+02  0.45594000000E+02  0.51100000000E-03 0.  1.
         11   -1    0    0    0    0 -0.00000000000E+00 -0.00000000000E+00 -0.45593999997E+02  0.45594000000E+02  0.51100000000E-03 0. -1.
    9900012    2    1    2    0    0  0.25905395071E+02  0.16918578152E+02 -0.26378709938E+02  0.50528879025E+02  0.30000058285E+02 0.  0.
         12    1    1    2    0    0 -0.25905395071E+02 -0.16918578152E+02  0.26378709938E+02  0.40659120975E+02  0.00000000000E+00 0. -1.
         11    1    3    3    0    0  0.20206622512E+01 -0.13337017670E+00 -0.56902515510E+01  0.60398531863E+01  0.51100000000E-03 0. -1.
        -11    1    3    3    0    0  0.22513729459E+02  0.14077529151E+02 -0.26692259406E+02  0.37649987432E+02  0.51100000000E-03 0.  1.
        -12    1    3    3    0    0  0.13710033601E+01  0.29744191772E+01  0.60038010188E+01  0.68390384067E+01  0.00000000000E+00 0.  1.
</event>
<event>
 7    1  0.1161807E-013  0.5052886E+02  0.7816164E-02  0.1300439E+00
        -11   -1    0    0    0    0  0.00000000000E+00  0.00000000000E+00  0.45593999997E+02  0.45594000000E+02  0.51100000000E-03 0. -1.
         11   -1    0    0    0    0 -0.00000000000E+00 -0.00000000000E+00 -0.45593999997E+02  0.45594000000E+02  0.51100000000E-03 0.  1.
    9900012    2    1    2    0    0  0.18206152625E+02 -0.24879563485E+02 -0.26508663092E+02  0.50528857220E+02  0.29999992007E+02 0.  0.
         12    1    1    2    0    0 -0.18206152625E+02  0.24879563485E+02  0.26508663092E+02  0.40659142780E+02  0.00000000000E+00 0. -1.
         11    1    3    3    0    0  0.78215060313E+01  0.13462459942E+01 -0.12123712022E+02  0.14490435754E+02  0.51100000000E-03 0. -1.
        -11    1    3    3    0    0  0.14580212134E+02 -0.14466452665E+02 -0.83620133564E+01  0.22176205857E+02  0.51100000000E-03 0.  1.
        -12    1    3    3    0    0 -0.41955655406E+01 -0.11759356814E+02 -0.60229377136E+01  0.13862215609E+02  0.00000000000E+00 0.  1.
</event>
<event>
 7    1  0.1161807E-013  0.5052886E+02  0.7816164E-02  0.1300439E+00
        -11   -1    0    0    0    0  0.00000000000E+00  0.00000000000E+00  0.45593999997E+02  0.45594000000E+02  0.51100000000E-03 0. -1.
         11   -1    0    0    0    0 -0.00000000000E+00 -0.00000000000E+00 -0.45593999997E+02  0.45594000000E+02  0.51100000000E-03 0.  1.
    9900012    2    1    2    0    0  0.17330731295E+02 -0.33653459531E+02  0.14841021843E+02  0.50528861852E+02  0.30000006084E+02 0.  0.
        -12    1    1    2    0    0 -0.17330731295E+02  0.33653459531E+02 -0.14841021843E+02  0.40659138148E+02  0.00000000000E+00 0.  1.
         11    1    3    3    0    0 -0.38039206688E+01 -0.54553400471E+01  0.54454397843E+01  0.85955431585E+01  0.51100000000E-03 0. -1.
        -11    1    3    3    0    0  0.16712207695E+02 -0.19609419111E+02 -0.33053017258E+01  0.25975993218E+02  0.51100000000E-03 0.  1.
         12    1    3    3    0    0  0.44224442696E+01 -0.85887003729E+01  0.12700883785E+02  0.15957325475E+02  0.00000000000E+00 0. -1.
</event>
<event>
 7    1  0.1161807E-013  0.5052887E+02  0.7816164E-02  0.1300439E+00
        -11   -1    0    0    0    0  0.00000000000E+00  0.00000000000E+00  0.45593999997E+02  0.45594000000E+02  0.51100000000E-03 0.  1.
         11   -1    0    0    0    0 -0.00000000000E+00 -0.00000000000E+00 -0.45593999997E+02  0.45594000000E+02  0.51100000000E-03 0. -1.
    9900012    2    1    2    0    0 -0.88400927773E+01 -0.28599562157E+02 -0.27515129438E+02  0.50528873794E+02  0.30000042383E+02 0.  0.
         12    1    1    2    0    0  0.88400927773E+01  0.28599562157E+02  0.27515129438E+02  0.40659126206E+02  0.00000000000E+00 0. -1.
         11    1    3    3    0    0 -0.50340813912E+01 -0.23732533949E+02 -0.15719457315E+02  0.28908069490E+02  0.51100000000E-03 0. -1.
        -11    1    3    3    0    0  0.32564015882E+01 -0.56686306793E+01 -0.12867244191E+02  0.14432723180E+02  0.51100000000E-03 0.  1.
         12    1    3    3    0    0 -0.70624129744E+01  0.80160247089E+00  0.10715720677E+01  0.71880811235E+01  0.00000000000E+00 0. -1.
</event>
<event>
 7    1  0.1161807E-013  0.5052884E+02  0.7816164E-02  0.1300439E+00
        -11   -1    0    0    0    0  0.00000000000E+00  0.00000000000E+00  0.45593999997E+02  0.45594000000E+02  0.51100000000E-03 0. -1.
         11   -1    0    0    0    0 -0.00000000000E+00 -0.00000000000E+00 -0.45593999997E+02  0.45594000000E+02  0.51100000000E-03 0.  1.
    9900012    2    1    2    0    0 -0.21456481823E+01  0.44174958105E+01 -0.40361481074E+02  0.50528840763E+02  0.29999941984E+02 0.  0.
         12    1    1    2    0    0  0.21456481823E+01 -0.44174958105E+01  0.40361481074E+02  0.40659159237E+02  0.00000000000E+00 0. -1.
         11    1    3    3    0    0 -0.56457386600E+01 -0.25773436078E+01 -0.23124445262E+02  0.23942786681E+02  0.51100000000E-03 0. -1.
        -11    1    3    3    0    0 -0.74157601636E+01  0.29535127204E+00 -0.67622780924E+01  0.10040375314E+02  0.51100000000E-03 0.  1.
        -12    1    3    3    0    0  0.10915850641E+02  0.66994881462E+01 -0.10474757719E+02  0.16545678769E+02  0.00000000000E+00 0.  1.
</event>
<event>
 7    1  0.1161807E-013  0.5052886E+02  0.7816164E-02  0.1300439E+00
        -11   -1    0    0    0    0  0.00000000000E+00  0.00000000000E+00  0.45593999997E+02  0.45594000000E+02  0.51100000000E-03 0. -1.
         11   -1    0    0    0    0 -0.00000000000E+00 -0.00000000000E+00 -0.45593999997E+02  0.45594000000E+02  0.51100000000E-03 0.  1.
    9900012    2    1    2    0    0 -0.26834007068E+02  0.22037748679E+01  0.30467114904E+02  0.50528860197E+02  0.30000001054E+02 0.  0.
        -12    1    1    2    0    0  0.26834007068E+02 -0.22037748679E+01 -0.30467114904E+02  0.40659139803E+02  0.00000000000E+00 0.  1.
         11    1    3    3    0    0  0.33365258410E+00 -0.11212234879E+01  0.11001090533E+02  0.11063112551E+02  0.51100000000E-03 0. -1.
        -11    1    3    3    0    0 -0.29547963762E+00 -0.58631810134E+01  0.42430977540E+01  0.72434852539E+01  0.51100000000E-03 0.  1.
        -12    1    3    3    0    0 -0.26872180014E+02  0.91881793692E+01  0.15222926617E+02  0.32222262392E+02  0.00000000000E+00 0.  1.
</event>
<event>
 7    1  0.1161807E-013  0.5052886E+02  0.7816164E-02  0.1300439E+00
        -11   -1    0    0    0    0  0.00000000000E+00  0.00000000000E+00  0.45593999997E+02  0.45594000000E+02  0.51100000000E-03 0. -1.
         11   -1    0    0    0    0 -0.00000000000E+00 -0.00000000000E+00 -0.45593999997E+02  0.45594000000E+02  0.51100000000E-03 0.  1.
    9900012    2    1    2    0    0  0.10024077396E+02 -0.13881554267E+02 -0.36877988999E+02  0.50528858973E+02  0.29999997333E+02 0.  0.
         12    1    1    2    0    0 -0.10024077396E+02  0.13881554267E+02  0.36877988999E+02  0.40659141027E+02  0.00000000000E+00 0. -1.
         11    1    3    3    0    0  0.43641887481E+01 -0.41319361605E+01 -0.39659078576E+01  0.72005184022E+01  0.51100000000E-03 0. -1.
        -11    1    3    3    0    0  0.81905169476E+01  0.58778979093E+01 -0.50327787184E+01  0.11267790981E+02  0.51100000000E-03 0.  1.
        -12    1    3    3    0    0 -0.25306282995E+01 -0.15627516016E+02 -0.27879302423E+02  0.32060549589E+02  0.00000000000E+00 0.  1.
</event>
<event>
 7    1  0.1161807E-013  0.5052885E+02  0.7816164E-02  0.1300439E+00
        -11   -1    0    0    0    0  0.00000000000E+00  0.00000000000E+00  0.45593999997E+02  0.45594000000E+02  0.51100000000E-03 0.  1.
         11   -1    0    0    0    0 -0.00000000000E+00 -0.00000000000E+00 -0.45593999997E+02  0.45594000000E+02  0.51100000000E-03 0. -1.
    9900012    2    1    2    0    0 -0.32499756030E+02  0.24314537098E+02 -0.23948806131E+01  0.50528852082E+02  0.29999976387E+02 0.  0.
         12    1    1    2    0    0  0.32499756030E+02 -0.24314537098E+02  0.23948806131E+01  0.40659147918E+02  0.00000000000E+00 0. -1.
         11    1    3    3    0    0 -0.86357129792E+01  0.22527882006E+01  0.14985022969E+01  0.90496465528E+01  0.51100000000E-03 0. -1.
        -11    1    3    3    0    0 -0.17136964082E+02  0.14646138332E+02  0.97459639953E+01  0.24559493489E+02  0.51100000000E-03 0.  1.
         12    1    3    3    0    0 -0.67270789690E+01  0.74156105652E+01 -0.13639346905E+02  0.16919712040E+02  0.00000000000E+00 0. -1.
</event>
<event>
 7    1  0.1161807E-013  0.5052885E+02  0.7816164E-02  0.1300439E+00
        -11   -1    0    0    0    0  0.00000000000E+00  0.00000000000E+00  0.45593999997E+02  0.45594000000E+02  0.51100000000E-03 0. -1.
         11   -1    0    0    0    0 -0.00000000000E+00 -0.00000000000E+00 -0.45593999997E+02  0.45594000000E+02  0.51100000000E-03 0.  1.
    9900012    2    1    2    0    0  0.12847195212E+02 -0.14651490625E+02  0.35685435163E+02  0.50528845002E+02  0.29999954870E+02 0.  0.
        -12    1    1    2    0    0 -0.12847195212E+02  0.14651490625E+02 -0.35685435163E+02  0.40659154998E+02  0.00000000000E+00 0.  1.
         11    1    3    3    0    0  0.37368424483E+01 -0.16984630953E+02  0.14925304808E+02  0.22917382136E+02  0.51100000000E-03 0. -1.
        -11    1    3    3    0    0 -0.41059513722E+01  0.16967935778E+01  0.84116727607E+01  0.95128431087E+01  0.51100000000E-03 0.  1.
         12    1    3    3    0    0  0.13216304136E+02  0.63634674962E+00  0.12348457594E+02  0.18098619758E+02  0.00000000000E+00 0. -1.
</event>
<event>
 7    1  0.1631064E-013  0.5052894E+02  0.7816164E-02  0.1300439E+00
        -11   -1    0    0    0    0  0.00000000000E+00  0.00000000000E+00  0.45593999997E+02  0.45594000000E+02  0.51100000000E-03 0. -1.
         11   -1    0    0    0    0 -0.00000000000E+00 -0.00000000000E+00 -0.45593999997E+02  0.45594000000E+02  0.51100000000E-03 0.  1.
    9900012    2    1    2    0    0 -0.28744055987E+02  0.12047522455E+02 -0.26111218819E+02  0.50528938278E+02  0.30000238390E+02 0.  0.
         12    1    1    2    0    0  0.28744055987E+02 -0.12047522455E+02  0.26111218819E+02  0.40659061722E+02  0.00000000000E+00 0. -1.
         11    1    3    3    0    0  0.71552318035E+00  0.24577728179E+01  0.22898240287E+01  0.34345181597E+01  0.51100000000E-03 0. -1.
        -11    1    3    3    0    0 -0.95751862097E+01  0.31530122301E+01  0.19257560623E+01  0.10263245770E+02  0.51100000000E-03 0.  1.
        -12    1    3    3    0    0 -0.19884392958E+02  0.64367374072E+01 -0.30326798910E+02  0.36831174348E+02  0.00000000000E+00 0.  1.
</event>
<event>
 7    1  0.1161807E-013  0.5052886E+02  0.7816164E-02  0.1300439E+00
        -11   -1    0    0    0    0  0.00000000000E+00  0.00000000000E+00  0.45593999997E+02  0.45594000000E+02  0.51100000000E-03 0. -1.
         11   -1    0    0    0    0 -0.00000000000E+00 -0.00000000000E+00 -0.45593999997E+02  0.45594000000E+02  0.51100000000E-03 0.  1.
    9900012    2    1    2    0    0  0.23963206258E+02  0.26515081589E+02  0.19387650296E+02  0.50528858471E+02  0.29999995810E+02 0.  0.
        -12    1    1    2    0    0 -0.23963206258E+02 -0.26515081589E+02 -0.19387650296E+02  0.40659141529E+02  0.00000000000E+00 0.  1.
         11    1    3    3    0    0  0.91372557204E+01  0.13453992300E+02 -0.14426396633E+01  0.16327294949E+02  0.51100000000E-03 0. -1.
        -11    1    3    3    0    0  0.12224731750E+02  0.37404288241E+01  0.18774841181E+01  0.12921293318E+02  0.51100000000E-03 0.  1.
         12    1    3    3    0    0  0.26012187877E+01  0.93206604654E+01  0.18952805841E+02  0.21280270204E+02  0.00000000000E+00 0. -1.
</event>
<event>
 7    1  0.1161807E-013  0.5052888E+02  0.7816164E-02  0.1300439E+00
        -11   -1    0    0    0    0  0.00000000000E+00  0.00000000000E+00  0.45593999997E+02  0.45594000000E+02  0.51100000000E-03 0. -1.
         11   -1    0    0    0    0 -0.00000000000E+00 -0.00000000000E+00 -0.45593999997E+02  0.45594000000E+02  0.51100000000E-03 0.  1.
    9900012    2    1    2    0    0  0.15971413524E+02 -0.13156824819E+02 -0.34999662054E+02  0.50528875155E+02  0.30000046520E+02 0.  0.
         12    1    1    2    0    0 -0.15971413524E+02  0.13156824819E+02  0.34999662054E+02  0.40659124845E+02  0.00000000000E+00 0. -1.
         11    1    3    3    0    0  0.10634010800E+02  0.38227143477E+00 -0.93994232148E+01  0.14197798215E+02  0.51100000000E-03 0. -1.
        -11    1    3    3    0    0  0.99488130762E+01 -0.78487513606E+00 -0.38452965386E+01  0.10694915443E+02  0.51100000000E-03 0.  1.
         12    1    3    3    0    0 -0.46114103517E+01 -0.12754221118E+02 -0.21754942301E+02  0.25636161496E+02  0.00000000000E+00 0. -1.
</event>
<event>
 7    1  0.1161807E-013  0.5052886E+02  0.7816164E-02  0.1300439E+00
        -11   -1    0    0    0    0  0.00000000000E+00  0.00000000000E+00  0.45593999997E+02  0.45594000000E+02  0.51100000000E-03 0. -1.
         11   -1    0    0    0    0 -0.00000000000E+00 -0.00000000000E+00 -0.45593999997E+02  0.45594000000E+02  0.51100000000E-03 0.  1.
    9900012    2    1    2    0    0  0.32490607608E+02 -0.15796233439E+02  0.18654902709E+02  0.50528856272E+02  0.29999989124E+02 0.  0.
        -12    1    1    2    0    0 -0.32490607608E+02  0.15796233439E+02 -0.18654902709E+02  0.40659143728E+02  0.00000000000E+00 0.  1.
         11    1    3    3    0    0  0.21807111644E+02 -0.10139944152E+02  0.13546104346E+02  0.27601911689E+02  0.51100000000E-03 0. -1.
        -11    1    3    3    0    0  0.17406540558E+01  0.80954159624E+00  0.10479565724E+02  0.10653944442E+02  0.51100000000E-03 0.  1.
        -12    1    3    3    0    0  0.89428419080E+01 -0.64658308837E+01 -0.53707673612E+01  0.12273000141E+02  0.00000000000E+00 0.  1.
</event>
<event>
 7    1  0.1161807E-013  0.5052886E+02  0.7816164E-02  0.1300439E+00
        -11   -1    0    0    0    0  0.00000000000E+00  0.00000000000E+00  0.45593999997E+02  0.45594000000E+02  0.51100000000E-03 0. -1.
         11   -1    0    0    0    0 -0.00000000000E+00 -0.00000000000E+00 -0.45593999997E+02  0.45594000000E+02  0.51100000000E-03 0.  1.
    9900012    2    1    2    0    0 -0.48325541112E+01 -0.35975521134E+01 -0.40210321288E+02  0.50528857135E+02  0.29999991748E+02 0.  0.
         12    1    1    2    0    0  0.48325541112E+01  0.35975521134E+01  0.40210321288E+02  0.40659142865E+02  0.00000000000E+00 0. -1.
         11    1    3    3    0    0  0.42773058870E+01 -0.28564872446E+00 -0.25089671201E+02  0.25453261914E+02  0.51100000000E-03 0. -1.
        -11    1    3    3    0    0 -0.47765486677E+01 -0.96913262677E+00 -0.18480776307E+02  0.19112658852E+02  0.51100000000E-03 0.  1.
        -12    1    3    3    0    0 -0.43333113304E+01 -0.23427707622E+01  0.33601262199E+01  0.59629363692E+01  0.00000000000E+00 0.  1.
</event>
<event>
 7    1  0.1161807E-013  0.5052885E+02  0.7816164E-02  0.1300439E+00
        -11   -1    0    0    0    0  0.00000000000E+00  0.00000000000E+00  0.45593999997E+02  0.45594000000E+02  0.51100000000E-03 0. -1.
         11   -1    0    0    0    0 -0.00000000000E+00 -0.00000000000E+00 -0.45593999997E+02  0.45594000000E+02  0.51100000000E-03 0.  1.
    9900012    2    1    2    0    0 -0.57490886510E+01  0.12246823215E+02  0.38342273754E+02  0.50528847823E+02  0.29999963442E+02 0.  0.
        -12    1    1    2    0    0  0.57490886510E+01 -0.12246823215E+02 -0.38342273754E+02  0.40659152177E+02  0.00000000000E+00 0.  1.
         11    1    3    3    0    0  0.38983170133E+01 -0.33382665196E+01  0.78101850674E+01  0.93455813056E+01  0.51100000000E-03 0. -1.
        -11    1    3    3    0    0  0.19938269863E+01  0.12090941248E+01 -0.24409638903E+01  0.33757309770E+01  0.51100000000E-03 0.  1.
         12    1    3    3    0    0 -0.11641232651E+02  0.14375995610E+02  0.32973052577E+02  0.37807535540E+02  0.00000000000E+00 0. -1.
</event>
<event>
 7    1  0.1161807E-013  0.5052885E+02  0.7816164E-02  0.1300439E+00
        -11   -1    0    0    0    0  0.00000000000E+00  0.00000000000E+00  0.45593999997E+02  0.45594000000E+02  0.51100000000E-03 0. -1.
         11   -1    0    0    0    0 -0.00000000000E+00 -0.00000000000E+00 -0.45593999997E+02  0.45594000000E+02  0.51100000000E-03 0.  1.
    9900012    2    1    2    0    0 -0.71163092530E+01 -0.28702625533E+02  0.27904908333E+02  0.50528849998E+02  0.29999970052E+02 0.  0.
        -12    1    1    2    0    0  0.71163092530E+01  0.28702625533E+02 -0.27904908333E+02  0.40659150002E+02  0.00000000000E+00 0.  1.
         11    1    3    3    0    0 -0.12160991993E+02 -0.11161594960E+02  0.63102676695E+01  0.17671740339E+02  0.51100000000E-03 0. -1.
        -11    1    3    3    0    0 -0.43754802898E+01 -0.56614177996E+01  0.91254400454E+00  0.72131280378E+01  0.51100000000E-03 0.  1.
         12    1    3    3    0    0  0.94201630296E+01 -0.11879612773E+02  0.20682096659E+02  0.25643981621E+02  0.00000000000E+00 0. -1.
</event>
<event>
 7    1  0.1161807E-013  0.5052886E+02  0.7816164E-02  0.1300439E+00
        -11   -1    0    0    0    0  0.00000000000E+00  0.00000000000E+00  0.45593999997E+02  0.45594000000E+02  0.51100000000E-03 0. -1.
         11   -1    0    0    0    0 -0.00000000000E+00 -0.00000000000E+00 -0.45593999997E+02  0.45594000000E+02  0.51100000000E-03 0.  1.
    9900012    2    1    2    0    0 -0.14106310992E+02  0.15487734855E+02 -0.34846917789E+02  0.50528860558E+02  0.30000002152E+02 0.  0.
         12    1    1    2    0    0  0.14106310992E+02 -0.15487734855E+02  0.34846917789E+02  0.40659139442E+02  0.00000000000E+00 0. -1.
         11    1    3    3    0    0 -0.87002245926E+01 -0.11865753871E+01 -0.46905091469E+01  0.99550361842E+01  0.51100000000E-03 0. -1.
        -11    1    3    3    0    0  0.59511744002E+01  0.29573489112E+01 -0.14652044029E+01  0.68050873269E+01  0.51100000000E-03 0.  1.
        -12    1    3    3    0    0 -0.11357260799E+02  0.13716961331E+02 -0.28691204240E+02  0.33768737047E+02  0.00000000000E+00 0.  1.
</event>
<event>
 7    1  0.1161807E-013  0.5052872E+02  0.7816164E-02  0.1300439E+00
        -11   -1    0    0    0    0  0.00000000000E+00  0.00000000000E+00  0.45593999997E+02  0.45594000000E+02  0.51100000000E-03 0.  1.
         11   -1    0    0    0    0 -0.00000000000E+00 -0.00000000000E+00 -0.45593999997E+02  0.45594000000E+02  0.51100000000E-03 0. -1.
    9900012    2    1    2    0    0 -0.21497177290E+02 -0.29876622557E+02 -0.17275284971E+02  0.50528724580E+02  0.29999588832E+02 0.  0.
         12    1    1    2    0    0  0.21497177290E+02  0.29876622557E+02  0.17275284971E+02  0.40659275420E+02  0.00000000000E+00 0. -1.
         11    1    3    3    0    0 -0.94230691656E+01 -0.52723266548E+01 -0.17585810899E+02  0.20636191656E+02  0.51100000000E-03 0. -1.
        -11    1    3    3    0    0  0.49970987886E+00  0.11286865408E+01  0.20756746933E+00  0.12516899720E+01  0.51100000000E-03 0.  1.
        -12    1    3    3    0    0 -0.12573818003E+02 -0.25732982442E+02  0.10295845823E+00  0.28640842952E+02  0.00000000000E+00 0.  1.
</event>
<event>
 7    1  0.1161807E-013  0.5052885E+02  0.7816164E-02  0.1300439E+00
        -11   -1    0    0    0    0  0.00000000000E+00  0.00000000000E+00  0.45593999997E+02  0.45594000000E+02  0.51100000000E-03 0. -1.
         11   -1    0    0    0    0 -0.00000000000E+00 -0.00000000000E+00 -0.45593999997E+02  0.45594000000E+02  0.51100000000E-03 0.  1.
    9900012    2    1    2    0    0  0.64336083441E+01  0.95808640640E+01  0.38986951688E+02  0.50528847593E+02  0.29999962742E+02 0.  0.
        -12    1    1    2    0    0 -0.64336083441E+01 -0.95808640640E+01 -0.38986951688E+02  0.40659152407E+02  0.00000000000E+00 0.  1.
         11    1    3    3    0    0  0.16064671510E+01  0.10233760352E+02  0.19433065366E+01  0.10539783119E+02  0.51100000000E-03 0. -1.
        -11    1    3    3    0    0 -0.36954113496E+01 -0.38255741571E+01  0.19705563688E+02  0.20410789382E+02  0.51100000000E-03 0.  1.
        -12    1    3    3    0    0  0.85225525427E+01  0.31726778695E+01  0.17338081464E+02  0.19578275092E+02  0.00000000000E+00 0.  1.
</event>
<event>
 7    1  0.1161807E-013  0.5052886E+02  0.7816164E-02  0.1300439E+00
        -11   -1    0    0    0    0  0.00000000000E+00  0.00000000000E+00  0.45593999997E+02  0.45594000000E+02  0.51100000000E-03 0. -1.
         11   -1    0    0    0    0 -0.00000000000E+00 -0.00000000000E+00 -0.45593999997E+02  0.45594000000E+02  0.51100000000E-03 0.  1.
    9900012    2    1    2    0    0 -0.38506365587E+02  0.39220420675E+01  0.12451618465E+02  0.50528863178E+02  0.30000010116E+02 0.  0.
        -12    1    1    2    0    0  0.38506365587E+02 -0.39220420675E+01 -0.12451618465E+02  0.40659136822E+02  0.00000000000E+00 0.  1.
         11    1    3    3    0    0 -0.18887833938E+02 -0.47657971702E+01  0.81350416080E+01  0.21110234384E+02  0.51100000000E-03 0. -1.
        -11    1    3    3    0    0 -0.14223456760E+02 -0.42024568048E+01  0.13250952420E+00  0.14831888768E+02  0.51100000000E-03 0.  1.
         12    1    3    3    0    0 -0.53950748897E+01  0.12890296043E+02  0.41840673326E+01  0.14586740026E+02  0.00000000000E+00 0. -1.
</event>
<event>
 7    1  0.1161807E-013  0.5052888E+02  0.7816164E-02  0.1300439E+00
        -11   -1    0    0    0    0  0.00000000000E+00  0.00000000000E+00  0.45593999997E+02  0.45594000000E+02  0.51100000000E-03 0. -1.
         11   -1    0    0    0    0 -0.00000000000E+00 -0.00000000000E+00 -0.45593999997E+02  0.45594000000E+02  0.51100000000E-03 0.  1.
    9900012    2    1    2    0    0  0.35399069519E+02  0.16528666942E+02 -0.11263781200E+02  0.50528883918E+02  0.30000073156E+02 0.  0.
         12    1    1    2    0    0 -0.35399069519E+02 -0.16528666942E+02  0.11263781200E+02  0.40659116082E+02  0.00000000000E+00 0. -1.
         11    1    3    3    0    0  0.29996135621E+01  0.47719109317E+01 -0.61981006478E+01  0.83776647917E+01  0.51100000000E-03 0. -1.
        -11    1    3    3    0    0  0.24540174554E+02 -0.31313557820E+01 -0.53613004396E+01  0.25313417368E+02  0.51100000000E-03 0.  1.
         12    1    3    3    0    0  0.78592814023E+01  0.14888111793E+02  0.29561988759E+00  0.16837801758E+02  0.00000000000E+00 0. -1.
</event>
<event>
 7    1  0.1161807E-013  0.5052886E+02  0.7816164E-02  0.1300439E+00
        -11   -1    0    0    0    0  0.00000000000E+00  0.00000000000E+00  0.45593999997E+02  0.45594000000E+02  0.51100000000E-03 0. -1.
         11   -1    0    0    0    0 -0.00000000000E+00 -0.00000000000E+00 -0.45593999997E+02  0.45594000000E+02  0.51100000000E-03 0.  1.
    9900012    2    1    2    0    0 -0.26682254539E+02 -0.12600925559E+02  0.27972120871E+02  0.50528861074E+02  0.30000003721E+02 0.  0.
        -12    1    1    2    0    0  0.26682254539E+02  0.12600925559E+02 -0.27972120871E+02  0.40659138926E+02  0.00000000000E+00 0.  1.
         11    1    3    3    0    0 -0.19209637800E+02 -0.14572209729E+02  0.16265917463E+02  0.29085040003E+02  0.51100000000E-03 0. -1.
        -11    1    3    3    0    0  0.15440039526E+01 -0.24074380514E+01 -0.26737023968E+01  0.39151489045E+01  0.51100000000E-03 0.  1.
        -12    1    3    3    0    0 -0.90166206913E+01  0.43787222220E+01  0.14379905804E+02  0.17528672167E+02  0.00000000000E+00 0.  1.
</event>
<event>
 7    1  0.1161807E-013  0.5052886E+02  0.7816164E-02  0.1300439E+00
        -11   -1    0    0    0    0  0.00000000000E+00  0.00000000000E+00  0.45593999997E+02  0.45594000000E+02  0.51100000000E-03 0. -1.
         11   -1    0    0    0    0 -0.00000000000E+00 -0.00000000000E+00 -0.45593999997E+02  0.45594000000E+02  0.51100000000E-03 0.  1.
    9900012    2    1    2    0    0  0.23142382110E+02  0.29542217243E+02  0.15647777299E+02  0.50528863465E+02  0.30000010987E+02 0.  0.
        -12    1    1    2    0    0 -0.23142382110E+02 -0.29542217243E+02 -0.15647777299E+02  0.40659136535E+02  0.00000000000E+00 0.  1.
         11    1    3    3    0    0 -0.70321146069E-01 -0.99410613101E+00  0.63737653263E+01  0.64512073877E+01  0.51100000000E-03 0.  1.
        -11    1    3    3    0    0  0.99616089906E+01  0.26570762051E+02  0.19931230323E+01  0.28446644606E+02  0.51100000000E-03 0. -1.
         12    1    3    3    0    0  0.13251094266E+02  0.39655613237E+01  0.72808889404E+01  0.15631011471E+02  0.00000000000E+00 0. -1.
</event>
<event>
 7    1  0.1161807E-013  0.5052886E+02  0.7816164E-02  0.1300439E+00
        -11   -1    0    0    0    0  0.00000000000E+00  0.00000000000E+00  0.45593999997E+02  0.45594000000E+02  0.51100000000E-03 0. -1.
         11   -1    0    0    0    0 -0.00000000000E+00 -0.00000000000E+00 -0.45593999997E+02  0.45594000000E+02  0.51100000000E-03 0.  1.
    9900012    2    1    2    0    0 -0.79636373359E+01  0.17874919092E+02  0.35640337744E+02  0.50528856789E+02  0.29999990697E+02 0.  0.
        -12    1    1    2    0    0  0.79636373359E+01 -0.17874919092E+02 -0.35640337744E+02  0.40659143211E+02  0.00000000000E+00 0.  1.
         11    1    3    3    0    0 -0.34121511461E+01  0.31809488368E+01  0.14013545055E+02  0.14769585513E+02  0.51100000000E-03 0. -1.
        -11    1    3    3    0    0 -0.85606563271E+00  0.91558387433E+01  0.26143698220E+02  0.27713808622E+02  0.51100000000E-03 0.  1.
         12    1    3    3    0    0 -0.36954205570E+01  0.55381315116E+01 -0.45169055320E+01  0.80454626541E+01  0.00000000000E+00 0. -1.
</event>
<event>
 7    1  0.1161807E-013  0.5052885E+02  0.7816164E-02  0.1300439E+00
        -11   -1    0    0    0    0  0.00000000000E+00  0.00000000000E+00  0.45593999997E+02  0.45594000000E+02  0.51100000000E-03 0. -1.
         11   -1    0    0    0    0 -0.00000000000E+00 -0.00000000000E+00 -0.45593999997E+02  0.45594000000E+02  0.51100000000E-03 0.  1.
    9900012    2    1    2    0    0 -0.33245234505E+01 -0.86853989205E+00  0.40513694494E+02  0.50528852699E+02  0.29999978263E+02 0.  0.
        -12    1    1    2    0    0  0.33245234505E+01  0.86853989205E+00 -0.40513694494E+02  0.40659147301E+02  0.00000000000E+00 0.  1.
         11    1    3    3    0    0 -0.99593127145E-01 -0.96024241437E+00  0.21245064553E+01  0.23335621323E+01  0.51100000000E-03 0. -1.
        -11    1    3    3    0    0 -0.13997789435E+02 -0.67235766084E+01  0.15180719127E+02  0.21716326231E+02  0.51100000000E-03 0.  1.
         12    1    3    3    0    0  0.10772859112E+02  0.68152791307E+01  0.23208468912E+02  0.26478964336E+02  0.00000000000E+00 0. -1.
</event>
<event>
 7    1  0.1161807E-013  0.5052887E+02  0.7816164E-02  0.1300439E+00
        -11   -1    0    0    0    0  0.00000000000E+00  0.00000000000E+00  0.45593999997E+02  0.45594000000E+02  0.51100000000E-03 0. -1.
         11   -1    0    0    0    0 -0.00000000000E+00 -0.00000000000E+00 -0.45593999997E+02  0.45594000000E+02  0.51100000000E-03 0.  1.
    9900012    2    1    2    0    0  0.78998564072E+01  0.20532501068E+01 -0.39831414476E+02  0.50528866384E+02  0.30000019860E+02 0.  0.
         12    1    1    2    0    0 -0.78998564072E+01 -0.20532501068E+01  0.39831414476E+02  0.40659133616E+02  0.00000000000E+00 0. -1.
         11    1    3    3    0    0  0.13044376980E+02  0.22444627728E+01 -0.23222834249E+02  0.26730009629E+02  0.51100000000E-03 0. -1.
        -11    1    3    3    0    0  0.43681293626E+01  0.45418801086E+01 -0.48569214265E+01  0.79560615291E+01  0.51100000000E-03 0.  1.
         12    1    3    3    0    0 -0.95126499353E+01 -0.47330927746E+01 -0.11751658800E+02  0.15842795226E+02  0.00000000000E+00 0. -1.
</event>
<event>
 7    1  0.1161807E-013  0.5052885E+02  0.7816164E-02  0.1300439E+00
        -11   -1    0    0    0    0  0.00000000000E+00  0.00000000000E+00  0.45593999997E+02  0.45594000000E+02  0.51100000000E-03 0. -1.
         11   -1    0    0    0    0 -0.00000000000E+00 -0.00000000000E+00 -0.45593999997E+02  0.45594000000E+02  0.51100000000E-03 0.  1.
    9900012    2    1    2    0    0 -0.30549620152E+02  0.22208713431E+02 -0.15055237113E+02  0.50528850867E+02  0.29999972697E+02 0.  0.
         12    1    1    2    0    0  0.30549620152E+02 -0.22208713431E+02  0.15055237113E+02  0.40659149133E+02  0.00000000000E+00 0. -1.
         11    1    3    3    0    0  0.24050207586E+01  0.53991679518E+01 -0.49718624434E+01  0.77236361799E+01  0.51100000000E-03 0. -1.
        -11    1    3    3    0    0 -0.11014764129E+01 -0.36018055529E+01 -0.10434789269E+01  0.39083375060E+01  0.51100000000E-03 0.  1.
         12    1    3    3    0    0 -0.31853164498E+02  0.20411351032E+02 -0.90398957425E+01  0.38896877182E+02  0.00000000000E+00 0. -1.
</event>
<event>
 7    1  0.1161807E-013  0.5052886E+02  0.7816164E-02  0.1300439E+00
        -11   -1    0    0    0    0  0.00000000000E+00  0.00000000000E+00  0.45593999997E+02  0.45594000000E+02  0.51100000000E-03 0. -1.
         11   -1    0    0    0    0 -0.00000000000E+00 -0.00000000000E+00 -0.45593999997E+02  0.45594000000E+02  0.51100000000E-03 0.  1.
    9900012    2    1    2    0    0 -0.18661372634E+02 -0.11118021477E+02 -0.34370172408E+02  0.50528856114E+02  0.29999988646E+02 0.  0.
         12    1    1    2    0    0  0.18661372634E+02  0.11118021477E+02  0.34370172408E+02  0.40659143886E+02  0.00000000000E+00 0. -1.
         11    1    3    3    0    0  0.23033720042E-01 -0.10281061164E+02 -0.23233988751E+02  0.25407065607E+02  0.51100000000E-03 0. -1.
        -11    1    3    3    0    0  0.64140778245E+00  0.24663018914E+01 -0.28874223216E+01  0.38511370901E+01  0.51100000000E-03 0.  1.
         12    1    3    3    0    0 -0.19325814137E+02 -0.33032622036E+01 -0.82487613356E+01  0.21270653417E+02  0.00000000000E+00 0. -1.
</event>
<event>
 7    1  0.1161807E-013  0.5052886E+02  0.7816164E-02  0.1300439E+00
        -11   -1    0    0    0    0  0.00000000000E+00  0.00000000000E+00  0.45593999997E+02  0.45594000000E+02  0.51100000000E-03 0. -1.
         11   -1    0    0    0    0 -0.00000000000E+00 -0.00000000000E+00 -0.45593999997E+02  0.45594000000E+02  0.51100000000E-03 0.  1.
    9900012    2    1    2    0    0 -0.64878616331E+01 -0.32744237891E+02 -0.23213964294E+02  0.50528860783E+02  0.30000002837E+02 0.  0.
         12    1    1    2    0    0  0.64878616331E+01  0.32744237891E+02  0.23213964294E+02  0.40659139217E+02  0.00000000000E+00 0. -1.
         11    1    3    3    0    0  0.58915620398E+01 -0.18504826291E+02 -0.83632747496E+01  0.21144348278E+02  0.51100000000E-03 0.  1.
        -11    1    3    3    0    0 -0.70802409382E+01 -0.29988969288E+01  0.24618106729E+01  0.80736427084E+01  0.51100000000E-03 0. -1.
         12    1    3    3    0    0 -0.52991827347E+01 -0.11240514671E+02 -0.17312500217E+02  0.21310869797E+02  0.00000000000E+00 0. -1.
</event>
<event>
 7    1  0.1161807E-013  0.5052887E+02  0.7816164E-02  0.1300439E+00
        -11   -1    0    0    0    0  0.00000000000E+00  0.00000000000E+00  0.45593999997E+02  0.45594000000E+02  0.51100000000E-03 0. -1.
         11   -1    0    0    0    0 -0.00000000000E+00 -0.00000000000E+00 -0.45593999997E+02  0.45594000000E+02  0.51100000000E-03 0.  1.
    9900012    2    1    2    0    0 -0.31143961813E+02 -0.69152668353E+01 -0.25207101630E+02  0.50528865167E+02  0.30000016161E+02 0.  0.
         12    1    1    2    0    0  0.31143961813E+02  0.69152668353E+01  0.25207101630E+02  0.40659134833E+02  0.00000000000E+00 0. -1.
         11    1    3    3    0    0 -0.52529300301E+01 -0.19124879016E+01 -0.68816788342E+01  0.88661371359E+01  0.51100000000E-03 0. -1.
        -11    1    3    3    0    0 -0.11269203402E+02 -0.12123349601E+02 -0.19232002504E+02  0.25374011733E+02  0.51100000000E-03 0.  1.
         12    1    3    3    0    0 -0.14621828381E+02  0.71205706675E+01  0.90657970900E+00  0.16288716297E+02  0.00000000000E+00 0. -1.
</event>
<event>
 7    1  0.1161807E-013  0.5052886E+02  0.7816164E-02  0.1300439E+00
        -11   -1    0    0    0    0  0.00000000000E+00  0.00000000000E+00  0.45593999997E+02  0.45594000000E+02  0.51100000000E-03 0.  1.
         11   -1    0    0    0    0 -0.00000000000E+00 -0.00000000000E+00 -0.45593999997E+02  0.45594000000E+02  0.51100000000E-03 0. -1.
    9900012    2    1    2    0    0 -0.39650132382E+02  0.45271455231E+01 -0.77806107946E+01  0.50528856517E+02  0.29999989868E+02 0.  0.
         12    1    1    2    0    0  0.39650132382E+02 -0.45271455231E+01  0.77806107946E+01  0.40659143483E+02  0.00000000000E+00 0. -1.
         11    1    3    3    0    0 -0.23322424878E+02 -0.22543625466E+00 -0.45196956669E+01  0.23757398276E+02  0.51100000000E-03 0. -1.
        -11    1    3    3    0    0 -0.11873673441E+02 -0.48203204864E+01 -0.80967063758E+01  0.15158372768E+02  0.51100000000E-03 0.  1.
         12    1    3    3    0    0 -0.44540340627E+01  0.95729022642E+01  0.48357912481E+01  0.11613085472E+02  0.00000000000E+00 0. -1.
</event>
<event>
 7    1  0.1161807E-013  0.5052885E+02  0.7816164E-02  0.1300439E+00
        -11   -1    0    0    0    0  0.00000000000E+00  0.00000000000E+00  0.45593999997E+02  0.45594000000E+02  0.51100000000E-03 0.  1.
         11   -1    0    0    0    0 -0.00000000000E+00 -0.00000000000E+00 -0.45593999997E+02  0.45594000000E+02  0.51100000000E-03 0. -1.
    9900012    2    1    2    0    0  0.17354339482E+02  0.34243595000E+02  0.13392884090E+02  0.50528852916E+02  0.29999978924E+02 0.  0.
        -12    1    1    2    0    0 -0.17354339482E+02 -0.34243595000E+02 -0.13392884090E+02  0.40659147084E+02  0.00000000000E+00 0.  1.
         11    1    3    3    0    0  0.22240594244E+02  0.15971708402E+02  0.62492517171E+01  0.28085452620E+02  0.51100000000E-03 0. -1.
        -11    1    3    3    0    0  0.25222945093E+01  0.15277080672E+01  0.13084694783E+01  0.32261361048E+01  0.51100000000E-03 0.  1.
        -12    1    3    3    0    0 -0.74085492716E+01  0.16744178531E+02  0.58351628942E+01  0.19217264191E+02  0.00000000000E+00 0.  1.
</event>
<event>
 7    1  0.1161807E-013  0.5052886E+02  0.7816164E-02  0.1300439E+00
        -11   -1    0    0    0    0  0.00000000000E+00  0.00000000000E+00  0.45593999997E+02  0.45594000000E+02  0.51100000000E-03 0. -1.
         11   -1    0    0    0    0 -0.00000000000E+00 -0.00000000000E+00 -0.45593999997E+02  0.45594000000E+02  0.51100000000E-03 0.  1.
    9900012    2    1    2    0    0  0.23947190342E+02  0.29399496127E+02 -0.14675400707E+02  0.50528859777E+02  0.29999999777E+02 0.  0.
         12    1    1    2    0    0 -0.23947190342E+02 -0.29399496127E+02  0.14675400707E+02  0.40659140223E+02  0.00000000000E+00 0. -1.
         11    1    3    3    0    0  0.29915632309E+02  0.26118508008E+02 -0.13906855939E+02  0.42077573117E+02  0.51100000000E-03 0. -1.
        -11    1    3    3    0    0 -0.53540072027E-02  0.23863528194E+01 -0.20078718394E+00  0.23947910552E+01  0.51100000000E-03 0.  1.
         12    1    3    3    0    0 -0.59630879598E+01  0.89463529923E+00 -0.56775758398E+00  0.60564956047E+01  0.00000000000E+00 0. -1.
</event>
<event>
 7    1  0.1161807E-013  0.5052887E+02  0.7816164E-02  0.1300439E+00
        -11   -1    0    0    0    0  0.00000000000E+00  0.00000000000E+00  0.45593999997E+02  0.45594000000E+02  0.51100000000E-03 0. -1.
         11   -1    0    0    0    0 -0.00000000000E+00 -0.00000000000E+00 -0.45593999997E+02  0.45594000000E+02  0.51100000000E-03 0.  1.
    9900012    2    1    2    0    0  0.31437455879E+02  0.85998606006E+01  0.24308301334E+02  0.50528871280E+02  0.30000034742E+02 0.  0.
        -12    1    1    2    0    0 -0.31437455879E+02 -0.85998606006E+01 -0.24308301334E+02  0.40659128720E+02  0.00000000000E+00 0.  1.
         11    1    3    3    0    0  0.38099730587E+01 -0.49051186679E+01  0.36037815411E+01  0.71807607892E+01  0.51100000000E-03 0. -1.
        -11    1    3    3    0    0 -0.36653380814E+01 -0.64175416392E+00  0.24591878903E+01  0.44602866499E+01  0.51100000000E-03 0.  1.
         12    1    3    3    0    0  0.31292820902E+02  0.14146733432E+02  0.18245331903E+02  0.38887823841E+02  0.00000000000E+00 0. -1.
</event>
<event>
 7    1  0.1161807E-013  0.5052885E+02  0.7816164E-02  0.1300439E+00
        -11   -1    0    0    0    0  0.00000000000E+00  0.00000000000E+00  0.45593999997E+02  0.45594000000E+02  0.51100000000E-03 0. -1.
         11   -1    0    0    0    0 -0.00000000000E+00 -0.00000000000E+00 -0.45593999997E+02  0.45594000000E+02  0.51100000000E-03 0.  1.
    9900012    2    1    2    0    0 -0.87416893170E+01  0.12131423002E+02 -0.37809757755E+02  0.50528851735E+02  0.29999975333E+02 0.  0.
         12    1    1    2    0    0  0.87416893170E+01 -0.12131423002E+02  0.37809757755E+02  0.40659148265E+02  0.00000000000E+00 0. -1.
         11    1    3    3    0    0  0.27571589300E+01  0.34765509886E+01 -0.57744407895E+01  0.72823415764E+01  0.51100000000E-03 0. -1.
        -11    1    3    3    0    0  0.42512595064E+01 -0.43969766629E+01 -0.16390067098E+02  0.17494025006E+02  0.51100000000E-03 0.  1.
         12    1    3    3    0    0 -0.15750107753E+02  0.13051848676E+02 -0.15645249867E+02  0.25752485152E+02  0.00000000000E+00 0. -1.
</event>
<event>
 7    1  0.1161807E-013  0.5052886E+02  0.7816164E-02  0.1300439E+00
        -11   -1    0    0    0    0  0.00000000000E+00  0.00000000000E+00  0.45593999997E+02  0.45594000000E+02  0.51100000000E-03 0. -1.
         11   -1    0    0    0    0 -0.00000000000E+00 -0.00000000000E+00 -0.45593999997E+02  0.45594000000E+02  0.51100000000E-03 0.  1.
    9900012    2    1    2    0    0  0.18903628092E+02 -0.15299509188E+02 -0.32584401997E+02  0.50528863389E+02  0.30000010758E+02 0.  0.
         12    1    1    2    0    0 -0.18903628092E+02  0.15299509188E+02  0.32584401997E+02  0.40659136611E+02  0.00000000000E+00 0. -1.
         11    1    3    3    0    0 -0.81939275800E+00 -0.44614048707E+01 -0.49854640312E+01  0.67402069538E+01  0.51100000000E-03 0. -1.
        -11    1    3    3    0    0  0.17610554754E+01 -0.14832102285E+02 -0.16689183792E+02  0.22396906717E+02  0.51100000000E-03 0.  1.
         12    1    3    3    0    0  0.17961965374E+02  0.39939979682E+01 -0.10909754175E+02  0.21391749719E+02  0.00000000000E+00 0. -1.
</event>
<event>
 7    1  0.1161807E-013  0.5052887E+02  0.7816164E-02  0.1300439E+00
        -11   -1    0    0    0    0  0.00000000000E+00  0.00000000000E+00  0.45593999997E+02  0.45594000000E+02  0.51100000000E-03 0. -1.
         11   -1    0    0    0    0 -0.00000000000E+00 -0.00000000000E+00 -0.45593999997E+02  0.45594000000E+02  0.51100000000E-03 0.  1.
    9900012    2    1    2    0    0 -0.27085564608E+02  0.30180578138E+02 -0.29444916117E+01  0.50528866490E+02  0.30000020184E+02 0.  0.
        -12    1    1    2    0    0  0.27085564608E+02 -0.30180578138E+02  0.29444916117E+01  0.40659133510E+02  0.00000000000E+00 0.  1.
         11    1    3    3    0    0 -0.18043523848E+02  0.56004416136E+01 -0.19060778472E+01  0.18988597425E+02  0.51100000000E-03 0. -1.
        -11    1    3    3    0    0 -0.15260827444E+01 -0.19930536172E+01 -0.29320079519E+01  0.38597748840E+01  0.51100000000E-03 0.  1.
        -12    1    3    3    0    0 -0.75159580154E+01  0.26573190142E+02  0.18935941874E+01  0.27680494182E+02  0.00000000000E+00 0.  1.
</event>
<event>
 7    1  0.1161807E-013  0.5052886E+02  0.7816164E-02  0.1300439E+00
        -11   -1    0    0    0    0  0.00000000000E+00  0.00000000000E+00  0.45593999997E+02  0.45594000000E+02  0.51100000000E-03 0. -1.
         11   -1    0    0    0    0 -0.00000000000E+00 -0.00000000000E+00 -0.45593999997E+02  0.45594000000E+02  0.51100000000E-03 0.  1.
    9900012    2    1    2    0    0  0.28105689986E+02  0.98339204948E+01  0.27686269074E+02  0.50528864530E+02  0.30000014227E+02 0.  0.
        -12    1    1    2    0    0 -0.28105689986E+02 -0.98339204948E+01 -0.27686269074E+02  0.40659135470E+02  0.00000000000E+00 0.  1.
         11    1    3    3    0    0  0.33394042880E+00 -0.48816611735E+00  0.48807645256E+01  0.49164707854E+01  0.51100000000E-03 0. -1.
        -11    1    3    3    0    0  0.26007217924E+02  0.19826799592E+01  0.25693578409E+02  0.36612380088E+02  0.51100000000E-03 0.  1.
         12    1    3    3    0    0  0.17645316329E+01  0.83394066529E+01 -0.28880738605E+01  0.90000136572E+01  0.00000000000E+00 0. -1.
</event>
<event>
 7    1  0.1161807E-013  0.5052885E+02  0.7816164E-02  0.1300439E+00
        -11   -1    0    0    0    0  0.00000000000E+00  0.00000000000E+00  0.45593999997E+02  0.45594000000E+02  0.51100000000E-03 0. -1.
         11   -1    0    0    0    0 -0.00000000000E+00 -0.00000000000E+00 -0.45593999997E+02  0.45594000000E+02  0.51100000000E-03 0.  1.
    9900012    2    1    2    0    0  0.21652972502E+02 -0.56854555818E+01 -0.33940985090E+02  0.50528854753E+02  0.29999984506E+02 0.  0.
         12    1    1    2    0    0 -0.21652972502E+02  0.56854555818E+01  0.33940985090E+02  0.40659145247E+02  0.00000000000E+00 0. -1.
         11    1    3    3    0    0  0.11693677984E+02  0.21190423998E+01 -0.67331820611E+01  0.13658996538E+02  0.51100000000E-03 0. -1.
        -11    1    3    3    0    0 -0.12870714231E+01  0.65315499620E+01 -0.69878898734E+01  0.96513368451E+01  0.51100000000E-03 0.  1.
        -12    1    3    3    0    0  0.11246365941E+02 -0.14336047944E+02 -0.20219913156E+02  0.27218521370E+02  0.00000000000E+00 0.  1.
</event>
<event>
 7    1  0.1161807E-013  0.5052886E+02  0.7816164E-02  0.1300439E+00
        -11   -1    0    0    0    0  0.00000000000E+00  0.00000000000E+00  0.45593999997E+02  0.45594000000E+02  0.51100000000E-03 0. -1.
         11   -1    0    0    0    0 -0.00000000000E+00 -0.00000000000E+00 -0.45593999997E+02  0.45594000000E+02  0.51100000000E-03 0.  1.
    9900012    2    1    2    0    0 -0.36884110654E+02 -0.71073633224E+01 -0.15563215017E+02  0.50528857193E+02  0.29999991925E+02 0.  0.
         12    1    1    2    0    0  0.36884110654E+02  0.71073633224E+01  0.15563215017E+02  0.40659142807E+02  0.00000000000E+00 0. -1.
         11    1    3    3    0    0 -0.17093405369E+02  0.13779139164E+01 -0.45352861091E+00  0.17154848945E+02  0.51100000000E-03 0. -1.
        -11    1    3    3    0    0 -0.21433287456E+02 -0.36354267661E+00 -0.11617076244E+02  0.24381846426E+02  0.51100000000E-03 0.  1.
        -12    1    3    3    0    0  0.16425821710E+01 -0.81217345622E+01 -0.34926101621E+01  0.89921618219E+01  0.00000000000E+00 0.  1.
</event>
<event>
 7    1  0.1161807E-013  0.5052886E+02  0.7816164E-02  0.1300439E+00
        -11   -1    0    0    0    0  0.00000000000E+00  0.00000000000E+00  0.45593999997E+02  0.45594000000E+02  0.51100000000E-03 0. -1.
         11   -1    0    0    0    0 -0.00000000000E+00 -0.00000000000E+00 -0.45593999997E+02  0.45594000000E+02  0.51100000000E-03 0.  1.
    9900012    2    1    2    0    0  0.54706183854E+01  0.22697745918E+02  0.33287394007E+02  0.50528856686E+02  0.29999990382E+02 0.  0.
        -12    1    1    2    0    0 -0.54706183854E+01 -0.22697745918E+02 -0.33287394007E+02  0.40659143314E+02  0.00000000000E+00 0.  1.
         11    1    3    3    0    0 -0.21223853908E+01  0.17695822667E+02  0.15179881390E+02  0.23411011488E+02  0.51100000000E-03 0. -1.
        -11    1    3    3    0    0  0.13170373186E+01  0.38936520071E+01 -0.29873661446E+01  0.50812862539E+01  0.51100000000E-03 0.  1.
        -12    1    3    3    0    0  0.62759664576E+01  0.11082712436E+01  0.21094878762E+02  0.22036558944E+02  0.00000000000E+00 0.  1.
</event>
<event>
 7    1  0.1161807E-013  0.5052886E+02  0.7816164E-02  0.1300439E+00
        -11   -1    0    0    0    0  0.00000000000E+00  0.00000000000E+00  0.45593999997E+02  0.45594000000E+02  0.51100000000E-03 0.  1.
         11   -1    0    0    0    0 -0.00000000000E+00 -0.00000000000E+00 -0.45593999997E+02  0.45594000000E+02  0.51100000000E-03 0. -1.
    9900012    2    1    2    0    0 -0.31091333635E+02  0.24143744168E+02  0.10177128507E+02  0.50528863828E+02  0.30000012091E+02 0.  0.
        -12    1    1    2    0    0  0.31091333635E+02 -0.24143744168E+02 -0.10177128507E+02  0.40659136172E+02  0.00000000000E+00 0.  1.
         11    1    3    3    0    0 -0.31932069080E+01 -0.34492800488E+01 -0.24485446729E+01  0.52999504232E+01  0.51100000000E-03 0. -1.
        -11    1    3    3    0    0 -0.90009304992E+01 -0.10729093042E+01  0.33490864833E+01  0.96635534231E+01  0.51100000000E-03 0.  1.
         12    1    3    3    0    0 -0.18897196228E+02  0.28665933521E+02  0.92765866965E+01  0.35565359981E+02  0.00000000000E+00 0. -1.
</event>
<event>
 7    1  0.1161807E-013  0.5052886E+02  0.7816164E-02  0.1300439E+00
        -11   -1    0    0    0    0  0.00000000000E+00  0.00000000000E+00  0.45593999997E+02  0.45594000000E+02  0.51100000000E-03 0. -1.
         11   -1    0    0    0    0 -0.00000000000E+00 -0.00000000000E+00 -0.45593999997E+02  0.45594000000E+02  0.51100000000E-03 0.  1.
    9900012    2    1    2    0    0  0.28680443508E+02 -0.16508975163E+01  0.28772776169E+02  0.50528856491E+02  0.29999989789E+02 0.  0.
        -12    1    1    2    0    0 -0.28680443508E+02  0.16508975163E+01 -0.28772776169E+02  0.40659143509E+02  0.00000000000E+00 0.  1.
         11    1    3    3    0    0 -0.20467445696E-01  0.17183495691E+01  0.40561296541E+01  0.44051483732E+01  0.51100000000E-03 0.  1.
        -11    1    3    3    0    0 -0.37069393072E+01 -0.44277558905E+01  0.79443571887E+00  0.58290264732E+01  0.51100000000E-03 0. -1.
         12    1    3    3    0    0  0.32407850261E+02  0.10585088051E+01  0.23922210797E+02  0.40294681644E+02  0.00000000000E+00 0. -1.
</event>
<event>
 7    1  0.1161807E-013  0.5052886E+02  0.7816164E-02  0.1300439E+00
        -11   -1    0    0    0    0  0.00000000000E+00  0.00000000000E+00  0.45593999997E+02  0.45594000000E+02  0.51100000000E-03 0. -1.
         11   -1    0    0    0    0 -0.00000000000E+00 -0.00000000000E+00 -0.45593999997E+02  0.45594000000E+02  0.51100000000E-03 0.  1.
    9900012    2    1    2    0    0 -0.90086427121E+01 -0.23687106658E+02  0.31795140992E+02  0.50528860117E+02  0.30000000812E+02 0.  0.
        -12    1    1    2    0    0  0.90086427121E+01  0.23687106658E+02 -0.31795140992E+02  0.40659139883E+02  0.00000000000E+00 0.  1.
         11    1    3    3    0    0 -0.55547711820E+01 -0.38720682757E+01  0.14018349547E+02  0.15567996656E+02  0.51100000000E-03 0. -1.
        -11    1    3    3    0    0 -0.91595741382E+01 -0.12059229879E+00  0.83439087423E+01  0.12390849618E+02  0.51100000000E-03 0.  1.
         12    1    3    3    0    0  0.57057026080E+01 -0.19694446083E+02  0.94328827024E+01  0.22570013843E+02  0.00000000000E+00 0. -1.
</event>
<event>
 7    1  0.1161807E-013  0.5052887E+02  0.7816164E-02  0.1300439E+00
        -11   -1    0    0    0    0  0.00000000000E+00  0.00000000000E+00  0.45593999997E+02  0.45594000000E+02  0.51100000000E-03 0. -1.
         11   -1    0    0    0    0 -0.00000000000E+00 -0.00000000000E+00 -0.45593999997E+02  0.45594000000E+02  0.51100000000E-03 0.  1.
    9900012    2    1    2    0    0  0.36527678009E+01  0.17062102644E+02 -0.36724745580E+02  0.50528868219E+02  0.30000025438E+02 0.  0.
         12    1    1    2    0    0 -0.36527678009E+01 -0.17062102644E+02  0.36724745580E+02  0.40659131781E+02  0.00000000000E+00 0. -1.
         11    1    3    3    0    0 -0.10700362287E+00  0.54856968477E+01 -0.12773276366E+02  0.13901831140E+02  0.51100000000E-03 0.  1.
        -11    1    3    3    0    0  0.69075726057E+01  0.18648343585E+02 -0.18482070723E+02  0.27148889779E+02  0.51100000000E-03 0. -1.
         12    1    3    3    0    0 -0.31478011820E+01 -0.70719377886E+01 -0.54693984917E+01  0.94781472994E+01  0.00000000000E+00 0. -1.
</event>
<event>
 7    1  0.1161807E-013  0.5052887E+02  0.7816164E-02  0.1300439E+00
        -11   -1    0    0    0    0  0.00000000000E+00  0.00000000000E+00  0.45593999997E+02  0.45594000000E+02  0.51100000000E-03 0. -1.
         11   -1    0    0    0    0 -0.00000000000E+00 -0.00000000000E+00 -0.45593999997E+02  0.45594000000E+02  0.51100000000E-03 0.  1.
    9900012    2    1    2    0    0 -0.37623462107E+02  0.11415190830E+02  0.10360199388E+02  0.50528865554E+02  0.30000017337E+02 0.  0.
        -12    1    1    2    0    0  0.37623462107E+02 -0.11415190830E+02 -0.10360199388E+02  0.40659134446E+02  0.00000000000E+00 0.  1.
         11    1    3    3    0    0 -0.18265775924E+02  0.51793600855E+01  0.12292464531E+02  0.22617891712E+02  0.51100000000E-03 0. -1.
        -11    1    3    3    0    0  0.31015365438E+01 -0.20638734951E+01  0.80453991322E+00  0.38113498225E+01  0.51100000000E-03 0.  1.
         12    1    3    3    0    0 -0.22459222726E+02  0.82997042396E+01 -0.27368050566E+01  0.24099624019E+02  0.00000000000E+00 0. -1.
</event>
<event>
 7    1  0.1161807E-013  0.5052886E+02  0.7816164E-02  0.1300439E+00
        -11   -1    0    0    0    0  0.00000000000E+00  0.00000000000E+00  0.45593999997E+02  0.45594000000E+02  0.51100000000E-03 0. -1.
         11   -1    0    0    0    0 -0.00000000000E+00 -0.00000000000E+00 -0.45593999997E+02  0.45594000000E+02  0.51100000000E-03 0.  1.
    9900012    2    1    2    0    0  0.27592412333E+02 -0.88683287111E+01 -0.28516262313E+02  0.50528859714E+02  0.29999999587E+02 0.  0.
         12    1    1    2    0    0 -0.27592412333E+02  0.88683287111E+01  0.28516262313E+02  0.40659140286E+02  0.00000000000E+00 0. -1.
         11    1    3    3    0    0  0.94445134077E+01 -0.12542085651E+02 -0.18992833905E+02  0.24642047114E+02  0.51100000000E-03 0. -1.
        -11    1    3    3    0    0  0.11582332100E+01 -0.83420648163E+00 -0.81297369331E+01  0.82540915602E+01  0.51100000000E-03 0.  1.
         12    1    3    3    0    0  0.16989665715E+02  0.45079634219E+01 -0.13936914755E+01  0.17632721039E+02  0.00000000000E+00 0. -1.
</event>
<event>
 7    1  0.1161807E-013  0.5052887E+02  0.7816164E-02  0.1300439E+00
        -11   -1    0    0    0    0  0.00000000000E+00  0.00000000000E+00  0.45593999997E+02  0.45594000000E+02  0.51100000000E-03 0. -1.
         11   -1    0    0    0    0 -0.00000000000E+00 -0.00000000000E+00 -0.45593999997E+02  0.45594000000E+02  0.51100000000E-03 0.  1.
    9900012    2    1    2    0    0  0.19229794017E+02  0.20420753275E+02 -0.29434211049E+02  0.50528869139E+02  0.30000028235E+02 0.  0.
         12    1    1    2    0    0 -0.19229794017E+02 -0.20420753275E+02  0.29434211049E+02  0.40659130861E+02  0.00000000000E+00 0. -1.
         11    1    3    3    0    0 -0.34724216773E+00 -0.52987587542E+00 -0.18881986558E+02  0.18892611312E+02  0.51100000000E-03 0. -1.
        -11    1    3    3    0    0  0.12984318036E+02  0.97589515303E+01 -0.89590705994E+01  0.18549786956E+02  0.51100000000E-03 0.  1.
        -12    1    3    3    0    0  0.65927181487E+01  0.11191677620E+02 -0.15931538923E+01  0.13086470871E+02  0.00000000000E+00 0.  1.
</event>
<event>
 7    1  0.1161807E-013  0.5052886E+02  0.7816164E-02  0.1300439E+00
        -11   -1    0    0    0    0  0.00000000000E+00  0.00000000000E+00  0.45593999997E+02  0.45594000000E+02  0.51100000000E-03 0. -1.
         11   -1    0    0    0    0 -0.00000000000E+00 -0.00000000000E+00 -0.45593999997E+02  0.45594000000E+02  0.51100000000E-03 0.  1.
    9900012    2    1    2    0    0  0.38016889985E+02  0.10938746307E+02 -0.93928414886E+01  0.50528861222E+02  0.30000004171E+02 0.  0.
         12    1    1    2    0    0 -0.38016889985E+02 -0.10938746307E+02  0.93928414886E+01  0.40659138778E+02  0.00000000000E+00 0. -1.
         11    1    3    3    0    0  0.12032031181E+02  0.20910358930E+01  0.29791489575E+01  0.12570502545E+02  0.51100000000E-03 0. -1.
        -11    1    3    3    0    0  0.29666121179E+02  0.88579725461E+01 -0.75068411036E+01  0.31857418085E+02  0.51100000000E-03 0.  1.
        -12    1    3    3    0    0 -0.36812623751E+01 -0.10262131755E-01 -0.48651493426E+01  0.61009405923E+01  0.00000000000E+00 0.  1.
</event>
<event>
 7    1  0.1161807E-013  0.5052886E+02  0.7816164E-02  0.1300439E+00
        -11   -1    0    0    0    0  0.00000000000E+00  0.00000000000E+00  0.45593999997E+02  0.45594000000E+02  0.51100000000E-03 0. -1.
         11   -1    0    0    0    0 -0.00000000000E+00 -0.00000000000E+00 -0.45593999997E+02  0.45594000000E+02  0.51100000000E-03 0.  1.
    9900012    2    1    2    0    0  0.28207577030E+02  0.58253961392E+01 -0.28697790168E+02  0.50528858314E+02  0.29999995333E+02 0.  0.
         12    1    1    2    0    0 -0.28207577030E+02 -0.58253961392E+01  0.28697790168E+02  0.40659141686E+02  0.00000000000E+00 0. -1.
         11    1    3    3    0    0  0.91447289279E+01  0.24289470788E+01 -0.13870546648E+02  0.16790411420E+02  0.51100000000E-03 0.  1.
        -11    1    3    3    0    0  0.16700375290E+02  0.72203863575E+01 -0.19897974942E+02  0.26962305559E+02  0.51100000000E-03 0. -1.
        -12    1    3    3    0    0  0.23624728119E+01 -0.38239372970E+01  0.50707314226E+01  0.67761413355E+01  0.00000000000E+00 0.  1.
</event>
<event>
 7    1  0.1161807E-013  0.5052886E+02  0.7816164E-02  0.1300439E+00
        -11   -1    0    0    0    0  0.00000000000E+00  0.00000000000E+00  0.45593999997E+02  0.45594000000E+02  0.51100000000E-03 0. -1.
         11   -1    0    0    0    0 -0.00000000000E+00 -0.00000000000E+00 -0.45593999997E+02  0.45594000000E+02  0.51100000000E-03 0.  1.
    9900012    2    1    2    0    0 -0.37304447765E+02  0.16016073688E+02  0.22425387947E+01  0.50528863024E+02  0.30000009647E+02 0.  0.
         12    1    1    2    0    0  0.37304447765E+02 -0.16016073688E+02 -0.22425387947E+01  0.40659136976E+02  0.00000000000E+00 0. -1.
         11    1    3    3    0    0 -0.75138140092E+01  0.61140877969E+01 -0.94878199849E+01  0.13559432100E+02  0.51100000000E-03 0. -1.
        -11    1    3    3    0    0 -0.20407980916E+02 -0.12967178569E+01  0.67870704416E+01  0.21546031832E+02  0.51100000000E-03 0.  1.
        -12    1    3    3    0    0 -0.93826528394E+01  0.11198703748E+02  0.49432883379E+01  0.15423399091E+02  0.00000000000E+00 0.  1.
</event>
<event>
 7    1  0.1161807E-013  0.5052885E+02  0.7816164E-02  0.1300439E+00
        -11   -1    0    0    0    0  0.00000000000E+00  0.00000000000E+00  0.45593999997E+02  0.45594000000E+02  0.51100000000E-03 0. -1.
         11   -1    0    0    0    0 -0.00000000000E+00 -0.00000000000E+00 -0.45593999997E+02  0.45594000000E+02  0.51100000000E-03 0.  1.
    9900012    2    1    2    0    0  0.36132516848E+02  0.29119802884E+01 -0.18415427278E+02  0.50528851400E+02  0.29999974316E+02 0.  0.
         12    1    1    2    0    0 -0.36132516848E+02 -0.29119802884E+01  0.18415427278E+02  0.40659148600E+02  0.00000000000E+00 0. -1.
         11    1    3    3    0    0 -0.16220101518E+01 -0.19359442008E+01 -0.20434717838E+01  0.32487803979E+01  0.51100000000E-03 0. -1.
        -11    1    3    3    0    0  0.22110162304E+02 -0.72307752567E+01 -0.14535366767E+02  0.27430280261E+02  0.51100000000E-03 0.  1.
        -12    1    3    3    0    0  0.15644364697E+02  0.12078699746E+02 -0.18365887278E+01  0.19849790741E+02  0.00000000000E+00 0.  1.
</event>
<event>
 7    1  0.1161807E-013  0.5052886E+02  0.7816164E-02  0.1300439E+00
        -11   -1    0    0    0    0  0.00000000000E+00  0.00000000000E+00  0.45593999997E+02  0.45594000000E+02  0.51100000000E-03 0.  1.
         11   -1    0    0    0    0 -0.00000000000E+00 -0.00000000000E+00 -0.45593999997E+02  0.45594000000E+02  0.51100000000E-03 0. -1.
    9900012    2    1    2    0    0  0.73897300211E+01 -0.33529383118E+02  0.21779306595E+02  0.50528857881E+02  0.29999994016E+02 0.  0.
        -12    1    1    2    0    0 -0.73897300211E+01  0.33529383118E+02 -0.21779306595E+02  0.40659142119E+02  0.00000000000E+00 0.  1.
         11    1    3    3    0    0  0.43748830836E+01 -0.10085926357E+02 -0.26297341815E-01  0.10993916695E+02  0.51100000000E-03 0. -1.
        -11    1    3    3    0    0 -0.15786977623E+00 -0.27650143876E+02  0.19150657707E+02  0.33634849042E+02  0.51100000000E-03 0.  1.
        -12    1    3    3    0    0  0.31727167137E+01  0.42066871149E+01  0.26549462295E+01  0.59000921442E+01  0.00000000000E+00 0.  1.
</event>
<event>
 7    1  0.1161807E-013  0.5052886E+02  0.7816164E-02  0.1300439E+00
        -11   -1    0    0    0    0  0.00000000000E+00  0.00000000000E+00  0.45593999997E+02  0.45594000000E+02  0.51100000000E-03 0.  1.
         11   -1    0    0    0    0 -0.00000000000E+00 -0.00000000000E+00 -0.45593999997E+02  0.45594000000E+02  0.51100000000E-03 0. -1.
    9900012    2    1    2    0    0 -0.34615250368E+02 -0.16779842398E+02 -0.13167655659E+02  0.50528858045E+02  0.29999994514E+02 0.  0.
         12    1    1    2    0    0  0.34615250368E+02  0.16779842398E+02  0.13167655659E+02  0.40659141955E+02  0.00000000000E+00 0. -1.
         11    1    3    3    0    0 -0.68795951954E+01 -0.16731817654E+02 -0.23120157698E+01  0.18238091162E+02  0.51100000000E-03 0.  1.
        -11    1    3    3    0    0 -0.52487658606E+01 -0.45373813822E+00 -0.80572802366E+01  0.96267952315E+01  0.51100000000E-03 0. -1.
        -12    1    3    3    0    0 -0.22486889312E+02  0.40571339382E+00 -0.27983596526E+01  0.22663971652E+02  0.00000000000E+00 0.  1.
</event>
<event>
 7    1  0.1161807E-013  0.5052888E+02  0.7816164E-02  0.1300439E+00
        -11   -1    0    0    0    0  0.00000000000E+00  0.00000000000E+00  0.45593999997E+02  0.45594000000E+02  0.51100000000E-03 0. -1.
         11   -1    0    0    0    0 -0.00000000000E+00 -0.00000000000E+00 -0.45593999997E+02  0.45594000000E+02  0.51100000000E-03 0.  1.
    9900012    2    1    2    0    0  0.31615639824E+02  0.18383124805E+02  0.17767278717E+02  0.50528878611E+02  0.30000057027E+02 0.  0.
        -12    1    1    2    0    0 -0.31615639824E+02 -0.18383124805E+02 -0.17767278717E+02  0.40659121389E+02  0.00000000000E+00 0.  1.
         11    1    3    3    0    0 -0.42773444817E+01  0.29516293026E+01  0.54188858733E+01  0.75081366346E+01  0.51100000000E-03 0. -1.
        -11    1    3    3    0    0  0.27672841927E+01  0.57842046423E+01  0.38804857979E+01  0.74948686069E+01  0.51100000000E-03 0.  1.
         12    1    3    3    0    0  0.33125700113E+02  0.96472908601E+01  0.84679070463E+01  0.35525873370E+02  0.00000000000E+00 0. -1.
</event>
<event>
 7    1  0.1161807E-013  0.5052882E+02  0.7816164E-02  0.1300439E+00
        -11   -1    0    0    0    0  0.00000000000E+00  0.00000000000E+00  0.45593999997E+02  0.45594000000E+02  0.51100000000E-03 0. -1.
         11   -1    0    0    0    0 -0.00000000000E+00 -0.00000000000E+00 -0.45593999997E+02  0.45594000000E+02  0.51100000000E-03 0.  1.
    9900012    2    1    2    0    0  0.27815811823E+02  0.40255393054E+01 -0.29381023854E+02  0.50528820019E+02  0.29999878929E+02 0.  0.
         12    1    1    2    0    0 -0.27815811823E+02 -0.40255393054E+01  0.29381023854E+02  0.40659179981E+02  0.00000000000E+00 0. -1.
         11    1    3    3    0    0  0.19499423480E+02  0.37159119178E+01 -0.25717414536E+02  0.32487242544E+02  0.51100000000E-03 0. -1.
        -11    1    3    3    0    0  0.97249249764E+01  0.50153778632E+01 -0.61331760959E+01  0.12543684873E+02  0.51100000000E-03 0.  1.
         12    1    3    3    0    0 -0.14085366333E+01 -0.47057504756E+01  0.24695667785E+01  0.54978926016E+01  0.00000000000E+00 0. -1.
</event>
<event>
 7    1  0.1161807E-013  0.5052884E+02  0.7816164E-02  0.1300439E+00
        -11   -1    0    0    0    0  0.00000000000E+00  0.00000000000E+00  0.45593999997E+02  0.45594000000E+02  0.51100000000E-03 0. -1.
         11   -1    0    0    0    0 -0.00000000000E+00 -0.00000000000E+00 -0.45593999997E+02  0.45594000000E+02  0.51100000000E-03 0.  1.
    9900012    2    1    2    0    0  0.15101055891E+02 -0.31443919525E+02 -0.20890316693E+02  0.50528839954E+02  0.29999939525E+02 0.  0.
         12    1    1    2    0    0 -0.15101055891E+02  0.31443919525E+02  0.20890316693E+02  0.40659160046E+02  0.00000000000E+00 0. -1.
         11    1    3    3    0    0  0.12505859668E+02 -0.52265252416E+01 -0.14945069589E+02  0.20175931142E+02  0.51100000000E-03 0. -1.
        -11    1    3    3    0    0  0.12614569928E+01 -0.74016318305E+01 -0.84732589028E+01  0.11321287215E+02  0.51100000000E-03 0.  1.
        -12    1    3    3    0    0  0.13337392298E+01 -0.18815762453E+02  0.25280117992E+01  0.19031621598E+02  0.00000000000E+00 0.  1.
</event>
<event>
 7    1  0.1161807E-013  0.5052886E+02  0.7816164E-02  0.1300439E+00
        -11   -1    0    0    0    0  0.00000000000E+00  0.00000000000E+00  0.45593999997E+02  0.45594000000E+02  0.51100000000E-03 0. -1.
         11   -1    0    0    0    0 -0.00000000000E+00 -0.00000000000E+00 -0.45593999997E+02  0.45594000000E+02  0.51100000000E-03 0.  1.
    9900012    2    1    2    0    0 -0.25697000766E+02 -0.12901296025E+02  0.28746938114E+02  0.50528859104E+02  0.29999997732E+02 0.  0.
        -12    1    1    2    0    0  0.25697000766E+02  0.12901296025E+02 -0.28746938114E+02  0.40659140896E+02  0.00000000000E+00 0.  1.
         11    1    3    3    0    0 -0.15936097186E+02 -0.18934392297E+02  0.17514333068E+02  0.30318678537E+02  0.51100000000E-03 0. -1.
        -11    1    3    3    0    0 -0.78324149314E+01 -0.21281777771E+01  0.36308200360E+01  0.88914969888E+01  0.51100000000E-03 0.  1.
        -12    1    3    3    0    0 -0.19284886489E+01  0.81612740498E+01  0.76017850103E+01  0.11318683578E+02  0.00000000000E+00 0.  1.
</event>
<event>
 7    1  0.1161807E-013  0.5052887E+02  0.7816164E-02  0.1300439E+00
        -11   -1    0    0    0    0  0.00000000000E+00  0.00000000000E+00  0.45593999997E+02  0.45594000000E+02  0.51100000000E-03 0. -1.
         11   -1    0    0    0    0 -0.00000000000E+00 -0.00000000000E+00 -0.45593999997E+02  0.45594000000E+02  0.51100000000E-03 0.  1.
    9900012    2    1    2    0    0  0.43676606434E+00 -0.32020839121E+02  0.25052741680E+02  0.50528871034E+02  0.30000033994E+02 0.  0.
        -12    1    1    2    0    0 -0.43676606434E+00  0.32020839121E+02 -0.25052741680E+02  0.40659128966E+02  0.00000000000E+00 0.  1.
         11    1    3    3    0    0  0.62886049834E+01 -0.11301696162E+02  0.39820729720E+01  0.13532619635E+02  0.51100000000E-03 0. -1.
        -11    1    3    3    0    0  0.79480975683E-01 -0.21208959376E+02  0.80600000102E+01  0.22688981367E+02  0.51100000000E-03 0.  1.
         12    1    3    3    0    0 -0.59313198948E+01  0.48981641625E+00  0.13010668697E+02  0.14307270032E+02  0.00000000000E+00 0. -1.
</event>
<event>
 7    1  0.1161807E-013  0.5052885E+02  0.7816164E-02  0.1300439E+00
        -11   -1    0    0    0    0  0.00000000000E+00  0.00000000000E+00  0.45593999997E+02  0.45594000000E+02  0.51100000000E-03 0. -1.
         11   -1    0    0    0    0 -0.00000000000E+00 -0.00000000000E+00 -0.45593999997E+02  0.45594000000E+02  0.51100000000E-03 0.  1.
    9900012    2    1    2    0    0 -0.30413653981E+01 -0.59994875407E+00 -0.40540798088E+02  0.50528854023E+02  0.29999982288E+02 0.  0.
         12    1    1    2    0    0  0.30413653981E+01  0.59994875407E+00  0.40540798088E+02  0.40659145977E+02  0.00000000000E+00 0. -1.
         11    1    3    3    0    0  0.67286254124E+01 -0.28956590598E+01 -0.24936354290E+02  0.25990017447E+02  0.51100000000E-03 0. -1.
        -11    1    3    3    0    0 -0.55224160249E+01  0.49617652530E+01 -0.17630686501E+02  0.19130010453E+02  0.51100000000E-03 0.  1.
         12    1    3    3    0    0 -0.42475747856E+01 -0.26660549472E+01  0.20262427030E+01  0.54088261234E+01  0.00000000000E+00 0. -1.
</event>
<event>
 7    1  0.1161807E-013  0.5052886E+02  0.7816164E-02  0.1300439E+00
        -11   -1    0    0    0    0  0.00000000000E+00  0.00000000000E+00  0.45593999997E+02  0.45594000000E+02  0.51100000000E-03 0.  1.
         11   -1    0    0    0    0 -0.00000000000E+00 -0.00000000000E+00 -0.45593999997E+02  0.45594000000E+02  0.51100000000E-03 0. -1.
    9900012    2    1    2    0    0 -0.12221232128E+02  0.37084591037E+02  0.11337553066E+02  0.50528861831E+02  0.30000006023E+02 0.  0.
         12    1    1    2    0    0  0.12221232128E+02 -0.37084591037E+02 -0.11337553066E+02  0.40659138169E+02  0.00000000000E+00 0. -1.
         11    1    3    3    0    0 -0.48171620239E+01  0.10563460381E+02  0.14604025137E+01  0.11701475161E+02  0.51100000000E-03 0. -1.
        -11    1    3    3    0    0 -0.11327964718E+02  0.25452126086E+02 -0.30738679363E+00  0.27860868505E+02  0.51100000000E-03 0.  1.
         12    1    3    3    0    0  0.39238946139E+01  0.10690045695E+01  0.10184537346E+02  0.10966518165E+02  0.00000000000E+00 0. -1.
</event>
<event>
 7    1  0.1161807E-013  0.5052885E+02  0.7816164E-02  0.1300439E+00
        -11   -1    0    0    0    0  0.00000000000E+00  0.00000000000E+00  0.45593999997E+02  0.45594000000E+02  0.51100000000E-03 0. -1.
         11   -1    0    0    0    0 -0.00000000000E+00 -0.00000000000E+00 -0.45593999997E+02  0.45594000000E+02  0.51100000000E-03 0.  1.
    9900012    2    1    2    0    0 -0.93082063296E+01  0.10609939632E+02  0.38130729711E+02  0.50528854997E+02  0.29999985250E+02 0.  0.
        -12    1    1    2    0    0  0.93082063296E+01 -0.10609939632E+02 -0.38130729711E+02  0.40659145003E+02  0.00000000000E+00 0.  1.
         11    1    3    3    0    0  0.53803631879E+01  0.11433507214E+01  0.64537845968E+01  0.84797933223E+01  0.51100000000E-03 0. -1.
        -11    1    3    3    0    0  0.46249503019E+01  0.22040823169E+01  0.12297801915E+01  0.52688237525E+01  0.51100000000E-03 0.  1.
        -12    1    3    3    0    0 -0.19313519819E+02  0.72625065933E+01  0.30447164922E+02  0.36780237923E+02  0.00000000000E+00 0.  1.
</event>
<event>
 7    1  0.1161807E-013  0.5052886E+02  0.7816164E-02  0.1300439E+00
        -11   -1    0    0    0    0  0.00000000000E+00  0.00000000000E+00  0.45593999997E+02  0.45594000000E+02  0.51100000000E-03 0. -1.
         11   -1    0    0    0    0 -0.00000000000E+00 -0.00000000000E+00 -0.45593999997E+02  0.45594000000E+02  0.51100000000E-03 0.  1.
    9900012    2    1    2    0    0  0.25231863233E+02  0.17830369999E+02  0.26430980728E+02  0.50528858854E+02  0.29999996972E+02 0.  0.
        -12    1    1    2    0    0 -0.25231863233E+02 -0.17830369999E+02 -0.26430980728E+02  0.40659141146E+02  0.00000000000E+00 0.  1.
         11    1    3    3    0    0  0.11154830963E+02  0.25820638774E+01 -0.76842928415E-02  0.11449775849E+02  0.51100000000E-03 0. -1.
        -11    1    3    3    0    0 -0.40736535657E+01  0.53490964040E+01  0.18899890684E+01  0.69842354379E+01  0.51100000000E-03 0.  1.
         12    1    3    3    0    0  0.18150685836E+02  0.98992097179E+01  0.24548675952E+02  0.32094847567E+02  0.00000000000E+00 0. -1.
</event>
<event>
 7    1  0.1161807E-013  0.5052886E+02  0.7816164E-02  0.1300439E+00
        -11   -1    0    0    0    0  0.00000000000E+00  0.00000000000E+00  0.45593999997E+02  0.45594000000E+02  0.51100000000E-03 0. -1.
         11   -1    0    0    0    0 -0.00000000000E+00 -0.00000000000E+00 -0.45593999997E+02  0.45594000000E+02  0.51100000000E-03 0.  1.
    9900012    2    1    2    0    0 -0.62306584990E+01  0.15112371892E+02 -0.37228492180E+02  0.50528861796E+02  0.30000005914E+02 0.  0.
         12    1    1    2    0    0  0.62306584990E+01 -0.15112371892E+02  0.37228492180E+02  0.40659138204E+02  0.00000000000E+00 0. -1.
         11    1    3    3    0    0 -0.40366144543E+01  0.34355502393E+01 -0.30272468304E+01  0.61042186504E+01  0.51100000000E-03 0. -1.
        -11    1    3    3    0    0  0.28300039336E+01 -0.63710248378E+00  0.34418630302E+01  0.45012490732E+01  0.51100000000E-03 0.  1.
        -12    1    3    3    0    0 -0.50240479782E+01  0.12313924137E+02 -0.37643108380E+02  0.39923394072E+02  0.00000000000E+00 0.  1.
</event>
<event>
 7    1  0.1161807E-013  0.5052887E+02  0.7816164E-02  0.1300439E+00
        -11   -1    0    0    0    0  0.00000000000E+00  0.00000000000E+00  0.45593999997E+02  0.45594000000E+02  0.51100000000E-03 0. -1.
         11   -1    0    0    0    0 -0.00000000000E+00 -0.00000000000E+00 -0.45593999997E+02  0.45594000000E+02  0.51100000000E-03 0.  1.
    9900012    2    1    2    0    0 -0.10776869689E+02 -0.79158738914E+01 -0.38397429565E+02  0.50528873387E+02  0.30000041147E+02 0.  0.
         12    1    1    2    0    0  0.10776869689E+02  0.79158738914E+01  0.38397429565E+02  0.40659126613E+02  0.00000000000E+00 0. -1.
         11    1    3    3    0    0  0.10458906213E+01 -0.41247975024E+01 -0.25225710396E+02  0.25582109117E+02  0.51100000000E-03 0. -1.
        -11    1    3    3    0    0 -0.13948703296E+02 -0.36649470597E+01 -0.15912579522E+02  0.21475761870E+02  0.51100000000E-03 0.  1.
         12    1    3    3    0    0  0.21259429853E+01 -0.12612932932E+00  0.27408603532E+01  0.34710023999E+01  0.00000000000E+00 0. -1.
</event>
<event>
 7    1  0.1161807E-013  0.5052887E+02  0.7816164E-02  0.1300439E+00
        -11   -1    0    0    0    0  0.00000000000E+00  0.00000000000E+00  0.45593999997E+02  0.45594000000E+02  0.51100000000E-03 0.  1.
         11   -1    0    0    0    0 -0.00000000000E+00 -0.00000000000E+00 -0.45593999997E+02  0.45594000000E+02  0.51100000000E-03 0. -1.
    9900012    2    1    2    0    0 -0.26292922600E+02 -0.29894742852E+02  0.82554063340E+01  0.50528866182E+02  0.30000019248E+02 0.  0.
         12    1    1    2    0    0  0.26292922600E+02  0.29894742852E+02 -0.82554063340E+01  0.40659133818E+02  0.00000000000E+00 0. -1.
         11    1    3    3    0    0 -0.12156649037E+02 -0.16678200021E+02  0.96249630368E+01  0.22772491859E+02  0.51100000000E-03 0. -1.
        -11    1    3    3    0    0 -0.17262157036E+02 -0.14371952390E+02 -0.48050597358E+01  0.22970060521E+02  0.51100000000E-03 0.  1.
         12    1    3    3    0    0  0.31258834722E+01  0.11554095582E+01  0.34355030331E+01  0.47863138028E+01  0.00000000000E+00 0. -1.
</event>
<event>
 7    1  0.1161807E-013  0.5052886E+02  0.7816164E-02  0.1300439E+00
        -11   -1    0    0    0    0  0.00000000000E+00  0.00000000000E+00  0.45593999997E+02  0.45594000000E+02  0.51100000000E-03 0. -1.
         11   -1    0    0    0    0 -0.00000000000E+00 -0.00000000000E+00 -0.45593999997E+02  0.45594000000E+02  0.51100000000E-03 0.  1.
    9900012    2    1    2    0    0  0.37155671014E+02 -0.16487764286E+02 -0.88059401635E+00  0.50528859509E+02  0.29999998964E+02 0.  0.
         12    1    1    2    0    0 -0.37155671014E+02  0.16487764286E+02  0.88059401635E+00  0.40659140491E+02  0.00000000000E+00 0. -1.
         11    1    3    3    0    0  0.61634646265E+01  0.38097344286E+01  0.31150470810E+01  0.78870711419E+01  0.51100000000E-03 0. -1.
        -11    1    3    3    0    0  0.27188490306E+02 -0.10286923220E+02  0.39095397310E+01  0.29331200037E+02  0.51100000000E-03 0.  1.
         12    1    3    3    0    0  0.38037160812E+01 -0.10010575495E+02 -0.79051808284E+01  0.13310588330E+02  0.00000000000E+00 0. -1.
</event>
<event>
 7    1  0.1161807E-013  0.5052886E+02  0.7816164E-02  0.1300439E+00
        -11   -1    0    0    0    0  0.00000000000E+00  0.00000000000E+00  0.45593999997E+02  0.45594000000E+02  0.51100000000E-03 0. -1.
         11   -1    0    0    0    0 -0.00000000000E+00 -0.00000000000E+00 -0.45593999997E+02  0.45594000000E+02  0.51100000000E-03 0.  1.
    9900012    2    1    2    0    0 -0.24644539694E+02  0.10768325672E+02 -0.30493530716E+02  0.50528860929E+02  0.30000003279E+02 0.  0.
         12    1    1    2    0    0  0.24644539694E+02 -0.10768325672E+02  0.30493530716E+02  0.40659139071E+02  0.00000000000E+00 0. -1.
         11    1    3    3    0    0  0.44721068613E+01 -0.21885067080E+01 -0.60803712199E+01  0.78587668131E+01  0.51100000000E-03 0. -1.
        -11    1    3    3    0    0 -0.52464916838E+01 -0.26352839562E+01 -0.74815774348E+01  0.95102259538E+01  0.51100000000E-03 0.  1.
        -12    1    3    3    0    0 -0.23870154871E+02  0.15592116337E+02 -0.16931582061E+02  0.33159868162E+02  0.00000000000E+00 0.  1.
</event>
<event>
 7    1  0.1161807E-013  0.5052885E+02  0.7816164E-02  0.1300439E+00
        -11   -1    0    0    0    0  0.00000000000E+00  0.00000000000E+00  0.45593999997E+02  0.45594000000E+02  0.51100000000E-03 0. -1.
         11   -1    0    0    0    0 -0.00000000000E+00 -0.00000000000E+00 -0.45593999997E+02  0.45594000000E+02  0.51100000000E-03 0.  1.
    9900012    2    1    2    0    0 -0.44780116253E+01  0.17362694552E+02 -0.36491793964E+02  0.50528846333E+02  0.29999958914E+02 0.  0.
         12    1    1    2    0    0  0.44780116253E+01 -0.17362694552E+02  0.36491793964E+02  0.40659153667E+02  0.00000000000E+00 0. -1.
         11    1    3    3    0    0 -0.22814343757E+01  0.31548656754E+00  0.10202932841E+01  0.25190222769E+01  0.51100000000E-03 0. -1.
        -11    1    3    3    0    0 -0.11610849637E+02  0.61994810370E+01 -0.85891872867E+01  0.15716855058E+02  0.51100000000E-03 0.  1.
        -12    1    3    3    0    0  0.94142723874E+01  0.10847726947E+02 -0.28922899961E+02  0.32292968998E+02  0.00000000000E+00 0.  1.
</event>
<event>
 7    1  0.1161807E-013  0.5052884E+02  0.7816164E-02  0.1300439E+00
        -11   -1    0    0    0    0  0.00000000000E+00  0.00000000000E+00  0.45593999997E+02  0.45594000000E+02  0.51100000000E-03 0. -1.
         11   -1    0    0    0    0 -0.00000000000E+00 -0.00000000000E+00 -0.45593999997E+02  0.45594000000E+02  0.51100000000E-03 0.  1.
    9900012    2    1    2    0    0 -0.25771559264E+02 -0.11610183797E+02 -0.29226665741E+02  0.50528835904E+02  0.29999927213E+02 0.  0.
         12    1    1    2    0    0  0.25771559264E+02  0.11610183797E+02  0.29226665741E+02  0.40659164096E+02  0.00000000000E+00 0. -1.
         11    1    3    3    0    0 -0.43412112404E+01 -0.12806544056E+02 -0.99960836279E+01  0.16815926196E+02  0.51100000000E-03 0. -1.
        -11    1    3    3    0    0 -0.68897605493E+01 -0.64660883821E+01 -0.15539428974E+01  0.95756899585E+01  0.51100000000E-03 0.  1.
        -12    1    3    3    0    0 -0.14540587474E+02  0.76624486405E+01 -0.17676639215E+02  0.24137219749E+02  0.00000000000E+00 0.  1.
</event>
<event>
 7    1  0.1161807E-013  0.5052886E+02  0.7816164E-02  0.1300439E+00
        -11   -1    0    0    0    0  0.00000000000E+00  0.00000000000E+00  0.45593999997E+02  0.45594000000E+02  0.51100000000E-03 0.  1.
         11   -1    0    0    0    0 -0.00000000000E+00 -0.00000000000E+00 -0.45593999997E+02  0.45594000000E+02  0.51100000000E-03 0. -1.
    9900012    2    1    2    0    0 -0.19876235058E+02 -0.35444929510E+02  0.13258995561E+01  0.50528858867E+02  0.29999997012E+02 0.  0.
         12    1    1    2    0    0  0.19876235058E+02  0.35444929510E+02 -0.13258995561E+01  0.40659141133E+02  0.00000000000E+00 0. -1.
         11    1    3    3    0    0 -0.41121129726E+01 -0.17928093477E+02 -0.12377532158E+02  0.22170460334E+02  0.51100000000E-03 0. -1.
        -11    1    3    3    0    0 -0.46089806759E+00 -0.32338546575E+01 -0.12716104502E+00  0.32690079791E+01  0.51100000000E-03 0.  1.
         12    1    3    3    0    0 -0.15303224018E+02 -0.14282981375E+02  0.13830592759E+02  0.25089390554E+02  0.00000000000E+00 0. -1.
</event>
<event>
 7    1  0.1161807E-013  0.5052887E+02  0.7816164E-02  0.1300439E+00
        -11   -1    0    0    0    0  0.00000000000E+00  0.00000000000E+00  0.45593999997E+02  0.45594000000E+02  0.51100000000E-03 0. -1.
         11   -1    0    0    0    0 -0.00000000000E+00 -0.00000000000E+00 -0.45593999997E+02  0.45594000000E+02  0.51100000000E-03 0.  1.
    9900012    2    1    2    0    0 -0.10408673224E+02  0.36313078239E+02 -0.15039446918E+02  0.50528867040E+02  0.30000021856E+02 0.  0.
         12    1    1    2    0    0  0.10408673224E+02 -0.36313078239E+02  0.15039446918E+02  0.40659132960E+02  0.00000000000E+00 0. -1.
         11    1    3    3    0    0  0.49053132567E+01  0.11181293021E+02 -0.84634984261E+01  0.14856453737E+02  0.51100000000E-03 0. -1.
        -11    1    3    3    0    0 -0.75362264793E+00  0.78120794647E+01 -0.10080756101E+02  0.12775686929E+02  0.51100000000E-03 0.  1.
         12    1    3    3    0    0 -0.14560363833E+02  0.17319705753E+02  0.35048076097E+01  0.22896726375E+02  0.00000000000E+00 0. -1.
</event>
<event>
 7    1  0.1161807E-013  0.5052882E+02  0.7816164E-02  0.1300439E+00
        -11   -1    0    0    0    0  0.00000000000E+00  0.00000000000E+00  0.45593999997E+02  0.45594000000E+02  0.51100000000E-03 0. -1.
         11   -1    0    0    0    0 -0.00000000000E+00 -0.00000000000E+00 -0.45593999997E+02  0.45594000000E+02  0.51100000000E-03 0.  1.
    9900012    2    1    2    0    0  0.19870172075E+01 -0.40481660924E+02  0.32335859403E+01  0.50528816701E+02  0.29999868844E+02 0.  0.
        -12    1    1    2    0    0 -0.19870172075E+01  0.40481660924E+02 -0.32335859403E+01  0.40659183299E+02  0.00000000000E+00 0.  1.
         11    1    3    3    0    0  0.32100186946E+01  0.15102426071E+01 -0.47358367029E+00  0.35790130631E+01  0.51100000000E-03 0. -1.
        -11    1    3    3    0    0  0.86505055532E+01 -0.11068248711E+02 -0.12858331683E+01  0.14106407872E+02  0.51100000000E-03 0.  1.
         12    1    3    3    0    0 -0.98735070403E+01 -0.30923654820E+02  0.49930027789E+01  0.32843395766E+02  0.00000000000E+00 0. -1.
</event>
<event>
 7    1  0.1161807E-013  0.5052885E+02  0.7816164E-02  0.1300439E+00
        -11   -1    0    0    0    0  0.00000000000E+00  0.00000000000E+00  0.45593999997E+02  0.45594000000E+02  0.51100000000E-03 0. -1.
         11   -1    0    0    0    0 -0.00000000000E+00 -0.00000000000E+00 -0.45593999997E+02  0.45594000000E+02  0.51100000000E-03 0.  1.
    9900012    2    1    2    0    0  0.18745690191E+01  0.73065694999E+01 -0.39953301964E+02  0.50528852140E+02  0.29999976564E+02 0.  0.
         12    1    1    2    0    0 -0.18745690191E+01 -0.73065694999E+01  0.39953301964E+02  0.40659147860E+02  0.00000000000E+00 0. -1.
         11    1    3    3    0    0 -0.64822869204E+01  0.53047209988E+01 -0.68060920678E+01  0.10792728945E+02  0.51100000000E-03 0. -1.
        -11    1    3    3    0    0 -0.22244945570E+01 -0.36262244468E+01  0.24203043846E+00  0.42610396345E+01  0.51100000000E-03 0.  1.
         12    1    3    3    0    0  0.10581350496E+02  0.56280729478E+01 -0.33389240335E+02  0.35475083560E+02  0.00000000000E+00 0. -1.
</event>
<event>
 7    1  0.1161807E-013  0.5052886E+02  0.7816164E-02  0.1300439E+00
        -11   -1    0    0    0    0  0.00000000000E+00  0.00000000000E+00  0.45593999997E+02  0.45594000000E+02  0.51100000000E-03 0. -1.
         11   -1    0    0    0    0 -0.00000000000E+00 -0.00000000000E+00 -0.45593999997E+02  0.45594000000E+02  0.51100000000E-03 0.  1.
    9900012    2    1    2    0    0 -0.90631477496E+01 -0.28712225055E+02 -0.27324591518E+02  0.50528858145E+02  0.29999994819E+02 0.  0.
         12    1    1    2    0    0  0.90631477496E+01  0.28712225055E+02  0.27324591518E+02  0.40659141855E+02  0.00000000000E+00 0. -1.
         11    1    3    3    0    0 -0.13002229740E+02 -0.12039358428E+02 -0.11331966229E+02  0.21033725025E+02  0.51100000000E-03 0. -1.
        -11    1    3    3    0    0  0.89985412983E+00 -0.15683515475E+00 -0.12257428967E+02  0.12291415698E+02  0.51100000000E-03 0.  1.
         12    1    3    3    0    0  0.30392278602E+01 -0.16516031472E+02 -0.37351963220E+01  0.17203717422E+02  0.00000000000E+00 0. -1.
</event>
<event>
 7    1  0.1161807E-013  0.5052886E+02  0.7816164E-02  0.1300439E+00
        -11   -1    0    0    0    0  0.00000000000E+00  0.00000000000E+00  0.45593999997E+02  0.45594000000E+02  0.51100000000E-03 0. -1.
         11   -1    0    0    0    0 -0.00000000000E+00 -0.00000000000E+00 -0.45593999997E+02  0.45594000000E+02  0.51100000000E-03 0.  1.
    9900012    2    1    2    0    0  0.26597985711E+02 -0.45944378954E+01  0.30407297852E+02  0.50528862452E+02  0.30000007909E+02 0.  0.
        -12    1    1    2    0    0 -0.26597985711E+02  0.45944378954E+01 -0.30407297852E+02  0.40659137548E+02  0.00000000000E+00 0.  1.
         11    1    3    3    0    0  0.13487156837E+01  0.54395596242E+01  0.12301479981E+00  0.56056200195E+01  0.51100000000E-03 0. -1.
        -11    1    3    3    0    0 -0.46785176129E+00  0.14039872476E+00 -0.22039332757E+01  0.22574142769E+01  0.51100000000E-03 0.  1.
        -12    1    3    3    0    0  0.25717121789E+02 -0.10174396244E+02  0.32488216328E+02  0.42665828156E+02  0.00000000000E+00 0.  1.
</event>
<event>
 7    1  0.1161807E-013  0.5052886E+02  0.7816164E-02  0.1300439E+00
        -11   -1    0    0    0    0  0.00000000000E+00  0.00000000000E+00  0.45593999997E+02  0.45594000000E+02  0.51100000000E-03 0. -1.
         11   -1    0    0    0    0 -0.00000000000E+00 -0.00000000000E+00 -0.45593999997E+02  0.45594000000E+02  0.51100000000E-03 0.  1.
    9900012    2    1    2    0    0  0.81722106657E+01 -0.52092040470E+01  0.39487276800E+02  0.50528857571E+02  0.29999993073E+02 0.  0.
        -12    1    1    2    0    0 -0.81722106657E+01  0.52092040470E+01 -0.39487276800E+02  0.40659142429E+02  0.00000000000E+00 0.  1.
         11    1    3    3    0    0  0.25525818999E+00  0.53872500037E+01  0.17857129511E+02  0.18653811782E+02  0.51100000000E-03 0. -1.
        -11    1    3    3    0    0 -0.37436220325E+00  0.53550502252E+01  0.39923020103E+01  0.66899316571E+01  0.51100000000E-03 0.  1.
        -12    1    3    3    0    0  0.82913146789E+01 -0.15951504276E+02  0.17637845279E+02  0.25185114132E+02  0.00000000000E+00 0.  1.
</event>
<event>
 7    1  0.1161807E-013  0.5052886E+02  0.7816164E-02  0.1300439E+00
        -11   -1    0    0    0    0  0.00000000000E+00  0.00000000000E+00  0.45593999997E+02  0.45594000000E+02  0.51100000000E-03 0. -1.
         11   -1    0    0    0    0 -0.00000000000E+00 -0.00000000000E+00 -0.45593999997E+02  0.45594000000E+02  0.51100000000E-03 0.  1.
    9900012    2    1    2    0    0  0.73939047064E+01 -0.15878115135E+02  0.36693066570E+02  0.50528862019E+02  0.30000006593E+02 0.  0.
        -12    1    1    2    0    0 -0.73939047064E+01  0.15878115135E+02 -0.36693066570E+02  0.40659137981E+02  0.00000000000E+00 0.  1.
         11    1    3    3    0    0  0.12662179006E+00 -0.15501366559E+01  0.21443987288E+02  0.21500315062E+02  0.51100000000E-03 0. -1.
        -11    1    3    3    0    0 -0.28154957628E+00  0.44710026148E+00  0.12135665018E+02  0.12147161582E+02  0.51100000000E-03 0.  1.
        -12    1    3    3    0    0  0.75488324927E+01 -0.14775078741E+02  0.31134142643E+01  0.16881385375E+02  0.00000000000E+00 0.  1.
</event>
<event>
 7    1  0.1161807E-013  0.5052886E+02  0.7816164E-02  0.1300439E+00
        -11   -1    0    0    0    0  0.00000000000E+00  0.00000000000E+00  0.45593999997E+02  0.45594000000E+02  0.51100000000E-03 0. -1.
         11   -1    0    0    0    0 -0.00000000000E+00 -0.00000000000E+00 -0.45593999997E+02  0.45594000000E+02  0.51100000000E-03 0.  1.
    9900012    2    1    2    0    0 -0.26672725139E+02  0.12156461362E+02  0.28177157338E+02  0.50528855705E+02  0.29999987401E+02 0.  0.
        -12    1    1    2    0    0  0.26672725139E+02 -0.12156461362E+02 -0.28177157338E+02  0.40659144295E+02  0.00000000000E+00 0.  1.
         11    1    3    3    0    0 -0.43427295577E+01  0.15057055737E+01 -0.53708671025E+01  0.70691345283E+01  0.51100000000E-03 0. -1.
        -11    1    3    3    0    0 -0.10782733057E+01  0.38981841627E+00 -0.10665325395E+01  0.15659258087E+01  0.51100000000E-03 0.  1.
         12    1    3    3    0    0 -0.21251722275E+02  0.10260937372E+02  0.34614556980E+02  0.41893795368E+02  0.00000000000E+00 0. -1.
</event>
<event>
 7    1  0.1161807E-013  0.5052886E+02  0.7816164E-02  0.1300439E+00
        -11   -1    0    0    0    0  0.00000000000E+00  0.00000000000E+00  0.45593999997E+02  0.45594000000E+02  0.51100000000E-03 0. -1.
         11   -1    0    0    0    0 -0.00000000000E+00 -0.00000000000E+00 -0.45593999997E+02  0.45594000000E+02  0.51100000000E-03 0.  1.
    9900012    2    1    2    0    0 -0.10772618777E+02 -0.37235880967E+02 -0.12272132965E+02  0.50528863337E+02  0.30000010598E+02 0.  0.
         12    1    1    2    0    0  0.10772618777E+02  0.37235880967E+02  0.12272132965E+02  0.40659136663E+02  0.00000000000E+00 0. -1.
         11    1    3    3    0    0 -0.97553176202E+01 -0.71066237824E+01 -0.88400655702E+01  0.14960517471E+02  0.51100000000E-03 0. -1.
        -11    1    3    3    0    0  0.22274447046E+01 -0.20512990179E+02 -0.10547930585E+02  0.23173327683E+02  0.51100000000E-03 0.  1.
         12    1    3    3    0    0 -0.32447458614E+01 -0.96162670051E+01  0.71158631898E+01  0.12395018183E+02  0.00000000000E+00 0. -1.
</event>
<event>
 7    1  0.1161807E-013  0.5052883E+02  0.7816164E-02  0.1300439E+00
        -11   -1    0    0    0    0  0.00000000000E+00  0.00000000000E+00  0.45593999997E+02  0.45594000000E+02  0.51100000000E-03 0. -1.
         11   -1    0    0    0    0 -0.00000000000E+00 -0.00000000000E+00 -0.45593999997E+02  0.45594000000E+02  0.51100000000E-03 0.  1.
    9900012    2    1    2    0    0 -0.22292334991E+02  0.28744699291E+02 -0.18164855179E+02  0.50528832518E+02  0.29999916922E+02 0.  0.
         12    1    1    2    0    0  0.22292334991E+02 -0.28744699291E+02  0.18164855179E+02  0.40659167482E+02  0.00000000000E+00 0. -1.
         11    1    3    3    0    0  0.18736244936E+01  0.79268230589E+01  0.44152548357E+01  0.92649591513E+01  0.51100000000E-03 0. -1.
        -11    1    3    3    0    0 -0.73212420734E+01  0.50755243613E+01  0.11905250421E+00  0.89093045071E+01  0.51100000000E-03 0.  1.
         12    1    3    3    0    0 -0.16844717411E+02  0.15742351871E+02 -0.22699162519E+02  0.32354568860E+02  0.00000000000E+00 0. -1.
</event>
<event>
 7    1  0.1161807E-013  0.5052887E+02  0.7816164E-02  0.1300439E+00
        -11   -1    0    0    0    0  0.00000000000E+00  0.00000000000E+00  0.45593999997E+02  0.45594000000E+02  0.51100000000E-03 0. -1.
         11   -1    0    0    0    0 -0.00000000000E+00 -0.00000000000E+00 -0.45593999997E+02  0.45594000000E+02  0.51100000000E-03 0.  1.
    9900012    2    1    2    0    0 -0.31889239381E+02 -0.12844821603E+02  0.21708337433E+02  0.50528868868E+02  0.30000027410E+02 0.  0.
        -12    1    1    2    0    0  0.31889239381E+02  0.12844821603E+02 -0.21708337433E+02  0.40659131132E+02  0.00000000000E+00 0.  1.
         11    1    3    3    0    0 -0.59779446134E+01  0.66979065691E+00  0.56459868335E+01  0.82499459944E+01  0.51100000000E-03 0. -1.
        -11    1    3    3    0    0 -0.85215137247E+01  0.75782805020E+01  0.74324452600E+01  0.13612045193E+02  0.51100000000E-03 0.  1.
        -12    1    3    3    0    0 -0.17389781043E+02 -0.21092892762E+02  0.86299053394E+01  0.28666877681E+02  0.00000000000E+00 0.  1.
</event>
<event>
 7    1  0.1161807E-013  0.5052886E+02  0.7816164E-02  0.1300439E+00
        -11   -1    0    0    0    0  0.00000000000E+00  0.00000000000E+00  0.45593999997E+02  0.45594000000E+02  0.51100000000E-03 0. -1.
         11   -1    0    0    0    0 -0.00000000000E+00 -0.00000000000E+00 -0.45593999997E+02  0.45594000000E+02  0.51100000000E-03 0.  1.
    9900012    2    1    2    0    0 -0.44598523999E+01  0.26911988447E+02 -0.30149959435E+02  0.50528862533E+02  0.30000008157E+02 0.  0.
         12    1    1    2    0    0  0.44598523999E+01 -0.26911988447E+02  0.30149959435E+02  0.40659137467E+02  0.00000000000E+00 0. -1.
         11    1    3    3    0    0  0.34829608866E+01  0.76406165067E+01  0.94240603922E+00  0.84497435786E+01  0.51100000000E-03 0. -1.
        -11    1    3    3    0    0  0.33115945084E+01  0.11392800798E+02 -0.55976241191E+01  0.13118535142E+02  0.51100000000E-03 0.  1.
        -12    1    3    3    0    0 -0.11254407795E+02  0.78785711420E+01 -0.25494741355E+02  0.28960583813E+02  0.00000000000E+00 0.  1.
</event>
<event>
 7    1  0.1161807E-013  0.5052886E+02  0.7816164E-02  0.1300439E+00
        -11   -1    0    0    0    0  0.00000000000E+00  0.00000000000E+00  0.45593999997E+02  0.45594000000E+02  0.51100000000E-03 0.  1.
         11   -1    0    0    0    0 -0.00000000000E+00 -0.00000000000E+00 -0.45593999997E+02  0.45594000000E+02  0.51100000000E-03 0. -1.
    9900012    2    1    2    0    0 -0.16582536331E+02 -0.29086622298E+02  0.23068459767E+02  0.50528856577E+02  0.29999990051E+02 0.  0.
        -12    1    1    2    0    0  0.16582536331E+02  0.29086622298E+02 -0.23068459767E+02  0.40659143423E+02  0.00000000000E+00 0.  1.
         11    1    3    3    0    0  0.22814225341E+01 -0.18399915003E+02  0.13874873224E+02  0.23157587701E+02  0.51100000000E-03 0. -1.
        -11    1    3    3    0    0 -0.63996727877E+00  0.21857622828E+01 -0.13988494075E+01  0.26728065400E+01  0.51100000000E-03 0.  1.
        -12    1    3    3    0    0 -0.18223991586E+02 -0.12872469578E+02  0.10592435951E+02  0.24698462336E+02  0.00000000000E+00 0.  1.
</event>
<event>
 7    1  0.1161807E-013  0.5052885E+02  0.7816164E-02  0.1300439E+00
        -11   -1    0    0    0    0  0.00000000000E+00  0.00000000000E+00  0.45593999997E+02  0.45594000000E+02  0.51100000000E-03 0.  1.
         11   -1    0    0    0    0 -0.00000000000E+00 -0.00000000000E+00 -0.45593999997E+02  0.45594000000E+02  0.51100000000E-03 0. -1.
    9900012    2    1    2    0    0 -0.37442890889E+02 -0.11789725061E+02 -0.10592375505E+02  0.50528854485E+02  0.29999983693E+02 0.  0.
         12    1    1    2    0    0  0.37442890889E+02  0.11789725061E+02  0.10592375505E+02  0.40659145515E+02  0.00000000000E+00 0. -1.
         11    1    3    3    0    0 -0.30961908546E+00 -0.14967290454E+01 -0.56631329051E+00  0.16299609865E+01  0.51100000000E-03 0. -1.
        -11    1    3    3    0    0 -0.83179560679E+01  0.95193760292E+01 -0.48244782684E+00  0.12650678610E+02  0.51100000000E-03 0.  1.
         12    1    3    3    0    0 -0.28815315736E+02 -0.19812372045E+02 -0.95436143881E+01  0.36248214888E+02  0.00000000000E+00 0. -1.
</event>
<event>
 7    1  0.1161807E-013  0.5052886E+02  0.7816164E-02  0.1300439E+00
        -11   -1    0    0    0    0  0.00000000000E+00  0.00000000000E+00  0.45593999997E+02  0.45594000000E+02  0.51100000000E-03 0. -1.
         11   -1    0    0    0    0 -0.00000000000E+00 -0.00000000000E+00 -0.45593999997E+02  0.45594000000E+02  0.51100000000E-03 0.  1.
    9900012    2    1    2    0    0 -0.30107214193E+02 -0.16574307643E+02 -0.21725870158E+02  0.50528862596E+02  0.30000008347E+02 0.  0.
         12    1    1    2    0    0  0.30107214193E+02  0.16574307643E+02  0.21725870158E+02  0.40659137404E+02  0.00000000000E+00 0. -1.
         11    1    3    3    0    0 -0.10932183850E+02 -0.10626898530E+02 -0.81962429385E+01  0.17309593140E+02  0.51100000000E-03 0. -1.
        -11    1    3    3    0    0 -0.15487463488E+02 -0.38559733788E+01  0.29260622666E+01  0.16226271804E+02  0.51100000000E-03 0.  1.
        -12    1    3    3    0    0 -0.36875668544E+01 -0.20914357344E+01 -0.16455689486E+02  0.16992997652E+02  0.00000000000E+00 0.  1.
</event>
<event>
 7    1  0.1161807E-013  0.5052887E+02  0.7816164E-02  0.1300439E+00
        -11   -1    0    0    0    0  0.00000000000E+00  0.00000000000E+00  0.45593999997E+02  0.45594000000E+02  0.51100000000E-03 0. -1.
         11   -1    0    0    0    0 -0.00000000000E+00 -0.00000000000E+00 -0.45593999997E+02  0.45594000000E+02  0.51100000000E-03 0.  1.
    9900012    2    1    2    0    0 -0.66363510459E+00  0.30235871873E+02 -0.27175656127E+02  0.50528872545E+02  0.30000038587E+02 0.  0.
         12    1    1    2    0    0  0.66363510459E+00 -0.30235871873E+02  0.27175656127E+02  0.40659127455E+02  0.00000000000E+00 0. -1.
         11    1    3    3    0    0  0.81525900985E+01  0.11330035436E+02 -0.48162788678E-01  0.13958393468E+02  0.51100000000E-03 0. -1.
        -11    1    3    3    0    0 -0.42388594972E+01  0.19371890439E+02 -0.23208968872E+02  0.30526943925E+02  0.51100000000E-03 0.  1.
        -12    1    3    3    0    0 -0.45773657059E+01 -0.46605400170E+00 -0.39185244663E+01  0.60435351518E+01  0.00000000000E+00 0.  1.
</event>
<event>
 7    1  0.1485397E-013  0.5052886E+02  0.7816164E-02  0.1300439E+00
        -11   -1    0    0    0    0  0.00000000000E+00  0.00000000000E+00  0.45593999997E+02  0.45594000000E+02  0.51100000000E-03 0. -1.
         11   -1    0    0    0    0 -0.00000000000E+00 -0.00000000000E+00 -0.45593999997E+02  0.45594000000E+02  0.51100000000E-03 0.  1.
    9900012    2    1    2    0    0 -0.13152795130E+02 -0.10414915810E+02 -0.37036456729E+02  0.50528860584E+02  0.30000002231E+02 0.  0.
         12    1    1    2    0    0  0.13152795130E+02  0.10414915810E+02  0.37036456729E+02  0.40659139416E+02  0.00000000000E+00 0. -1.
         11    1    3    3    0    0 -0.71112020712E+01 -0.76826173847E+01 -0.23564654685E+01  0.10730551456E+02  0.51100000000E-03 0.  1.
        -11    1    3    3    0    0 -0.68584628286E+01 -0.33679010065E+00 -0.21865559291E+01  0.72064531523E+01  0.51100000000E-03 0. -1.
        -12    1    3    3    0    0  0.81686977012E+00 -0.23955083247E+01 -0.32493435331E+02  0.32591855976E+02  0.00000000000E+00 0.  1.
</event>
<event>
 7    1  0.1161807E-013  0.5052884E+02  0.7816164E-02  0.1300439E+00
        -11   -1    0    0    0    0  0.00000000000E+00  0.00000000000E+00  0.45593999997E+02  0.45594000000E+02  0.51100000000E-03 0. -1.
         11   -1    0    0    0    0 -0.00000000000E+00 -0.00000000000E+00 -0.45593999997E+02  0.45594000000E+02  0.51100000000E-03 0.  1.
    9900012    2    1    2    0    0 -0.82362489493E+01 -0.22801781626E+01  0.39750879593E+02  0.50528838208E+02  0.29999934217E+02 0.  0.
        -12    1    1    2    0    0  0.82362489493E+01  0.22801781626E+01 -0.39750879593E+02  0.40659161792E+02  0.00000000000E+00 0.  1.
         11    1    3    3    0    0  0.28197638427E+01 -0.36141642701E+01  0.32898085261E+02  0.33215918859E+02  0.51100000000E-03 0. -1.
        -11    1    3    3    0    0 -0.73314966404E+01 -0.13625846831E+01  0.94453465774E+01  0.12034203432E+02  0.51100000000E-03 0.  1.
        -12    1    3    3    0    0 -0.37245161515E+01  0.26965707907E+01 -0.25925522460E+01  0.52787159177E+01  0.00000000000E+00 0.  1.
</event>
<event>
 7    1  0.1358371E-013  0.5052887E+02  0.7816164E-02  0.1300439E+00
        -11   -1    0    0    0    0  0.00000000000E+00  0.00000000000E+00  0.45593999997E+02  0.45594000000E+02  0.51100000000E-03 0. -1.
         11   -1    0    0    0    0 -0.00000000000E+00 -0.00000000000E+00 -0.45593999997E+02  0.45594000000E+02  0.51100000000E-03 0.  1.
    9900012    2    1    2    0    0 -0.98259617792E+01 -0.87097870289E+01 -0.38480583415E+02  0.50528865541E+02  0.30000017298E+02 0.  0.
         12    1    1    2    0    0  0.98259617792E+01  0.87097870289E+01  0.38480583415E+02  0.40659134459E+02  0.00000000000E+00 0. -1.
         11    1    3    3    0    0  0.19920601740E+01 -0.71079133341E+01  0.14468089920E+01  0.75222331938E+01  0.51100000000E-03 0. -1.
        -11    1    3    3    0    0 -0.61781496225E+01 -0.56969918474E+01 -0.27532520476E+02  0.28786540829E+02  0.51100000000E-03 0.  1.
        -12    1    3    3    0    0 -0.56398723306E+01  0.40951181526E+01 -0.12394871931E+02  0.14220091518E+02  0.00000000000E+00 0.  1.
</event>
<event>
 7    1  0.1161807E-013  0.5052885E+02  0.7816164E-02  0.1300439E+00
        -11   -1    0    0    0    0  0.00000000000E+00  0.00000000000E+00  0.45593999997E+02  0.45594000000E+02  0.51100000000E-03 0. -1.
         11   -1    0    0    0    0 -0.00000000000E+00 -0.00000000000E+00 -0.45593999997E+02  0.45594000000E+02  0.51100000000E-03 0.  1.
    9900012    2    1    2    0    0  0.26340806847E+02  0.53565663338E+01  0.30506318257E+02  0.50528851437E+02  0.29999974428E+02 0.  0.
        -12    1    1    2    0    0 -0.26340806847E+02 -0.53565663338E+01 -0.30506318257E+02  0.40659148563E+02  0.00000000000E+00 0.  1.
         11    1    3    3    0    0  0.16825014996E+02 -0.44579640234E+01  0.16415189249E+02  0.23925154360E+02  0.51100000000E-03 0. -1.
        -11    1    3    3    0    0 -0.53648029001E+01  0.23857271712E+01  0.45623245125E+01  0.74355638328E+01  0.51100000000E-03 0.  1.
         12    1    3    3    0    0  0.14880594751E+02  0.74288031860E+01  0.95288044963E+01  0.19168133244E+02  0.00000000000E+00 0. -1.
</event>
<event>
 7    1  0.1161807E-013  0.5052886E+02  0.7816164E-02  0.1300439E+00
        -11   -1    0    0    0    0  0.00000000000E+00  0.00000000000E+00  0.45593999997E+02  0.45594000000E+02  0.51100000000E-03 0. -1.
         11   -1    0    0    0    0 -0.00000000000E+00 -0.00000000000E+00 -0.45593999997E+02  0.45594000000E+02  0.51100000000E-03 0.  1.
    9900012    2    1    2    0    0  0.71746417984E+01  0.29855244463E+01  0.39909604700E+02  0.50528863407E+02  0.30000010812E+02 0.  0.
        -12    1    1    2    0    0 -0.71746417984E+01 -0.29855244463E+01 -0.39909604700E+02  0.40659136593E+02  0.00000000000E+00 0.  1.
         11    1    3    3    0    0  0.13915697670E+01 -0.78951489006E+00  0.12377751871E+02  0.12480726815E+02  0.51100000000E-03 0. -1.
        -11    1    3    3    0    0 -0.94072188647E+01  0.24869849749E+01  0.16766345838E+02  0.19385335026E+02  0.51100000000E-03 0.  1.
        -12    1    3    3    0    0  0.15190290896E+02  0.12880543614E+01  0.10765506991E+02  0.18662801567E+02  0.00000000000E+00 0.  1.
</event>
<event>
 7    1  0.1161807E-013  0.5052887E+02  0.7816164E-02  0.1300439E+00
        -11   -1    0    0    0    0  0.00000000000E+00  0.00000000000E+00  0.45593999997E+02  0.45594000000E+02  0.51100000000E-03 0. -1.
         11   -1    0    0    0    0 -0.00000000000E+00 -0.00000000000E+00 -0.45593999997E+02  0.45594000000E+02  0.51100000000E-03 0.  1.
    9900012    2    1    2    0    0 -0.27021011257E+02  0.11473453417E+02 -0.28131652891E+02  0.50528867237E+02  0.30000022454E+02 0.  0.
         12    1    1    2    0    0  0.27021011257E+02 -0.11473453417E+02  0.28131652891E+02  0.40659132763E+02  0.00000000000E+00 0. -1.
         11    1    3    3    0    0 -0.22937115597E+02  0.64307606158E+01 -0.36283219694E+01  0.24096279268E+02  0.51100000000E-03 0.  1.
        -11    1    3    3    0    0 -0.54583802533E+01  0.38033549204E+01 -0.11400129956E+02  0.13199332821E+02  0.51100000000E-03 0. -1.
        -12    1    3    3    0    0  0.13744845930E+01  0.12393378806E+01 -0.13103200965E+02  0.13233255148E+02  0.00000000000E+00 0.  1.
</event>
<event>
 7    1  0.1161807E-013  0.5052887E+02  0.7816164E-02  0.1300439E+00
        -11   -1    0    0    0    0  0.00000000000E+00  0.00000000000E+00  0.45593999997E+02  0.45594000000E+02  0.51100000000E-03 0. -1.
         11   -1    0    0    0    0 -0.00000000000E+00 -0.00000000000E+00 -0.45593999997E+02  0.45594000000E+02  0.51100000000E-03 0.  1.
    9900012    2    1    2    0    0 -0.27500248045E+02 -0.19831909028E+02  0.22440962443E+02  0.50528867526E+02  0.30000023331E+02 0.  0.
        -12    1    1    2    0    0  0.27500248045E+02  0.19831909028E+02 -0.22440962443E+02  0.40659132474E+02  0.00000000000E+00 0.  1.
         11    1    3    3    0    0 -0.20579702216E+01 -0.71660867988E+01 -0.23165607085E+01  0.78073359873E+01  0.51100000000E-03 0. -1.
        -11    1    3    3    0    0 -0.72264980724E+01 -0.70847546980E+01 -0.15520034921E+01  0.10238395315E+02  0.51100000000E-03 0.  1.
         12    1    3    3    0    0 -0.18215779751E+02 -0.55810675311E+01  0.26309526643E+02  0.32483136223E+02  0.00000000000E+00 0. -1.
</event>
<event>
 7    1  0.1161807E-013  0.5052890E+02  0.7816164E-02  0.1300439E+00
        -11   -1    0    0    0    0  0.00000000000E+00  0.00000000000E+00  0.45593999997E+02  0.45594000000E+02  0.51100000000E-03 0. -1.
         11   -1    0    0    0    0 -0.00000000000E+00 -0.00000000000E+00 -0.45593999997E+02  0.45594000000E+02  0.51100000000E-03 0.  1.
    9900012    2    1    2    0    0 -0.13390942236E+02  0.26830334094E+02 -0.27458669462E+02  0.50528896589E+02  0.30000111672E+02 0.  0.
         12    1    1    2    0    0  0.13390942236E+02 -0.26830334094E+02  0.27458669462E+02  0.40659103411E+02  0.00000000000E+00 0. -1.
         11    1    3    3    0    0 -0.94587753642E+01  0.32709719177E+00 -0.98714492100E+01  0.13675559723E+02  0.51100000000E-03 0. -1.
        -11    1    3    3    0    0 -0.62432137328E+00  0.17702350487E+01 -0.10843695768E+02  0.11004964673E+02  0.51100000000E-03 0.  1.
        -12    1    3    3    0    0 -0.33078454989E+01  0.24733001854E+02 -0.67435244840E+01  0.25848372193E+02  0.00000000000E+00 0.  1.
</event>
<event>
 7    1  0.1161807E-013  0.5052886E+02  0.7816164E-02  0.1300439E+00
        -11   -1    0    0    0    0  0.00000000000E+00  0.00000000000E+00  0.45593999997E+02  0.45594000000E+02  0.51100000000E-03 0. -1.
         11   -1    0    0    0    0 -0.00000000000E+00 -0.00000000000E+00 -0.45593999997E+02  0.45594000000E+02  0.51100000000E-03 0.  1.
    9900012    2    1    2    0    0 -0.14467069519E+02 -0.34876789405E+02  0.15082409797E+02  0.50528860500E+02  0.30000001975E+02 0.  0.
        -12    1    1    2    0    0  0.14467069519E+02  0.34876789405E+02 -0.15082409797E+02  0.40659139500E+02  0.00000000000E+00 0.  1.
         11    1    3    3    0    0 -0.12775386249E+02 -0.18785091680E+02  0.12642812945E+02  0.25998670786E+02  0.51100000000E-03 0. -1.
        -11    1    3    3    0    0 -0.16930624437E+01  0.36741852648E+01  0.25161690719E+01  0.47641583578E+01  0.51100000000E-03 0.  1.
         12    1    3    3    0    0  0.13791732875E-02 -0.19765882989E+02 -0.76572219983E-01  0.19766031355E+02  0.00000000000E+00 0. -1.
</event>
<event>
 7    1  0.1161807E-013  0.5052885E+02  0.7816164E-02  0.1300439E+00
        -11   -1    0    0    0    0  0.00000000000E+00  0.00000000000E+00  0.45593999997E+02  0.45594000000E+02  0.51100000000E-03 0.  1.
         11   -1    0    0    0    0 -0.00000000000E+00 -0.00000000000E+00 -0.45593999997E+02  0.45594000000E+02  0.51100000000E-03 0. -1.
    9900012    2    1    2    0    0 -0.32307910641E+01  0.28270928109E+02  0.29042779384E+02  0.50528850705E+02  0.29999972203E+02 0.  0.
        -12    1    1    2    0    0  0.32307910641E+01 -0.28270928109E+02 -0.29042779384E+02  0.40659149295E+02  0.00000000000E+00 0.  1.
         11    1    3    3    0    0 -0.30514977179E+00  0.21980343385E+01  0.20004256384E+01  0.29876703855E+01  0.51100000000E-03 0. -1.
        -11    1    3    3    0    0  0.98216381426E+01  0.22485588499E+02  0.23161048994E+02  0.33741672405E+02  0.51100000000E-03 0.  1.
         12    1    3    3    0    0 -0.12747279435E+02  0.35873052720E+01  0.38813047511E+01  0.13799507914E+02  0.00000000000E+00 0. -1.
</event>
<event>
 7    1  0.1161807E-013  0.5052887E+02  0.7816164E-02  0.1300439E+00
        -11   -1    0    0    0    0  0.00000000000E+00  0.00000000000E+00  0.45593999997E+02  0.45594000000E+02  0.51100000000E-03 0. -1.
         11   -1    0    0    0    0 -0.00000000000E+00 -0.00000000000E+00 -0.45593999997E+02  0.45594000000E+02  0.51100000000E-03 0.  1.
    9900012    2    1    2    0    0 -0.12095405981E+02 -0.51176345693E+01  0.38479555373E+02  0.50528865588E+02  0.30000017441E+02 0.  0.
        -12    1    1    2    0    0  0.12095405981E+02  0.51176345693E+01 -0.38479555373E+02  0.40659134412E+02  0.00000000000E+00 0.  1.
         11    1    3    3    0    0 -0.37991921870E+01 -0.11860213570E+02  0.10138103523E+02  0.16058632274E+02  0.51100000000E-03 0.  1.
        -11    1    3    3    0    0 -0.73357137636E+01 -0.16389822142E+01  0.23652904249E+02  0.24818518062E+02  0.51100000000E-03 0. -1.
        -12    1    3    3    0    0 -0.96050003064E+00  0.83815612148E+01  0.46885476007E+01  0.96517152522E+01  0.00000000000E+00 0.  1.
</event>
<event>
 7    1  0.1161807E-013  0.5052890E+02  0.7816164E-02  0.1300439E+00
        -11   -1    0    0    0    0  0.00000000000E+00  0.00000000000E+00  0.45593999997E+02  0.45594000000E+02  0.51100000000E-03 0. -1.
         11   -1    0    0    0    0 -0.00000000000E+00 -0.00000000000E+00 -0.45593999997E+02  0.45594000000E+02  0.51100000000E-03 0.  1.
    9900012    2    1    2    0    0  0.34281089561E+01  0.36386657892E+02 -0.17816322853E+02  0.50528903065E+02  0.30000131356E+02 0.  0.
         12    1    1    2    0    0 -0.34281089561E+01 -0.36386657892E+02  0.17816322853E+02  0.40659096935E+02  0.00000000000E+00 0. -1.
         11    1    3    3    0    0 -0.18702464421E+00  0.47124464112E+00  0.11520704933E+01  0.12586963144E+01  0.51100000000E-03 0. -1.
        -11    1    3    3    0    0 -0.86492657578E+01  0.28825117515E+01  0.27635038112E+00  0.91211316151E+01  0.51100000000E-03 0.  1.
         12    1    3    3    0    0  0.12264399358E+02  0.33032901500E+02 -0.19244743727E+02  0.40149075135E+02  0.00000000000E+00 0. -1.
</event>
<event>
 7    1  0.1161807E-013  0.5052886E+02  0.7816164E-02  0.1300439E+00
        -11   -1    0    0    0    0  0.00000000000E+00  0.00000000000E+00  0.45593999997E+02  0.45594000000E+02  0.51100000000E-03 0. -1.
         11   -1    0    0    0    0 -0.00000000000E+00 -0.00000000000E+00 -0.45593999997E+02  0.45594000000E+02  0.51100000000E-03 0.  1.
    9900012    2    1    2    0    0  0.12384631379E+02  0.63364033525E+01 -0.38205193705E+02  0.50528856774E+02  0.29999990650E+02 0.  0.
         12    1    1    2    0    0 -0.12384631379E+02 -0.63364033525E+01  0.38205193705E+02  0.40659143226E+02  0.00000000000E+00 0. -1.
         11    1    3    3    0    0  0.40654695593E+01  0.23118037760E+00 -0.40890363982E+01  0.57707630372E+01  0.51100000000E-03 0. -1.
        -11    1    3    3    0    0  0.12862229231E+02  0.11286454528E+02 -0.10317287626E+02  0.19981677127E+02  0.51100000000E-03 0.  1.
         12    1    3    3    0    0 -0.45430674114E+01 -0.51812315534E+01 -0.23798869681E+02  0.24776416609E+02  0.00000000000E+00 0. -1.
</event>
<event>
 7    1  0.1161807E-013  0.5052886E+02  0.7816164E-02  0.1300439E+00
        -11   -1    0    0    0    0  0.00000000000E+00  0.00000000000E+00  0.45593999997E+02  0.45594000000E+02  0.51100000000E-03 0. -1.
         11   -1    0    0    0    0 -0.00000000000E+00 -0.00000000000E+00 -0.45593999997E+02  0.45594000000E+02  0.51100000000E-03 0.  1.
    9900012    2    1    2    0    0 -0.71796877577E+01 -0.15234438740E+02 -0.37007151918E+02  0.50528864088E+02  0.30000012882E+02 0.  0.
         12    1    1    2    0    0  0.71796877577E+01  0.15234438740E+02  0.37007151918E+02  0.40659135912E+02  0.00000000000E+00 0. -1.
         11    1    3    3    0    0  0.14734743823E+01 -0.40606329286E+01 -0.43267041956E+01  0.61139378467E+01  0.51100000000E-03 0. -1.
        -11    1    3    3    0    0 -0.11751337270E+02 -0.18604996534E+02 -0.24653962363E+02  0.33046296073E+02  0.51100000000E-03 0.  1.
        -12    1    3    3    0    0  0.30981751301E+01  0.74311907225E+01 -0.80264853595E+01  0.11368630169E+02  0.00000000000E+00 0.  1.
</event>
<event>
 7    1  0.1161807E-013  0.5052886E+02  0.7816164E-02  0.1300439E+00
        -11   -1    0    0    0    0  0.00000000000E+00  0.00000000000E+00  0.45593999997E+02  0.45594000000E+02  0.51100000000E-03 0. -1.
         11   -1    0    0    0    0 -0.00000000000E+00 -0.00000000000E+00 -0.45593999997E+02  0.45594000000E+02  0.51100000000E-03 0.  1.
    9900012    2    1    2    0    0  0.11885847763E+02  0.26810230232E+02 -0.28162097524E+02  0.50528861309E+02  0.30000004435E+02 0.  0.
         12    1    1    2    0    0 -0.11885847763E+02 -0.26810230232E+02  0.28162097524E+02  0.40659138691E+02  0.00000000000E+00 0. -1.
         11    1    3    3    0    0  0.12336717414E+02 -0.10174368389E+01 -0.75036479370E+01  0.14475306798E+02  0.51100000000E-03 0. -1.
        -11    1    3    3    0    0  0.37766708810E+01  0.61939476398E+01 -0.72317423783E+01  0.10243355329E+02  0.51100000000E-03 0.  1.
        -12    1    3    3    0    0 -0.42275405315E+01  0.21633719431E+02 -0.13426707208E+02  0.25810199182E+02  0.00000000000E+00 0.  1.
</event>
<event>
 7    1  0.1161807E-013  0.5052886E+02  0.7816164E-02  0.1300439E+00
        -11   -1    0    0    0    0  0.00000000000E+00  0.00000000000E+00  0.45593999997E+02  0.45594000000E+02  0.51100000000E-03 0. -1.
         11   -1    0    0    0    0 -0.00000000000E+00 -0.00000000000E+00 -0.45593999997E+02  0.45594000000E+02  0.51100000000E-03 0.  1.
    9900012    2    1    2    0    0  0.54829084989E+01 -0.18578833332E+02 -0.35748152871E+02  0.50528858749E+02  0.29999996652E+02 0.  0.
         12    1    1    2    0    0 -0.54829084989E+01  0.18578833332E+02  0.35748152871E+02  0.40659141251E+02  0.00000000000E+00 0. -1.
         11    1    3    3    0    0  0.62020969201E+01  0.48950194972E+01 -0.11707542058E+02  0.14124226116E+02  0.51100000000E-03 0. -1.
        -11    1    3    3    0    0 -0.23953436082E+01 -0.13638897107E+02 -0.22340390367E+02  0.26284029892E+02  0.51100000000E-03 0.  1.
        -12    1    3    3    0    0  0.16761551870E+01 -0.98349557222E+01 -0.17002204457E+01  0.10120602741E+02  0.00000000000E+00 0.  1.
</event>
<event>
 7    1  0.1570606E-013  0.5052886E+02  0.7816164E-02  0.1300439E+00
        -11   -1    0    0    0    0  0.00000000000E+00  0.00000000000E+00  0.45593999997E+02  0.45594000000E+02  0.51100000000E-03 0. -1.
         11   -1    0    0    0    0 -0.00000000000E+00 -0.00000000000E+00 -0.45593999997E+02  0.45594000000E+02  0.51100000000E-03 0.  1.
    9900012    2    1    2    0    0 -0.12666694973E+02 -0.30479954066E+02 -0.23742220148E+02  0.50528858605E+02  0.29999996216E+02 0.  0.
         12    1    1    2    0    0  0.12666694973E+02  0.30479954066E+02  0.23742220148E+02  0.40659141395E+02  0.00000000000E+00 0. -1.
         11    1    3    3    0    0  0.39277256689E+01  0.23190597859E+01 -0.14619135432E+01  0.47898077926E+01  0.51100000000E-03 0. -1.
        -11    1    3    3    0    0 -0.14177501784E+02 -0.11355820533E+02 -0.79047227950E+01  0.19810120129E+02  0.51100000000E-03 0.  1.
        -12    1    3    3    0    0 -0.24169188577E+01 -0.21443193319E+02 -0.14375583810E+02  0.25928930683E+02  0.00000000000E+00 0.  1.
</event>
<event>
 7    1  0.1161807E-013  0.5052883E+02  0.7816164E-02  0.1300439E+00
        -11   -1    0    0    0    0  0.00000000000E+00  0.00000000000E+00  0.45593999997E+02  0.45594000000E+02  0.51100000000E-03 0. -1.
         11   -1    0    0    0    0 -0.00000000000E+00 -0.00000000000E+00 -0.45593999997E+02  0.45594000000E+02  0.51100000000E-03 0.  1.
    9900012    2    1    2    0    0 -0.87046893685E+01 -0.10083151306E+02  0.38415189897E+02  0.50528826717E+02  0.29999899288E+02 0.  0.
        -12    1    1    2    0    0  0.87046893685E+01  0.10083151306E+02 -0.38415189897E+02  0.40659173283E+02  0.00000000000E+00 0.  1.
         11    1    3    3    0    0 -0.12161622412E+02 -0.10777366866E+02  0.15568855551E+02  0.22504354238E+02  0.51100000000E-03 0. -1.
        -11    1    3    3    0    0 -0.19207884441E+01 -0.67419077775E+01  0.88921232349E+01  0.11323100486E+02  0.51100000000E-03 0.  1.
         12    1    3    3    0    0  0.53777214873E+01  0.74361233378E+01  0.13954211111E+02  0.16701371992E+02  0.00000000000E+00 0. -1.
</event>
<event>
 7    1  0.1161807E-013  0.5052886E+02  0.7816164E-02  0.1300439E+00
        -11   -1    0    0    0    0  0.00000000000E+00  0.00000000000E+00  0.45593999997E+02  0.45594000000E+02  0.51100000000E-03 0. -1.
         11   -1    0    0    0    0 -0.00000000000E+00 -0.00000000000E+00 -0.45593999997E+02  0.45594000000E+02  0.51100000000E-03 0.  1.
    9900012    2    1    2    0    0  0.65920563585E+01 -0.10834918067E+02 -0.38630490297E+02  0.50528862809E+02  0.30000008993E+02 0.  0.
         12    1    1    2    0    0 -0.65920563585E+01  0.10834918067E+02  0.38630490297E+02  0.40659137191E+02  0.00000000000E+00 0. -1.
         11    1    3    3    0    0  0.38062742525E+01 -0.12824455642E+02 -0.11749311841E+02  0.17804513899E+02  0.51100000000E-03 0. -1.
        -11    1    3    3    0    0  0.17947867360E+01  0.32170752920E+01  0.17298954863E+01  0.40698122213E+01  0.51100000000E-03 0.  1.
        -12    1    3    3    0    0  0.99099537002E+00 -0.12275377170E+01 -0.28611073942E+02  0.28654536688E+02  0.00000000000E+00 0.  1.
</event>
<event>
 7    1  0.1161807E-013  0.5052886E+02  0.7816164E-02  0.1300439E+00
        -11   -1    0    0    0    0  0.00000000000E+00  0.00000000000E+00  0.45593999997E+02  0.45594000000E+02  0.51100000000E-03 0. -1.
         11   -1    0    0    0    0 -0.00000000000E+00 -0.00000000000E+00 -0.45593999997E+02  0.45594000000E+02  0.51100000000E-03 0.  1.
    9900012    2    1    2    0    0 -0.11772565174E+02  0.51185398559E+01 -0.38579432165E+02  0.50528864161E+02  0.30000013103E+02 0.  0.
         12    1    1    2    0    0  0.11772565174E+02 -0.51185398559E+01  0.38579432165E+02  0.40659135839E+02  0.00000000000E+00 0. -1.
         11    1    3    3    0    0  0.24158426972E-01  0.97509802735E+01 -0.18524387124E+02  0.20934065981E+02  0.51100000000E-03 0. -1.
        -11    1    3    3    0    0  0.41542775065E+01 -0.52134009152E-02 -0.81901373759E+01  0.91834851379E+01  0.51100000000E-03 0.  1.
        -12    1    3    3    0    0 -0.15951001107E+02 -0.46272270167E+01 -0.11864907665E+02  0.20411313042E+02  0.00000000000E+00 0.  1.
</event>
<event>
 7    1  0.1161807E-013  0.5052886E+02  0.7816164E-02  0.1300439E+00
        -11   -1    0    0    0    0  0.00000000000E+00  0.00000000000E+00  0.45593999997E+02  0.45594000000E+02  0.51100000000E-03 0. -1.
         11   -1    0    0    0    0 -0.00000000000E+00 -0.00000000000E+00 -0.45593999997E+02  0.45594000000E+02  0.51100000000E-03 0.  1.
    9900012    2    1    2    0    0  0.90795443951E+01  0.50887994341E+01  0.39304344985E+02  0.50528861534E+02  0.30000005119E+02 0.  0.
        -12    1    1    2    0    0 -0.90795443951E+01 -0.50887994341E+01 -0.39304344985E+02  0.40659138466E+02  0.00000000000E+00 0.  1.
         11    1    3    3    0    0  0.45199536837E+01  0.37672773050E+01  0.16430724746E+02  0.17452537796E+02  0.51100000000E-03 0. -1.
        -11    1    3    3    0    0  0.13238552410E+02 -0.33512089387E+01  0.16124116347E+02  0.21130002355E+02  0.51100000000E-03 0.  1.
        -12    1    3    3    0    0 -0.86789616987E+01  0.46727310678E+01  0.67495038919E+01  0.11946321383E+02  0.00000000000E+00 0.  1.
</event>
<event>
 7    1  0.1161807E-013  0.5052885E+02  0.7816164E-02  0.1300439E+00
        -11   -1    0    0    0    0  0.00000000000E+00  0.00000000000E+00  0.45593999997E+02  0.45594000000E+02  0.51100000000E-03 0. -1.
         11   -1    0    0    0    0 -0.00000000000E+00 -0.00000000000E+00 -0.45593999997E+02  0.45594000000E+02  0.51100000000E-03 0.  1.
    9900012    2    1    2    0    0  0.18725197288E+01 -0.15587410269E+02 -0.37505897987E+02  0.50528854991E+02  0.29999985232E+02 0.  0.
         12    1    1    2    0    0 -0.18725197288E+01  0.15587410269E+02  0.37505897987E+02  0.40659145009E+02  0.00000000000E+00 0. -1.
         11    1    3    3    0    0 -0.21674210269E+01  0.24383258479E+01 -0.18869140748E+01  0.37687652932E+01  0.51100000000E-03 0. -1.
        -11    1    3    3    0    0 -0.90161128428E+01 -0.55874773387E+01 -0.21073393538E+02  0.23592331577E+02  0.51100000000E-03 0.  1.
         12    1    3    3    0    0  0.13056053599E+02 -0.12438258778E+02 -0.14545590375E+02  0.23167758121E+02  0.00000000000E+00 0. -1.
</event>
<event>
 7    1  0.1161807E-013  0.5052886E+02  0.7816164E-02  0.1300439E+00
        -11   -1    0    0    0    0  0.00000000000E+00  0.00000000000E+00  0.45593999997E+02  0.45594000000E+02  0.51100000000E-03 0. -1.
         11   -1    0    0    0    0 -0.00000000000E+00 -0.00000000000E+00 -0.45593999997E+02  0.45594000000E+02  0.51100000000E-03 0.  1.
    9900012    2    1    2    0    0  0.19837784603E+02  0.19098555507E+02 -0.29914429183E+02  0.50528860883E+02  0.30000003141E+02 0.  0.
         12    1    1    2    0    0 -0.19837784603E+02 -0.19098555507E+02  0.29914429183E+02  0.40659139117E+02  0.00000000000E+00 0. -1.
         11    1    3    3    0    0  0.11275299357E+02  0.78008760935E+01 -0.52582745881E+01  0.14684532520E+02  0.51100000000E-03 0. -1.
        -11    1    3    3    0    0  0.11527191210E+02  0.90500776718E+01 -0.44753687610E+01  0.15323477701E+02  0.51100000000E-03 0.  1.
         12    1    3    3    0    0 -0.29647059639E+01  0.22476017413E+01 -0.20180785834E+02  0.20520850662E+02  0.00000000000E+00 0. -1.
</event>
<event>
 7    1  0.1161807E-013  0.5052887E+02  0.7816164E-02  0.1300439E+00
        -11   -1    0    0    0    0  0.00000000000E+00  0.00000000000E+00  0.45593999997E+02  0.45594000000E+02  0.51100000000E-03 0.  1.
         11   -1    0    0    0    0 -0.00000000000E+00 -0.00000000000E+00 -0.45593999997E+02  0.45594000000E+02  0.51100000000E-03 0. -1.
    9900012    2    1    2    0    0 -0.28769420136E+02 -0.28730917614E+02 -0.14110751022E+00  0.50528867284E+02  0.30000022597E+02 0.  0.
        -12    1    1    2    0    0  0.28769420136E+02  0.28730917614E+02  0.14110751022E+00  0.40659132716E+02  0.00000000000E+00 0.  1.
         11    1    3    3    0    0 -0.12012926023E+01 -0.90674875562E+01 -0.59102194273E+01  0.10890047219E+02  0.51100000000E-03 0. -1.
        -11    1    3    3    0    0 -0.26287225685E+02 -0.16341436400E+02  0.11392931545E+02  0.32982717706E+02  0.51100000000E-03 0.  1.
         12    1    3    3    0    0 -0.12809018487E+01 -0.33219936582E+01 -0.56238196277E+01  0.66561023592E+01  0.00000000000E+00 0. -1.
</event>
<event>
 7    1  0.1161807E-013  0.5052882E+02  0.7816164E-02  0.1300439E+00
        -11   -1    0    0    0    0  0.00000000000E+00  0.00000000000E+00  0.45593999997E+02  0.45594000000E+02  0.51100000000E-03 0. -1.
         11   -1    0    0    0    0 -0.00000000000E+00 -0.00000000000E+00 -0.45593999997E+02  0.45594000000E+02  0.51100000000E-03 0.  1.
    9900012    2    1    2    0    0  0.20413832294E+02 -0.31394326689E+01  0.35022686363E+02  0.50528817193E+02  0.29999870340E+02 0.  0.
        -12    1    1    2    0    0 -0.20413832294E+02  0.31394326689E+01 -0.35022686363E+02  0.40659182807E+02  0.00000000000E+00 0.  1.
         11    1    3    3    0    0  0.17711716034E+02 -0.48828502680E+01  0.20061396483E+02  0.27203064914E+02  0.51100000000E-03 0. -1.
        -11    1    3    3    0    0  0.70166827292E+01  0.76617729457E+01  0.10384346612E+02  0.14689154367E+02  0.51100000000E-03 0.  1.
        -12    1    3    3    0    0 -0.43145664690E+01 -0.59183553465E+01  0.45769432691E+01  0.86365979130E+01  0.00000000000E+00 0.  1.
</event>
<event>
 7    1  0.1161807E-013  0.5052887E+02  0.7816164E-02  0.1300439E+00
        -11   -1    0    0    0    0  0.00000000000E+00  0.00000000000E+00  0.45593999997E+02  0.45594000000E+02  0.51100000000E-03 0. -1.
         11   -1    0    0    0    0 -0.00000000000E+00 -0.00000000000E+00 -0.45593999997E+02  0.45594000000E+02  0.51100000000E-03 0.  1.
    9900012    2    1    2    0    0  0.27517958324E+02  0.71829402706E+00  0.29923418111E+02  0.50528869069E+02  0.30000028022E+02 0.  0.
        -12    1    1    2    0    0 -0.27517958324E+02 -0.71829402706E+00 -0.29923418111E+02  0.40659130931E+02  0.00000000000E+00 0.  1.
         11    1    3    3    0    0  0.17355450314E+02 -0.55708946214E+00  0.13807960300E+02  0.22185170096E+02  0.51100000000E-03 0. -1.
        -11    1    3    3    0    0 -0.36469015155E+01 -0.16543927464E+01 -0.26937227646E+01  0.48262872497E+01  0.51100000000E-03 0.  1.
         12    1    3    3    0    0  0.13809409525E+02  0.29297762356E+01  0.18809180576E+02  0.23517411723E+02  0.00000000000E+00 0. -1.
</event>
<event>
 7    1  0.1161807E-013  0.5052886E+02  0.7816164E-02  0.1300439E+00
        -11   -1    0    0    0    0  0.00000000000E+00  0.00000000000E+00  0.45593999997E+02  0.45594000000E+02  0.51100000000E-03 0. -1.
         11   -1    0    0    0    0 -0.00000000000E+00 -0.00000000000E+00 -0.45593999997E+02  0.45594000000E+02  0.51100000000E-03 0.  1.
    9900012    2    1    2    0    0  0.63176693035E+01  0.20408631601E+02  0.34593941989E+02  0.50528855744E+02  0.29999987520E+02 0.  0.
        -12    1    1    2    0    0 -0.63176693035E+01 -0.20408631601E+02 -0.34593941989E+02  0.40659144256E+02  0.00000000000E+00 0.  1.
         11    1    3    3    0    0  0.10796956403E+02  0.68226984499E+01  0.10805484590E+02  0.16729673613E+02  0.51100000000E-03 0. -1.
        -11    1    3    3    0    0  0.35173536882E+01  0.45860359955E+01 -0.13423359367E+01  0.59334112573E+01  0.51100000000E-03 0.  1.
         12    1    3    3    0    0 -0.79966407879E+01  0.89998971560E+01  0.25130793336E+02  0.27865770874E+02  0.00000000000E+00 0. -1.
</event>
<event>
 7    1  0.1161807E-013  0.5052885E+02  0.7816164E-02  0.1300439E+00
        -11   -1    0    0    0    0  0.00000000000E+00  0.00000000000E+00  0.45593999997E+02  0.45594000000E+02  0.51100000000E-03 0.  1.
         11   -1    0    0    0    0 -0.00000000000E+00 -0.00000000000E+00 -0.45593999997E+02  0.45594000000E+02  0.51100000000E-03 0. -1.
    9900012    2    1    2    0    0  0.10206546117E+02 -0.39355913968E+02  0.32355697132E+00  0.50528852973E+02  0.29999979096E+02 0.  0.
        -12    1    1    2    0    0 -0.10206546117E+02  0.39355913968E+02 -0.32355697132E+00  0.40659147027E+02  0.00000000000E+00 0.  1.
         11    1    3    3    0    0  0.56465067874E+01 -0.18383763994E+02 -0.90415416407E+00  0.19252618328E+02  0.51100000000E-03 0. -1.
        -11    1    3    3    0    0  0.11361782387E+01 -0.18147936024E+02 -0.88807851971E+01  0.20236275074E+02  0.51100000000E-03 0.  1.
        -12    1    3    3    0    0  0.34238610905E+01 -0.28242139503E+01  0.10108496333E+02  0.11039959570E+02  0.00000000000E+00 0.  1.
</event>
<event>
 7    1  0.1161807E-013  0.5052884E+02  0.7816164E-02  0.1300439E+00
        -11   -1    0    0    0    0  0.00000000000E+00  0.00000000000E+00  0.45593999997E+02  0.45594000000E+02  0.51100000000E-03 0. -1.
         11   -1    0    0    0    0 -0.00000000000E+00 -0.00000000000E+00 -0.45593999997E+02  0.45594000000E+02  0.51100000000E-03 0.  1.
    9900012    2    1    2    0    0  0.72230021869E+01  0.25197861844E+02  0.31081555225E+02  0.50528842639E+02  0.29999947686E+02 0.  0.
        -12    1    1    2    0    0 -0.72230021869E+01 -0.25197861844E+02 -0.31081555225E+02  0.40659157361E+02  0.00000000000E+00 0.  1.
         11    1    3    3    0    0  0.11196953862E+02  0.63786600397E+01  0.17462305592E+02  0.21702331592E+02  0.51100000000E-03 0. -1.
        -11    1    3    3    0    0  0.30507503470E+01 -0.17086592700E+01  0.67240984201E+00  0.35607203538E+01  0.51100000000E-03 0.  1.
         12    1    3    3    0    0 -0.70247020222E+01  0.20527861074E+02  0.12946839791E+02  0.25265790693E+02  0.00000000000E+00 0. -1.
</event>
<event>
 7    1  0.1161807E-013  0.5052889E+02  0.7816164E-02  0.1300439E+00
        -11   -1    0    0    0    0  0.00000000000E+00  0.00000000000E+00  0.45593999997E+02  0.45594000000E+02  0.51100000000E-03 0. -1.
         11   -1    0    0    0    0 -0.00000000000E+00 -0.00000000000E+00 -0.45593999997E+02  0.45594000000E+02  0.51100000000E-03 0.  1.
    9900012    2    1    2    0    0 -0.36083778426E+02  0.12550118999E+02 -0.13914698169E+02  0.50528888137E+02  0.30000085981E+02 0.  0.
         12    1    1    2    0    0  0.36083778426E+02 -0.12550118999E+02  0.13914698169E+02  0.40659111863E+02  0.00000000000E+00 0. -1.
         11    1    3    3    0    0 -0.13729593849E+02  0.12916022065E+02 -0.42548113586E+01  0.19324305763E+02  0.51100000000E-03 0. -1.
        -11    1    3    3    0    0 -0.24370978118E+02  0.19315211711E+01 -0.12114187787E+02  0.27284224278E+02  0.51100000000E-03 0.  1.
         12    1    3    3    0    0  0.20167935416E+01 -0.22974242378E+01  0.24543009763E+01  0.39203580960E+01  0.00000000000E+00 0. -1.
</event>
<event>
 7    1  0.1161807E-013  0.5052885E+02  0.7816164E-02  0.1300439E+00
        -11   -1    0    0    0    0  0.00000000000E+00  0.00000000000E+00  0.45593999997E+02  0.45594000000E+02  0.51100000000E-03 0. -1.
         11   -1    0    0    0    0 -0.00000000000E+00 -0.00000000000E+00 -0.45593999997E+02  0.45594000000E+02  0.51100000000E-03 0.  1.
    9900012    2    1    2    0    0 -0.33324916471E+02 -0.21085118999E+02  0.99012159539E+01  0.50528851234E+02  0.29999973810E+02 0.  0.
         12    1    1    2    0    0  0.33324916471E+02  0.21085118999E+02 -0.99012159539E+01  0.40659148766E+02  0.00000000000E+00 0. -1.
         11    1    3    3    0    0  0.25031055100E+01 -0.31467454399E+01  0.66337984166E+01  0.77572434376E+01  0.51100000000E-03 0. -1.
        -11    1    3    3    0    0 -0.22611670959E+02 -0.15484690392E+02  0.79530147837E+01  0.28536183075E+02  0.51100000000E-03 0.  1.
        -12    1    3    3    0    0 -0.13216351022E+02 -0.24536831678E+01 -0.46855972464E+01  0.14235424721E+02  0.00000000000E+00 0.  1.
</event>
<event>
 7    1  0.1161807E-013  0.5052889E+02  0.7816164E-02  0.1300439E+00
        -11   -1    0    0    0    0  0.00000000000E+00  0.00000000000E+00  0.45593999997E+02  0.45594000000E+02  0.51100000000E-03 0. -1.
         11   -1    0    0    0    0 -0.00000000000E+00 -0.00000000000E+00 -0.45593999997E+02  0.45594000000E+02  0.51100000000E-03 0.  1.
    9900012    2    1    2    0    0  0.12834307806E+02  0.22479021649E+02 -0.31355019029E+02  0.50528891679E+02  0.30000096747E+02 0.  0.
         12    1    1    2    0    0 -0.12834307806E+02 -0.22479021649E+02  0.31355019029E+02  0.40659108321E+02  0.00000000000E+00 0. -1.
         11    1    3    3    0    0 -0.28611960116E+01  0.10457271489E+02 -0.17391890866E+02  0.20494361121E+02  0.51100000000E-03 0.  1.
        -11    1    3    3    0    0  0.12860112171E+01 -0.50482864817E+00  0.37462143518E+01  0.39928434787E+01  0.51100000000E-03 0. -1.
         12    1    3    3    0    0  0.14409492600E+02  0.12526578809E+02 -0.17709342515E+02  0.26041687080E+02  0.00000000000E+00 0. -1.
</event>
<event>
 7    1  0.1161807E-013  0.5052886E+02  0.7816164E-02  0.1300439E+00
        -11   -1    0    0    0    0  0.00000000000E+00  0.00000000000E+00  0.45593999997E+02  0.45594000000E+02  0.51100000000E-03 0. -1.
         11   -1    0    0    0    0 -0.00000000000E+00 -0.00000000000E+00 -0.45593999997E+02  0.45594000000E+02  0.51100000000E-03 0.  1.
    9900012    2    1    2    0    0 -0.23313522160E+02 -0.22632003086E+02  0.24442534288E+02  0.50528863738E+02  0.30000011818E+02 0.  0.
        -12    1    1    2    0    0  0.23313522160E+02  0.22632003086E+02 -0.24442534288E+02  0.40659136262E+02  0.00000000000E+00 0.  1.
         11    1    3    3    0    0 -0.15581426318E+01 -0.12898960757E+02  0.11115013461E+02  0.17098377747E+02  0.51100000000E-03 0. -1.
        -11    1    3    3    0    0  0.12659579650E+01 -0.73830588721E+01  0.26595666801E+01  0.79489309385E+01  0.51100000000E-03 0.  1.
        -12    1    3    3    0    0 -0.23021337493E+02 -0.23499834566E+01  0.10667954147E+02  0.25481555052E+02  0.00000000000E+00 0.  1.
</event>
<event>
 7    1  0.1161807E-013  0.5052883E+02  0.7816164E-02  0.1300439E+00
        -11   -1    0    0    0    0  0.00000000000E+00  0.00000000000E+00  0.45593999997E+02  0.45594000000E+02  0.51100000000E-03 0. -1.
         11   -1    0    0    0    0 -0.00000000000E+00 -0.00000000000E+00 -0.45593999997E+02  0.45594000000E+02  0.51100000000E-03 0.  1.
    9900012    2    1    2    0    0 -0.10062826754E+02 -0.32462866207E+02 -0.22317475626E+02  0.50528832732E+02  0.29999917571E+02 0.  0.
         12    1    1    2    0    0  0.10062826754E+02  0.32462866207E+02  0.22317475626E+02  0.40659167268E+02  0.00000000000E+00 0. -1.
         11    1    3    3    0    0  0.25377599864E+01  0.34266482698E+00  0.28279553337E+01  0.38150984998E+01  0.51100000000E-03 0. -1.
        -11    1    3    3    0    0 -0.95597753706E-01  0.11146338513E+01  0.14512400691E+01  0.18323879372E+01  0.51100000000E-03 0.  1.
        -12    1    3    3    0    0 -0.12504988987E+02 -0.33920164885E+02 -0.26596671029E+02  0.44881346295E+02  0.00000000000E+00 0.  1.
</event>
<event>
 7    1  0.1161807E-013  0.5052884E+02  0.7816164E-02  0.1300439E+00
        -11   -1    0    0    0    0  0.00000000000E+00  0.00000000000E+00  0.45593999997E+02  0.45594000000E+02  0.51100000000E-03 0. -1.
         11   -1    0    0    0    0 -0.00000000000E+00 -0.00000000000E+00 -0.45593999997E+02  0.45594000000E+02  0.51100000000E-03 0.  1.
    9900012    2    1    2    0    0  0.63868952877E+01 -0.36411166089E+02 -0.16929323488E+02  0.50528838165E+02  0.29999934088E+02 0.  0.
         12    1    1    2    0    0 -0.63868952877E+01  0.36411166089E+02  0.16929323488E+02  0.40659161835E+02  0.00000000000E+00 0. -1.
         11    1    3    3    0    0  0.39410033993E+01 -0.25490408183E+02 -0.74717694818E+01  0.26853673056E+02  0.51100000000E-03 0. -1.
        -11    1    3    3    0    0 -0.76462972131E+00 -0.15499157037E+02 -0.43858099343E+01  0.16125875372E+02  0.51100000000E-03 0.  1.
         12    1    3    3    0    0  0.32105216097E+01  0.45783991317E+01 -0.50717440715E+01  0.75492897377E+01  0.00000000000E+00 0. -1.
</event>
<event>
 7    1  0.1161807E-013  0.5052886E+02  0.7816164E-02  0.1300439E+00
        -11   -1    0    0    0    0  0.00000000000E+00  0.00000000000E+00  0.45593999997E+02  0.45594000000E+02  0.51100000000E-03 0. -1.
         11   -1    0    0    0    0 -0.00000000000E+00 -0.00000000000E+00 -0.45593999997E+02  0.45594000000E+02  0.51100000000E-03 0.  1.
    9900012    2    1    2    0    0  0.30593988169E+02 -0.77055761129E+01  0.25647560738E+02  0.50528863424E+02  0.30000010863E+02 0.  0.
        -12    1    1    2    0    0 -0.30593988169E+02  0.77055761129E+01 -0.25647560738E+02  0.40659136576E+02  0.00000000000E+00 0.  1.
         11    1    3    3    0    0  0.83672418097E+01 -0.46016596780E+01  0.27859606530E+00  0.95531996380E+01  0.51100000000E-03 0. -1.
        -11    1    3    3    0    0  0.71181086056E+01 -0.11728867128E+02  0.60992276697E+01  0.15014472107E+02  0.51100000000E-03 0.  1.
        -12    1    3    3    0    0  0.15108637754E+02  0.86249506928E+01  0.19269737003E+02  0.25961191679E+02  0.00000000000E+00 0.  1.
</event>
<event>
 7    1  0.1161807E-013  0.5052885E+02  0.7816164E-02  0.1300439E+00
        -11   -1    0    0    0    0  0.00000000000E+00  0.00000000000E+00  0.45593999997E+02  0.45594000000E+02  0.51100000000E-03 0. -1.
         11   -1    0    0    0    0 -0.00000000000E+00 -0.00000000000E+00 -0.45593999997E+02  0.45594000000E+02  0.51100000000E-03 0.  1.
    9900012    2    1    2    0    0  0.16401477487E+02  0.21879299431E+02  0.30090760811E+02  0.50528854737E+02  0.29999984458E+02 0.  0.
        -12    1    1    2    0    0 -0.16401477487E+02 -0.21879299431E+02 -0.30090760811E+02  0.40659145263E+02  0.00000000000E+00 0.  1.
         11    1    3    3    0    0  0.12699262332E+01  0.67600292940E+01  0.38804331367E+01  0.78973710995E+01  0.51100000000E-03 0. -1.
        -11    1    3    3    0    0 -0.28717044267E+01  0.35751855535E+00 -0.37196328068E+01  0.47127671606E+01  0.51100000000E-03 0.  1.
        -12    1    3    3    0    0  0.18003255681E+02  0.14761751581E+02  0.29929960481E+02  0.37918716477E+02  0.00000000000E+00 0.  1.
</event>
<event>
 7    1  0.1161807E-013  0.5052886E+02  0.7816164E-02  0.1300439E+00
        -11   -1    0    0    0    0  0.00000000000E+00  0.00000000000E+00  0.45593999997E+02  0.45594000000E+02  0.51100000000E-03 0. -1.
         11   -1    0    0    0    0 -0.00000000000E+00 -0.00000000000E+00 -0.45593999997E+02  0.45594000000E+02  0.51100000000E-03 0.  1.
    9900012    2    1    2    0    0 -0.17090886403E+02  0.10161512005E+02  0.35465634964E+02  0.50528856039E+02  0.29999988416E+02 0.  0.
        -12    1    1    2    0    0  0.17090886403E+02 -0.10161512005E+02 -0.35465634964E+02  0.40659143961E+02  0.00000000000E+00 0.  1.
         11    1    3    3    0    0 -0.14965745966E+01 -0.15664667757E+01  0.16567297839E+02  0.16708348561E+02  0.51100000000E-03 0. -1.
        -11    1    3    3    0    0  0.14416410037E+01 -0.43362038390E+01  0.22765475868E+01  0.51052582396E+01  0.51100000000E-03 0.  1.
         12    1    3    3    0    0 -0.17035952810E+02  0.16064182620E+02  0.16621789538E+02  0.28715249239E+02  0.00000000000E+00 0. -1.
</event>
<event>
 7    1  0.1161807E-013  0.5052886E+02  0.7816164E-02  0.1300439E+00
        -11   -1    0    0    0    0  0.00000000000E+00  0.00000000000E+00  0.45593999997E+02  0.45594000000E+02  0.51100000000E-03 0. -1.
         11   -1    0    0    0    0 -0.00000000000E+00 -0.00000000000E+00 -0.45593999997E+02  0.45594000000E+02  0.51100000000E-03 0.  1.
    9900012    2    1    2    0    0 -0.77298771635E+01 -0.28583465061E+02 -0.27863960500E+02  0.50528858708E+02  0.29999996530E+02 0.  0.
         12    1    1    2    0    0  0.77298771635E+01  0.28583465061E+02  0.27863960500E+02  0.40659141292E+02  0.00000000000E+00 0. -1.
         11    1    3    3    0    0  0.76596899325E+01 -0.11464309736E+02 -0.13478278507E+02  0.19281214675E+02  0.51100000000E-03 0.  1.
        -11    1    3    3    0    0 -0.18254233905E+01  0.27218123565E+01 -0.80541903142E-01  0.32782495814E+01  0.51100000000E-03 0. -1.
        -12    1    3    3    0    0 -0.13564143706E+02 -0.19840967682E+02 -0.14305140089E+02  0.27969394452E+02  0.00000000000E+00 0.  1.
</event>
<event>
 7    1  0.1161807E-013  0.5052886E+02  0.7816164E-02  0.1300439E+00
        -11   -1    0    0    0    0  0.00000000000E+00  0.00000000000E+00  0.45593999997E+02  0.45594000000E+02  0.51100000000E-03 0. -1.
         11   -1    0    0    0    0 -0.00000000000E+00 -0.00000000000E+00 -0.45593999997E+02  0.45594000000E+02  0.51100000000E-03 0.  1.
    9900012    2    1    2    0    0  0.19567817255E+02  0.21887706919E+02  0.28128176965E+02  0.50528861720E+02  0.30000005684E+02 0.  0.
        -12    1    1    2    0    0 -0.19567817255E+02 -0.21887706919E+02 -0.28128176965E+02  0.40659138280E+02  0.00000000000E+00 0.  1.
         11    1    3    3    0    0  0.13059872767E+02  0.84138073617E+00  0.11993017196E+02  0.17751074896E+02  0.51100000000E-03 0. -1.
        -11    1    3    3    0    0  0.48508373777E+01  0.17673985752E+02  0.20177629033E+02  0.27258707036E+02  0.51100000000E-03 0.  1.
         12    1    3    3    0    0  0.16571071104E+01  0.33723404307E+01 -0.40424692638E+01  0.55190797878E+01  0.00000000000E+00 0. -1.
</event>
<event>
 7    1  0.1161807E-013  0.5052888E+02  0.7816164E-02  0.1300439E+00
        -11   -1    0    0    0    0  0.00000000000E+00  0.00000000000E+00  0.45593999997E+02  0.45594000000E+02  0.51100000000E-03 0. -1.
         11   -1    0    0    0    0 -0.00000000000E+00 -0.00000000000E+00 -0.45593999997E+02  0.45594000000E+02  0.51100000000E-03 0.  1.
    9900012    2    1    2    0    0 -0.30162796064E+02  0.18712967214E+02  0.19829142593E+02  0.50528876739E+02  0.30000051337E+02 0.  0.
        -12    1    1    2    0    0  0.30162796064E+02 -0.18712967214E+02 -0.19829142593E+02  0.40659123261E+02  0.00000000000E+00 0.  1.
         11    1    3    3    0    0 -0.19502840388E+02 -0.11130241538E+01  0.55596109717E+01  0.20310314630E+02  0.51100000000E-03 0. -1.
        -11    1    3    3    0    0 -0.65509848781E+01  0.22899656847E+01 -0.45514050316E+00  0.69546027096E+01  0.51100000000E-03 0.  1.
        -12    1    3    3    0    0 -0.41089707985E+01  0.17536025683E+02  0.14724672124E+02  0.23263959399E+02  0.00000000000E+00 0.  1.
</event>
<event>
 7    1  0.1161807E-013  0.5052886E+02  0.7816164E-02  0.1300439E+00
        -11   -1    0    0    0    0  0.00000000000E+00  0.00000000000E+00  0.45593999997E+02  0.45594000000E+02  0.51100000000E-03 0. -1.
         11   -1    0    0    0    0 -0.00000000000E+00 -0.00000000000E+00 -0.45593999997E+02  0.45594000000E+02  0.51100000000E-03 0.  1.
    9900012    2    1    2    0    0 -0.21857562243E+02 -0.27853046344E+02 -0.19990513216E+02  0.50528857898E+02  0.29999994067E+02 0.  0.
         12    1    1    2    0    0  0.21857562243E+02  0.27853046344E+02  0.19990513216E+02  0.40659142102E+02  0.00000000000E+00 0. -1.
         11    1    3    3    0    0 -0.11360755534E+02  0.15961672328E+00 -0.88080529675E+01  0.14376162254E+02  0.51100000000E-03 0. -1.
        -11    1    3    3    0    0 -0.66211861948E+01 -0.59049117020E+01 -0.10433278487E+02  0.13695305366E+02  0.51100000000E-03 0.  1.
        -12    1    3    3    0    0 -0.38756205135E+01 -0.22107751365E+02 -0.74918176166E+00  0.22457390278E+02  0.00000000000E+00 0.  1.
</event>
<event>
 7    1  0.1161807E-013  0.5052884E+02  0.7816164E-02  0.1300439E+00
        -11   -1    0    0    0    0  0.00000000000E+00  0.00000000000E+00  0.45593999997E+02  0.45594000000E+02  0.51100000000E-03 0. -1.
         11   -1    0    0    0    0 -0.00000000000E+00 -0.00000000000E+00 -0.45593999997E+02  0.45594000000E+02  0.51100000000E-03 0.  1.
    9900012    2    1    2    0    0 -0.12587053439E+02  0.10472492458E+02 -0.37216403211E+02  0.50528835221E+02  0.29999925136E+02 0.  0.
         12    1    1    2    0    0  0.12587053439E+02 -0.10472492458E+02  0.37216403211E+02  0.40659164779E+02  0.00000000000E+00 0. -1.
         11    1    3    3    0    0 -0.54061973931E+00 -0.37227938108E-01  0.21945376162E+01  0.22604537668E+01  0.51100000000E-03 0. -1.
        -11    1    3    3    0    0 -0.12742090586E+02  0.15509489221E+02 -0.20481634711E+02  0.28677560725E+02  0.51100000000E-03 0.  1.
         12    1    3    3    0    0  0.69565688593E+00 -0.49997688249E+01 -0.18929306116E+02  0.19590820729E+02  0.00000000000E+00 0. -1.
</event>
<event>
 7    1  0.1161807E-013  0.5052885E+02  0.7816164E-02  0.1300439E+00
        -11   -1    0    0    0    0  0.00000000000E+00  0.00000000000E+00  0.45593999997E+02  0.45594000000E+02  0.51100000000E-03 0. -1.
         11   -1    0    0    0    0 -0.00000000000E+00 -0.00000000000E+00 -0.45593999997E+02  0.45594000000E+02  0.51100000000E-03 0.  1.
    9900012    2    1    2    0    0 -0.41833580369E+01  0.39430176739E+02 -0.89959374424E+01  0.50528853273E+02  0.29999980008E+02 0.  0.
         12    1    1    2    0    0  0.41833580369E+01 -0.39430176739E+02  0.89959374424E+01  0.40659146727E+02  0.00000000000E+00 0. -1.
         11    1    3    3    0    0 -0.24544743111E+01  0.48799288730E+01 -0.22863701681E+01  0.59216246720E+01  0.51100000000E-03 0. -1.
        -11    1    3    3    0    0 -0.13114198119E+02  0.20851912855E+02 -0.98336004026E+01  0.26523275800E+02  0.51100000000E-03 0.  1.
         12    1    3    3    0    0  0.11385314394E+02  0.13698335011E+02  0.31240331283E+01  0.18083952801E+02  0.00000000000E+00 0. -1.
</event>
<event>
 7    1  0.1161807E-013  0.5052886E+02  0.7816164E-02  0.1300439E+00
        -11   -1    0    0    0    0  0.00000000000E+00  0.00000000000E+00  0.45593999997E+02  0.45594000000E+02  0.51100000000E-03 0. -1.
         11   -1    0    0    0    0 -0.00000000000E+00 -0.00000000000E+00 -0.45593999997E+02  0.45594000000E+02  0.51100000000E-03 0.  1.
    9900012    2    1    2    0    0  0.26313081188E+02 -0.71006312583E+00  0.30988441984E+02  0.50528856283E+02  0.29999989157E+02 0.  0.
        -12    1    1    2    0    0 -0.26313081188E+02  0.71006312583E+00 -0.30988441984E+02  0.40659143717E+02  0.00000000000E+00 0.  1.
         11    1    3    3    0    0  0.24247769875E+02  0.82114317299E+01  0.23426522236E+02  0.34701352990E+02  0.51100000000E-03 0. -1.
        -11    1    3    3    0    0 -0.33016439459E+01 -0.32714005551E+00  0.37365405000E+01  0.49969599288E+01  0.51100000000E-03 0.  1.
        -12    1    3    3    0    0  0.53669552585E+01 -0.85943548002E+01  0.38253792474E+01  0.10830543364E+02  0.00000000000E+00 0.  1.
</event>
<event>
 7    1  0.1161807E-013  0.5052887E+02  0.7816164E-02  0.1300439E+00
        -11   -1    0    0    0    0  0.00000000000E+00  0.00000000000E+00  0.45593999997E+02  0.45594000000E+02  0.51100000000E-03 0. -1.
         11   -1    0    0    0    0 -0.00000000000E+00 -0.00000000000E+00 -0.45593999997E+02  0.45594000000E+02  0.51100000000E-03 0.  1.
    9900012    2    1    2    0    0  0.28006789684E+02  0.21357590073E+01  0.29397675436E+02  0.50528867496E+02  0.30000023240E+02 0.  0.
        -12    1    1    2    0    0 -0.28006789684E+02 -0.21357590073E+01 -0.29397675436E+02  0.40659132504E+02  0.00000000000E+00 0.  1.
         11    1    3    3    0    0 -0.34982098251E+01  0.37919655841E+01  0.91383675905E+01  0.10494104890E+02  0.51100000000E-03 0. -1.
        -11    1    3    3    0    0  0.35993849457E+01 -0.71616918495E+00  0.93734772584E+01  0.10066307489E+02  0.51100000000E-03 0.  1.
        -12    1    3    3    0    0  0.27905614564E+02 -0.94003739186E+00  0.10885830587E+02  0.29968455116E+02  0.00000000000E+00 0.  1.
</event>
<event>
 7    1  0.1161807E-013  0.5052886E+02  0.7816164E-02  0.1300439E+00
        -11   -1    0    0    0    0  0.00000000000E+00  0.00000000000E+00  0.45593999997E+02  0.45594000000E+02  0.51100000000E-03 0. -1.
         11   -1    0    0    0    0 -0.00000000000E+00 -0.00000000000E+00 -0.45593999997E+02  0.45594000000E+02  0.51100000000E-03 0.  1.
    9900012    2    1    2    0    0 -0.34513423618E+02  0.75138554483E+01 -0.20137803858E+02  0.50528861079E+02  0.30000003736E+02 0.  0.
         12    1    1    2    0    0  0.34513423618E+02 -0.75138554483E+01  0.20137803858E+02  0.40659138921E+02  0.00000000000E+00 0. -1.
         11    1    3    3    0    0 -0.11086302717E+02  0.13989044775E+01 -0.36605195281E+01  0.11758505226E+02  0.51100000000E-03 0. -1.
        -11    1    3    3    0    0 -0.19839326244E+02  0.13525419412E+02 -0.48062130871E+01  0.24487456393E+02  0.51100000000E-03 0.  1.
         12    1    3    3    0    0 -0.35877946570E+01 -0.74104684417E+01 -0.11671071243E+02  0.14282899460E+02  0.00000000000E+00 0. -1.
</event>
<event>
 7    1  0.1161807E-013  0.5052886E+02  0.7816164E-02  0.1300439E+00
        -11   -1    0    0    0    0  0.00000000000E+00  0.00000000000E+00  0.45593999997E+02  0.45594000000E+02  0.51100000000E-03 0. -1.
         11   -1    0    0    0    0 -0.00000000000E+00 -0.00000000000E+00 -0.45593999997E+02  0.45594000000E+02  0.51100000000E-03 0.  1.
    9900012    2    1    2    0    0 -0.16299744196E+02  0.95245291026E+01  0.36010654314E+02  0.50528861549E+02  0.30000005164E+02 0.  0.
        -12    1    1    2    0    0  0.16299744196E+02 -0.95245291026E+01 -0.36010654314E+02  0.40659138451E+02  0.00000000000E+00 0.  1.
         11    1    3    3    0    0 -0.29231589479E+01 -0.88499375052E+00  0.15099251988E+02  0.15405047323E+02  0.51100000000E-03 0. -1.
        -11    1    3    3    0    0  0.16123966164E+01 -0.56412201251E+01  0.69721534512E+01  0.91123054907E+01  0.51100000000E-03 0.  1.
         12    1    3    3    0    0 -0.14988981864E+02  0.16050742978E+02  0.13939248875E+02  0.26011508735E+02  0.00000000000E+00 0. -1.
</event>
<event>
 7    1  0.1161807E-013  0.5052888E+02  0.7816164E-02  0.1300439E+00
        -11   -1    0    0    0    0  0.00000000000E+00  0.00000000000E+00  0.45593999997E+02  0.45594000000E+02  0.51100000000E-03 0. -1.
         11   -1    0    0    0    0 -0.00000000000E+00 -0.00000000000E+00 -0.45593999997E+02  0.45594000000E+02  0.51100000000E-03 0.  1.
    9900012    2    1    2    0    0 -0.11010815441E+02  0.20203348033E+02 -0.33522389206E+02  0.50528881631E+02  0.30000066206E+02 0.  0.
         12    1    1    2    0    0  0.11010815441E+02 -0.20203348033E+02  0.33522389206E+02  0.40659118369E+02  0.00000000000E+00 0. -1.
         11    1    3    3    0    0  0.41728751751E+01 -0.72925125164E+00 -0.14827527736E+01  0.44881232897E+01  0.51100000000E-03 0. -1.
        -11    1    3    3    0    0  0.38540342084E+01  0.79008850715E+01 -0.14900496221E+02  0.17300357005E+02  0.51100000000E-03 0.  1.
        -12    1    3    3    0    0 -0.19037724824E+02  0.13031714213E+02 -0.17139140212E+02  0.28740401337E+02  0.00000000000E+00 0.  1.
</event>
<event>
 7    1  0.1161807E-013  0.5052886E+02  0.7816164E-02  0.1300439E+00
        -11   -1    0    0    0    0  0.00000000000E+00  0.00000000000E+00  0.45593999997E+02  0.45594000000E+02  0.51100000000E-03 0. -1.
         11   -1    0    0    0    0 -0.00000000000E+00 -0.00000000000E+00 -0.45593999997E+02  0.45594000000E+02  0.51100000000E-03 0.  1.
    9900012    2    1    2    0    0 -0.30641189787E+01  0.29369976650E+02  0.27949618312E+02  0.50528861823E+02  0.30000005997E+02 0.  0.
        -12    1    1    2    0    0  0.30641189787E+01 -0.29369976650E+02 -0.27949618312E+02  0.40659138177E+02  0.00000000000E+00 0.  1.
         11    1    3    3    0    0 -0.81395514112E+01  0.50948376660E+01  0.95949397347E+01  0.13574702089E+02  0.51100000000E-03 0. -1.
        -11    1    3    3    0    0 -0.22815509170E+01  0.15423805639E+02  0.19965678993E+02  0.25332342823E+02  0.51100000000E-03 0.  1.
        -12    1    3    3    0    0  0.73569833496E+01  0.88513333447E+01 -0.16110004158E+01  0.11621816912E+02  0.00000000000E+00 0.  1.
</event>
<event>
 7    1  0.1161807E-013  0.5052886E+02  0.7816164E-02  0.1300439E+00
        -11   -1    0    0    0    0  0.00000000000E+00  0.00000000000E+00  0.45593999997E+02  0.45594000000E+02  0.51100000000E-03 0. -1.
         11   -1    0    0    0    0 -0.00000000000E+00 -0.00000000000E+00 -0.45593999997E+02  0.45594000000E+02  0.51100000000E-03 0.  1.
    9900012    2    1    2    0    0 -0.46110456337E+01 -0.19298795624E+02 -0.35488874076E+02  0.50528862804E+02  0.30000008978E+02 0.  0.
         12    1    1    2    0    0  0.46110456337E+01  0.19298795624E+02  0.35488874076E+02  0.40659137196E+02  0.00000000000E+00 0. -1.
         11    1    3    3    0    0 -0.97374132727E+01 -0.35005540822E+01 -0.25370648783E+01  0.10654003688E+02  0.51100000000E-03 0. -1.
        -11    1    3    3    0    0  0.41933067403E+01 -0.14444111409E+02 -0.13072150191E+02  0.19927300036E+02  0.51100000000E-03 0.  1.
         12    1    3    3    0    0  0.93306089868E+00 -0.13541301330E+01 -0.19879659006E+02  0.19947559080E+02  0.00000000000E+00 0. -1.
</event>
<event>
 7    1  0.1161807E-013  0.5052889E+02  0.7816164E-02  0.1300439E+00
        -11   -1    0    0    0    0  0.00000000000E+00  0.00000000000E+00  0.45593999997E+02  0.45594000000E+02  0.51100000000E-03 0. -1.
         11   -1    0    0    0    0 -0.00000000000E+00 -0.00000000000E+00 -0.45593999997E+02  0.45594000000E+02  0.51100000000E-03 0.  1.
    9900012    2    1    2    0    0 -0.12852408872E+02  0.47802004661E+01  0.38276994118E+02  0.50528892669E+02  0.30000099756E+02 0.  0.
        -12    1    1    2    0    0  0.12852408872E+02 -0.47802004661E+01 -0.38276994118E+02  0.40659107331E+02  0.00000000000E+00 0.  1.
         11    1    3    3    0    0 -0.17620224406E+01 -0.15874153745E+01  0.40324488424E+01  0.46781678658E+01  0.51100000000E-03 0. -1.
        -11    1    3    3    0    0  0.84404937218E+01  0.70009286727E+00  0.39061720778E+01  0.93268561077E+01  0.51100000000E-03 0.  1.
        -12    1    3    3    0    0 -0.19530880153E+02  0.56675229733E+01  0.30338373197E+02  0.36523868695E+02  0.00000000000E+00 0.  1.
</event>
<event>
 7    1  0.1161807E-013  0.5052886E+02  0.7816164E-02  0.1300439E+00
        -11   -1    0    0    0    0  0.00000000000E+00  0.00000000000E+00  0.45593999997E+02  0.45594000000E+02  0.51100000000E-03 0. -1.
         11   -1    0    0    0    0 -0.00000000000E+00 -0.00000000000E+00 -0.45593999997E+02  0.45594000000E+02  0.51100000000E-03 0.  1.
    9900012    2    1    2    0    0  0.25223656264E+02 -0.96543891201E+00  0.31874770669E+02  0.50528856959E+02  0.29999991213E+02 0.  0.
        -12    1    1    2    0    0 -0.25223656264E+02  0.96543891201E+00 -0.31874770669E+02  0.40659143041E+02  0.00000000000E+00 0.  1.
         11    1    3    3    0    0 -0.48096471106E+01 -0.85663370026E+00  0.20697238602E+01  0.53056840976E+01  0.51100000000E-03 0. -1.
        -11    1    3    3    0    0 -0.12183422494E+01 -0.11512444119E+01  0.51118342477E+01  0.53796441490E+01  0.51100000000E-03 0.  1.
         12    1    3    3    0    0  0.31251645624E+02  0.10424392001E+01  0.24693212561E+02  0.39843528713E+02  0.00000000000E+00 0. -1.
</event>
<event>
 7    1  0.1161807E-013  0.5052886E+02  0.7816164E-02  0.1300439E+00
        -11   -1    0    0    0    0  0.00000000000E+00  0.00000000000E+00  0.45593999997E+02  0.45594000000E+02  0.51100000000E-03 0.  1.
         11   -1    0    0    0    0 -0.00000000000E+00 -0.00000000000E+00 -0.45593999997E+02  0.45594000000E+02  0.51100000000E-03 0. -1.
    9900012    2    1    2    0    0 -0.19664901152E+02 -0.34978970598E+02 -0.65520244313E+01  0.50528859016E+02  0.29999997464E+02 0.  0.
         12    1    1    2    0    0  0.19664901152E+02  0.34978970598E+02  0.65520244313E+01  0.40659140984E+02  0.00000000000E+00 0. -1.
         11    1    3    3    0    0 -0.73735280416E+01 -0.77502619706E+01 -0.39840020811E+01  0.11415241970E+02  0.51100000000E-03 0. -1.
        -11    1    3    3    0    0 -0.17618324072E+02 -0.16568401307E+02 -0.87114341391E+01  0.25706153932E+02  0.51100000000E-03 0.  1.
         12    1    3    3    0    0  0.53269509617E+01 -0.10660307321E+02  0.61434117888E+01  0.13407463113E+02  0.00000000000E+00 0. -1.
</event>
<event>
 7    1  0.1161807E-013  0.5052886E+02  0.7816164E-02  0.1300439E+00
        -11   -1    0    0    0    0  0.00000000000E+00  0.00000000000E+00  0.45593999997E+02  0.45594000000E+02  0.51100000000E-03 0. -1.
         11   -1    0    0    0    0 -0.00000000000E+00 -0.00000000000E+00 -0.45593999997E+02  0.45594000000E+02  0.51100000000E-03 0.  1.
    9900012    2    1    2    0    0 -0.39486820944E+02  0.89711639953E+00 -0.96515130648E+01  0.50528861414E+02  0.30000004755E+02 0.  0.
         12    1    1    2    0    0  0.39486820944E+02 -0.89711639953E+00  0.96515130648E+01  0.40659138586E+02  0.00000000000E+00 0. -1.
         11    1    3    3    0    0 -0.23410990908E+02  0.67840508634E+01 -0.34965855699E+01  0.24623646203E+02  0.51100000000E-03 0.  1.
        -11    1    3    3    0    0 -0.15123507984E+01  0.43260674973E+01 -0.66904476526E+01  0.81095101567E+01  0.51100000000E-03 0. -1.
        -12    1    3    3    0    0 -0.14563479237E+02 -0.10213001961E+02  0.53552015769E+00  0.17795705055E+02  0.00000000000E+00 0.  1.
</event>
<event>
 7    1  0.1486892E-013  0.5052890E+02  0.7816164E-02  0.1300439E+00
        -11   -1    0    0    0    0  0.00000000000E+00  0.00000000000E+00  0.45593999997E+02  0.45594000000E+02  0.51100000000E-03 0. -1.
         11   -1    0    0    0    0 -0.00000000000E+00 -0.00000000000E+00 -0.45593999997E+02  0.45594000000E+02  0.51100000000E-03 0.  1.
    9900012    2    1    2    0    0  0.46957459425E+01 -0.26534313371E+01 -0.40299770727E+02  0.50528902021E+02  0.30000128182E+02 0.  0.
         12    1    1    2    0    0 -0.46957459425E+01  0.26534313371E+01  0.40299770727E+02  0.40659097979E+02  0.00000000000E+00 0. -1.
         11    1    3    3    0    0 -0.12899295627E+01 -0.43726200753E+01  0.59992258811E+00  0.45982205224E+01  0.51100000000E-03 0.  1.
        -11    1    3    3    0    0  0.94020131379E+00  0.85274091082E+00  0.21936028416E+01  0.25343715709E+01  0.51100000000E-03 0. -1.
        -12    1    3    3    0    0  0.50454741915E+01  0.86644782739E+00 -0.43093296157E+02  0.43396309927E+02  0.00000000000E+00 0.  1.
</event>
<event>
 7    1  0.1161807E-013  0.5052885E+02  0.7816164E-02  0.1300439E+00
        -11   -1    0    0    0    0  0.00000000000E+00  0.00000000000E+00  0.45593999997E+02  0.45594000000E+02  0.51100000000E-03 0. -1.
         11   -1    0    0    0    0 -0.00000000000E+00 -0.00000000000E+00 -0.45593999997E+02  0.45594000000E+02  0.51100000000E-03 0.  1.
    9900012    2    1    2    0    0  0.16606666983E+02 -0.90554784599E+01  0.35991429751E+02  0.50528854732E+02  0.29999984442E+02 0.  0.
        -12    1    1    2    0    0 -0.16606666983E+02  0.90554784599E+01 -0.35991429751E+02  0.40659145268E+02  0.00000000000E+00 0.  1.
         11    1    3    3    0    0  0.75520534939E+01  0.11636701613E+01  0.18604634169E+02  0.20112683885E+02  0.51100000000E-03 0. -1.
        -11    1    3    3    0    0 -0.17453021556E+01  0.47485466499E+01  0.85916536090E+01  0.99705208940E+01  0.51100000000E-03 0.  1.
         12    1    3    3    0    0  0.10799915645E+02 -0.14967695271E+02  0.87951419730E+01  0.20445649953E+02  0.00000000000E+00 0. -1.
</event>
<event>
 7    1  0.1161807E-013  0.5052886E+02  0.7816164E-02  0.1300439E+00
        -11   -1    0    0    0    0  0.00000000000E+00  0.00000000000E+00  0.45593999997E+02  0.45594000000E+02  0.51100000000E-03 0. -1.
         11   -1    0    0    0    0 -0.00000000000E+00 -0.00000000000E+00 -0.45593999997E+02  0.45594000000E+02  0.51100000000E-03 0.  1.
    9900012    2    1    2    0    0 -0.33721170199E+02  0.15422598255E+01 -0.22664284228E+02  0.50528860012E+02  0.30000000492E+02 0.  0.
         12    1    1    2    0    0  0.33721170199E+02 -0.15422598255E+01  0.22664284228E+02  0.40659139988E+02  0.00000000000E+00 0. -1.
         11    1    3    3    0    0 -0.78152336757E+01 -0.79893542219E+01 -0.37471582688E+01  0.11787656834E+02  0.51100000000E-03 0. -1.
        -11    1    3    3    0    0 -0.28594245151E+02  0.73109899333E+01 -0.13879999465E+02  0.32614963053E+02  0.51100000000E-03 0.  1.
         12    1    3    3    0    0  0.26883086276E+01  0.22206241142E+01 -0.50371264949E+01  0.61262401242E+01  0.00000000000E+00 0. -1.
</event>
<event>
 7    1  0.1161807E-013  0.5052887E+02  0.7816164E-02  0.1300439E+00
        -11   -1    0    0    0    0  0.00000000000E+00  0.00000000000E+00  0.45593999997E+02  0.45594000000E+02  0.51100000000E-03 0. -1.
         11   -1    0    0    0    0 -0.00000000000E+00 -0.00000000000E+00 -0.45593999997E+02  0.45594000000E+02  0.51100000000E-03 0.  1.
    9900012    2    1    2    0    0 -0.12181159358E+02 -0.13321769673E+02 -0.36432332831E+02  0.50528867372E+02  0.30000022865E+02 0.  0.
         12    1    1    2    0    0  0.12181159358E+02  0.13321769673E+02  0.36432332831E+02  0.40659132628E+02  0.00000000000E+00 0. -1.
         11    1    3    3    0    0 -0.79102977997E+01 -0.10763299248E+02 -0.74330567154E+01  0.15286325731E+02  0.51100000000E-03 0. -1.
        -11    1    3    3    0    0 -0.10044458410E+02 -0.74039181720E+01 -0.17504454757E+02  0.21496862228E+02  0.51100000000E-03 0.  1.
         12    1    3    3    0    0  0.57735968511E+01  0.48454477463E+01 -0.11494821359E+02  0.13745679413E+02  0.00000000000E+00 0. -1.
</event>
<event>
 7    1  0.1161807E-013  0.5052886E+02  0.7816164E-02  0.1300439E+00
        -11   -1    0    0    0    0  0.00000000000E+00  0.00000000000E+00  0.45593999997E+02  0.45594000000E+02  0.51100000000E-03 0. -1.
         11   -1    0    0    0    0 -0.00000000000E+00 -0.00000000000E+00 -0.45593999997E+02  0.45594000000E+02  0.51100000000E-03 0.  1.
    9900012    2    1    2    0    0  0.13578132459E+01 -0.26943488572E+02  0.30419895700E+02  0.50528864647E+02  0.30000014581E+02 0.  0.
        -12    1    1    2    0    0 -0.13578132459E+01  0.26943488572E+02 -0.30419895700E+02  0.40659135353E+02  0.00000000000E+00 0.  1.
         11    1    3    3    0    0  0.47208390627E+01 -0.20772561649E+02  0.91442811146E+01  0.23181965324E+02  0.51100000000E-03 0. -1.
        -11    1    3    3    0    0  0.40187826007E+01 -0.26410791365E+01  0.28442835352E+00  0.48173449478E+01  0.51100000000E-03 0.  1.
         12    1    3    3    0    0 -0.73818084174E+01 -0.35298477866E+01  0.20991186232E+02  0.22529554375E+02  0.00000000000E+00 0. -1.
</event>
<event>
 7    1  0.1161807E-013  0.5052886E+02  0.7816164E-02  0.1300439E+00
        -11   -1    0    0    0    0  0.00000000000E+00  0.00000000000E+00  0.45593999997E+02  0.45594000000E+02  0.51100000000E-03 0. -1.
         11   -1    0    0    0    0 -0.00000000000E+00 -0.00000000000E+00 -0.45593999997E+02  0.45594000000E+02  0.51100000000E-03 0.  1.
    9900012    2    1    2    0    0  0.11477861874E+02 -0.90498746328E+01 -0.37941065706E+02  0.50528855752E+02  0.29999987544E+02 0.  0.
         12    1    1    2    0    0 -0.11477861874E+02  0.90498746328E+01  0.37941065706E+02  0.40659144248E+02  0.00000000000E+00 0. -1.
         11    1    3    3    0    0 -0.78262980373E+01  0.46580417960E+01 -0.11403721520E+02  0.14594285152E+02  0.51100000000E-03 0. -1.
        -11    1    3    3    0    0  0.12670857254E+02 -0.58797151333E+01 -0.15246465178E+02  0.20677919970E+02  0.51100000000E-03 0.  1.
        -12    1    3    3    0    0  0.66333026572E+01 -0.78282012954E+01 -0.11290879008E+02  0.15256650629E+02  0.00000000000E+00 0.  1.
</event>
<event>
 7    1  0.1161807E-013  0.5052885E+02  0.7816164E-02  0.1300439E+00
        -11   -1    0    0    0    0  0.00000000000E+00  0.00000000000E+00  0.45593999997E+02  0.45594000000E+02  0.51100000000E-03 0. -1.
         11   -1    0    0    0    0 -0.00000000000E+00 -0.00000000000E+00 -0.45593999997E+02  0.45594000000E+02  0.51100000000E-03 0.  1.
    9900012    2    1    2    0    0 -0.13025212130E+02 -0.88815653289E+01  0.37478373339E+02  0.50528845780E+02  0.29999957233E+02 0.  0.
        -12    1    1    2    0    0  0.13025212130E+02  0.88815653289E+01 -0.37478373339E+02  0.40659154220E+02  0.00000000000E+00 0.  1.
         11    1    3    3    0    0 -0.13261523672E+01  0.30250605871E+00  0.12728066481E+01  0.18628545411E+01  0.51100000000E-03 0. -1.
        -11    1    3    3    0    0  0.74175358971E+00  0.73658220770E+01  0.53541071164E+00  0.74224118823E+01  0.51100000000E-03 0.  1.
         12    1    3    3    0    0 -0.12440813353E+02 -0.16549893465E+02  0.35670155979E+02  0.41243579357E+02  0.00000000000E+00 0. -1.
</event>
<event>
 7    1  0.1161807E-013  0.5052885E+02  0.7816164E-02  0.1300439E+00
        -11   -1    0    0    0    0  0.00000000000E+00  0.00000000000E+00  0.45593999997E+02  0.45594000000E+02  0.51100000000E-03 0. -1.
         11   -1    0    0    0    0 -0.00000000000E+00 -0.00000000000E+00 -0.45593999997E+02  0.45594000000E+02  0.51100000000E-03 0.  1.
    9900012    2    1    2    0    0  0.84445994751E+01 -0.95715331973E+01  0.38603635339E+02  0.50528853804E+02  0.29999981622E+02 0.  0.
        -12    1    1    2    0    0 -0.84445994751E+01  0.95715331973E+01 -0.38603635339E+02  0.40659146196E+02  0.00000000000E+00 0.  1.
         11    1    3    3    0    0 -0.20067972375E+01 -0.10128333642E+02  0.15159823866E+02  0.18342045618E+02  0.51100000000E-03 0. -1.
        -11    1    3    3    0    0  0.95124999214E+01 -0.74687226185E+01  0.72809829966E+01  0.14116734253E+02  0.51100000000E-03 0.  1.
        -12    1    3    3    0    0  0.93889679118E+00  0.80255230635E+01  0.16162828476E+02  0.18070073934E+02  0.00000000000E+00 0.  1.
</event>
<event>
 7    1  0.1161807E-013  0.5052885E+02  0.7816164E-02  0.1300439E+00
        -11   -1    0    0    0    0  0.00000000000E+00  0.00000000000E+00  0.45593999997E+02  0.45594000000E+02  0.51100000000E-03 0. -1.
         11   -1    0    0    0    0 -0.00000000000E+00 -0.00000000000E+00 -0.45593999997E+02  0.45594000000E+02  0.51100000000E-03 0.  1.
    9900012    2    1    2    0    0  0.10157595225E+02  0.25071437790E+02 -0.30354786293E+02  0.50528846240E+02  0.29999958631E+02 0.  0.
         12    1    1    2    0    0 -0.10157595225E+02 -0.25071437790E+02  0.30354786293E+02  0.40659153760E+02  0.00000000000E+00 0. -1.
         11    1    3    3    0    0  0.42791179370E+01  0.99092912954E+01 -0.21674234383E+02  0.24213164614E+02  0.51100000000E-03 0. -1.
        -11    1    3    3    0    0  0.69292052905E+01  0.15045507955E+02 -0.13507903829E+02  0.21373924808E+02  0.51100000000E-03 0.  1.
         12    1    3    3    0    0 -0.10507280025E+01  0.11663853911E+00  0.48273519194E+01  0.49417568169E+01  0.00000000000E+00 0. -1.
</event>
<event>
 7    1  0.1161807E-013  0.5052885E+02  0.7816164E-02  0.1300439E+00
        -11   -1    0    0    0    0  0.00000000000E+00  0.00000000000E+00  0.45593999997E+02  0.45594000000E+02  0.51100000000E-03 0. -1.
         11   -1    0    0    0    0 -0.00000000000E+00 -0.00000000000E+00 -0.45593999997E+02  0.45594000000E+02  0.51100000000E-03 0.  1.
    9900012    2    1    2    0    0  0.24969800041E+02  0.58864367845E+01  0.31544018979E+02  0.50528853606E+02  0.29999981021E+02 0.  0.
        -12    1    1    2    0    0 -0.24969800041E+02 -0.58864367845E+01 -0.31544018979E+02  0.40659146394E+02  0.00000000000E+00 0.  1.
         11    1    3    3    0    0  0.16401517988E+02  0.14226387480E+02  0.11285024561E+02  0.24469402785E+02  0.51100000000E-03 0. -1.
        -11    1    3    3    0    0 -0.24219266069E+01  0.25901228764E+00  0.31088896073E+01  0.39494316941E+01  0.51100000000E-03 0.  1.
         12    1    3    3    0    0  0.10990208660E+02 -0.85989629833E+01  0.17150104811E+02  0.22110019127E+02  0.00000000000E+00 0. -1.
</event>
<event>
 7    1  0.1161807E-013  0.5052888E+02  0.7816164E-02  0.1300439E+00
        -11   -1    0    0    0    0  0.00000000000E+00  0.00000000000E+00  0.45593999997E+02  0.45594000000E+02  0.51100000000E-03 0. -1.
         11   -1    0    0    0    0 -0.00000000000E+00 -0.00000000000E+00 -0.45593999997E+02  0.45594000000E+02  0.51100000000E-03 0.  1.
    9900012    2    1    2    0    0 -0.15602423729E+02  0.34043235169E+02  0.15836242698E+02  0.50528879624E+02  0.30000060105E+02 0.  0.
        -12    1    1    2    0    0  0.15602423729E+02 -0.34043235169E+02 -0.15836242698E+02  0.40659120376E+02  0.00000000000E+00 0.  1.
         11    1    3    3    0    0 -0.59525820326E+01  0.98412446021E+01  0.14610974351E+01  0.11593883480E+02  0.51100000000E-03 0. -1.
        -11    1    3    3    0    0 -0.92159475339E+01  0.23124269680E+02  0.38435237144E+00  0.24896049168E+02  0.51100000000E-03 0.  1.
        -12    1    3    3    0    0 -0.43389416260E+00  0.10777208865E+01  0.13990792891E+02  0.14038946975E+02  0.00000000000E+00 0.  1.
</event>
<event>
 7    1  0.1161807E-013  0.5052888E+02  0.7816164E-02  0.1300439E+00
        -11   -1    0    0    0    0  0.00000000000E+00  0.00000000000E+00  0.45593999997E+02  0.45594000000E+02  0.51100000000E-03 0. -1.
         11   -1    0    0    0    0 -0.00000000000E+00 -0.00000000000E+00 -0.45593999997E+02  0.45594000000E+02  0.51100000000E-03 0.  1.
    9900012    2    1    2    0    0  0.61249052076E+01 -0.92199344437E+01  0.39123425814E+02  0.50528879223E+02  0.30000058886E+02 0.  0.
        -12    1    1    2    0    0 -0.61249052076E+01  0.92199344437E+01 -0.39123425814E+02  0.40659120777E+02  0.00000000000E+00 0.  1.
         11    1    3    3    0    0 -0.44021804538E+01 -0.39907836903E+00  0.27114545200E+01  0.51855994993E+01  0.51100000000E-03 0. -1.
        -11    1    3    3    0    0  0.28074542252E+00  0.57567409028E+01  0.12109275259E+01  0.58894167409E+01  0.51100000000E-03 0.  1.
         12    1    3    3    0    0  0.10246340239E+02 -0.14577596977E+02  0.35201043768E+02  0.39453862983E+02  0.00000000000E+00 0. -1.
</event>
<event>
 7    1  0.1161807E-013  0.5052887E+02  0.7816164E-02  0.1300439E+00
        -11   -1    0    0    0    0  0.00000000000E+00  0.00000000000E+00  0.45593999997E+02  0.45594000000E+02  0.51100000000E-03 0. -1.
         11   -1    0    0    0    0 -0.00000000000E+00 -0.00000000000E+00 -0.45593999997E+02  0.45594000000E+02  0.51100000000E-03 0.  1.
    9900012    2    1    2    0    0 -0.20178493675E+01  0.34840674267E+01  0.40459294092E+02  0.50528869164E+02  0.30000028312E+02 0.  0.
        -12    1    1    2    0    0  0.20178493675E+01 -0.34840674267E+01 -0.40459294092E+02  0.40659130836E+02  0.00000000000E+00 0.  1.
         11    1    3    3    0    0  0.39330204654E+01 -0.24502127676E+01  0.13939754411E+02  0.14689756495E+02  0.51100000000E-03 0. -1.
        -11    1    3    3    0    0  0.65149488314E+01 -0.40743015049E+01  0.11963232130E+02  0.14218418136E+02  0.51100000000E-03 0.  1.
        -12    1    3    3    0    0 -0.12465818664E+02  0.10008581699E+02  0.14556307551E+02  0.21620694534E+02  0.00000000000E+00 0.  1.
</event>
<event>
 7    1  0.1161807E-013  0.5052884E+02  0.7816164E-02  0.1300439E+00
        -11   -1    0    0    0    0  0.00000000000E+00  0.00000000000E+00  0.45593999997E+02  0.45594000000E+02  0.51100000000E-03 0. -1.
         11   -1    0    0    0    0 -0.00000000000E+00 -0.00000000000E+00 -0.45593999997E+02  0.45594000000E+02  0.51100000000E-03 0.  1.
    9900012    2    1    2    0    0  0.32157591420E+02 -0.29320317737E+01  0.24707485119E+02  0.50528839690E+02  0.29999938722E+02 0.  0.
        -12    1    1    2    0    0 -0.32157591420E+02  0.29320317737E+01 -0.24707485119E+02  0.40659160310E+02  0.00000000000E+00 0.  1.
         11    1    3    3    0    0  0.78049889930E+01  0.45966062507E+01  0.18609941766E+02  0.20697260085E+02  0.51100000000E-03 0. -1.
        -11    1    3    3    0    0  0.17965275909E+02 -0.52091230992E+01  0.10770502288E+02  0.21584481040E+02  0.51100000000E-03 0.  1.
        -12    1    3    3    0    0  0.63873265171E+01 -0.23195149253E+01 -0.46729589362E+01  0.82470985651E+01  0.00000000000E+00 0.  1.
</event>
<event>
 7    1  0.1161807E-013  0.5052886E+02  0.7816164E-02  0.1300439E+00
        -11   -1    0    0    0    0  0.00000000000E+00  0.00000000000E+00  0.45593999997E+02  0.45594000000E+02  0.51100000000E-03 0. -1.
         11   -1    0    0    0    0 -0.00000000000E+00 -0.00000000000E+00 -0.45593999997E+02  0.45594000000E+02  0.51100000000E-03 0.  1.
    9900012    2    1    2    0    0 -0.81869918682E+01  0.11878024790E+02  0.38013831385E+02  0.50528859757E+02  0.29999999717E+02 0.  0.
        -12    1    1    2    0    0  0.81869918682E+01 -0.11878024790E+02 -0.38013831385E+02  0.40659140243E+02  0.00000000000E+00 0.  1.
         11    1    3    3    0    0 -0.18739535899E+01  0.64629357484E+01 -0.70095981894E+00  0.67655439895E+01  0.51100000000E-03 0. -1.
        -11    1    3    3    0    0 -0.34271520080E+01  0.31775717603E+01 -0.19972151209E+00  0.46778437470E+01  0.51100000000E-03 0.  1.
         12    1    3    3    0    0 -0.28858862703E+01  0.22375172816E+01  0.38914512716E+02  0.39085472020E+02  0.00000000000E+00 0. -1.
</event>
<event>
 7    1  0.1161807E-013  0.5052887E+02  0.7816164E-02  0.1300439E+00
        -11   -1    0    0    0    0  0.00000000000E+00  0.00000000000E+00  0.45593999997E+02  0.45594000000E+02  0.51100000000E-03 0. -1.
         11   -1    0    0    0    0 -0.00000000000E+00 -0.00000000000E+00 -0.45593999997E+02  0.45594000000E+02  0.51100000000E-03 0.  1.
    9900012    2    1    2    0    0  0.28303459556E+02 -0.42105648625E+01 -0.28885120663E+02  0.50528869721E+02  0.30000030005E+02 0.  0.
         12    1    1    2    0    0 -0.28303459556E+02  0.42105648625E+01  0.28885120663E+02  0.40659130279E+02  0.00000000000E+00 0. -1.
         11    1    3    3    0    0  0.43641247845E+01 -0.71291199457E+01 -0.78935007462E+01  0.11496838288E+02  0.51100000000E-03 0. -1.
        -11    1    3    3    0    0  0.20825800985E+02 -0.58408534213E+01 -0.20375778506E+02  0.29715347976E+02  0.51100000000E-03 0.  1.
         12    1    3    3    0    0  0.31135337870E+01  0.87594085045E+01 -0.61584140991E+00  0.93166834568E+01  0.00000000000E+00 0. -1.
</event>
<event>
 7    1  0.1161807E-013  0.5052887E+02  0.7816164E-02  0.1300439E+00
        -11   -1    0    0    0    0  0.00000000000E+00  0.00000000000E+00  0.45593999997E+02  0.45594000000E+02  0.51100000000E-03 0. -1.
         11   -1    0    0    0    0 -0.00000000000E+00 -0.00000000000E+00 -0.45593999997E+02  0.45594000000E+02  0.51100000000E-03 0.  1.
    9900012    2    1    2    0    0 -0.54630170283E+01 -0.10896548827E+02 -0.38788990458E+02  0.50528866805E+02  0.30000021142E+02 0.  0.
         12    1    1    2    0    0  0.54630170283E+01  0.10896548827E+02  0.38788990458E+02  0.40659133195E+02  0.00000000000E+00 0. -1.
         11    1    3    3    0    0  0.25036863479E+01 -0.27758330560E+01  0.17089091273E+00  0.37420446882E+01  0.51100000000E-03 0. -1.
        -11    1    3    3    0    0 -0.72940962536E+01 -0.75232967286E+01 -0.31167839948E+01  0.10932436899E+02  0.51100000000E-03 0.  1.
        -12    1    3    3    0    0 -0.67260712252E+00 -0.59741904217E+00 -0.35843097376E+02  0.35854385218E+02  0.00000000000E+00 0.  1.
</event>
<event>
 7    1  0.1161807E-013  0.5052890E+02  0.7816164E-02  0.1300439E+00
        -11   -1    0    0    0    0  0.00000000000E+00  0.00000000000E+00  0.45593999997E+02  0.45594000000E+02  0.51100000000E-03 0. -1.
         11   -1    0    0    0    0 -0.00000000000E+00 -0.00000000000E+00 -0.45593999997E+02  0.45594000000E+02  0.51100000000E-03 0.  1.
    9900012    2    1    2    0    0  0.29935616093E+02  0.75934666484E+01  0.26445428612E+02  0.50528898422E+02  0.30000117244E+02 0.  0.
        -12    1    1    2    0    0 -0.29935616093E+02 -0.75934666484E+01 -0.26445428612E+02  0.40659101578E+02  0.00000000000E+00 0.  1.
         11    1    3    3    0    0  0.15601662223E+01  0.16295631150E+01 -0.47848794274E+01  0.52900534953E+01  0.51100000000E-03 0. -1.
        -11    1    3    3    0    0 -0.76636387401E+00  0.30023184857E+01  0.51948563493E+01  0.60487819127E+01  0.51100000000E-03 0.  1.
         12    1    3    3    0    0  0.29141813745E+02  0.29615850477E+01  0.26035451690E+02  0.39190063014E+02  0.00000000000E+00 0. -1.
</event>
<event>
 7    1  0.1161807E-013  0.5052886E+02  0.7816164E-02  0.1300439E+00
        -11   -1    0    0    0    0  0.00000000000E+00  0.00000000000E+00  0.45593999997E+02  0.45594000000E+02  0.51100000000E-03 0. -1.
         11   -1    0    0    0    0 -0.00000000000E+00 -0.00000000000E+00 -0.45593999997E+02  0.45594000000E+02  0.51100000000E-03 0.  1.
    9900012    2    1    2    0    0  0.15472634639E+02 -0.37365757028E+02  0.41908320540E+01  0.50528864566E+02  0.30000014334E+02 0.  0.
        -12    1    1    2    0    0 -0.15472634639E+02  0.37365757028E+02 -0.41908320540E+01  0.40659135434E+02  0.00000000000E+00 0.  1.
         11    1    3    3    0    0  0.12093447837E+02 -0.25601534300E+02 -0.50670949024E+01  0.28763961655E+02  0.51100000000E-03 0.  1.
        -11    1    3    3    0    0  0.84796712545E+01 -0.30923112434E+01  0.70794384493E+01  0.11471079392E+02  0.51100000000E-03 0. -1.
         12    1    3    3    0    0 -0.51004844524E+01 -0.86719114849E+01  0.21784885072E+01  0.10293823518E+02  0.00000000000E+00 0. -1.
</event>
<event>
 7    1  0.1161807E-013  0.5052886E+02  0.7816164E-02  0.1300439E+00
        -11   -1    0    0    0    0  0.00000000000E+00  0.00000000000E+00  0.45593999997E+02  0.45594000000E+02  0.51100000000E-03 0. -1.
         11   -1    0    0    0    0 -0.00000000000E+00 -0.00000000000E+00 -0.45593999997E+02  0.45594000000E+02  0.51100000000E-03 0.  1.
    9900012    2    1    2    0    0  0.16754567223E+02 -0.18207800168E+02 -0.32263393187E+02  0.50528855275E+02  0.29999986095E+02 0.  0.
         12    1    1    2    0    0 -0.16754567223E+02  0.18207800168E+02  0.32263393187E+02  0.40659144725E+02  0.00000000000E+00 0. -1.
         11    1    3    3    0    0 -0.18962179234E+01 -0.35223010312E+01 -0.16701310771E+02  0.17173701659E+02  0.51100000000E-03 0. -1.
        -11    1    3    3    0    0  0.64305924235E+01 -0.77190166263E+01 -0.16434036178E+02  0.19261705063E+02  0.51100000000E-03 0.  1.
         12    1    3    3    0    0  0.12220192723E+02 -0.69664825107E+01  0.87195376094E+00  0.14093448553E+02  0.00000000000E+00 0. -1.
</event>
<event>
 7    1  0.1161807E-013  0.5052886E+02  0.7816164E-02  0.1300439E+00
        -11   -1    0    0    0    0  0.00000000000E+00  0.00000000000E+00  0.45593999997E+02  0.45594000000E+02  0.51100000000E-03 0. -1.
         11   -1    0    0    0    0 -0.00000000000E+00 -0.00000000000E+00 -0.45593999997E+02  0.45594000000E+02  0.51100000000E-03 0.  1.
    9900012    2    1    2    0    0  0.13766205710E+02 -0.13360231482E+02  0.35849150671E+02  0.50528858238E+02  0.29999995102E+02 0.  0.
        -12    1    1    2    0    0 -0.13766205710E+02  0.13360231482E+02 -0.35849150671E+02  0.40659141762E+02  0.00000000000E+00 0.  1.
         11    1    3    3    0    0  0.15700702055E+02 -0.79341449444E+01  0.10774466278E+02  0.20628907505E+02  0.51100000000E-03 0. -1.
        -11    1    3    3    0    0  0.28858254859E+01 -0.11852961413E+01 -0.81632137131E+00  0.32247940275E+01  0.51100000000E-03 0.  1.
         12    1    3    3    0    0 -0.48203218310E+01 -0.42407903968E+01  0.25891005765E+02  0.26675156706E+02  0.00000000000E+00 0. -1.
</event>
<event>
 7    1  0.1161807E-013  0.5052886E+02  0.7816164E-02  0.1300439E+00
        -11   -1    0    0    0    0  0.00000000000E+00  0.00000000000E+00  0.45593999997E+02  0.45594000000E+02  0.51100000000E-03 0. -1.
         11   -1    0    0    0    0 -0.00000000000E+00 -0.00000000000E+00 -0.45593999997E+02  0.45594000000E+02  0.51100000000E-03 0.  1.
    9900012    2    1    2    0    0  0.25747396868E+02  0.10537265009E+02  0.29651367415E+02  0.50528856023E+02  0.29999988368E+02 0.  0.
        -12    1    1    2    0    0 -0.25747396868E+02 -0.10537265009E+02 -0.29651367415E+02  0.40659143977E+02  0.00000000000E+00 0.  1.
         11    1    3    3    0    0  0.14508013529E+02  0.29397767814E+01  0.90500236312E+01  0.17350149051E+02  0.51100000000E-03 0. -1.
        -11    1    3    3    0    0  0.25842802768E+01 -0.53570892877E+01 -0.15036673544E+01  0.61349756283E+01  0.51100000000E-03 0.  1.
         12    1    3    3    0    0  0.86551030621E+01  0.12954577515E+02  0.22105011138E+02  0.27043731344E+02  0.00000000000E+00 0. -1.
</event>
<event>
 7    1  0.1161807E-013  0.5052886E+02  0.7816164E-02  0.1300439E+00
        -11   -1    0    0    0    0  0.00000000000E+00  0.00000000000E+00  0.45593999997E+02  0.45594000000E+02  0.51100000000E-03 0. -1.
         11   -1    0    0    0    0 -0.00000000000E+00 -0.00000000000E+00 -0.45593999997E+02  0.45594000000E+02  0.51100000000E-03 0.  1.
    9900012    2    1    2    0    0  0.90520421465E+01 -0.19746264128E+02  0.34370206877E+02  0.50528861607E+02  0.30000005342E+02 0.  0.
        -12    1    1    2    0    0 -0.90520421465E+01  0.19746264128E+02 -0.34370206877E+02  0.40659138393E+02  0.00000000000E+00 0.  1.
         11    1    3    3    0    0  0.21017874595E+01  0.17000786933E+01  0.69855384791E+01  0.74903622203E+01  0.51100000000E-03 0. -1.
        -11    1    3    3    0    0  0.10888309085E+02 -0.32295961322E+00  0.13941092725E+02  0.17692191619E+02  0.51100000000E-03 0.  1.
         12    1    3    3    0    0 -0.39380543982E+01 -0.21123383208E+02  0.13443575673E+02  0.25346307768E+02  0.00000000000E+00 0. -1.
</event>
<event>
 7    1  0.1161807E-013  0.5052885E+02  0.7816164E-02  0.1300439E+00
        -11   -1    0    0    0    0  0.00000000000E+00  0.00000000000E+00  0.45593999997E+02  0.45594000000E+02  0.51100000000E-03 0. -1.
         11   -1    0    0    0    0 -0.00000000000E+00 -0.00000000000E+00 -0.45593999997E+02  0.45594000000E+02  0.51100000000E-03 0.  1.
    9900012    2    1    2    0    0 -0.17344297935E+02  0.32514845350E+02  0.17179258843E+02  0.50528846377E+02  0.29999959046E+02 0.  0.
        -12    1    1    2    0    0  0.17344297935E+02 -0.32514845350E+02 -0.17179258843E+02  0.40659153623E+02  0.00000000000E+00 0.  1.
         11    1    3    3    0    0  0.89864645818E-01  0.43758259013E+01 -0.11327031388E+01  0.45209451041E+01  0.51100000000E-03 0.  1.
        -11    1    3    3    0    0 -0.37992119522E+01 -0.50404824320E+01  0.22070691040E+01  0.66866754741E+01  0.51100000000E-03 0. -1.
         12    1    3    3    0    0 -0.13634950628E+02  0.33179501881E+02  0.16104892877E+02  0.39321225798E+02  0.00000000000E+00 0. -1.
</event>
<event>
 7    1  0.1161807E-013  0.5052885E+02  0.7816164E-02  0.1300439E+00
        -11   -1    0    0    0    0  0.00000000000E+00  0.00000000000E+00  0.45593999997E+02  0.45594000000E+02  0.51100000000E-03 0. -1.
         11   -1    0    0    0    0 -0.00000000000E+00 -0.00000000000E+00 -0.45593999997E+02  0.45594000000E+02  0.51100000000E-03 0.  1.
    9900012    2    1    2    0    0 -0.84354373308E+01  0.10775817495E+02  0.38286959552E+02  0.50528854444E+02  0.29999983568E+02 0.  0.
        -12    1    1    2    0    0  0.84354373308E+01 -0.10775817495E+02 -0.38286959552E+02  0.40659145556E+02  0.00000000000E+00 0.  1.
         11    1    3    3    0    0 -0.10041628739E+02 -0.74488148896E+00  0.12686582984E+02  0.16196868347E+02  0.51100000000E-03 0. -1.
        -11    1    3    3    0    0  0.55045800010E+01 -0.40429699835E+01  0.78313183710E+01  0.10391128666E+02  0.51100000000E-03 0.  1.
        -12    1    3    3    0    0 -0.38983885928E+01  0.15563668967E+02  0.17769058196E+02  0.23940857431E+02  0.00000000000E+00 0.  1.
</event>
<event>
 7    1  0.1161807E-013  0.5052886E+02  0.7816164E-02  0.1300439E+00
        -11   -1    0    0    0    0  0.00000000000E+00  0.00000000000E+00  0.45593999997E+02  0.45594000000E+02  0.51100000000E-03 0.  1.
         11   -1    0    0    0    0 -0.00000000000E+00 -0.00000000000E+00 -0.45593999997E+02  0.45594000000E+02  0.51100000000E-03 0. -1.
    9900012    2    1    2    0    0 -0.33603723477E+02 -0.21385704419E+02  0.81613071925E+01  0.50528861788E+02  0.30000005891E+02 0.  0.
         12    1    1    2    0    0  0.33603723477E+02  0.21385704419E+02 -0.81613071925E+01  0.40659138212E+02  0.00000000000E+00 0. -1.
         11    1    3    3    0    0 -0.52092782745E+01 -0.15329420094E+02 -0.37655961757E+01  0.16622497266E+02  0.51100000000E-03 0. -1.
        -11    1    3    3    0    0 -0.88694095338E+01  0.72035134735E+00 -0.18221600578E+01  0.90832592762E+01  0.51100000000E-03 0.  1.
        -12    1    3    3    0    0 -0.19525035669E+02 -0.67766356728E+01  0.13749063426E+02  0.24823105245E+02  0.00000000000E+00 0.  1.
</event>
<event>
 7    1  0.1161807E-013  0.5052886E+02  0.7816164E-02  0.1300439E+00
        -11   -1    0    0    0    0  0.00000000000E+00  0.00000000000E+00  0.45593999997E+02  0.45594000000E+02  0.51100000000E-03 0. -1.
         11   -1    0    0    0    0 -0.00000000000E+00 -0.00000000000E+00 -0.45593999997E+02  0.45594000000E+02  0.51100000000E-03 0.  1.
    9900012    2    1    2    0    0  0.10344842033E+02 -0.51229404961E+01  0.38985965757E+02  0.50528858321E+02  0.29999995354E+02 0.  0.
        -12    1    1    2    0    0 -0.10344842033E+02  0.51229404961E+01 -0.38985965757E+02  0.40659141679E+02  0.00000000000E+00 0.  1.
         11    1    3    3    0    0  0.44494674340E+01 -0.59824475418E+01  0.29068714181E+02  0.30009624847E+02  0.51100000000E-03 0. -1.
        -11    1    3    3    0    0  0.84257880258E+01 -0.17868587305E+01  0.13093241054E+02  0.15672259873E+02  0.51100000000E-03 0.  1.
        -12    1    3    3    0    0 -0.25304134265E+01  0.26463657762E+01 -0.31759894778E+01  0.48469736015E+01  0.00000000000E+00 0.  1.
</event>
<event>
 7    1  0.1161807E-013  0.5052886E+02  0.7816164E-02  0.1300439E+00
        -11   -1    0    0    0    0  0.00000000000E+00  0.00000000000E+00  0.45593999997E+02  0.45594000000E+02  0.51100000000E-03 0. -1.
         11   -1    0    0    0    0 -0.00000000000E+00 -0.00000000000E+00 -0.45593999997E+02  0.45594000000E+02  0.51100000000E-03 0.  1.
    9900012    2    1    2    0    0 -0.42326432202E+01 -0.23002917614E+02 -0.33258322561E+02  0.50528861950E+02  0.30000006384E+02 0.  0.
         12    1    1    2    0    0  0.42326432202E+01  0.23002917614E+02  0.33258322561E+02  0.40659138050E+02  0.00000000000E+00 0. -1.
         11    1    3    3    0    0  0.16283084396E+00  0.38340441537E+01 -0.35842742381E+01  0.52510408998E+01  0.51100000000E-03 0. -1.
        -11    1    3    3    0    0  0.66860601245E+01 -0.22076383849E+01 -0.44938664134E+01  0.83529577295E+01  0.51100000000E-03 0.  1.
        -12    1    3    3    0    0 -0.11081534189E+02 -0.24629323383E+02 -0.25180181909E+02  0.36924863321E+02  0.00000000000E+00 0.  1.
</event>
<event>
 7    1  0.1161807E-013  0.5052887E+02  0.7816164E-02  0.1300439E+00
        -11   -1    0    0    0    0  0.00000000000E+00  0.00000000000E+00  0.45593999997E+02  0.45594000000E+02  0.51100000000E-03 0. -1.
         11   -1    0    0    0    0 -0.00000000000E+00 -0.00000000000E+00 -0.45593999997E+02  0.45594000000E+02  0.51100000000E-03 0.  1.
    9900012    2    1    2    0    0 -0.23522655581E+02 -0.26671684952E+02 -0.19709654697E+02  0.50528873201E+02  0.30000040582E+02 0.  0.
         12    1    1    2    0    0  0.23522655581E+02  0.26671684952E+02  0.19709654697E+02  0.40659126799E+02  0.00000000000E+00 0. -1.
         11    1    3    3    0    0 -0.71716175939E+01 -0.12519572975E+02 -0.42499933116E+01  0.15041085393E+02  0.51100000000E-03 0. -1.
        -11    1    3    3    0    0 -0.63940069480E+01 -0.17984101373E+02 -0.15852578635E+02  0.24811599640E+02  0.51100000000E-03 0.  1.
        -12    1    3    3    0    0 -0.99570310388E+01  0.38319893955E+01  0.39291724938E+00  0.10676188168E+02  0.00000000000E+00 0.  1.
</event>
<event>
 7    1  0.1161807E-013  0.5052887E+02  0.7816164E-02  0.1300439E+00
        -11   -1    0    0    0    0  0.00000000000E+00  0.00000000000E+00  0.45593999997E+02  0.45594000000E+02  0.51100000000E-03 0. -1.
         11   -1    0    0    0    0 -0.00000000000E+00 -0.00000000000E+00 -0.45593999997E+02  0.45594000000E+02  0.51100000000E-03 0.  1.
    9900012    2    1    2    0    0  0.42066588921E+01 -0.20622004509E+02  0.34787957232E+02  0.50528867970E+02  0.30000024682E+02 0.  0.
        -12    1    1    2    0    0 -0.42066588921E+01  0.20622004509E+02 -0.34787957232E+02  0.40659132030E+02  0.00000000000E+00 0.  1.
         11    1    3    3    0    0  0.11071150403E+01 -0.33485728229E+01  0.17158665139E+02  0.17517375182E+02  0.51100000000E-03 0. -1.
        -11    1    3    3    0    0  0.67397225342E+01 -0.12859284501E+02  0.21615199300E+02  0.26038469593E+02  0.51100000000E-03 0.  1.
        -12    1    3    3    0    0 -0.36401786824E+01 -0.44141471854E+01 -0.39859072067E+01  0.69730231947E+01  0.00000000000E+00 0.  1.
</event>
<event>
 7    1  0.1161807E-013  0.5052886E+02  0.7816164E-02  0.1300439E+00
        -11   -1    0    0    0    0  0.00000000000E+00  0.00000000000E+00  0.45593999997E+02  0.45594000000E+02  0.51100000000E-03 0. -1.
         11   -1    0    0    0    0 -0.00000000000E+00 -0.00000000000E+00 -0.45593999997E+02  0.45594000000E+02  0.51100000000E-03 0.  1.
    9900012    2    1    2    0    0 -0.20728348211E+02  0.44533458224E+01  0.34693927188E+02  0.50528864590E+02  0.30000014406E+02 0.  0.
        -12    1    1    2    0    0  0.20728348211E+02 -0.44533458224E+01 -0.34693927188E+02  0.40659135410E+02  0.00000000000E+00 0.  1.
         11    1    3    3    0    0 -0.11945231515E+02  0.96448709252E+00  0.13223538177E+02  0.17846029068E+02  0.51100000000E-03 0. -1.
        -11    1    3    3    0    0 -0.11058518042E+02 -0.33681611886E+01  0.17640617454E+01  0.11693897775E+02  0.51100000000E-03 0.  1.
        -12    1    3    3    0    0  0.22754013453E+01  0.68570199184E+01  0.19706327265E+02  0.20988937747E+02  0.00000000000E+00 0.  1.
</event>
<event>
 7    1  0.1161807E-013  0.5052886E+02  0.7816164E-02  0.1300439E+00
        -11   -1    0    0    0    0  0.00000000000E+00  0.00000000000E+00  0.45593999997E+02  0.45594000000E+02  0.51100000000E-03 0. -1.
         11   -1    0    0    0    0 -0.00000000000E+00 -0.00000000000E+00 -0.45593999997E+02  0.45594000000E+02  0.51100000000E-03 0.  1.
    9900012    2    1    2    0    0 -0.78477779996E+01  0.27161769609E+02 -0.29220135867E+02  0.50528859724E+02  0.29999999619E+02 0.  0.
         12    1    1    2    0    0  0.78477779996E+01 -0.27161769609E+02  0.29220135867E+02  0.40659140276E+02  0.00000000000E+00 0. -1.
         11    1    3    3    0    0 -0.36289582861E+01  0.58012402030E+00 -0.25978920121E+01  0.45005472211E+01  0.51100000000E-03 0. -1.
        -11    1    3    3    0    0 -0.96870693096E+01  0.85475483244E+01 -0.23652688955E+02  0.26950873627E+02  0.51100000000E-03 0.  1.
        -12    1    3    3    0    0  0.54682495961E+01  0.18034097264E+02 -0.29695549000E+01  0.19077438877E+02  0.00000000000E+00 0.  1.
</event>
<event>
 7    1  0.1161807E-013  0.5052886E+02  0.7816164E-02  0.1300439E+00
        -11   -1    0    0    0    0  0.00000000000E+00  0.00000000000E+00  0.45593999997E+02  0.45594000000E+02  0.51100000000E-03 0. -1.
         11   -1    0    0    0    0 -0.00000000000E+00 -0.00000000000E+00 -0.45593999997E+02  0.45594000000E+02  0.51100000000E-03 0.  1.
    9900012    2    1    2    0    0  0.29275592865E+02  0.10990541267E+02  0.25986783765E+02  0.50528864921E+02  0.30000015415E+02 0.  0.
        -12    1    1    2    0    0 -0.29275592865E+02 -0.10990541267E+02 -0.25986783765E+02  0.40659135079E+02  0.00000000000E+00 0.  1.
         11    1    3    3    0    0  0.92195648612E+01  0.34079604296E+01 -0.28291794795E+01  0.10228334532E+02  0.51100000000E-03 0. -1.
        -11    1    3    3    0    0  0.56701741219E+01 -0.59588313672E+01  0.64089705166E+01  0.10427533226E+02  0.51100000000E-03 0.  1.
         12    1    3    3    0    0  0.14385853882E+02  0.13541412204E+02  0.22406992728E+02  0.29872997163E+02  0.00000000000E+00 0. -1.
</event>
<event>
 7    1  0.1161807E-013  0.5052886E+02  0.7816164E-02  0.1300439E+00
        -11   -1    0    0    0    0  0.00000000000E+00  0.00000000000E+00  0.45593999997E+02  0.45594000000E+02  0.51100000000E-03 0.  1.
         11   -1    0    0    0    0 -0.00000000000E+00 -0.00000000000E+00 -0.45593999997E+02  0.45594000000E+02  0.51100000000E-03 0. -1.
    9900012    2    1    2    0    0  0.27184579367E+02  0.19077364785E+02  0.23456731479E+02  0.50528862599E+02  0.30000008356E+02 0.  0.
        -12    1    1    2    0    0 -0.27184579367E+02 -0.19077364785E+02 -0.23456731479E+02  0.40659137401E+02  0.00000000000E+00 0.  1.
         11    1    3    3    0    0  0.11820862972E+02  0.10336847341E+02  0.18602282508E+02  0.24343954673E+02  0.51100000000E-03 0.  1.
        -11    1    3    3    0    0  0.15161982558E+02  0.29323826857E+01  0.10020498003E+02  0.18409100026E+02  0.51100000000E-03 0. -1.
         12    1    3    3    0    0  0.20173383788E+00  0.58081347577E+01 -0.51660490311E+01  0.77758078999E+01  0.00000000000E+00 0. -1.
</event>
<event>
 7    1  0.1161807E-013  0.5052885E+02  0.7816164E-02  0.1300439E+00
        -11   -1    0    0    0    0  0.00000000000E+00  0.00000000000E+00  0.45593999997E+02  0.45594000000E+02  0.51100000000E-03 0. -1.
         11   -1    0    0    0    0 -0.00000000000E+00 -0.00000000000E+00 -0.45593999997E+02  0.45594000000E+02  0.51100000000E-03 0.  1.
    9900012    2    1    2    0    0  0.38846657481E+02 -0.11397472368E+02  0.37684097227E+01  0.50528854833E+02  0.29999984751E+02 0.  0.
        -12    1    1    2    0    0 -0.38846657481E+02  0.11397472368E+02 -0.37684097227E+01  0.40659145167E+02  0.00000000000E+00 0.  1.
         11    1    3    3    0    0  0.21827802659E+02 -0.49299126323E+01  0.60058338896E+01  0.23169528447E+02  0.51100000000E-03 0. -1.
        -11    1    3    3    0    0  0.17890420445E+02 -0.11733293661E+02  0.41584657914E+00  0.21398837643E+02  0.51100000000E-03 0.  1.
        -12    1    3    3    0    0 -0.87156562298E+00  0.52657339251E+01 -0.26532707460E+01  0.59604887431E+01  0.00000000000E+00 0.  1.
</event>
<event>
 7    1  0.1161807E-013  0.5052890E+02  0.7816164E-02  0.1300439E+00
        -11   -1    0    0    0    0  0.00000000000E+00  0.00000000000E+00  0.45593999997E+02  0.45594000000E+02  0.51100000000E-03 0. -1.
         11   -1    0    0    0    0 -0.00000000000E+00 -0.00000000000E+00 -0.45593999997E+02  0.45594000000E+02  0.51100000000E-03 0.  1.
    9900012    2    1    2    0    0 -0.17950210758E+02 -0.17955972768E+02 -0.31757443717E+02  0.50528901931E+02  0.30000127910E+02 0.  0.
         12    1    1    2    0    0  0.17950210758E+02  0.17955972768E+02  0.31757443717E+02  0.40659098069E+02  0.00000000000E+00 0. -1.
         11    1    3    3    0    0  0.50631193862E+01 -0.67150559039E+01 -0.40602520266E+01  0.93387793898E+01  0.51100000000E-03 0. -1.
        -11    1    3    3    0    0  0.24934002158E+01  0.24483991114E+00 -0.20130559932E+01  0.32139362021E+01  0.51100000000E-03 0.  1.
        -12    1    3    3    0    0 -0.25506730360E+02 -0.11485756775E+02 -0.25684135697E+02  0.37976186339E+02  0.00000000000E+00 0.  1.
</event>
<event>
 7    1  0.1161807E-013  0.5052886E+02  0.7816164E-02  0.1300439E+00
        -11   -1    0    0    0    0  0.00000000000E+00  0.00000000000E+00  0.45593999997E+02  0.45594000000E+02  0.51100000000E-03 0. -1.
         11   -1    0    0    0    0 -0.00000000000E+00 -0.00000000000E+00 -0.45593999997E+02  0.45594000000E+02  0.51100000000E-03 0.  1.
    9900012    2    1    2    0    0  0.71372790634E+01 -0.14366184990E+02 -0.37360911700E+02  0.50528859002E+02  0.29999997423E+02 0.  0.
         12    1    1    2    0    0 -0.71372790634E+01  0.14366184990E+02  0.37360911700E+02  0.40659140998E+02  0.00000000000E+00 0. -1.
         11    1    3    3    0    0  0.50257559299E+01 -0.59492645362E+00  0.85489143041E+00  0.51325432069E+01  0.51100000000E-03 0. -1.
        -11    1    3    3    0    0  0.58360533550E+01 -0.17559961441E+01 -0.10821321962E+01  0.61898345351E+01  0.51100000000E-03 0.  1.
        -12    1    3    3    0    0 -0.37245302215E+01 -0.12015262392E+02 -0.37133670934E+02  0.39206481260E+02  0.00000000000E+00 0.  1.
</event>
<event>
 7    1  0.1161807E-013  0.5052885E+02  0.7816164E-02  0.1300439E+00
        -11   -1    0    0    0    0  0.00000000000E+00  0.00000000000E+00  0.45593999997E+02  0.45594000000E+02  0.51100000000E-03 0. -1.
         11   -1    0    0    0    0 -0.00000000000E+00 -0.00000000000E+00 -0.45593999997E+02  0.45594000000E+02  0.51100000000E-03 0.  1.
    9900012    2    1    2    0    0 -0.92205097842E+00  0.34374447820E+02  0.21695944729E+02  0.50528845329E+02  0.29999955861E+02 0.  0.
        -12    1    1    2    0    0  0.92205097842E+00 -0.34374447820E+02 -0.21695944729E+02  0.40659154671E+02  0.00000000000E+00 0.  1.
         11    1    3    3    0    0  0.26479107629E+01  0.11536810718E+02  0.33371153523E+00  0.11841486249E+02  0.51100000000E-03 0.  1.
        -11    1    3    3    0    0 -0.12708498258E+02  0.93689619193E+01  0.84259815502E+01  0.17896383455E+02  0.51100000000E-03 0. -1.
         12    1    3    3    0    0  0.91385365163E+01  0.13468675183E+02  0.12936251643E+02  0.20790975625E+02  0.00000000000E+00 0. -1.
</event>
<event>
 7    1  0.1161807E-013  0.5052886E+02  0.7816164E-02  0.1300439E+00
        -11   -1    0    0    0    0  0.00000000000E+00  0.00000000000E+00  0.45593999997E+02  0.45594000000E+02  0.51100000000E-03 0. -1.
         11   -1    0    0    0    0 -0.00000000000E+00 -0.00000000000E+00 -0.45593999997E+02  0.45594000000E+02  0.51100000000E-03 0.  1.
    9900012    2    1    2    0    0  0.20070375509E+02 -0.15901845493E+02 -0.31582857760E+02  0.50528861206E+02  0.30000004122E+02 0.  0.
         12    1    1    2    0    0 -0.20070375509E+02  0.15901845493E+02  0.31582857760E+02  0.40659138794E+02  0.00000000000E+00 0. -1.
         11    1    3    3    0    0  0.87616834493E+01 -0.93676900383E+01 -0.30407627522E+01  0.13182069333E+02  0.51100000000E-03 0. -1.
        -11    1    3    3    0    0  0.14378253676E+01 -0.78380687382E+01 -0.96467588902E+00  0.80270332729E+01  0.51100000000E-03 0.  1.
        -12    1    3    3    0    0  0.98708666921E+01  0.13039132835E+01 -0.27577419119E+02  0.29319758600E+02  0.00000000000E+00 0.  1.
</event>
<event>
 7    1  0.1161807E-013  0.5052886E+02  0.7816164E-02  0.1300439E+00
        -11   -1    0    0    0    0  0.00000000000E+00  0.00000000000E+00  0.45593999997E+02  0.45594000000E+02  0.51100000000E-03 0. -1.
         11   -1    0    0    0    0 -0.00000000000E+00 -0.00000000000E+00 -0.45593999997E+02  0.45594000000E+02  0.51100000000E-03 0.  1.
    9900012    2    1    2    0    0  0.27158306258E+02  0.15996004758E+02  0.25685012001E+02  0.50528860701E+02  0.30000002586E+02 0.  0.
        -12    1    1    2    0    0 -0.27158306258E+02 -0.15996004758E+02 -0.25685012001E+02  0.40659139299E+02  0.00000000000E+00 0.  1.
         11    1    3    3    0    0  0.23787786106E+01 -0.37325054708E+01 -0.34116433158E+01  0.55883356327E+01  0.51100000000E-03 0.  1.
        -11    1    3    3    0    0  0.15041769989E+01  0.79945888289E+01  0.79655323880E+01  0.11385328518E+02  0.51100000000E-03 0. -1.
         12    1    3    3    0    0  0.23275350649E+02  0.11733921400E+02  0.21131122929E+02  0.33555196550E+02  0.00000000000E+00 0. -1.
</event>
<event>
 7    1  0.1161807E-013  0.5052886E+02  0.7816164E-02  0.1300439E+00
        -11   -1    0    0    0    0  0.00000000000E+00  0.00000000000E+00  0.45593999997E+02  0.45594000000E+02  0.51100000000E-03 0. -1.
         11   -1    0    0    0    0 -0.00000000000E+00 -0.00000000000E+00 -0.45593999997E+02  0.45594000000E+02  0.51100000000E-03 0.  1.
    9900012    2    1    2    0    0  0.17550769900E+02  0.33239634168E+01  0.36525156477E+02  0.50528864341E+02  0.30000013649E+02 0.  0.
        -12    1    1    2    0    0 -0.17550769900E+02 -0.33239634168E+01 -0.36525156477E+02  0.40659135659E+02  0.00000000000E+00 0.  1.
         11    1    3    3    0    0  0.21292696262E+01  0.94949196569E+00  0.95724509954E+01  0.98522658538E+01  0.51100000000E-03 0. -1.
        -11    1    3    3    0    0  0.13159560631E+02  0.12985536705E+02  0.22038184144E+02  0.28765947927E+02  0.51100000000E-03 0.  1.
        -12    1    3    3    0    0  0.22619396427E+01 -0.10611065254E+02  0.49145213380E+01  0.11910650560E+02  0.00000000000E+00 0.  1.
</event>
<event>
 7    1  0.1161807E-013  0.5052887E+02  0.7816164E-02  0.1300439E+00
        -11   -1    0    0    0    0  0.00000000000E+00  0.00000000000E+00  0.45593999997E+02  0.45594000000E+02  0.51100000000E-03 0. -1.
         11   -1    0    0    0    0 -0.00000000000E+00 -0.00000000000E+00 -0.45593999997E+02  0.45594000000E+02  0.51100000000E-03 0.  1.
    9900012    2    1    2    0    0 -0.36133763366E+01 -0.13635971343E+02  0.38133564163E+02  0.50528869183E+02  0.30000028368E+02 0.  0.
        -12    1    1    2    0    0  0.36133763366E+01  0.13635971343E+02 -0.38133564163E+02  0.40659130817E+02  0.00000000000E+00 0.  1.
         11    1    3    3    0    0  0.40091790797E+01 -0.42729697570E+01  0.96431814222E+01  0.11283737663E+02  0.51100000000E-03 0. -1.
        -11    1    3    3    0    0  0.15387611520E+01 -0.15660852367E+02  0.14726317858E+02  0.21552134944E+02  0.51100000000E-03 0.  1.
        -12    1    3    3    0    0 -0.91613165684E+01  0.62978507809E+01  0.13764064883E+02  0.17692996576E+02  0.00000000000E+00 0.  1.
</event>
<event>
 7    1  0.1161807E-013  0.5052886E+02  0.7816164E-02  0.1300439E+00
        -11   -1    0    0    0    0  0.00000000000E+00  0.00000000000E+00  0.45593999997E+02  0.45594000000E+02  0.51100000000E-03 0. -1.
         11   -1    0    0    0    0 -0.00000000000E+00 -0.00000000000E+00 -0.45593999997E+02  0.45594000000E+02  0.51100000000E-03 0.  1.
    9900012    2    1    2    0    0 -0.25467682072E+02 -0.93827998028E+01  0.30274182854E+02  0.50528856997E+02  0.29999991328E+02 0.  0.
        -12    1    1    2    0    0  0.25467682072E+02  0.93827998028E+01 -0.30274182854E+02  0.40659143003E+02  0.00000000000E+00 0.  1.
         11    1    3    3    0    0 -0.12089212786E+02 -0.58486568958E+01  0.46982301038E+01  0.14227762285E+02  0.51100000000E-03 0. -1.
        -11    1    3    3    0    0 -0.12717613571E+02 -0.27454473453E+01  0.25573843855E+01  0.13259539631E+02  0.51100000000E-03 0.  1.
         12    1    3    3    0    0 -0.66085571474E+00 -0.78869556168E+00  0.23018568365E+02  0.23041555081E+02  0.00000000000E+00 0. -1.
</event>
<event>
 7    1  0.1161807E-013  0.5052882E+02  0.7816164E-02  0.1300439E+00
        -11   -1    0    0    0    0  0.00000000000E+00  0.00000000000E+00  0.45593999997E+02  0.45594000000E+02  0.51100000000E-03 0. -1.
         11   -1    0    0    0    0 -0.00000000000E+00 -0.00000000000E+00 -0.45593999997E+02  0.45594000000E+02  0.51100000000E-03 0.  1.
    9900012    2    1    2    0    0  0.26135508599E+02  0.17358015933E+02  0.25861240220E+02  0.50528815643E+02  0.29999865629E+02 0.  0.
        -12    1    1    2    0    0 -0.26135508599E+02 -0.17358015933E+02 -0.25861240220E+02  0.40659184357E+02  0.00000000000E+00 0.  1.
         11    1    3    3    0    0  0.43626490127E+01 -0.32563159291E+01  0.44045266248E+00  0.54617120619E+01  0.51100000000E-03 0. -1.
        -11    1    3    3    0    0  0.65309306514E+01  0.18475491138E+02  0.64329327086E+01  0.20624729125E+02  0.51100000000E-03 0.  1.
         12    1    3    3    0    0  0.15241928935E+02  0.21388407233E+01  0.18987854849E+02  0.24442374456E+02  0.00000000000E+00 0. -1.
</event>
<event>
 7    1  0.1161807E-013  0.5052885E+02  0.7816164E-02  0.1300439E+00
        -11   -1    0    0    0    0  0.00000000000E+00  0.00000000000E+00  0.45593999997E+02  0.45594000000E+02  0.51100000000E-03 0. -1.
         11   -1    0    0    0    0 -0.00000000000E+00 -0.00000000000E+00 -0.45593999997E+02  0.45594000000E+02  0.51100000000E-03 0.  1.
    9900012    2    1    2    0    0 -0.23650568970E+02 -0.26810297643E+02  0.19365553211E+02  0.50528854369E+02  0.29999983340E+02 0.  0.
        -12    1    1    2    0    0  0.23650568970E+02  0.26810297643E+02 -0.19365553211E+02  0.40659145631E+02  0.00000000000E+00 0.  1.
         11    1    3    3    0    0 -0.13367589575E+02 -0.16091807330E+02  0.92096174459E+01  0.22857291352E+02  0.51100000000E-03 0. -1.
        -11    1    3    3    0    0 -0.94889045847E+01 -0.15266219839E+02  0.17224973624E+01  0.18057236107E+02  0.51100000000E-03 0.  1.
        -12    1    3    3    0    0 -0.79407481049E+00  0.45477295262E+01  0.84334384025E+01  0.96143269102E+01  0.00000000000E+00 0.  1.
</event>
<event>
 7    1  0.1161807E-013  0.5052885E+02  0.7816164E-02  0.1300439E+00
        -11   -1    0    0    0    0  0.00000000000E+00  0.00000000000E+00  0.45593999997E+02  0.45594000000E+02  0.51100000000E-03 0. -1.
         11   -1    0    0    0    0 -0.00000000000E+00 -0.00000000000E+00 -0.45593999997E+02  0.45594000000E+02  0.51100000000E-03 0.  1.
    9900012    2    1    2    0    0 -0.30197597607E+02  0.23945893052E+02  0.12956287726E+02  0.50528854818E+02  0.29999984704E+02 0.  0.
        -12    1    1    2    0    0  0.30197597607E+02 -0.23945893052E+02 -0.12956287726E+02  0.40659145182E+02  0.00000000000E+00 0.  1.
         11    1    3    3    0    0 -0.20546874716E+02  0.18599009968E+02  0.61046365238E+01  0.28378932675E+02  0.51100000000E-03 0. -1.
        -11    1    3    3    0    0 -0.27867782584E+01  0.70005795251E+01 -0.45039563220E+01  0.87783751093E+01  0.51100000000E-03 0.  1.
         12    1    3    3    0    0 -0.68639446322E+01 -0.16536964411E+01  0.11355607524E+02  0.13371547034E+02  0.00000000000E+00 0. -1.
</event>
<event>
 7    1  0.1161807E-013  0.5052886E+02  0.7816164E-02  0.1300439E+00
        -11   -1    0    0    0    0  0.00000000000E+00  0.00000000000E+00  0.45593999997E+02  0.45594000000E+02  0.51100000000E-03 0. -1.
         11   -1    0    0    0    0 -0.00000000000E+00 -0.00000000000E+00 -0.45593999997E+02  0.45594000000E+02  0.51100000000E-03 0.  1.
    9900012    2    1    2    0    0  0.18286434003E+02  0.55427936091E+00  0.36310665835E+02  0.50528863910E+02  0.30000012341E+02 0.  0.
        -12    1    1    2    0    0 -0.18286434003E+02 -0.55427936091E+00 -0.36310665835E+02  0.40659136090E+02  0.00000000000E+00 0.  1.
         11    1    3    3    0    0  0.19176860146E+01 -0.22075162551E+00 -0.10627453226E+01  0.22035604854E+01  0.51100000000E-03 0. -1.
        -11    1    3    3    0    0  0.65589135547E+01  0.11616304651E+02  0.81076987121E+01  0.15610658520E+02  0.51100000000E-03 0.  1.
         12    1    3    3    0    0  0.98098344338E+01 -0.10841273664E+02  0.29265712446E+02  0.32714644905E+02  0.00000000000E+00 0. -1.
</event>
<event>
 7    1  0.1161807E-013  0.5052886E+02  0.7816164E-02  0.1300439E+00
        -11   -1    0    0    0    0  0.00000000000E+00  0.00000000000E+00  0.45593999997E+02  0.45594000000E+02  0.51100000000E-03 0. -1.
         11   -1    0    0    0    0 -0.00000000000E+00 -0.00000000000E+00 -0.45593999997E+02  0.45594000000E+02  0.51100000000E-03 0.  1.
    9900012    2    1    2    0    0 -0.11148438572E+02 -0.21245640495E+02 -0.32825303588E+02  0.50528862303E+02  0.30000007457E+02 0.  0.
         12    1    1    2    0    0  0.11148438572E+02  0.21245640495E+02  0.32825303588E+02  0.40659137697E+02  0.00000000000E+00 0. -1.
         11    1    3    3    0    0 -0.16368443193E+02 -0.54999962955E+01 -0.16754059905E+02  0.24059809130E+02  0.51100000000E-03 0. -1.
        -11    1    3    3    0    0 -0.29441618277E+01 -0.68204097994E+01 -0.15835913777E+01  0.75956461616E+01  0.51100000000E-03 0.  1.
        -12    1    3    3    0    0  0.81641664491E+01 -0.89252343996E+01 -0.14487652305E+02  0.18873407011E+02  0.00000000000E+00 0.  1.
</event>
<event>
 7    1  0.1161807E-013  0.5052885E+02  0.7816164E-02  0.1300439E+00
        -11   -1    0    0    0    0  0.00000000000E+00  0.00000000000E+00  0.45593999997E+02  0.45594000000E+02  0.51100000000E-03 0. -1.
         11   -1    0    0    0    0 -0.00000000000E+00 -0.00000000000E+00 -0.45593999997E+02  0.45594000000E+02  0.51100000000E-03 0.  1.
    9900012    2    1    2    0    0  0.26125052684E+02  0.87250717918E+01 -0.29908544892E+02  0.50528852037E+02  0.29999976251E+02 0.  0.
         12    1    1    2    0    0 -0.26125052684E+02 -0.87250717918E+01  0.29908544892E+02  0.40659147963E+02  0.00000000000E+00 0. -1.
         11    1    3    3    0    0  0.10027497218E+01  0.13096863575E+01 -0.81218693763E+01  0.82876744498E+01  0.51100000000E-03 0. -1.
        -11    1    3    3    0    0  0.82730158201E+01  0.10962092994E+02 -0.20889072106E+02  0.24999272135E+02  0.51100000000E-03 0.  1.
        -12    1    3    3    0    0  0.16849287142E+02 -0.35467075601E+01 -0.89760340970E+00  0.17241905451E+02  0.00000000000E+00 0.  1.
</event>
<event>
 7    1  0.1161807E-013  0.5052887E+02  0.7816164E-02  0.1300439E+00
        -11   -1    0    0    0    0  0.00000000000E+00  0.00000000000E+00  0.45593999997E+02  0.45594000000E+02  0.51100000000E-03 0. -1.
         11   -1    0    0    0    0 -0.00000000000E+00 -0.00000000000E+00 -0.45593999997E+02  0.45594000000E+02  0.51100000000E-03 0.  1.
    9900012    2    1    2    0    0  0.17559516204E+02 -0.37552266744E+01 -0.36479122777E+02  0.50528871440E+02  0.30000035229E+02 0.  0.
         12    1    1    2    0    0 -0.17559516204E+02  0.37552266744E+01  0.36479122777E+02  0.40659128560E+02  0.00000000000E+00 0. -1.
         11    1    3    3    0    0 -0.34977244521E+00  0.53209874897E+01 -0.57725714061E+01  0.78586149879E+01  0.51100000000E-03 0. -1.
        -11    1    3    3    0    0  0.11451246937E+02  0.48557828541E+01 -0.21289563511E+02  0.24656747520E+02  0.51100000000E-03 0.  1.
         12    1    3    3    0    0  0.64580417114E+01 -0.13931997018E+02 -0.94169878603E+01  0.18013508931E+02  0.00000000000E+00 0. -1.
</event>
<event>
 7    1  0.1161807E-013  0.5052885E+02  0.7816164E-02  0.1300439E+00
        -11   -1    0    0    0    0  0.00000000000E+00  0.00000000000E+00  0.45593999997E+02  0.45594000000E+02  0.51100000000E-03 0.  1.
         11   -1    0    0    0    0 -0.00000000000E+00 -0.00000000000E+00 -0.45593999997E+02  0.45594000000E+02  0.51100000000E-03 0. -1.
    9900012    2    1    2    0    0  0.14452254831E+02  0.15438370888E+02 -0.34726870157E+02  0.50528850030E+02  0.29999970152E+02 0.  0.
         12    1    1    2    0    0 -0.14452254831E+02 -0.15438370888E+02  0.34726870157E+02  0.40659149970E+02  0.00000000000E+00 0. -1.
         11    1    3    3    0    0  0.13497874277E+02  0.71503356174E+01 -0.19805513123E+02  0.25011562521E+02  0.51100000000E-03 0. -1.
        -11    1    3    3    0    0  0.77015185516E+01  0.30362290531E+01 -0.14809671970E+02  0.16966392044E+02  0.51100000000E-03 0.  1.
        -12    1    3    3    0    0 -0.67471379972E+01  0.52518062180E+01 -0.11168506395E+00  0.85508954653E+01  0.00000000000E+00 0.  1.
</event>
<event>
 7    1  0.1161807E-013  0.5052886E+02  0.7816164E-02  0.1300439E+00
        -11   -1    0    0    0    0  0.00000000000E+00  0.00000000000E+00  0.45593999997E+02  0.45594000000E+02  0.51100000000E-03 0. -1.
         11   -1    0    0    0    0 -0.00000000000E+00 -0.00000000000E+00 -0.45593999997E+02  0.45594000000E+02  0.51100000000E-03 0.  1.
    9900012    2    1    2    0    0  0.26211097429E+02 -0.13921892118E+02 -0.27790731037E+02  0.50528862772E+02  0.30000008881E+02 0.  0.
         12    1    1    2    0    0 -0.26211097429E+02  0.13921892118E+02  0.27790731037E+02  0.40659137228E+02  0.00000000000E+00 0. -1.
         11    1    3    3    0    0  0.22358400329E+02 -0.44287439828E+01 -0.15083908155E+02  0.27331961584E+02  0.51100000000E-03 0. -1.
        -11    1    3    3    0    0  0.92762846393E+01 -0.53930789715E+01 -0.12390158372E+02  0.16390569918E+02  0.51100000000E-03 0.  1.
        -12    1    3    3    0    0 -0.54235875391E+01 -0.41000691635E+01 -0.31666451003E+00  0.68063312696E+01  0.00000000000E+00 0.  1.
</event>
<event>
 7    1  0.1161807E-013  0.5052882E+02  0.7816164E-02  0.1300439E+00
        -11   -1    0    0    0    0  0.00000000000E+00  0.00000000000E+00  0.45593999997E+02  0.45594000000E+02  0.51100000000E-03 0. -1.
         11   -1    0    0    0    0 -0.00000000000E+00 -0.00000000000E+00 -0.45593999997E+02  0.45594000000E+02  0.51100000000E-03 0.  1.
    9900012    2    1    2    0    0  0.27895182222E+01 -0.34218410640E+02 -0.21782739827E+02  0.50528821541E+02  0.29999883555E+02 0.  0.
         12    1    1    2    0    0 -0.27895182222E+01  0.34218410640E+02  0.21782739827E+02  0.40659178459E+02  0.00000000000E+00 0. -1.
         11    1    3    3    0    0 -0.98454217765E+01 -0.15141215433E+02 -0.10658726326E+02  0.20971341919E+02  0.51100000000E-03 0. -1.
        -11    1    3    3    0    0 -0.88857418345E-01 -0.13483864555E+02 -0.56176809839E+01  0.14607561017E+02  0.51100000000E-03 0.  1.
        -12    1    3    3    0    0  0.12723797417E+02 -0.55933306523E+01 -0.55063325168E+01  0.14949918605E+02  0.00000000000E+00 0.  1.
</event>
<event>
 7    1  0.1161807E-013  0.5052886E+02  0.7816164E-02  0.1300439E+00
        -11   -1    0    0    0    0  0.00000000000E+00  0.00000000000E+00  0.45593999997E+02  0.45594000000E+02  0.51100000000E-03 0. -1.
         11   -1    0    0    0    0 -0.00000000000E+00 -0.00000000000E+00 -0.45593999997E+02  0.45594000000E+02  0.51100000000E-03 0.  1.
    9900012    2    1    2    0    0 -0.29513943712E+02  0.25305071854E+02 -0.11905716737E+02  0.50528860486E+02  0.30000001934E+02 0.  0.
         12    1    1    2    0    0  0.29513943712E+02 -0.25305071854E+02  0.11905716737E+02  0.40659139514E+02  0.00000000000E+00 0. -1.
         11    1    3    3    0    0  0.43152560535E+00  0.24140829889E+01  0.20435752766E+01  0.31922110203E+01  0.51100000000E-03 0. -1.
        -11    1    3    3    0    0  0.90326589609E+00 -0.35535082436E+01  0.13680472444E+01  0.39134209639E+01  0.51100000000E-03 0.  1.
        -12    1    3    3    0    0 -0.30848735214E+02  0.26444497109E+02 -0.15317339258E+02  0.43423228502E+02  0.00000000000E+00 0.  1.
</event>
<event>
 7    1  0.1161807E-013  0.5052886E+02  0.7816164E-02  0.1300439E+00
        -11   -1    0    0    0    0  0.00000000000E+00  0.00000000000E+00  0.45593999997E+02  0.45594000000E+02  0.51100000000E-03 0. -1.
         11   -1    0    0    0    0 -0.00000000000E+00 -0.00000000000E+00 -0.45593999997E+02  0.45594000000E+02  0.51100000000E-03 0.  1.
    9900012    2    1    2    0    0  0.24842323585E+02  0.94977613582E+01 -0.30754135467E+02  0.50528863754E+02  0.30000011868E+02 0.  0.
         12    1    1    2    0    0 -0.24842323585E+02 -0.94977613582E+01  0.30754135467E+02  0.40659136246E+02  0.00000000000E+00 0. -1.
         11    1    3    3    0    0  0.10529655406E+02  0.92190436566E+00 -0.16539774079E+01  0.10698560284E+02  0.51100000000E-03 0. -1.
        -11    1    3    3    0    0  0.19768855187E+02  0.54278398685E+01 -0.24926808617E+02  0.32274058764E+02  0.51100000000E-03 0.  1.
        -12    1    3    3    0    0 -0.54561870086E+01  0.31480171240E+01 -0.41733494423E+01  0.75562447057E+01  0.00000000000E+00 0.  1.
</event>
<event>
 7    1  0.1161807E-013  0.5052886E+02  0.7816164E-02  0.1300439E+00
        -11   -1    0    0    0    0  0.00000000000E+00  0.00000000000E+00  0.45593999997E+02  0.45594000000E+02  0.51100000000E-03 0.  1.
         11   -1    0    0    0    0 -0.00000000000E+00 -0.00000000000E+00 -0.45593999997E+02  0.45594000000E+02  0.51100000000E-03 0. -1.
    9900012    2    1    2    0    0  0.27607827950E+02  0.25777689966E+02 -0.15049399054E+02  0.50528857412E+02  0.29999992591E+02 0.  0.
         12    1    1    2    0    0 -0.27607827950E+02 -0.25777689966E+02  0.15049399054E+02  0.40659142588E+02  0.00000000000E+00 0. -1.
         11    1    3    3    0    0  0.63363800628E+01  0.30853110730E+01 -0.94376803880E+01  0.11778737967E+02  0.51100000000E-03 0. -1.
        -11    1    3    3    0    0  0.68708511980E+01 -0.11691308196E+01  0.53658428039E+01  0.87958929231E+01  0.51100000000E-03 0.  1.
        -12    1    3    3    0    0  0.14400596689E+02  0.23861509713E+02 -0.10977561470E+02  0.29954226523E+02  0.00000000000E+00 0.  1.
</event>
<event>
 7    1  0.1161807E-013  0.5052885E+02  0.7816164E-02  0.1300439E+00
        -11   -1    0    0    0    0  0.00000000000E+00  0.00000000000E+00  0.45593999997E+02  0.45594000000E+02  0.51100000000E-03 0. -1.
         11   -1    0    0    0    0 -0.00000000000E+00 -0.00000000000E+00 -0.45593999997E+02  0.45594000000E+02  0.51100000000E-03 0.  1.
    9900012    2    1    2    0    0  0.68478527501E+01  0.20006578613E+01  0.40028376432E+02  0.50528848029E+02  0.29999964070E+02 0.  0.
        -12    1    1    2    0    0 -0.68478527501E+01 -0.20006578613E+01 -0.40028376432E+02  0.40659151971E+02  0.00000000000E+00 0.  1.
         11    1    3    3    0    0  0.50186892456E+01 -0.14474845696E+01 -0.23379699588E+00  0.52284906636E+01  0.51100000000E-03 0. -1.
        -11    1    3    3    0    0  0.65682679421E+01  0.49255076654E+01  0.48365723322E+01  0.95286516206E+01  0.51100000000E-03 0.  1.
         12    1    3    3    0    0 -0.47391044376E+01 -0.14773652345E+01  0.35425601096E+02  0.35771705745E+02  0.00000000000E+00 0. -1.
</event>
<event>
 7    1  0.1161807E-013  0.5052886E+02  0.7816164E-02  0.1300439E+00
        -11   -1    0    0    0    0  0.00000000000E+00  0.00000000000E+00  0.45593999997E+02  0.45594000000E+02  0.51100000000E-03 0. -1.
         11   -1    0    0    0    0 -0.00000000000E+00 -0.00000000000E+00 -0.45593999997E+02  0.45594000000E+02  0.51100000000E-03 0.  1.
    9900012    2    1    2    0    0 -0.31525682930E+02  0.37032369409E+01 -0.25408328079E+02  0.50528858545E+02  0.29999996034E+02 0.  0.
         12    1    1    2    0    0  0.31525682930E+02 -0.37032369409E+01  0.25408328079E+02  0.40659141455E+02  0.00000000000E+00 0. -1.
         11    1    3    3    0    0 -0.30870805966E+01 -0.43081726205E+01 -0.18423245201E+01  0.56111119964E+01  0.51100000000E-03 0. -1.
        -11    1    3    3    0    0 -0.56946719390E+01 -0.84059608461E+01 -0.71320199036E+01  0.12407867440E+02  0.51100000000E-03 0.  1.
         12    1    3    3    0    0 -0.22743930395E+02  0.16417370407E+02 -0.16433983655E+02  0.32509879109E+02  0.00000000000E+00 0. -1.
</event>
<event>
 7    1  0.1161807E-013  0.5052886E+02  0.7816164E-02  0.1300439E+00
        -11   -1    0    0    0    0  0.00000000000E+00  0.00000000000E+00  0.45593999997E+02  0.45594000000E+02  0.51100000000E-03 0. -1.
         11   -1    0    0    0    0 -0.00000000000E+00 -0.00000000000E+00 -0.45593999997E+02  0.45594000000E+02  0.51100000000E-03 0.  1.
    9900012    2    1    2    0    0 -0.10496755819E+02 -0.15526762699E+02  0.36081897804E+02  0.50528860907E+02  0.30000003214E+02 0.  0.
        -12    1    1    2    0    0  0.10496755819E+02  0.15526762699E+02 -0.36081897804E+02  0.40659139093E+02  0.00000000000E+00 0.  1.
         11    1    3    3    0    0 -0.13767606431E+01 -0.75303639402E+01  0.63960284897E+01  0.99755216226E+01  0.51100000000E-03 0. -1.
        -11    1    3    3    0    0 -0.10177703945E+01 -0.69792574179E+01 -0.23956991674E+01  0.74488432285E+01  0.51100000000E-03 0.  1.
         12    1    3    3    0    0 -0.81022247813E+01 -0.10171413410E+01  0.32081568481E+02  0.33104496056E+02  0.00000000000E+00 0. -1.
</event>
<event>
 7    1  0.1161807E-013  0.5052885E+02  0.7816164E-02  0.1300439E+00
        -11   -1    0    0    0    0  0.00000000000E+00  0.00000000000E+00  0.45593999997E+02  0.45594000000E+02  0.51100000000E-03 0.  1.
         11   -1    0    0    0    0 -0.00000000000E+00 -0.00000000000E+00 -0.45593999997E+02  0.45594000000E+02  0.51100000000E-03 0. -1.
    9900012    2    1    2    0    0  0.28957849713E+02 -0.28535109491E+02  0.59752513450E+00  0.50528848878E+02  0.29999966649E+02 0.  0.
         12    1    1    2    0    0 -0.28957849713E+02  0.28535109491E+02 -0.59752513450E+00  0.40659151122E+02  0.00000000000E+00 0. -1.
         11    1    3    3    0    0  0.20858017126E+01 -0.12079304246E+02 -0.11499581311E+01  0.12311887094E+02  0.51100000000E-03 0. -1.
        -11    1    3    3    0    0  0.23692241752E+02 -0.16774117362E+02  0.89166896248E+01  0.30367757353E+02  0.51100000000E-03 0.  1.
         12    1    3    3    0    0  0.31798062483E+01  0.31831211639E+00 -0.71692063592E+01  0.78492044311E+01  0.00000000000E+00 0. -1.
</event>
<event>
 7    1  0.1161807E-013  0.5052885E+02  0.7816164E-02  0.1300439E+00
        -11   -1    0    0    0    0  0.00000000000E+00  0.00000000000E+00  0.45593999997E+02  0.45594000000E+02  0.51100000000E-03 0. -1.
         11   -1    0    0    0    0 -0.00000000000E+00 -0.00000000000E+00 -0.45593999997E+02  0.45594000000E+02  0.51100000000E-03 0.  1.
    9900012    2    1    2    0    0  0.18297853711E+02 -0.34228139303E+02 -0.12115683222E+02  0.50528846657E+02  0.29999959900E+02 0.  0.
         12    1    1    2    0    0 -0.18297853711E+02  0.34228139303E+02  0.12115683222E+02  0.40659153343E+02  0.00000000000E+00 0. -1.
         11    1    3    3    0    0 -0.21176181328E+01  0.63054931041E+00 -0.22402888785E+01  0.31465526389E+01  0.51100000000E-03 0. -1.
        -11    1    3    3    0    0  0.35924473093E+01 -0.27688150502E+02 -0.41995895900E+01  0.28234303761E+02  0.51100000000E-03 0.  1.
        -12    1    3    3    0    0  0.16823024534E+02 -0.71705381120E+01 -0.56758047534E+01  0.19147990257E+02  0.00000000000E+00 0.  1.
</event>
<event>
 7    1  0.1161807E-013  0.5052886E+02  0.7816164E-02  0.1300439E+00
        -11   -1    0    0    0    0  0.00000000000E+00  0.00000000000E+00  0.45593999997E+02  0.45594000000E+02  0.51100000000E-03 0. -1.
         11   -1    0    0    0    0 -0.00000000000E+00 -0.00000000000E+00 -0.45593999997E+02  0.45594000000E+02  0.51100000000E-03 0.  1.
    9900012    2    1    2    0    0  0.16423091114E+02  0.23821063618E+02 -0.28565798511E+02  0.50528857877E+02  0.29999994003E+02 0.  0.
         12    1    1    2    0    0 -0.16423091114E+02 -0.23821063618E+02  0.28565798511E+02  0.40659142123E+02  0.00000000000E+00 0. -1.
         11    1    3    3    0    0  0.82067908201E+01  0.17314154267E+02 -0.33793641837E+01  0.19456398847E+02  0.51100000000E-03 0. -1.
        -11    1    3    3    0    0 -0.19998469144E+00  0.24016846894E+01  0.14673786346E+01  0.28215746566E+01  0.51100000000E-03 0.  1.
        -12    1    3    3    0    0  0.84162849849E+01  0.41052246609E+01 -0.26653812962E+02  0.28250884373E+02  0.00000000000E+00 0.  1.
</event>
<event>
 7    1  0.1161807E-013  0.5052886E+02  0.7816164E-02  0.1300439E+00
        -11   -1    0    0    0    0  0.00000000000E+00  0.00000000000E+00  0.45593999997E+02  0.45594000000E+02  0.51100000000E-03 0. -1.
         11   -1    0    0    0    0 -0.00000000000E+00 -0.00000000000E+00 -0.45593999997E+02  0.45594000000E+02  0.51100000000E-03 0.  1.
    9900012    2    1    2    0    0  0.39009778667E+02  0.44908277428E+01  0.10546818265E+02  0.50528859073E+02  0.29999997637E+02 0.  0.
        -12    1    1    2    0    0 -0.39009778667E+02 -0.44908277428E+01 -0.10546818265E+02  0.40659140927E+02  0.00000000000E+00 0.  1.
         11    1    3    3    0    0  0.23010539618E+02 -0.46082043449E+01  0.10741733716E+02  0.25809016337E+02  0.51100000000E-03 0. -1.
        -11    1    3    3    0    0 -0.34569869085E+01  0.19602296643E+01 -0.40107753832E+00  0.39942611676E+01  0.51100000000E-03 0.  1.
         12    1    3    3    0    0  0.19456225957E+02  0.71388024234E+01  0.20616208739E+00  0.20725581568E+02  0.00000000000E+00 0. -1.
</event>
<event>
 7    1  0.1161807E-013  0.5052887E+02  0.7816164E-02  0.1300439E+00
        -11   -1    0    0    0    0  0.00000000000E+00  0.00000000000E+00  0.45593999997E+02  0.45594000000E+02  0.51100000000E-03 0. -1.
         11   -1    0    0    0    0 -0.00000000000E+00 -0.00000000000E+00 -0.45593999997E+02  0.45594000000E+02  0.51100000000E-03 0.  1.
    9900012    2    1    2    0    0 -0.32771683666E+02 -0.23042283515E+02  0.69451246148E+01  0.50528870203E+02  0.30000031470E+02 0.  0.
        -12    1    1    2    0    0  0.32771683666E+02  0.23042283515E+02 -0.69451246148E+01  0.40659129797E+02  0.00000000000E+00 0.  1.
         11    1    3    3    0    0 -0.86797657561E+01  0.80661710758E-01 -0.18716328231E+01  0.88796311623E+01  0.51100000000E-03 0. -1.
        -11    1    3    3    0    0 -0.88550228136E+01 -0.45268116986E+01  0.13885479681E+02  0.17079519883E+02  0.51100000000E-03 0.  1.
         12    1    3    3    0    0 -0.15236895097E+02 -0.18596133527E+02 -0.50687222434E+01  0.24569719158E+02  0.00000000000E+00 0. -1.
</event>
<event>
 7    1  0.1161807E-013  0.5052884E+02  0.7816164E-02  0.1300439E+00
        -11   -1    0    0    0    0  0.00000000000E+00  0.00000000000E+00  0.45593999997E+02  0.45594000000E+02  0.51100000000E-03 0. -1.
         11   -1    0    0    0    0 -0.00000000000E+00 -0.00000000000E+00 -0.45593999997E+02  0.45594000000E+02  0.51100000000E-03 0.  1.
    9900012    2    1    2    0    0 -0.32487505082E+02 -0.18802603344E+01  0.24376094155E+02  0.50528839512E+02  0.29999938180E+02 0.  0.
        -12    1    1    2    0    0  0.32487505082E+02  0.18802603344E+01 -0.24376094155E+02  0.40659160488E+02  0.00000000000E+00 0.  1.
         11    1    3    3    0    0 -0.73303772221E+01 -0.51332256411E+01 -0.56804997571E+00  0.89670015466E+01  0.51100000000E-03 0. -1.
        -11    1    3    3    0    0  0.30135573263E+01 -0.21211794426E+01  0.64759260041E+01  0.74510769596E+01  0.51100000000E-03 0.  1.
        -12    1    3    3    0    0 -0.28170685186E+02  0.53741447493E+01  0.18468218126E+02  0.34110761006E+02  0.00000000000E+00 0.  1.
</event>
<event>
 7    1  0.1161807E-013  0.5052886E+02  0.7816164E-02  0.1300439E+00
        -11   -1    0    0    0    0  0.00000000000E+00  0.00000000000E+00  0.45593999997E+02  0.45594000000E+02  0.51100000000E-03 0. -1.
         11   -1    0    0    0    0 -0.00000000000E+00 -0.00000000000E+00 -0.45593999997E+02  0.45594000000E+02  0.51100000000E-03 0.  1.
    9900012    2    1    2    0    0 -0.13574534814E+02 -0.11393347416E+02 -0.36593568433E+02  0.50528860666E+02  0.30000002480E+02 0.  0.
         12    1    1    2    0    0  0.13574534814E+02  0.11393347416E+02  0.36593568433E+02  0.40659139334E+02  0.00000000000E+00 0. -1.
         11    1    3    3    0    0  0.37332164749E+01 -0.40170233647E+01 -0.92176754624E-01  0.54846949574E+01  0.51100000000E-03 0. -1.
        -11    1    3    3    0    0 -0.59701935675E+01 -0.41184449077E+01 -0.62686688116E+00  0.72799561839E+01  0.51100000000E-03 0.  1.
        -12    1    3    3    0    0 -0.11337557722E+02 -0.32578791438E+01 -0.35874524797E+02  0.37764209524E+02  0.00000000000E+00 0.  1.
</event>
<event>
 7    1  0.1161807E-013  0.5052886E+02  0.7816164E-02  0.1300439E+00
        -11   -1    0    0    0    0  0.00000000000E+00  0.00000000000E+00  0.45593999997E+02  0.45594000000E+02  0.51100000000E-03 0. -1.
         11   -1    0    0    0    0 -0.00000000000E+00 -0.00000000000E+00 -0.45593999997E+02  0.45594000000E+02  0.51100000000E-03 0.  1.
    9900012    2    1    2    0    0 -0.38120766294E+02 -0.72872560641E+01  0.12118938669E+02  0.50528860828E+02  0.30000002972E+02 0.  0.
        -12    1    1    2    0    0  0.38120766294E+02  0.72872560641E+01 -0.12118938669E+02  0.40659139172E+02  0.00000000000E+00 0.  1.
         11    1    3    3    0    0 -0.10586077592E+02 -0.42590568483E+01  0.12437729673E+02  0.16879032073E+02  0.51100000000E-03 0. -1.
        -11    1    3    3    0    0 -0.15731768188E+02 -0.94309196861E+00  0.92844334962E+01  0.18291491420E+02  0.51100000000E-03 0.  1.
        -12    1    3    3    0    0 -0.11802920514E+02 -0.20851072472E+01 -0.96032245002E+01  0.15358337335E+02  0.00000000000E+00 0.  1.
</event>
<event>
 7    1  0.1161807E-013  0.5052884E+02  0.7816164E-02  0.1300439E+00
        -11   -1    0    0    0    0  0.00000000000E+00  0.00000000000E+00  0.45593999997E+02  0.45594000000E+02  0.51100000000E-03 0. -1.
         11   -1    0    0    0    0 -0.00000000000E+00 -0.00000000000E+00 -0.45593999997E+02  0.45594000000E+02  0.51100000000E-03 0.  1.
    9900012    2    1    2    0    0  0.37611122381E+02  0.10450945058E+02 -0.11373141841E+02  0.50528841933E+02  0.29999945540E+02 0.  0.
         12    1    1    2    0    0 -0.37611122381E+02 -0.10450945058E+02  0.11373141841E+02  0.40659158067E+02  0.00000000000E+00 0. -1.
         11    1    3    3    0    0  0.15904104580E+02  0.80194902644E+01 -0.56351569937E+01  0.18681749414E+02  0.51100000000E-03 0. -1.
        -11    1    3    3    0    0  0.14807199682E+02  0.12092406960E+02 -0.57900914212E+01  0.19975100186E+02  0.51100000000E-03 0.  1.
         12    1    3    3    0    0  0.68998181189E+01 -0.96609521666E+01  0.52106573786E-01  0.11871992332E+02  0.00000000000E+00 0. -1.
</event>
<event>
 7    1  0.1161807E-013  0.5052898E+02  0.7816164E-02  0.1300438E+00
        -11   -1    0    0    0    0  0.00000000000E+00  0.00000000000E+00  0.45593999997E+02  0.45594000000E+02  0.51100000000E-03 0.  1.
         11   -1    0    0    0    0 -0.00000000000E+00 -0.00000000000E+00 -0.45593999997E+02  0.45594000000E+02  0.51100000000E-03 0. -1.
    9900012    2    1    2    0    0  0.35419357314E+02  0.20272187626E+01 -0.19862407885E+02  0.50528982115E+02  0.30000371633E+02 0.  0.
         12    1    1    2    0    0 -0.35419357314E+02 -0.20272187626E+01  0.19862407885E+02  0.40659017885E+02  0.00000000000E+00 0. -1.
         11    1    3    3    0    0  0.15962339646E+02  0.11387970435E+02 -0.16886093147E+02  0.25877061264E+02  0.51100000000E-03 0. -1.
        -11    1    3    3    0    0  0.24696635447E+01 -0.59099675566E+01 -0.35207299800E+01  0.73090693250E+01  0.51100000000E-03 0.  1.
        -12    1    3    3    0    0  0.16987354123E+02 -0.34507841158E+01  0.54441524203E+00  0.17342851526E+02  0.00000000000E+00 0.  1.
</event>
<event>
 7    1  0.1161807E-013  0.5052886E+02  0.7816164E-02  0.1300439E+00
        -11   -1    0    0    0    0  0.00000000000E+00  0.00000000000E+00  0.45593999997E+02  0.45594000000E+02  0.51100000000E-03 0. -1.
         11   -1    0    0    0    0 -0.00000000000E+00 -0.00000000000E+00 -0.45593999997E+02  0.45594000000E+02  0.51100000000E-03 0.  1.
    9900012    2    1    2    0    0 -0.17710654036E+02  0.11065910543E+02 -0.34886160999E+02  0.50528857463E+02  0.29999992746E+02 0.  0.
         12    1    1    2    0    0  0.17710654036E+02 -0.11065910543E+02  0.34886160999E+02  0.40659142537E+02  0.00000000000E+00 0. -1.
         11    1    3    3    0    0 -0.29832785085E+01  0.49714774914E+01 -0.15090007801E+02  0.16165514987E+02  0.51100000000E-03 0. -1.
        -11    1    3    3    0    0 -0.75198159576E+01  0.97409881693E+01 -0.22666030881E+02  0.25791150395E+02  0.51100000000E-03 0.  1.
         12    1    3    3    0    0 -0.72075595700E+01 -0.36465551173E+01  0.28698776818E+01  0.85721920818E+01  0.00000000000E+00 0. -1.
</event>
<event>
 7    1  0.1161807E-013  0.5052886E+02  0.7816164E-02  0.1300439E+00
        -11   -1    0    0    0    0  0.00000000000E+00  0.00000000000E+00  0.45593999997E+02  0.45594000000E+02  0.51100000000E-03 0.  1.
         11   -1    0    0    0    0 -0.00000000000E+00 -0.00000000000E+00 -0.45593999997E+02  0.45594000000E+02  0.51100000000E-03 0. -1.
    9900012    2    1    2    0    0 -0.29910612147E+02 -0.27463247223E+02 -0.20715062687E+01  0.50528858282E+02  0.29999995234E+02 0.  0.
         12    1    1    2    0    0  0.29910612147E+02  0.27463247223E+02  0.20715062687E+01  0.40659141718E+02  0.00000000000E+00 0. -1.
         11    1    3    3    0    0  0.12822930163E+01 -0.14549069478E+02 -0.54773695499E+01  0.15598758781E+02  0.51100000000E-03 0. -1.
        -11    1    3    3    0    0 -0.18569164521E+01 -0.17677217195E+01  0.24304666551E+01  0.35327251819E+01  0.51100000000E-03 0.  1.
         12    1    3    3    0    0 -0.29335988711E+02 -0.11146456025E+02  0.97539662613E+00  0.31397374319E+02  0.00000000000E+00 0. -1.
</event>
<event>
 7    1  0.1161807E-013  0.5052886E+02  0.7816164E-02  0.1300439E+00
        -11   -1    0    0    0    0  0.00000000000E+00  0.00000000000E+00  0.45593999997E+02  0.45594000000E+02  0.51100000000E-03 0. -1.
         11   -1    0    0    0    0 -0.00000000000E+00 -0.00000000000E+00 -0.45593999997E+02  0.45594000000E+02  0.51100000000E-03 0.  1.
    9900012    2    1    2    0    0  0.98829765751E+01 -0.10626907860E+02 -0.37981060177E+02  0.50528864140E+02  0.30000013041E+02 0.  0.
         12    1    1    2    0    0 -0.98829765751E+01  0.10626907860E+02  0.37981060177E+02  0.40659135860E+02  0.00000000000E+00 0. -1.
         11    1    3    3    0    0  0.86046890365E+01 -0.12105372673E+02 -0.14120829707E+02  0.20493378268E+02  0.51100000000E-03 0. -1.
        -11    1    3    3    0    0  0.32510084544E+01 -0.52187904795E+01 -0.11227382024E+01  0.62502297055E+01  0.51100000000E-03 0.  1.
        -12    1    3    3    0    0 -0.19727209158E+01  0.66972552929E+01 -0.22737492268E+02  0.23785256167E+02  0.00000000000E+00 0.  1.
</event>
<event>
 7    1  0.1161807E-013  0.5052884E+02  0.7816164E-02  0.1300439E+00
        -11   -1    0    0    0    0  0.00000000000E+00  0.00000000000E+00  0.45593999997E+02  0.45594000000E+02  0.51100000000E-03 0. -1.
         11   -1    0    0    0    0 -0.00000000000E+00 -0.00000000000E+00 -0.45593999997E+02  0.45594000000E+02  0.51100000000E-03 0.  1.
    9900012    2    1    2    0    0  0.33965008060E+01 -0.39021203350E+02 -0.10907631712E+02  0.50528844104E+02  0.29999952139E+02 0.  0.
         12    1    1    2    0    0 -0.33965008060E+01  0.39021203350E+02  0.10907631712E+02  0.40659155896E+02  0.00000000000E+00 0. -1.
         11    1    3    3    0    0  0.20557027328E-01 -0.13588349221E+02 -0.10504721822E+02  0.17175355541E+02  0.51100000000E-03 0. -1.
        -11    1    3    3    0    0  0.15914308696E+01 -0.26287455810E+02 -0.63462605121E+01  0.27089444585E+02  0.51100000000E-03 0.  1.
         12    1    3    3    0    0  0.17845129090E+01  0.85460168150E+00  0.59433506213E+01  0.62640439785E+01  0.00000000000E+00 0. -1.
</event>
<event>
 7    1  0.1161807E-013  0.5052887E+02  0.7816164E-02  0.1300439E+00
        -11   -1    0    0    0    0  0.00000000000E+00  0.00000000000E+00  0.45593999997E+02  0.45594000000E+02  0.51100000000E-03 0. -1.
         11   -1    0    0    0    0 -0.00000000000E+00 -0.00000000000E+00 -0.45593999997E+02  0.45594000000E+02  0.51100000000E-03 0.  1.
    9900012    2    1    2    0    0  0.31591769340E+02  0.11092774716E+02 -0.23066762219E+02  0.50528867444E+02  0.30000023082E+02 0.  0.
         12    1    1    2    0    0 -0.31591769340E+02 -0.11092774716E+02  0.23066762219E+02  0.40659132556E+02  0.00000000000E+00 0. -1.
         11    1    3    3    0    0  0.21595936757E+02  0.13842501911E+02 -0.54978392360E+01  0.26234053825E+02  0.51100000000E-03 0. -1.
        -11    1    3    3    0    0  0.42108182048E+01  0.53136260779E+01 -0.60088870438E+01  0.90593783350E+01  0.51100000000E-03 0.  1.
        -12    1    3    3    0    0  0.57850143784E+01 -0.80633532732E+01 -0.11560035940E+02  0.15235435284E+02  0.00000000000E+00 0.  1.
</event>
<event>
 7    1  0.1161807E-013  0.5052886E+02  0.7816164E-02  0.1300439E+00
        -11   -1    0    0    0    0  0.00000000000E+00  0.00000000000E+00  0.45593999997E+02  0.45594000000E+02  0.51100000000E-03 0. -1.
         11   -1    0    0    0    0 -0.00000000000E+00 -0.00000000000E+00 -0.45593999997E+02  0.45594000000E+02  0.51100000000E-03 0.  1.
    9900012    2    1    2    0    0  0.23464510766E+02  0.20879609493E+02  0.25819070131E+02  0.50528859078E+02  0.29999997653E+02 0.  0.
        -12    1    1    2    0    0 -0.23464510766E+02 -0.20879609493E+02 -0.25819070131E+02  0.40659140922E+02  0.00000000000E+00 0.  1.
         11    1    3    3    0    0  0.43289122845E+01 -0.42472559888E+01  0.56874622528E+01  0.83141982260E+01  0.51100000000E-03 0. -1.
        -11    1    3    3    0    0 -0.40575834756E+01  0.45894949807E+01  0.32885281400E+01  0.69528314684E+01  0.51100000000E-03 0.  1.
         12    1    3    3    0    0  0.23193181957E+02  0.20537370501E+02  0.16843079738E+02  0.35261829384E+02  0.00000000000E+00 0. -1.
</event>
<event>
 7    1  0.1161807E-013  0.5052886E+02  0.7816164E-02  0.1300439E+00
        -11   -1    0    0    0    0  0.00000000000E+00  0.00000000000E+00  0.45593999997E+02  0.45594000000E+02  0.51100000000E-03 0. -1.
         11   -1    0    0    0    0 -0.00000000000E+00 -0.00000000000E+00 -0.45593999997E+02  0.45594000000E+02  0.51100000000E-03 0.  1.
    9900012    2    1    2    0    0  0.20386797330E+02 -0.89990537677E+01  0.34008247001E+02  0.50528864026E+02  0.30000012693E+02 0.  0.
        -12    1    1    2    0    0 -0.20386797330E+02  0.89990537677E+01 -0.34008247001E+02  0.40659135974E+02  0.00000000000E+00 0.  1.
         11    1    3    3    0    0  0.73215718749E+01 -0.75695438798E+01  0.25661325400E+02  0.27738187230E+02  0.51100000000E-03 0. -1.
        -11    1    3    3    0    0  0.27005795640E+01  0.58268781019E+01  0.78312096754E+01  0.10127856814E+02  0.51100000000E-03 0.  1.
         12    1    3    3    0    0  0.10364645892E+02 -0.72563879898E+01  0.51571192528E+00  0.12662819982E+02  0.00000000000E+00 0. -1.
</event>
<event>
 7    1  0.1261050E-013  0.5052893E+02  0.7816164E-02  0.1300439E+00
        -11   -1    0    0    0    0  0.00000000000E+00  0.00000000000E+00  0.45593999997E+02  0.45594000000E+02  0.51100000000E-03 0. -1.
         11   -1    0    0    0    0 -0.00000000000E+00 -0.00000000000E+00 -0.45593999997E+02  0.45594000000E+02  0.51100000000E-03 0.  1.
    9900012    2    1    2    0    0  0.34208005766E+00 -0.56138309223E+01 -0.40268198268E+02  0.50528930800E+02  0.30000215660E+02 0.  0.
         12    1    1    2    0    0 -0.34208005766E+00  0.56138309223E+01  0.40268198268E+02  0.40659069200E+02  0.00000000000E+00 0. -1.
         11    1    3    3    0    0 -0.35149377876E+01 -0.16008836107E+01 -0.24854113199E+02  0.25152426506E+02  0.51100000000E-03 0.  1.
        -11    1    3    3    0    0  0.25730176423E+01  0.26861225393E+01 -0.17773808600E+02  0.18158853116E+02  0.51100000000E-03 0. -1.
         12    1    3    3    0    0  0.12840002029E+01 -0.66990698509E+01  0.23597235304E+01  0.72176511780E+01  0.00000000000E+00 0. -1.
</event>
<event>
 7    1  0.1161807E-013  0.5052888E+02  0.7816164E-02  0.1300439E+00
        -11   -1    0    0    0    0  0.00000000000E+00  0.00000000000E+00  0.45593999997E+02  0.45594000000E+02  0.51100000000E-03 0. -1.
         11   -1    0    0    0    0 -0.00000000000E+00 -0.00000000000E+00 -0.45593999997E+02  0.45594000000E+02  0.51100000000E-03 0.  1.
    9900012    2    1    2    0    0 -0.39966801759E+02  0.53520078500E+01  0.52129643427E+01  0.50528877676E+02  0.30000054185E+02 0.  0.
        -12    1    1    2    0    0  0.39966801759E+02 -0.53520078500E+01 -0.52129643427E+01  0.40659122324E+02  0.00000000000E+00 0.  1.
         11    1    3    3    0    0 -0.16097492713E+02  0.70137230578E+01  0.13956221633E+01  0.17614464064E+02  0.51100000000E-03 0. -1.
        -11    1    3    3    0    0 -0.21974506305E+02  0.67285106136E+01 -0.10975241534E+01  0.23007745261E+02  0.51100000000E-03 0.  1.
        -12    1    3    3    0    0 -0.18948027409E+01 -0.83902258215E+01  0.49148663328E+01  0.99066683517E+01  0.00000000000E+00 0.  1.
</event>
<event>
 7    1  0.1161807E-013  0.5052887E+02  0.7816164E-02  0.1300439E+00
        -11   -1    0    0    0    0  0.00000000000E+00  0.00000000000E+00  0.45593999997E+02  0.45594000000E+02  0.51100000000E-03 0. -1.
         11   -1    0    0    0    0 -0.00000000000E+00 -0.00000000000E+00 -0.45593999997E+02  0.45594000000E+02  0.51100000000E-03 0.  1.
    9900012    2    1    2    0    0 -0.32457885748E+02 -0.21784906509E+02  0.11183405066E+02  0.50528867598E+02  0.30000023550E+02 0.  0.
        -12    1    1    2    0    0  0.32457885748E+02  0.21784906509E+02 -0.11183405066E+02  0.40659132402E+02  0.00000000000E+00 0.  1.
         11    1    3    3    0    0  0.24264393434E+01 -0.27378585963E+01 -0.32050970694E+01  0.48637562712E+01  0.51100000000E-03 0. -1.
        -11    1    3    3    0    0 -0.11739047009E+01  0.26565059935E+01 -0.40011802127E+00  0.29317522120E+01  0.51100000000E-03 0.  1.
         12    1    3    3    0    0 -0.33710420391E+02 -0.21703553906E+02  0.14788620157E+02  0.42733359115E+02  0.00000000000E+00 0. -1.
</event>
<event>
 7    1  0.1161807E-013  0.5052890E+02  0.7816164E-02  0.1300439E+00
        -11   -1    0    0    0    0  0.00000000000E+00  0.00000000000E+00  0.45593999997E+02  0.45594000000E+02  0.51100000000E-03 0. -1.
         11   -1    0    0    0    0 -0.00000000000E+00 -0.00000000000E+00 -0.45593999997E+02  0.45594000000E+02  0.51100000000E-03 0.  1.
    9900012    2    1    2    0    0 -0.63413440796E+01  0.34343399746E+02  0.20820198626E+02  0.50528899891E+02  0.30000121708E+02 0.  0.
        -12    1    1    2    0    0  0.63413440796E+01 -0.34343399746E+02 -0.20820198626E+02  0.40659100109E+02  0.00000000000E+00 0.  1.
         11    1    3    3    0    0 -0.92537321210E+01  0.63273213991E+01  0.56555317669E+00  0.11224366571E+02  0.51100000000E-03 0. -1.
        -11    1    3    3    0    0 -0.34809276348E+01 -0.11659808086E+01  0.11626024580E+01  0.38507159310E+01  0.51100000000E-03 0.  1.
         12    1    3    3    0    0  0.63933156762E+01  0.29182059155E+02  0.19092042991E+02  0.35453817389E+02  0.00000000000E+00 0. -1.
</event>
<event>
 7    1  0.1161807E-013  0.5052886E+02  0.7816164E-02  0.1300439E+00
        -11   -1    0    0    0    0  0.00000000000E+00  0.00000000000E+00  0.45593999997E+02  0.45594000000E+02  0.51100000000E-03 0. -1.
         11   -1    0    0    0    0 -0.00000000000E+00 -0.00000000000E+00 -0.45593999997E+02  0.45594000000E+02  0.51100000000E-03 0.  1.
    9900012    2    1    2    0    0 -0.24020632066E+01 -0.14950878764E+02  0.37734162306E+02  0.50528859719E+02  0.29999999601E+02 0.  0.
        -12    1    1    2    0    0  0.24020632066E+01  0.14950878764E+02 -0.37734162306E+02  0.40659140281E+02  0.00000000000E+00 0.  1.
         11    1    3    3    0    0 -0.16691759213E+01 -0.12536495484E+02  0.34766914134E+01  0.13116297143E+02  0.51100000000E-03 0. -1.
        -11    1    3    3    0    0 -0.31513215202E+01 -0.53414333728E+01  0.51579035147E+01  0.80663316772E+01  0.51100000000E-03 0.  1.
         12    1    3    3    0    0  0.24184342350E+01  0.29270500928E+01  0.29099567378E+02  0.29346230899E+02  0.00000000000E+00 0. -1.
</event>
<event>
 7    1  0.1161807E-013  0.5052885E+02  0.7816164E-02  0.1300439E+00
        -11   -1    0    0    0    0  0.00000000000E+00  0.00000000000E+00  0.45593999997E+02  0.45594000000E+02  0.51100000000E-03 0. -1.
         11   -1    0    0    0    0 -0.00000000000E+00 -0.00000000000E+00 -0.45593999997E+02  0.45594000000E+02  0.51100000000E-03 0.  1.
    9900012    2    1    2    0    0  0.10296612694E+02 -0.18990065501E+02  0.34445947899E+02  0.50528854075E+02  0.29999982446E+02 0.  0.
        -12    1    1    2    0    0 -0.10296612694E+02  0.18990065501E+02 -0.34445947899E+02  0.40659145925E+02  0.00000000000E+00 0.  1.
         11    1    3    3    0    0 -0.91367296765E+00 -0.18385720784E+02  0.23880943107E+02  0.30152428940E+02  0.51100000000E-03 0. -1.
        -11    1    3    3    0    0 -0.69292289381E+00  0.40572271504E+01  0.58229599983E+00  0.41569584048E+01  0.51100000000E-03 0.  1.
         12    1    3    3    0    0  0.11903208555E+02 -0.46615718677E+01  0.99827087926E+01  0.16219466730E+02  0.00000000000E+00 0. -1.
</event>
<event>
 7    1  0.1161807E-013  0.5052886E+02  0.7816164E-02  0.1300439E+00
        -11   -1    0    0    0    0  0.00000000000E+00  0.00000000000E+00  0.45593999997E+02  0.45594000000E+02  0.51100000000E-03 0. -1.
         11   -1    0    0    0    0 -0.00000000000E+00 -0.00000000000E+00 -0.45593999997E+02  0.45594000000E+02  0.51100000000E-03 0.  1.
    9900012    2    1    2    0    0 -0.12649678612E+02 -0.13327601168E+02 -0.36270186348E+02  0.50528859090E+02  0.29999997689E+02 0.  0.
         12    1    1    2    0    0  0.12649678612E+02  0.13327601168E+02  0.36270186348E+02  0.40659140910E+02  0.00000000000E+00 0. -1.
         11    1    3    3    0    0  0.16431230251E+01 -0.67631926443E+01 -0.44388638866E+01  0.82549464496E+01  0.51100000000E-03 0. -1.
        -11    1    3    3    0    0  0.40873666352E-01  0.76349736512E+01 -0.83207366469E+01  0.11292880586E+02  0.51100000000E-03 0.  1.
        -12    1    3    3    0    0 -0.14333675303E+02 -0.14199382175E+02 -0.23510585814E+02  0.30981032055E+02  0.00000000000E+00 0.  1.
</event>
<event>
 7    1  0.1161807E-013  0.5052886E+02  0.7816164E-02  0.1300439E+00
        -11   -1    0    0    0    0  0.00000000000E+00  0.00000000000E+00  0.45593999997E+02  0.45594000000E+02  0.51100000000E-03 0.  1.
         11   -1    0    0    0    0 -0.00000000000E+00 -0.00000000000E+00 -0.45593999997E+02  0.45594000000E+02  0.51100000000E-03 0. -1.
    9900012    2    1    2    0    0 -0.37181755790E+02 -0.12070267614E+02  0.11179961418E+02  0.50528857594E+02  0.29999993143E+02 0.  0.
        -12    1    1    2    0    0  0.37181755790E+02  0.12070267614E+02 -0.11179961418E+02  0.40659142406E+02  0.00000000000E+00 0.  1.
         11    1    3    3    0    0 -0.21100845731E+02 -0.35289981031E+01 -0.14925770082E+01  0.21445915801E+02  0.51100000000E-03 0. -1.
        -11    1    3    3    0    0 -0.15188565915E+02 -0.13965942015E+02  0.10694684145E+02  0.23240403184E+02  0.51100000000E-03 0.  1.
        -12    1    3    3    0    0 -0.89234414333E+00  0.54246725035E+01  0.19778542806E+01  0.58425386088E+01  0.00000000000E+00 0.  1.
</event>
<event>
 7    1  0.1161807E-013  0.5052885E+02  0.7816164E-02  0.1300439E+00
        -11   -1    0    0    0    0  0.00000000000E+00  0.00000000000E+00  0.45593999997E+02  0.45594000000E+02  0.51100000000E-03 0. -1.
         11   -1    0    0    0    0 -0.00000000000E+00 -0.00000000000E+00 -0.45593999997E+02  0.45594000000E+02  0.51100000000E-03 0.  1.
    9900012    2    1    2    0    0  0.41999226856E+00 -0.17773156179E+02 -0.36566449028E+02  0.50528847666E+02  0.29999962964E+02 0.  0.
         12    1    1    2    0    0 -0.41999226856E+00  0.17773156179E+02  0.36566449028E+02  0.40659152334E+02  0.00000000000E+00 0. -1.
         11    1    3    3    0    0  0.22673439346E+01 -0.72541549700E+01 -0.46362352012E+01  0.89027125051E+01  0.51100000000E-03 0. -1.
        -11    1    3    3    0    0  0.60002715544E+01 -0.15388106368E+02 -0.14858765933E+02  0.22216660452E+02  0.51100000000E-03 0.  1.
        -12    1    3    3    0    0 -0.78476232204E+01  0.48691051599E+01 -0.17071447894E+02  0.19409474708E+02  0.00000000000E+00 0.  1.
</event>
<event>
 7    1  0.1161807E-013  0.5052886E+02  0.7816164E-02  0.1300439E+00
        -11   -1    0    0    0    0  0.00000000000E+00  0.00000000000E+00  0.45593999997E+02  0.45594000000E+02  0.51100000000E-03 0. -1.
         11   -1    0    0    0    0 -0.00000000000E+00 -0.00000000000E+00 -0.45593999997E+02  0.45594000000E+02  0.51100000000E-03 0.  1.
    9900012    2    1    2    0    0 -0.39876544398E+02  0.77532094016E+01  0.17072446183E+01  0.50528859166E+02  0.29999997922E+02 0.  0.
        -12    1    1    2    0    0  0.39876544398E+02 -0.77532094016E+01 -0.17072446183E+01  0.40659140834E+02  0.00000000000E+00 0.  1.
         11    1    3    3    0    0 -0.66340653826E+01  0.57142923044E+01 -0.51957272674E+01  0.10181333024E+02  0.51100000000E-03 0. -1.
        -11    1    3    3    0    0 -0.27201786914E+01  0.78296310193E+01 -0.83778457704E+00  0.83309289560E+01  0.51100000000E-03 0.  1.
         12    1    3    3    0    0 -0.30522300324E+02 -0.57907139221E+01  0.77407564627E+01  0.32016597187E+02  0.00000000000E+00 0. -1.
</event>
<event>
 7    1  0.1161807E-013  0.5052887E+02  0.7816164E-02  0.1300439E+00
        -11   -1    0    0    0    0  0.00000000000E+00  0.00000000000E+00  0.45593999997E+02  0.45594000000E+02  0.51100000000E-03 0.  1.
         11   -1    0    0    0    0 -0.00000000000E+00 -0.00000000000E+00 -0.45593999997E+02  0.45594000000E+02  0.51100000000E-03 0. -1.
    9900012    2    1    2    0    0  0.25542422303E+02 -0.29704778650E+02  0.10880042058E+02  0.50528874001E+02  0.30000043015E+02 0.  0.
        -12    1    1    2    0    0 -0.25542422303E+02  0.29704778650E+02 -0.10880042058E+02  0.40659125999E+02  0.00000000000E+00 0.  1.
         11    1    3    3    0    0  0.90163634835E+01 -0.32845212297E+01 -0.60518185888E+00  0.96150473488E+01  0.51100000000E-03 0. -1.
        -11    1    3    3    0    0  0.21678628456E+02 -0.15197168400E+02  0.49210818259E+01  0.26928310488E+02  0.51100000000E-03 0.  1.
        -12    1    3    3    0    0 -0.51525696362E+01 -0.11223089020E+02  0.65641420914E+01  0.13985516165E+02  0.00000000000E+00 0.  1.
</event>
<event>
 7    1  0.1161807E-013  0.5052886E+02  0.7816164E-02  0.1300439E+00
        -11   -1    0    0    0    0  0.00000000000E+00  0.00000000000E+00  0.45593999997E+02  0.45594000000E+02  0.51100000000E-03 0. -1.
         11   -1    0    0    0    0 -0.00000000000E+00 -0.00000000000E+00 -0.45593999997E+02  0.45594000000E+02  0.51100000000E-03 0.  1.
    9900012    2    1    2    0    0 -0.13693937904E+02  0.25987259885E+02  0.28112343733E+02  0.50528862259E+02  0.30000007323E+02 0.  0.
        -12    1    1    2    0    0  0.13693937904E+02 -0.25987259885E+02 -0.28112343733E+02  0.40659137741E+02  0.00000000000E+00 0.  1.
         11    1    3    3    0    0  0.75373563695E+00  0.52305332337E+01  0.14513910253E+02  0.15446041124E+02  0.51100000000E-03 0. -1.
        -11    1    3    3    0    0 -0.70394461035E+01 -0.26049417204E+01  0.53742532425E+01  0.92315827996E+01  0.51100000000E-03 0.  1.
        -12    1    3    3    0    0 -0.74082274375E+01  0.23361668372E+02  0.82241802380E+01  0.25851238335E+02  0.00000000000E+00 0.  1.
</event>
<event>
 7    1  0.1161807E-013  0.5052886E+02  0.7816164E-02  0.1300439E+00
        -11   -1    0    0    0    0  0.00000000000E+00  0.00000000000E+00  0.45593999997E+02  0.45594000000E+02  0.51100000000E-03 0. -1.
         11   -1    0    0    0    0 -0.00000000000E+00 -0.00000000000E+00 -0.45593999997E+02  0.45594000000E+02  0.51100000000E-03 0.  1.
    9900012    2    1    2    0    0  0.53038913653E+01  0.20223760650E+02 -0.34871678942E+02  0.50528858953E+02  0.29999997274E+02 0.  0.
         12    1    1    2    0    0 -0.53038913653E+01 -0.20223760650E+02  0.34871678942E+02  0.40659141047E+02  0.00000000000E+00 0. -1.
         11    1    3    3    0    0 -0.63097875351E+01  0.60442129382E+01 -0.10486577786E+02  0.13649697532E+02  0.51100000000E-03 0. -1.
        -11    1    3    3    0    0  0.50815004668E+01  0.17385598195E+02 -0.98347201533E+01  0.20610734881E+02  0.51100000000E-03 0.  1.
         12    1    3    3    0    0  0.65321784336E+01 -0.32060504831E+01 -0.14550381002E+02  0.16268426541E+02  0.00000000000E+00 0. -1.
</event>
<event>
 7    1  0.1161807E-013  0.5052886E+02  0.7816164E-02  0.1300439E+00
        -11   -1    0    0    0    0  0.00000000000E+00  0.00000000000E+00  0.45593999997E+02  0.45594000000E+02  0.51100000000E-03 0. -1.
         11   -1    0    0    0    0 -0.00000000000E+00 -0.00000000000E+00 -0.45593999997E+02  0.45594000000E+02  0.51100000000E-03 0.  1.
    9900012    2    1    2    0    0  0.51229663093E+00  0.34807577916E+02 -0.21007987451E+02  0.50528862467E+02  0.30000007953E+02 0.  0.
         12    1    1    2    0    0 -0.51229663093E+00 -0.34807577916E+02  0.21007987451E+02  0.40659137533E+02  0.00000000000E+00 0. -1.
         11    1    3    3    0    0 -0.53294064117E+01  0.27339587120E+02 -0.77291638640E+01  0.28906670007E+02  0.51100000000E-03 0. -1.
        -11    1    3    3    0    0 -0.38266013909E+01  0.61946000187E+01 -0.63279744874E+01  0.96467201147E+01  0.51100000000E-03 0.  1.
         12    1    3    3    0    0  0.96683044335E+01  0.12733907780E+01 -0.69508490992E+01  0.11975472345E+02  0.00000000000E+00 0. -1.
</event>
<event>
 7    1  0.1161807E-013  0.5052887E+02  0.7816164E-02  0.1300439E+00
        -11   -1    0    0    0    0  0.00000000000E+00  0.00000000000E+00  0.45593999997E+02  0.45594000000E+02  0.51100000000E-03 0. -1.
         11   -1    0    0    0    0 -0.00000000000E+00 -0.00000000000E+00 -0.45593999997E+02  0.45594000000E+02  0.51100000000E-03 0.  1.
    9900012    2    1    2    0    0  0.18498734905E+02 -0.11530513196E+02  0.34322136992E+02  0.50528867996E+02  0.30000024761E+02 0.  0.
        -12    1    1    2    0    0 -0.18498734905E+02  0.11530513196E+02 -0.34322136992E+02  0.40659132004E+02  0.00000000000E+00 0.  1.
         11    1    3    3    0    0  0.12961614030E+01 -0.71311289611E+01  0.11453787564E+02  0.13554419370E+02  0.51100000000E-03 0. -1.
        -11    1    3    3    0    0 -0.43480140016E+01 -0.48181924749E+01  0.98424932847E+01  0.11789608933E+02  0.51100000000E-03 0.  1.
         12    1    3    3    0    0  0.21550587503E+02  0.41880823959E+00  0.13025856143E+02  0.25184839692E+02  0.00000000000E+00 0. -1.
</event>
<event>
 7    1  0.1161807E-013  0.5052886E+02  0.7816164E-02  0.1300439E+00
        -11   -1    0    0    0    0  0.00000000000E+00  0.00000000000E+00  0.45593999997E+02  0.45594000000E+02  0.51100000000E-03 0. -1.
         11   -1    0    0    0    0 -0.00000000000E+00 -0.00000000000E+00 -0.45593999997E+02  0.45594000000E+02  0.51100000000E-03 0.  1.
    9900012    2    1    2    0    0  0.30031091970E+02 -0.74837650480E+01 -0.26368403662E+02  0.50528856676E+02  0.29999990352E+02 0.  0.
         12    1    1    2    0    0 -0.30031091970E+02  0.74837650480E+01  0.26368403662E+02  0.40659143324E+02  0.00000000000E+00 0. -1.
         11    1    3    3    0    0  0.12017180213E+02 -0.82451227691E+01 -0.27885780305E-01  0.14573793179E+02  0.51100000000E-03 0. -1.
        -11    1    3    3    0    0  0.22365290429E+01 -0.57433599924E+01 -0.12668145932E+02  0.14087944058E+02  0.51100000000E-03 0.  1.
        -12    1    3    3    0    0  0.15777382714E+02  0.65047177134E+01 -0.13672371949E+02  0.21867119439E+02  0.00000000000E+00 0.  1.
</event>
<event>
 7    1  0.1161807E-013  0.5052886E+02  0.7816164E-02  0.1300439E+00
        -11   -1    0    0    0    0  0.00000000000E+00  0.00000000000E+00  0.45593999997E+02  0.45594000000E+02  0.51100000000E-03 0.  1.
         11   -1    0    0    0    0 -0.00000000000E+00 -0.00000000000E+00 -0.45593999997E+02  0.45594000000E+02  0.51100000000E-03 0. -1.
    9900012    2    1    2    0    0 -0.31774640450E+02  0.14352768458E+02 -0.20917352216E+02  0.50528863734E+02  0.30000011806E+02 0.  0.
         12    1    1    2    0    0  0.31774640450E+02 -0.14352768458E+02  0.20917352216E+02  0.40659136266E+02  0.00000000000E+00 0. -1.
         11    1    3    3    0    0 -0.14102522071E+02  0.23106937842E+01 -0.18799823695E+02  0.23614694699E+02  0.51100000000E-03 0. -1.
        -11    1    3    3    0    0 -0.10612563778E+02  0.51950143465E+01 -0.90485755728E+01  0.14882587280E+02  0.51100000000E-03 0.  1.
        -12    1    3    3    0    0 -0.70595546017E+01  0.68470603272E+01  0.69310470509E+01  0.12031581755E+02  0.00000000000E+00 0.  1.
</event>
<event>
 7    1  0.1161807E-013  0.5052886E+02  0.7816164E-02  0.1300439E+00
        -11   -1    0    0    0    0  0.00000000000E+00  0.00000000000E+00  0.45593999997E+02  0.45594000000E+02  0.51100000000E-03 0.  1.
         11   -1    0    0    0    0 -0.00000000000E+00 -0.00000000000E+00 -0.45593999997E+02  0.45594000000E+02  0.51100000000E-03 0. -1.
    9900012    2    1    2    0    0 -0.31555911026E+02 -0.19469238859E+02  0.16683480733E+02  0.50528864350E+02  0.30000013679E+02 0.  0.
         12    1    1    2    0    0  0.31555911026E+02  0.19469238859E+02 -0.16683480733E+02  0.40659135650E+02  0.00000000000E+00 0. -1.
         11    1    3    3    0    0 -0.11818793661E+02  0.13725502219E+01  0.18706375368E+01  0.12044378887E+02  0.51100000000E-03 0. -1.
        -11    1    3    3    0    0 -0.55582290019E+01  0.20542252326E+01 -0.25400550045E+01  0.64471412758E+01  0.51100000000E-03 0.  1.
        -12    1    3    3    0    0 -0.14178888363E+02 -0.22896014313E+02  0.17352898200E+02  0.32037344188E+02  0.00000000000E+00 0.  1.
</event>
<event>
 7    1  0.1161807E-013  0.5052887E+02  0.7816164E-02  0.1300439E+00
        -11   -1    0    0    0    0  0.00000000000E+00  0.00000000000E+00  0.45593999997E+02  0.45594000000E+02  0.51100000000E-03 0. -1.
         11   -1    0    0    0    0 -0.00000000000E+00 -0.00000000000E+00 -0.45593999997E+02  0.45594000000E+02  0.51100000000E-03 0.  1.
    9900012    2    1    2    0    0 -0.22048422013E+01  0.13944193700E+02  0.38129558481E+02  0.50528866991E+02  0.30000021706E+02 0.  0.
        -12    1    1    2    0    0  0.22048422013E+01 -0.13944193700E+02 -0.38129558481E+02  0.40659133009E+02  0.00000000000E+00 0.  1.
         11    1    3    3    0    0  0.17881230471E+01  0.10807733692E+01 -0.34927233479E+01  0.40699596746E+01  0.51100000000E-03 0.  1.
        -11    1    3    3    0    0  0.14008755025E+01 -0.32820353420E+01  0.60642188906E+01  0.70362603117E+01  0.51100000000E-03 0. -1.
        -12    1    3    3    0    0 -0.53938407508E+01  0.16145455673E+02  0.35558062938E+02  0.39422647005E+02  0.00000000000E+00 0.  1.
</event>
<event>
 7    1  0.1161807E-013  0.5052886E+02  0.7816164E-02  0.1300439E+00
        -11   -1    0    0    0    0  0.00000000000E+00  0.00000000000E+00  0.45593999997E+02  0.45594000000E+02  0.51100000000E-03 0. -1.
         11   -1    0    0    0    0 -0.00000000000E+00 -0.00000000000E+00 -0.45593999997E+02  0.45594000000E+02  0.51100000000E-03 0.  1.
    9900012    2    1    2    0    0 -0.33828757463E+02  0.22418032369E+02 -0.24925033153E+01  0.50528861057E+02  0.30000003669E+02 0.  0.
         12    1    1    2    0    0  0.33828757463E+02 -0.22418032369E+02  0.24925033153E+01  0.40659138943E+02  0.00000000000E+00 0. -1.
         11    1    3    3    0    0 -0.14657432405E+02  0.69090587829E+00  0.31608162248E+01  0.15010277650E+02  0.51100000000E-03 0.  1.
        -11    1    3    3    0    0 -0.95176922374E+01  0.89170317332E+01  0.72595442947E+01  0.14926516810E+02  0.51100000000E-03 0. -1.
        -12    1    3    3    0    0 -0.96536328202E+01  0.12810094758E+02 -0.12912863835E+02  0.20592066597E+02  0.00000000000E+00 0.  1.
</event>
<event>
 7    1  0.1161807E-013  0.5052886E+02  0.7816164E-02  0.1300439E+00
        -11   -1    0    0    0    0  0.00000000000E+00  0.00000000000E+00  0.45593999997E+02  0.45594000000E+02  0.51100000000E-03 0. -1.
         11   -1    0    0    0    0 -0.00000000000E+00 -0.00000000000E+00 -0.45593999997E+02  0.45594000000E+02  0.51100000000E-03 0.  1.
    9900012    2    1    2    0    0 -0.41365955382E+01  0.88316628239E+01 -0.39472220971E+02  0.50528856880E+02  0.29999990973E+02 0.  0.
         12    1    1    2    0    0  0.41365955382E+01 -0.88316628239E+01  0.39472220971E+02  0.40659143120E+02  0.00000000000E+00 0. -1.
         11    1    3    3    0    0  0.63814084826E+01 -0.84438273301E+01 -0.98374018620E+01  0.14449742899E+02  0.51100000000E-03 0. -1.
        -11    1    3    3    0    0 -0.15060956375E+01  0.14527180817E+01 -0.52028678379E+01  0.56079004889E+01  0.51100000000E-03 0.  1.
         12    1    3    3    0    0 -0.90119083833E+01  0.15822772072E+02 -0.24431951271E+02  0.30471213492E+02  0.00000000000E+00 0. -1.
</event>
<event>
 7    1  0.1161807E-013  0.5052886E+02  0.7816164E-02  0.1300439E+00
        -11   -1    0    0    0    0  0.00000000000E+00  0.00000000000E+00  0.45593999997E+02  0.45594000000E+02  0.51100000000E-03 0. -1.
         11   -1    0    0    0    0 -0.00000000000E+00 -0.00000000000E+00 -0.45593999997E+02  0.45594000000E+02  0.51100000000E-03 0.  1.
    9900012    2    1    2    0    0  0.66126302666E+01 -0.32673333225E+02 -0.23278573041E+02  0.50528861471E+02  0.30000004928E+02 0.  0.
         12    1    1    2    0    0 -0.66126302666E+01  0.32673333225E+02  0.23278573041E+02  0.40659138529E+02  0.00000000000E+00 0. -1.
         11    1    3    3    0    0 -0.74296209667E+01 -0.48355352841E+01  0.12656761015E+01  0.89545298842E+01  0.51100000000E-03 0. -1.
        -11    1    3    3    0    0  0.71158176893E+00 -0.79476315416E+01 -0.10842669761E+01  0.80527529996E+01  0.51100000000E-03 0.  1.
        -12    1    3    3    0    0  0.13330669464E+02 -0.19890166399E+02 -0.23459982167E+02  0.33521578588E+02  0.00000000000E+00 0.  1.
</event>
<event>
 7    1  0.1161807E-013  0.5052886E+02  0.7816164E-02  0.1300439E+00
        -11   -1    0    0    0    0  0.00000000000E+00  0.00000000000E+00  0.45593999997E+02  0.45594000000E+02  0.51100000000E-03 0. -1.
         11   -1    0    0    0    0 -0.00000000000E+00 -0.00000000000E+00 -0.45593999997E+02  0.45594000000E+02  0.51100000000E-03 0.  1.
    9900012    2    1    2    0    0 -0.14130988297E+01  0.85405542955E+01 -0.39726912237E+02  0.50528862382E+02  0.30000007695E+02 0.  0.
         12    1    1    2    0    0  0.14130988297E+01 -0.85405542955E+01  0.39726912237E+02  0.40659137618E+02  0.00000000000E+00 0. -1.
         11    1    3    3    0    0 -0.13240467813E+01  0.16521761246E+01 -0.12311308126E+01  0.24491772424E+01  0.51100000000E-03 0. -1.
        -11    1    3    3    0    0 -0.35469323936E+01  0.84521454868E+00 -0.40633193855E+02  0.40796465045E+02  0.51100000000E-03 0.  1.
        -12    1    3    3    0    0  0.34578803452E+01  0.60431636222E+01  0.21374124306E+01  0.72832200945E+01  0.00000000000E+00 0.  1.
</event>
<event>
 7    1  0.1161807E-013  0.5052886E+02  0.7816164E-02  0.1300439E+00
        -11   -1    0    0    0    0  0.00000000000E+00  0.00000000000E+00  0.45593999997E+02  0.45594000000E+02  0.51100000000E-03 0.  1.
         11   -1    0    0    0    0 -0.00000000000E+00 -0.00000000000E+00 -0.45593999997E+02  0.45594000000E+02  0.51100000000E-03 0. -1.
    9900012    2    1    2    0    0 -0.22351666743E+02  0.31634435112E+02  0.12362476194E+02  0.50528864388E+02  0.30000013793E+02 0.  0.
        -12    1    1    2    0    0  0.22351666743E+02 -0.31634435112E+02 -0.12362476194E+02  0.40659135612E+02  0.00000000000E+00 0.  1.
         11    1    3    3    0    0 -0.12036154557E+02  0.14205212270E+02  0.28849449265E+01  0.18840912389E+02  0.51100000000E-03 0. -1.
        -11    1    3    3    0    0 -0.97176139546E+01  0.17079057104E+02 -0.23947395660E+01  0.19795479039E+02  0.51100000000E-03 0.  1.
        -12    1    3    3    0    0 -0.59789823124E+00  0.35016573773E+00  0.11872270834E+02  0.11892472959E+02  0.00000000000E+00 0.  1.
</event>
<event>
 7    1  0.1161807E-013  0.5052873E+02  0.7816164E-02  0.1300439E+00
        -11   -1    0    0    0    0  0.00000000000E+00  0.00000000000E+00  0.45593999997E+02  0.45594000000E+02  0.51100000000E-03 0. -1.
         11   -1    0    0    0    0 -0.00000000000E+00 -0.00000000000E+00 -0.45593999997E+02  0.45594000000E+02  0.51100000000E-03 0.  1.
    9900012    2    1    2    0    0  0.12020347628E+02 -0.13142668999E+02 -0.36550753192E+02  0.50528732122E+02  0.29999611755E+02 0.  0.
         12    1    1    2    0    0 -0.12020347628E+02  0.13142668999E+02  0.36550753192E+02  0.40659267878E+02  0.00000000000E+00 0. -1.
         11    1    3    3    0    0  0.71624708796E+01  0.37193154843E+01 -0.78332991782E+01  0.11246993956E+02  0.51100000000E-03 0. -1.
        -11    1    3    3    0    0  0.22752551452E+00 -0.85332098467E+01 -0.28498906368E+02  0.29749875674E+02  0.51100000000E-03 0.  1.
         12    1    3    3    0    0  0.46303512336E+01 -0.83287746364E+01 -0.21854764540E+00  0.95318624919E+01  0.00000000000E+00 0. -1.
</event>
<event>
 7    1  0.1161807E-013  0.5052887E+02  0.7816164E-02  0.1300439E+00
        -11   -1    0    0    0    0  0.00000000000E+00  0.00000000000E+00  0.45593999997E+02  0.45594000000E+02  0.51100000000E-03 0. -1.
         11   -1    0    0    0    0 -0.00000000000E+00 -0.00000000000E+00 -0.45593999997E+02  0.45594000000E+02  0.51100000000E-03 0.  1.
    9900012    2    1    2    0    0 -0.27904130145E+02  0.16156958621E+02  0.24768477290E+02  0.50528865008E+02  0.30000015678E+02 0.  0.
        -12    1    1    2    0    0  0.27904130145E+02 -0.16156958621E+02 -0.24768477290E+02  0.40659134992E+02  0.00000000000E+00 0.  1.
         11    1    3    3    0    0 -0.14122343444E+01 -0.38139505138E+01 -0.33559388225E+01  0.52728502735E+01  0.51100000000E-03 0. -1.
        -11    1    3    3    0    0 -0.50687705734E+01  0.47096657166E+01  0.23987607224E+00  0.69232165269E+01  0.51100000000E-03 0.  1.
         12    1    3    3    0    0 -0.21423125227E+02  0.15261243418E+02  0.27884540040E+02  0.38332798208E+02  0.00000000000E+00 0. -1.
</event>
<event>
 7    1  0.1161807E-013  0.5052887E+02  0.7816164E-02  0.1300439E+00
        -11   -1    0    0    0    0  0.00000000000E+00  0.00000000000E+00  0.45593999997E+02  0.45594000000E+02  0.51100000000E-03 0. -1.
         11   -1    0    0    0    0 -0.00000000000E+00 -0.00000000000E+00 -0.45593999997E+02  0.45594000000E+02  0.51100000000E-03 0.  1.
    9900012    2    1    2    0    0 -0.26053833659E+02 -0.53479639921E+01  0.30753245990E+02  0.50528866880E+02  0.30000021367E+02 0.  0.
        -12    1    1    2    0    0  0.26053833659E+02  0.53479639921E+01 -0.30753245990E+02  0.40659133120E+02  0.00000000000E+00 0.  1.
         11    1    3    3    0    0 -0.32748990751E+01 -0.54793864220E+01 -0.81482490241E+00  0.64352606316E+01  0.51100000000E-03 0. -1.
        -11    1    3    3    0    0  0.24819485169E+01 -0.27835554973E+01  0.22973877250E+00  0.37364461473E+01  0.51100000000E-03 0.  1.
         12    1    3    3    0    0 -0.25260883101E+02  0.29149779272E+01  0.31338332120E+02  0.40357160101E+02  0.00000000000E+00 0. -1.
</event>
<event>
 7    1  0.1161807E-013  0.5052886E+02  0.7816164E-02  0.1300439E+00
        -11   -1    0    0    0    0  0.00000000000E+00  0.00000000000E+00  0.45593999997E+02  0.45594000000E+02  0.51100000000E-03 0. -1.
         11   -1    0    0    0    0 -0.00000000000E+00 -0.00000000000E+00 -0.45593999997E+02  0.45594000000E+02  0.51100000000E-03 0.  1.
    9900012    2    1    2    0    0  0.34498175184E+01 -0.22129493941E+02 -0.33934496769E+02  0.50528858175E+02  0.29999994909E+02 0.  0.
         12    1    1    2    0    0 -0.34498175184E+01  0.22129493941E+02  0.33934496769E+02  0.40659141825E+02  0.00000000000E+00 0. -1.
         11    1    3    3    0    0 -0.62074059654E+01 -0.15888202071E+02 -0.20478626925E+02  0.26652223451E+02  0.51100000000E-03 0.  1.
        -11    1    3    3    0    0 -0.26647408959E+01 -0.68873618386E+01 -0.49936747559E+01  0.89147846282E+01  0.51100000000E-03 0. -1.
         12    1    3    3    0    0  0.12321964380E+02  0.64606996900E+00 -0.84621950875E+01  0.14961850096E+02  0.00000000000E+00 0. -1.
</event>
<event>
 7    1  0.1161807E-013  0.5052885E+02  0.7816164E-02  0.1300439E+00
        -11   -1    0    0    0    0  0.00000000000E+00  0.00000000000E+00  0.45593999997E+02  0.45594000000E+02  0.51100000000E-03 0. -1.
         11   -1    0    0    0    0 -0.00000000000E+00 -0.00000000000E+00 -0.45593999997E+02  0.45594000000E+02  0.51100000000E-03 0.  1.
    9900012    2    1    2    0    0 -0.83852925989E+01 -0.91680538656E+01 -0.38714336551E+02  0.50528853449E+02  0.29999980545E+02 0.  0.
         12    1    1    2    0    0  0.83852925989E+01  0.91680538656E+01  0.38714336551E+02  0.40659146551E+02  0.00000000000E+00 0. -1.
         11    1    3    3    0    0 -0.27445916568E+01 -0.56523630125E+01 -0.25569293833E+02  0.26330035670E+02  0.51100000000E-03 0. -1.
        -11    1    3    3    0    0  0.52132138550E+00 -0.65291882850E+01 -0.15595262669E+02  0.16914913349E+02  0.51100000000E-03 0.  1.
         12    1    3    3    0    0 -0.61620223276E+01  0.30134974319E+01  0.24502199510E+01  0.72839044301E+01  0.00000000000E+00 0. -1.
</event>
<event>
 7    1  0.1161807E-013  0.5052886E+02  0.7816164E-02  0.1300439E+00
        -11   -1    0    0    0    0  0.00000000000E+00  0.00000000000E+00  0.45593999997E+02  0.45594000000E+02  0.51100000000E-03 0. -1.
         11   -1    0    0    0    0 -0.00000000000E+00 -0.00000000000E+00 -0.45593999997E+02  0.45594000000E+02  0.51100000000E-03 0.  1.
    9900012    2    1    2    0    0 -0.32067447129E+02 -0.21986070537E+02 -0.11893565556E+02  0.50528863700E+02  0.30000011702E+02 0.  0.
         12    1    1    2    0    0  0.32067447129E+02  0.21986070537E+02  0.11893565556E+02  0.40659136300E+02  0.00000000000E+00 0. -1.
         11    1    3    3    0    0 -0.70816429842E+00  0.30527991735E+01  0.40461202475E+00  0.31598719308E+01  0.51100000000E-03 0. -1.
        -11    1    3    3    0    0  0.31912273175E+01 -0.38562054696E+01  0.39401625817E-01  0.50055774058E+01  0.51100000000E-03 0.  1.
        -12    1    3    3    0    0 -0.34550510148E+02 -0.21182664241E+02 -0.12337579207E+02  0.42363414363E+02  0.00000000000E+00 0.  1.
</event>
<event>
 7    1  0.1161807E-013  0.5052887E+02  0.7816164E-02  0.1300439E+00
        -11   -1    0    0    0    0  0.00000000000E+00  0.00000000000E+00  0.45593999997E+02  0.45594000000E+02  0.51100000000E-03 0. -1.
         11   -1    0    0    0    0 -0.00000000000E+00 -0.00000000000E+00 -0.45593999997E+02  0.45594000000E+02  0.51100000000E-03 0.  1.
    9900012    2    1    2    0    0 -0.53128684534E+01  0.69893722078E+00 -0.40304462161E+02  0.50528871203E+02  0.30000034508E+02 0.  0.
         12    1    1    2    0    0  0.53128684534E+01 -0.69893722078E+00  0.40304462161E+02  0.40659128797E+02  0.00000000000E+00 0. -1.
         11    1    3    3    0    0  0.58314753333E+01  0.91738443988E+01 -0.11485074134E+02  0.15813679324E+02  0.51100000000E-03 0. -1.
        -11    1    3    3    0    0 -0.70840828004E+01  0.23280348952E+01 -0.14667478014E+02  0.16454144984E+02  0.51100000000E-03 0.  1.
         12    1    3    3    0    0 -0.40602609863E+01 -0.10802942073E+02 -0.14151910013E+02  0.18261046896E+02  0.00000000000E+00 0. -1.
</event>
<event>
 7    1  0.1161807E-013  0.5052886E+02  0.7816164E-02  0.1300439E+00
        -11   -1    0    0    0    0  0.00000000000E+00  0.00000000000E+00  0.45593999997E+02  0.45594000000E+02  0.51100000000E-03 0. -1.
         11   -1    0    0    0    0 -0.00000000000E+00 -0.00000000000E+00 -0.45593999997E+02  0.45594000000E+02  0.51100000000E-03 0.  1.
    9900012    2    1    2    0    0  0.16188797757E+02  0.41434592239E+01 -0.37066429593E+02  0.50528860438E+02  0.30000001787E+02 0.  0.
         12    1    1    2    0    0 -0.16188797757E+02 -0.41434592239E+01  0.37066429593E+02  0.40659139562E+02  0.00000000000E+00 0. -1.
         11    1    3    3    0    0 -0.48216150990E+01  0.47617524254E-01 -0.36135972294E+01  0.60256389527E+01  0.51100000000E-03 0. -1.
        -11    1    3    3    0    0 -0.14284813534E+01  0.65378507490E+01 -0.62647623111E+01  0.91668587023E+01  0.51100000000E-03 0.  1.
         12    1    3    3    0    0  0.22438894209E+02 -0.24420090493E+01 -0.27188070053E+02  0.35336362783E+02  0.00000000000E+00 0. -1.
</event>
<event>
 7    1  0.1161807E-013  0.5052890E+02  0.7816164E-02  0.1300439E+00
        -11   -1    0    0    0    0  0.00000000000E+00  0.00000000000E+00  0.45593999997E+02  0.45594000000E+02  0.51100000000E-03 0. -1.
         11   -1    0    0    0    0 -0.00000000000E+00 -0.00000000000E+00 -0.45593999997E+02  0.45594000000E+02  0.51100000000E-03 0.  1.
    9900012    2    1    2    0    0 -0.42884165533E+01  0.28201037511E+02 -0.28973660721E+02  0.50528904476E+02  0.30000135644E+02 0.  0.
         12    1    1    2    0    0  0.42884165533E+01 -0.28201037511E+02  0.28973660721E+02  0.40659095524E+02  0.00000000000E+00 0. -1.
         11    1    3    3    0    0 -0.11895417729E+01  0.72487261722E+01  0.56652022624E+00  0.73674952444E+01  0.51100000000E-03 0. -1.
        -11    1    3    3    0    0 -0.11441583892E+02  0.14647479723E+02 -0.10265993196E+02  0.21233207971E+02  0.51100000000E-03 0.  1.
        -12    1    3    3    0    0  0.83427091111E+01  0.63048316166E+01 -0.19274187752E+02  0.21928201261E+02  0.00000000000E+00 0.  1.
</event>
<event>
 7    1  0.1161807E-013  0.5052885E+02  0.7816164E-02  0.1300439E+00
        -11   -1    0    0    0    0  0.00000000000E+00  0.00000000000E+00  0.45593999997E+02  0.45594000000E+02  0.51100000000E-03 0. -1.
         11   -1    0    0    0    0 -0.00000000000E+00 -0.00000000000E+00 -0.45593999997E+02  0.45594000000E+02  0.51100000000E-03 0.  1.
    9900012    2    1    2    0    0 -0.65805146646E+01  0.47392617891E+01 -0.39842218401E+02  0.50528854132E+02  0.29999982621E+02 0.  0.
         12    1    1    2    0    0  0.65805146646E+01 -0.47392617891E+01  0.39842218401E+02  0.40659145868E+02  0.00000000000E+00 0. -1.
         11    1    3    3    0    0  0.95233244165E+00  0.11152684984E+02 -0.16437306928E+02  0.19886537626E+02  0.51100000000E-03 0. -1.
        -11    1    3    3    0    0  0.35245801287E+01  0.33066302176E+01 -0.39314650028E+01  0.62299988611E+01  0.51100000000E-03 0.  1.
         12    1    3    3    0    0 -0.11057427235E+02 -0.97200534123E+01 -0.19473446471E+02  0.24412317646E+02  0.00000000000E+00 0. -1.
</event>
<event>
 7    1  0.1161807E-013  0.5052886E+02  0.7816164E-02  0.1300439E+00
        -11   -1    0    0    0    0  0.00000000000E+00  0.00000000000E+00  0.45593999997E+02  0.45594000000E+02  0.51100000000E-03 0. -1.
         11   -1    0    0    0    0 -0.00000000000E+00 -0.00000000000E+00 -0.45593999997E+02  0.45594000000E+02  0.51100000000E-03 0.  1.
    9900012    2    1    2    0    0  0.26198822966E+01  0.20461697384E+02 -0.35037419715E+02  0.50528860519E+02  0.30000002033E+02 0.  0.
         12    1    1    2    0    0 -0.26198822966E+01 -0.20461697384E+02  0.35037419715E+02  0.40659139481E+02  0.00000000000E+00 0. -1.
         11    1    3    3    0    0  0.61333523487E+01  0.96599101820E+01 -0.11273166379E+02  0.16062881318E+02  0.51100000000E-03 0.  1.
        -11    1    3    3    0    0  0.30332981871E+01  0.14961034457E+02 -0.88237253502E+01  0.17632117832E+02  0.51100000000E-03 0. -1.
        -12    1    3    3    0    0 -0.65467682392E+01 -0.41592472553E+01 -0.14940527986E+02  0.16833861369E+02  0.00000000000E+00 0.  1.
</event>
<event>
 7    1  0.1161807E-013  0.5052886E+02  0.7816164E-02  0.1300439E+00
        -11   -1    0    0    0    0  0.00000000000E+00  0.00000000000E+00  0.45593999997E+02  0.45594000000E+02  0.51100000000E-03 0.  1.
         11   -1    0    0    0    0 -0.00000000000E+00 -0.00000000000E+00 -0.45593999997E+02  0.45594000000E+02  0.51100000000E-03 0. -1.
    9900012    2    1    2    0    0  0.31963081034E+02 -0.24998603064E+02 -0.25684725692E+01  0.50528858892E+02  0.29999997087E+02 0.  0.
         12    1    1    2    0    0 -0.31963081034E+02  0.24998603064E+02  0.25684725692E+01  0.40659141108E+02  0.00000000000E+00 0. -1.
         11    1    3    3    0    0  0.91943834205E+01 -0.86278017978E+00  0.63747882600E+01  0.11221363631E+02  0.51100000000E-03 0. -1.
        -11    1    3    3    0    0  0.14481646063E+02 -0.13816268822E+02  0.44221296489E+01  0.20497867883E+02  0.51100000000E-03 0.  1.
         12    1    3    3    0    0  0.82870515506E+01 -0.10319554062E+02 -0.13365390478E+02  0.18809627377E+02  0.00000000000E+00 0. -1.
</event>
<event>
 7    1  0.1161807E-013  0.5052886E+02  0.7816164E-02  0.1300439E+00
        -11   -1    0    0    0    0  0.00000000000E+00  0.00000000000E+00  0.45593999997E+02  0.45594000000E+02  0.51100000000E-03 0. -1.
         11   -1    0    0    0    0 -0.00000000000E+00 -0.00000000000E+00 -0.45593999997E+02  0.45594000000E+02  0.51100000000E-03 0.  1.
    9900012    2    1    2    0    0  0.32523583695E+02  0.55841343286E+01 -0.23752889487E+02  0.50528858205E+02  0.29999994998E+02 0.  0.
         12    1    1    2    0    0 -0.32523583695E+02 -0.55841343286E+01  0.23752889487E+02  0.40659141795E+02  0.00000000000E+00 0. -1.
         11    1    3    3    0    0 -0.15747302232E+01 -0.47772307822E+01 -0.22029632437E+01  0.54913346772E+01  0.51100000000E-03 0. -1.
        -11    1    3    3    0    0  0.12105690366E+01 -0.22374549244E+01 -0.60424886464E+01  0.65561689449E+01  0.51100000000E-03 0.  1.
        -12    1    3    3    0    0  0.32887744881E+02  0.12598820035E+02 -0.15507437597E+02  0.38481354582E+02  0.00000000000E+00 0.  1.
</event>
<event>
 7    1  0.1161807E-013  0.5052886E+02  0.7816164E-02  0.1300439E+00
        -11   -1    0    0    0    0  0.00000000000E+00  0.00000000000E+00  0.45593999997E+02  0.45594000000E+02  0.51100000000E-03 0. -1.
         11   -1    0    0    0    0 -0.00000000000E+00 -0.00000000000E+00 -0.45593999997E+02  0.45594000000E+02  0.51100000000E-03 0.  1.
    9900012    2    1    2    0    0 -0.14732677608E+02  0.25288196175E+02 -0.28224474479E+02  0.50528860623E+02  0.30000002350E+02 0.  0.
         12    1    1    2    0    0  0.14732677608E+02 -0.25288196175E+02  0.28224474479E+02  0.40659139377E+02  0.00000000000E+00 0. -1.
         11    1    3    3    0    0  0.43419160796E+01  0.79655195136E+01  0.17943070866E-01  0.90720482019E+01  0.51100000000E-03 0. -1.
        -11    1    3    3    0    0 -0.20177904819E+01  0.19670390583E+01  0.20263951493E+01  0.34708786565E+01  0.51100000000E-03 0.  1.
        -12    1    3    3    0    0 -0.17056803206E+02  0.15355637603E+02 -0.30268812699E+02  0.37985933765E+02  0.00000000000E+00 0.  1.
</event>
<event>
 7    1  0.1161807E-013  0.5052882E+02  0.7816164E-02  0.1300439E+00
        -11   -1    0    0    0    0  0.00000000000E+00  0.00000000000E+00  0.45593999997E+02  0.45594000000E+02  0.51100000000E-03 0. -1.
         11   -1    0    0    0    0 -0.00000000000E+00 -0.00000000000E+00 -0.45593999997E+02  0.45594000000E+02  0.51100000000E-03 0.  1.
    9900012    2    1    2    0    0  0.19030022451E+02 -0.30127969104E+02 -0.19578883298E+02  0.50528819634E+02  0.29999877760E+02 0.  0.
         12    1    1    2    0    0 -0.19030022451E+02  0.30127969104E+02  0.19578883298E+02  0.40659180366E+02  0.00000000000E+00 0. -1.
         11    1    3    3    0    0 -0.27376703686E+01 -0.11297043179E+02 -0.11873263984E+02  0.16616029054E+02  0.51100000000E-03 0. -1.
        -11    1    3    3    0    0 -0.20328093138E+01 -0.38966302873E+01  0.98008010924E+00  0.45029544283E+01  0.51100000000E-03 0.  1.
        -12    1    3    3    0    0  0.23800502133E+02 -0.14934295638E+02 -0.86856994228E+01  0.29409836152E+02  0.00000000000E+00 0.  1.
</event>
<event>
 7    1  0.1161807E-013  0.5052884E+02  0.7816164E-02  0.1300439E+00
        -11   -1    0    0    0    0  0.00000000000E+00  0.00000000000E+00  0.45593999997E+02  0.45594000000E+02  0.51100000000E-03 0. -1.
         11   -1    0    0    0    0 -0.00000000000E+00 -0.00000000000E+00 -0.45593999997E+02  0.45594000000E+02  0.51100000000E-03 0.  1.
    9900012    2    1    2    0    0 -0.32413819306E+02 -0.17291572673E+02 -0.17421627300E+02  0.50528840328E+02  0.29999940660E+02 0.  0.
         12    1    1    2    0    0  0.32413819306E+02  0.17291572673E+02  0.17421627300E+02  0.40659159672E+02  0.00000000000E+00 0. -1.
         11    1    3    3    0    0 -0.24593969759E+02 -0.62232184851E+01 -0.20026648931E+02  0.32321176719E+02  0.51100000000E-03 0. -1.
        -11    1    3    3    0    0 -0.48906556765E+01 -0.39954026991E+01 -0.45068747856E+01  0.77584583693E+01  0.51100000000E-03 0.  1.
         12    1    3    3    0    0 -0.29291938703E+01 -0.70729514884E+01  0.71118964169E+01  0.10449205239E+02  0.00000000000E+00 0. -1.
</event>
<event>
 7    1  0.1161807E-013  0.5052886E+02  0.7816164E-02  0.1300439E+00
        -11   -1    0    0    0    0  0.00000000000E+00  0.00000000000E+00  0.45593999997E+02  0.45594000000E+02  0.51100000000E-03 0. -1.
         11   -1    0    0    0    0 -0.00000000000E+00 -0.00000000000E+00 -0.45593999997E+02  0.45594000000E+02  0.51100000000E-03 0.  1.
    9900012    2    1    2    0    0  0.18445012531E+02 -0.49165975582E+01 -0.35899500455E+02  0.50528861400E+02  0.30000004710E+02 0.  0.
         12    1    1    2    0    0 -0.18445012531E+02  0.49165975582E+01  0.35899500455E+02  0.40659138600E+02  0.00000000000E+00 0. -1.
         11    1    3    3    0    0 -0.56274489344E+01 -0.18449601896E+00 -0.90088501861E+01  0.10623634135E+02  0.51100000000E-03 0.  1.
        -11    1    3    3    0    0  0.42645473876E+01  0.14684873012E+01  0.14852377227E+01  0.47485524878E+01  0.51100000000E-03 0. -1.
         12    1    3    3    0    0  0.19807914078E+02 -0.62005888404E+01 -0.28375887991E+02  0.35156674777E+02  0.00000000000E+00 0. -1.
</event>
<event>
 7    1  0.1161807E-013  0.5052888E+02  0.7816164E-02  0.1300439E+00
        -11   -1    0    0    0    0  0.00000000000E+00  0.00000000000E+00  0.45593999997E+02  0.45594000000E+02  0.51100000000E-03 0. -1.
         11   -1    0    0    0    0 -0.00000000000E+00 -0.00000000000E+00 -0.45593999997E+02  0.45594000000E+02  0.51100000000E-03 0.  1.
    9900012    2    1    2    0    0 -0.13706889126E+02 -0.14401038459E+02 -0.35466823008E+02  0.50528877377E+02  0.30000053274E+02 0.  0.
         12    1    1    2    0    0  0.13706889126E+02  0.14401038459E+02  0.35466823008E+02  0.40659122623E+02  0.00000000000E+00 0. -1.
         11    1    3    3    0    0  0.18418190405E+01 -0.89334642777E+01 -0.78741950301E+00  0.91552777737E+01  0.51100000000E-03 0. -1.
        -11    1    3    3    0    0  0.13830978675E+01  0.21956088663E+01 -0.77292088492E+00  0.27075939430E+01  0.51100000000E-03 0.  1.
        -12    1    3    3    0    0 -0.16931806034E+02 -0.76631830478E+01 -0.33906482620E+02  0.38666005660E+02  0.00000000000E+00 0.  1.
</event>
<event>
 7    1  0.1161807E-013  0.5052885E+02  0.7816164E-02  0.1300439E+00
        -11   -1    0    0    0    0  0.00000000000E+00  0.00000000000E+00  0.45593999997E+02  0.45594000000E+02  0.51100000000E-03 0.  1.
         11   -1    0    0    0    0 -0.00000000000E+00 -0.00000000000E+00 -0.45593999997E+02  0.45594000000E+02  0.51100000000E-03 0. -1.
    9900012    2    1    2    0    0 -0.15646872094E+02 -0.27884314565E+02 -0.25115871213E+02  0.50528848609E+02  0.29999965831E+02 0.  0.
         12    1    1    2    0    0  0.15646872094E+02  0.27884314565E+02  0.25115871213E+02  0.40659151391E+02  0.00000000000E+00 0. -1.
         11    1    3    3    0    0  0.36122961058E+01 -0.81129752769E+01  0.27851581288E+00  0.88851911808E+01  0.51100000000E-03 0. -1.
        -11    1    3    3    0    0  0.23617565490E+01  0.13990313853E+01 -0.20815851088E+01  0.34450224440E+01  0.51100000000E-03 0.  1.
        -12    1    3    3    0    0 -0.21620924749E+02 -0.21170370673E+02 -0.23312801917E+02  0.38198634984E+02  0.00000000000E+00 0.  1.
</event>
<event>
 7    1  0.1161807E-013  0.5052887E+02  0.7816164E-02  0.1300439E+00
        -11   -1    0    0    0    0  0.00000000000E+00  0.00000000000E+00  0.45593999997E+02  0.45594000000E+02  0.51100000000E-03 0. -1.
         11   -1    0    0    0    0 -0.00000000000E+00 -0.00000000000E+00 -0.45593999997E+02  0.45594000000E+02  0.51100000000E-03 0.  1.
    9900012    2    1    2    0    0 -0.25910290206E-01 -0.15070060986E+02  0.37763171259E+02  0.50528874173E+02  0.30000043537E+02 0.  0.
        -12    1    1    2    0    0  0.25910290206E-01  0.15070060986E+02 -0.37763171259E+02  0.40659125827E+02  0.00000000000E+00 0.  1.
         11    1    3    3    0    0  0.52209141364E+01 -0.52452276912E+01  0.23859575787E+02  0.24980987069E+02  0.51100000000E-03 0. -1.
        -11    1    3    3    0    0  0.45246646618E+01 -0.65637850336E+01  0.12943912534E+02  0.15201997770E+02  0.51100000000E-03 0.  1.
        -12    1    3    3    0    0 -0.97714890884E+01 -0.32610482608E+01  0.95968293855E+00  0.10345889334E+02  0.00000000000E+00 0.  1.
</event>
<event>
 7    1  0.1161807E-013  0.5052886E+02  0.7816164E-02  0.1300439E+00
        -11   -1    0    0    0    0  0.00000000000E+00  0.00000000000E+00  0.45593999997E+02  0.45594000000E+02  0.51100000000E-03 0. -1.
         11   -1    0    0    0    0 -0.00000000000E+00 -0.00000000000E+00 -0.45593999997E+02  0.45594000000E+02  0.51100000000E-03 0.  1.
    9900012    2    1    2    0    0  0.12969914868E+01 -0.38568641644E+02  0.12804032870E+02  0.50528861262E+02  0.30000004293E+02 0.  0.
        -12    1    1    2    0    0 -0.12969914868E+01  0.38568641644E+02 -0.12804032870E+02  0.40659138738E+02  0.00000000000E+00 0.  1.
         11    1    3    3    0    0  0.48465064362E+01 -0.20400988066E+02  0.64413642704E+01  0.21935818029E+02  0.51100000000E-03 0. -1.
        -11    1    3    3    0    0  0.83837582398E+01 -0.11409730613E+02  0.30070333514E+01  0.14474515699E+02  0.51100000000E-03 0.  1.
         12    1    3    3    0    0 -0.11933273189E+02 -0.67579229651E+01  0.33556352477E+01  0.14118527534E+02  0.00000000000E+00 0. -1.
</event>
<event>
 7    1  0.1161807E-013  0.5052886E+02  0.7816164E-02  0.1300439E+00
        -11   -1    0    0    0    0  0.00000000000E+00  0.00000000000E+00  0.45593999997E+02  0.45594000000E+02  0.51100000000E-03 0. -1.
         11   -1    0    0    0    0 -0.00000000000E+00 -0.00000000000E+00 -0.45593999997E+02  0.45594000000E+02  0.51100000000E-03 0.  1.
    9900012    2    1    2    0    0 -0.18515980753E+02  0.26733898577E+02 -0.24405376485E+02  0.50528864769E+02  0.30000014952E+02 0.  0.
         12    1    1    2    0    0  0.18515980753E+02 -0.26733898577E+02  0.24405376485E+02  0.40659135231E+02  0.00000000000E+00 0. -1.
         11    1    3    3    0    0 -0.22618948760E+01  0.89912539888E+01 -0.54742815849E+01  0.10766920444E+02  0.51100000000E-03 0. -1.
        -11    1    3    3    0    0 -0.20614207210E+02  0.20079766658E+02 -0.11845022239E+02  0.31119883034E+02  0.51100000000E-03 0.  1.
         12    1    3    3    0    0  0.43601213327E+01 -0.23371220698E+01 -0.70860726608E+01  0.86420612911E+01  0.00000000000E+00 0. -1.
</event>
<event>
 7    1  0.1161807E-013  0.5052882E+02  0.7816164E-02  0.1300439E+00
        -11   -1    0    0    0    0  0.00000000000E+00  0.00000000000E+00  0.45593999997E+02  0.45594000000E+02  0.51100000000E-03 0. -1.
         11   -1    0    0    0    0 -0.00000000000E+00 -0.00000000000E+00 -0.45593999997E+02  0.45594000000E+02  0.51100000000E-03 0.  1.
    9900012    2    1    2    0    0  0.18420081064E+02 -0.67337907005E+00 -0.36241082279E+02  0.50528820587E+02  0.29999880655E+02 0.  0.
         12    1    1    2    0    0 -0.18420081064E+02  0.67337907005E+00  0.36241082279E+02  0.40659179413E+02  0.00000000000E+00 0. -1.
         11    1    3    3    0    0 -0.17403598326E+01 -0.69263039869E+01 -0.28785884644E+01  0.76999227966E+01  0.51100000000E-03 0. -1.
        -11    1    3    3    0    0 -0.24850491416E+01 -0.91546071689E-01 -0.73609611705E+01  0.77696589072E+01  0.51100000000E-03 0.  1.
        -12    1    3    3    0    0  0.22645490038E+02  0.63444709885E+01 -0.26001532644E+02  0.35059238883E+02  0.00000000000E+00 0.  1.
</event>
<event>
 7    1  0.1161807E-013  0.5052886E+02  0.7816164E-02  0.1300439E+00
        -11   -1    0    0    0    0  0.00000000000E+00  0.00000000000E+00  0.45593999997E+02  0.45594000000E+02  0.51100000000E-03 0. -1.
         11   -1    0    0    0    0 -0.00000000000E+00 -0.00000000000E+00 -0.45593999997E+02  0.45594000000E+02  0.51100000000E-03 0.  1.
    9900012    2    1    2    0    0 -0.32236950159E+02 -0.24750335199E+02  0.11686771695E+01  0.50528857678E+02  0.29999993399E+02 0.  0.
        -12    1    1    2    0    0  0.32236950159E+02  0.24750335199E+02 -0.11686771695E+01  0.40659142322E+02  0.00000000000E+00 0.  1.
         11    1    3    3    0    0 -0.10950698033E+02 -0.10526553361E+02 -0.63095010680E+01  0.16447976078E+02  0.51100000000E-03 0. -1.
        -11    1    3    3    0    0 -0.19669012979E+02 -0.28121566774E+01 -0.80849919927E+00  0.19885471278E+02  0.51100000000E-03 0.  1.
        -12    1    3    3    0    0 -0.16172391465E+01 -0.11411625161E+02  0.82866774368E+01  0.14195410322E+02  0.00000000000E+00 0.  1.
</event>
<event>
 7    1  0.1161807E-013  0.5052889E+02  0.7816164E-02  0.1300439E+00
        -11   -1    0    0    0    0  0.00000000000E+00  0.00000000000E+00  0.45593999997E+02  0.45594000000E+02  0.51100000000E-03 0. -1.
         11   -1    0    0    0    0 -0.00000000000E+00 -0.00000000000E+00 -0.45593999997E+02  0.45594000000E+02  0.51100000000E-03 0.  1.
    9900012    2    1    2    0    0 -0.42424442300E+01  0.18657882690E+02  0.35875460651E+02  0.50528885445E+02  0.30000077797E+02 0.  0.
        -12    1    1    2    0    0  0.42424442300E+01 -0.18657882690E+02 -0.35875460651E+02  0.40659114555E+02  0.00000000000E+00 0.  1.
         11    1    3    3    0    0 -0.11945570171E+02  0.10157713645E+02  0.27117821994E+02  0.31324943147E+02  0.51100000000E-03 0. -1.
        -11    1    3    3    0    0 -0.13035787231E+01  0.43030875101E+01  0.80769071507E+01  0.92440418102E+01  0.51100000000E-03 0.  1.
        -12    1    3    3    0    0  0.90067046645E+01  0.41970815353E+01  0.68073150572E+00  0.99599004870E+01  0.00000000000E+00 0.  1.
</event>
<event>
 7    1  0.1161807E-013  0.5052886E+02  0.7816164E-02  0.1300439E+00
        -11   -1    0    0    0    0  0.00000000000E+00  0.00000000000E+00  0.45593999997E+02  0.45594000000E+02  0.51100000000E-03 0. -1.
         11   -1    0    0    0    0 -0.00000000000E+00 -0.00000000000E+00 -0.45593999997E+02  0.45594000000E+02  0.51100000000E-03 0.  1.
    9900012    2    1    2    0    0 -0.14203539572E+01 -0.31600734876E+02  0.25544898733E+02  0.50528859560E+02  0.29999999118E+02 0.  0.
        -12    1    1    2    0    0  0.14203539572E+01  0.31600734876E+02 -0.25544898733E+02  0.40659140440E+02  0.00000000000E+00 0.  1.
         11    1    3    3    0    0 -0.15207199762E+00 -0.11044720504E+02  0.66704281473E+01  0.12903626964E+02  0.51100000000E-03 0. -1.
        -11    1    3    3    0    0 -0.14231547820E+01 -0.22912095341E+02  0.49266342203E+01  0.23478952435E+02  0.51100000000E-03 0.  1.
        -12    1    3    3    0    0  0.15487282239E+00  0.23560809684E+01  0.13947836365E+02  0.14146280161E+02  0.00000000000E+00 0.  1.
</event>
<event>
 7    1  0.1161807E-013  0.5052886E+02  0.7816164E-02  0.1300439E+00
        -11   -1    0    0    0    0  0.00000000000E+00  0.00000000000E+00  0.45593999997E+02  0.45594000000E+02  0.51100000000E-03 0. -1.
         11   -1    0    0    0    0 -0.00000000000E+00 -0.00000000000E+00 -0.45593999997E+02  0.45594000000E+02  0.51100000000E-03 0.  1.
    9900012    2    1    2    0    0  0.29392888364E+01  0.33428623265E+02  0.22957651563E+02  0.50528855425E+02  0.29999986551E+02 0.  0.
        -12    1    1    2    0    0 -0.29392888364E+01 -0.33428623265E+02 -0.22957651563E+02  0.40659144575E+02  0.00000000000E+00 0.  1.
         11    1    3    3    0    0 -0.14916273551E+01  0.20112027935E+02  0.19213507561E+02  0.27854577593E+02  0.51100000000E-03 0.  1.
        -11    1    3    3    0    0  0.12290015003E+01  0.13308188496E+02  0.92858409561E+01  0.16274064282E+02  0.51100000000E-03 0. -1.
        -12    1    3    3    0    0  0.32019146912E+01  0.84068339976E-02 -0.55416969540E+01  0.64002135507E+01  0.00000000000E+00 0.  1.
</event>
<event>
 7    1  0.1161807E-013  0.5052886E+02  0.7816164E-02  0.1300439E+00
        -11   -1    0    0    0    0  0.00000000000E+00  0.00000000000E+00  0.45593999997E+02  0.45594000000E+02  0.51100000000E-03 0. -1.
         11   -1    0    0    0    0 -0.00000000000E+00 -0.00000000000E+00 -0.45593999997E+02  0.45594000000E+02  0.51100000000E-03 0.  1.
    9900012    2    1    2    0    0  0.29003017456E+02 -0.19498492998E+02  0.20779776944E+02  0.50528863504E+02  0.30000011108E+02 0.  0.
        -12    1    1    2    0    0 -0.29003017456E+02  0.19498492998E+02 -0.20779776944E+02  0.40659136496E+02  0.00000000000E+00 0.  1.
         11    1    3    3    0    0 -0.13579966591E+01 -0.48245144161E+01 -0.23463872733E+01  0.55340426249E+01  0.51100000000E-03 0. -1.
        -11    1    3    3    0    0  0.53397437860E+01 -0.62301699033E+00 -0.30260893518E+01  0.61691353444E+01  0.51100000000E-03 0.  1.
         12    1    3    3    0    0  0.25021270329E+02 -0.14050961591E+02  0.26152253569E+02  0.38825685535E+02  0.00000000000E+00 0. -1.
</event>
<event>
 7    1  0.1161807E-013  0.5052887E+02  0.7816164E-02  0.1300439E+00
        -11   -1    0    0    0    0  0.00000000000E+00  0.00000000000E+00  0.45593999997E+02  0.45594000000E+02  0.51100000000E-03 0. -1.
         11   -1    0    0    0    0 -0.00000000000E+00 -0.00000000000E+00 -0.45593999997E+02  0.45594000000E+02  0.51100000000E-03 0.  1.
    9900012    2    1    2    0    0 -0.10379533279E+01  0.19421173113E+02 -0.35705820305E+02  0.50528869219E+02  0.30000028478E+02 0.  0.
         12    1    1    2    0    0  0.10379533279E+01 -0.19421173113E+02  0.35705820305E+02  0.40659130781E+02  0.00000000000E+00 0. -1.
         11    1    3    3    0    0  0.23135692575E+01 -0.62615300262E+00 -0.16652140440E+01  0.29184941948E+01  0.51100000000E-03 0. -1.
        -11    1    3    3    0    0  0.71921012158E+01  0.78253302725E+01 -0.80060384615E+00  0.10658474588E+02  0.51100000000E-03 0.  1.
        -12    1    3    3    0    0 -0.10543623801E+02  0.12221995843E+02 -0.33240002415E+02  0.36951900436E+02  0.00000000000E+00 0.  1.
</event>
<event>
 7    1  0.1161807E-013  0.5052888E+02  0.7816164E-02  0.1300439E+00
        -11   -1    0    0    0    0  0.00000000000E+00  0.00000000000E+00  0.45593999997E+02  0.45594000000E+02  0.51100000000E-03 0. -1.
         11   -1    0    0    0    0 -0.00000000000E+00 -0.00000000000E+00 -0.45593999997E+02  0.45594000000E+02  0.51100000000E-03 0.  1.
    9900012    2    1    2    0    0  0.13074029675E+02  0.24031387362E+02 -0.30078669671E+02  0.50528878027E+02  0.30000055250E+02 0.  0.
         12    1    1    2    0    0 -0.13074029675E+02 -0.24031387362E+02  0.30078669671E+02  0.40659121973E+02  0.00000000000E+00 0. -1.
         11    1    3    3    0    0  0.58152893637E+01  0.19369422023E+02 -0.90224597517E+01  0.22144906414E+02  0.51100000000E-03 0.  1.
        -11    1    3    3    0    0  0.12264815350E+02  0.38092939721E+01 -0.10206110103E+02  0.16404301260E+02  0.51100000000E-03 0. -1.
         12    1    3    3    0    0 -0.50060750380E+01  0.85267136727E+00 -0.10850099816E+02  0.11979670353E+02  0.00000000000E+00 0. -1.
</event>
<event>
 7    1  0.1161807E-013  0.5052886E+02  0.7816164E-02  0.1300439E+00
        -11   -1    0    0    0    0  0.00000000000E+00  0.00000000000E+00  0.45593999997E+02  0.45594000000E+02  0.51100000000E-03 0. -1.
         11   -1    0    0    0    0 -0.00000000000E+00 -0.00000000000E+00 -0.45593999997E+02  0.45594000000E+02  0.51100000000E-03 0.  1.
    9900012    2    1    2    0    0 -0.18541574269E+02  0.19944554812E+02  0.30192556618E+02  0.50528859352E+02  0.29999998488E+02 0.  0.
        -12    1    1    2    0    0  0.18541574269E+02 -0.19944554812E+02 -0.30192556618E+02  0.40659140648E+02  0.00000000000E+00 0.  1.
         11    1    3    3    0    0 -0.34730393103E+01  0.16569973465E+02  0.26999281776E+02  0.31868279517E+02  0.51100000000E-03 0. -1.
        -11    1    3    3    0    0  0.53425353953E+00  0.25881103675E+01 -0.27712272462E+00  0.26571675492E+01  0.51100000000E-03 0.  1.
        -12    1    3    3    0    0 -0.15602788499E+02  0.78647097999E+00  0.34703975667E+01  0.16003412286E+02  0.00000000000E+00 0.  1.
</event>
<event>
 7    1  0.1161807E-013  0.5052886E+02  0.7816164E-02  0.1300439E+00
        -11   -1    0    0    0    0  0.00000000000E+00  0.00000000000E+00  0.45593999997E+02  0.45594000000E+02  0.51100000000E-03 0. -1.
         11   -1    0    0    0    0 -0.00000000000E+00 -0.00000000000E+00 -0.45593999997E+02  0.45594000000E+02  0.51100000000E-03 0.  1.
    9900012    2    1    2    0    0 -0.18511321354E+02 -0.49888780721E+01 -0.35855374923E+02  0.50528857933E+02  0.29999994175E+02 0.  0.
         12    1    1    2    0    0  0.18511321354E+02  0.49888780721E+01  0.35855374923E+02  0.40659142067E+02  0.00000000000E+00 0. -1.
         11    1    3    3    0    0 -0.10333745351E+02  0.28233974083E+01 -0.13752258251E+02  0.17432225136E+02  0.51100000000E-03 0. -1.
        -11    1    3    3    0    0 -0.12106170052E+02  0.65363316516E+00 -0.20219040653E+02  0.23575330216E+02  0.51100000000E-03 0.  1.
         12    1    3    3    0    0  0.39285940491E+01 -0.84659086456E+01 -0.18840760193E+01  0.95213025813E+01  0.00000000000E+00 0. -1.
</event>
<event>
 7    1  0.1161807E-013  0.5052892E+02  0.7816164E-02  0.1300439E+00
        -11   -1    0    0    0    0  0.00000000000E+00  0.00000000000E+00  0.45593999997E+02  0.45594000000E+02  0.51100000000E-03 0. -1.
         11   -1    0    0    0    0 -0.00000000000E+00 -0.00000000000E+00 -0.45593999997E+02  0.45594000000E+02  0.51100000000E-03 0.  1.
    9900012    2    1    2    0    0  0.22094749840E+02  0.20070263573E+02  0.27607372821E+02  0.50528923714E+02  0.30000194119E+02 0.  0.
        -12    1    1    2    0    0 -0.22094749840E+02 -0.20070263573E+02 -0.27607372821E+02  0.40659076286E+02  0.00000000000E+00 0.  1.
         11    1    3    3    0    0 -0.29608157847E+01  0.15284124668E+02  0.10333561605E+02  0.18685646702E+02  0.51100000000E-03 0. -1.
        -11    1    3    3    0    0  0.13433733328E+02  0.43761826709E+01  0.13693436817E+02  0.19675527389E+02  0.51100000000E-03 0.  1.
        -12    1    3    3    0    0  0.11621832297E+02  0.40995623453E+00  0.35803743989E+01  0.12167749623E+02  0.00000000000E+00 0.  1.
</event>
<event>
 7    1  0.1161807E-013  0.5052886E+02  0.7816164E-02  0.1300439E+00
        -11   -1    0    0    0    0  0.00000000000E+00  0.00000000000E+00  0.45593999997E+02  0.45594000000E+02  0.51100000000E-03 0. -1.
         11   -1    0    0    0    0 -0.00000000000E+00 -0.00000000000E+00 -0.45593999997E+02  0.45594000000E+02  0.51100000000E-03 0.  1.
    9900012    2    1    2    0    0  0.10484189270E+02 -0.57251807763E+01  0.38864757191E+02  0.50528864851E+02  0.30000015202E+02 0.  0.
        -12    1    1    2    0    0 -0.10484189270E+02  0.57251807763E+01 -0.38864757191E+02  0.40659135149E+02  0.00000000000E+00 0.  1.
         11    1    3    3    0    0 -0.55186898778E+01  0.32371118711E+01  0.61352107907E+01  0.88642903236E+01  0.51100000000E-03 0. -1.
        -11    1    3    3    0    0 -0.23713253234E+01 -0.45006835801E+01  0.17673150332E+01  0.53854191262E+01  0.51100000000E-03 0.  1.
         12    1    3    3    0    0  0.18374204471E+02 -0.44616090673E+01  0.30962231367E+02  0.36279155401E+02  0.00000000000E+00 0. -1.
</event>
<event>
 7    1  0.1161807E-013  0.5052884E+02  0.7816164E-02  0.1300439E+00
        -11   -1    0    0    0    0  0.00000000000E+00  0.00000000000E+00  0.45593999997E+02  0.45594000000E+02  0.51100000000E-03 0. -1.
         11   -1    0    0    0    0 -0.00000000000E+00 -0.00000000000E+00 -0.45593999997E+02  0.45594000000E+02  0.51100000000E-03 0.  1.
    9900012    2    1    2    0    0 -0.31387231306E+02  0.18716481301E+02  0.17824213768E+02  0.50528836730E+02  0.29999929726E+02 0.  0.
        -12    1    1    2    0    0  0.31387231306E+02 -0.18716481301E+02 -0.17824213768E+02  0.40659163270E+02  0.00000000000E+00 0.  1.
         11    1    3    3    0    0 -0.38622031685E+01  0.10239967168E+02  0.10951902330E+02  0.15482819698E+02  0.51100000000E-03 0. -1.
        -11    1    3    3    0    0 -0.70725132589E+01 -0.59979130055E+01  0.25720726238E+01  0.96234589448E+01  0.51100000000E-03 0.  1.
        -12    1    3    3    0    0 -0.20452514878E+02  0.14474427139E+02  0.43002388143E+01  0.25422558087E+02  0.00000000000E+00 0.  1.
</event>
<event>
 7    1  0.1161807E-013  0.5052885E+02  0.7816164E-02  0.1300439E+00
        -11   -1    0    0    0    0  0.00000000000E+00  0.00000000000E+00  0.45593999997E+02  0.45594000000E+02  0.51100000000E-03 0. -1.
         11   -1    0    0    0    0 -0.00000000000E+00 -0.00000000000E+00 -0.45593999997E+02  0.45594000000E+02  0.51100000000E-03 0.  1.
    9900012    2    1    2    0    0  0.31100986368E+02 -0.10174003184E+02 -0.24132647024E+02  0.50528851629E+02  0.29999975013E+02 0.  0.
         12    1    1    2    0    0 -0.31100986368E+02  0.10174003184E+02  0.24132647024E+02  0.40659148371E+02  0.00000000000E+00 0. -1.
         11    1    3    3    0    0  0.35213238205E+01  0.68172300502E+00 -0.64551906581E+01  0.73847108541E+01  0.51100000000E-03 0. -1.
        -11    1    3    3    0    0  0.21905450584E+02  0.25419540401E+01 -0.18188388500E+02  0.28585446858E+02  0.51100000000E-03 0.  1.
         12    1    3    3    0    0  0.56742119641E+01 -0.13397680229E+02  0.51093213440E+00  0.14558693917E+02  0.00000000000E+00 0. -1.
</event>
<event>
 7    1  0.1161807E-013  0.5052886E+02  0.7816164E-02  0.1300439E+00
        -11   -1    0    0    0    0  0.00000000000E+00  0.00000000000E+00  0.45593999997E+02  0.45594000000E+02  0.51100000000E-03 0. -1.
         11   -1    0    0    0    0 -0.00000000000E+00 -0.00000000000E+00 -0.45593999997E+02  0.45594000000E+02  0.51100000000E-03 0.  1.
    9900012    2    1    2    0    0 -0.38624478191E+02  0.41799443450E+01 -0.11993478509E+02  0.50528858629E+02  0.29999996288E+02 0.  0.
         12    1    1    2    0    0  0.38624478191E+02 -0.41799443450E+01  0.11993478509E+02  0.40659141371E+02  0.00000000000E+00 0. -1.
         11    1    3    3    0    0 -0.49734508311E+01 -0.44731517142E+01  0.44813716421E+01  0.80515210665E+01  0.51100000000E-03 0. -1.
        -11    1    3    3    0    0 -0.14331671343E+02 -0.52031950390E+01 -0.81414771478E+01  0.17284492833E+02  0.51100000000E-03 0.  1.
        -12    1    3    3    0    0 -0.19319356018E+02  0.13856291098E+02 -0.83333730038E+01  0.25192844729E+02  0.00000000000E+00 0.  1.
</event>
<event>
 7    1  0.1161807E-013  0.5052885E+02  0.7816164E-02  0.1300439E+00
        -11   -1    0    0    0    0  0.00000000000E+00  0.00000000000E+00  0.45593999997E+02  0.45594000000E+02  0.51100000000E-03 0.  1.
         11   -1    0    0    0    0 -0.00000000000E+00 -0.00000000000E+00 -0.45593999997E+02  0.45594000000E+02  0.51100000000E-03 0. -1.
    9900012    2    1    2    0    0  0.10751803773E+02  0.36994679045E+02  0.12998429419E+02  0.50528846917E+02  0.29999960689E+02 0.  0.
        -12    1    1    2    0    0 -0.10751803773E+02 -0.36994679045E+02 -0.12998429419E+02  0.40659153083E+02  0.00000000000E+00 0.  1.
         11    1    3    3    0    0 -0.19868654617E+01 -0.63312221593E+00  0.22487608502E+01  0.30668230673E+01  0.51100000000E-03 0. -1.
        -11    1    3    3    0    0 -0.57219690369E+01  0.28446911545E+01 -0.76226955171E+00  0.64353906295E+01  0.51100000000E-03 0.  1.
         12    1    3    3    0    0  0.18460638271E+02  0.34783110107E+02  0.11511938121E+02  0.41026633220E+02  0.00000000000E+00 0. -1.
</event>
<event>
 7    1  0.1161807E-013  0.5052886E+02  0.7816164E-02  0.1300439E+00
        -11   -1    0    0    0    0  0.00000000000E+00  0.00000000000E+00  0.45593999997E+02  0.45594000000E+02  0.51100000000E-03 0. -1.
         11   -1    0    0    0    0 -0.00000000000E+00 -0.00000000000E+00 -0.45593999997E+02  0.45594000000E+02  0.51100000000E-03 0.  1.
    9900012    2    1    2    0    0  0.15709854434E+02 -0.98944760562E+01 -0.36172713906E+02  0.50528863093E+02  0.30000009856E+02 0.  0.
         12    1    1    2    0    0 -0.15709854434E+02  0.98944760562E+01  0.36172713906E+02  0.40659136907E+02  0.00000000000E+00 0. -1.
         11    1    3    3    0    0  0.74617999359E+00 -0.99423652715E+01 -0.19427135146E+01  0.10157831847E+02  0.51100000000E-03 0. -1.
        -11    1    3    3    0    0  0.14808274889E+02  0.52536905136E+00 -0.14828225168E+02  0.20962759354E+02  0.51100000000E-03 0.  1.
         12    1    3    3    0    0  0.15539955155E+00 -0.47747983613E+00 -0.19401775223E+02  0.19408271892E+02  0.00000000000E+00 0. -1.
</event>
<event>
 7    1  0.1161807E-013  0.5052887E+02  0.7816164E-02  0.1300439E+00
        -11   -1    0    0    0    0  0.00000000000E+00  0.00000000000E+00  0.45593999997E+02  0.45594000000E+02  0.51100000000E-03 0. -1.
         11   -1    0    0    0    0 -0.00000000000E+00 -0.00000000000E+00 -0.45593999997E+02  0.45594000000E+02  0.51100000000E-03 0.  1.
    9900012    2    1    2    0    0 -0.18900248227E+02  0.20889364383E+02 -0.29318596706E+02  0.50528867690E+02  0.30000023832E+02 0.  0.
         12    1    1    2    0    0  0.18900248227E+02 -0.20889364383E+02  0.29318596706E+02  0.40659132310E+02  0.00000000000E+00 0. -1.
         11    1    3    3    0    0 -0.14652870821E+01 -0.11010855502E+01  0.24225538866E+01  0.30377990744E+01  0.51100000000E-03 0. -1.
        -11    1    3    3    0    0 -0.12311528651E+02  0.55086918315E+01 -0.27714563518E+01  0.13769545889E+02  0.51100000000E-03 0.  1.
         12    1    3    3    0    0 -0.51234324940E+01  0.16481758102E+02 -0.28969694240E+02  0.33721522727E+02  0.00000000000E+00 0. -1.
</event>
<event>
 7    1  0.1161807E-013  0.5052889E+02  0.7816164E-02  0.1300439E+00
        -11   -1    0    0    0    0  0.00000000000E+00  0.00000000000E+00  0.45593999997E+02  0.45594000000E+02  0.51100000000E-03 0. -1.
         11   -1    0    0    0    0 -0.00000000000E+00 -0.00000000000E+00 -0.45593999997E+02  0.45594000000E+02  0.51100000000E-03 0.  1.
    9900012    2    1    2    0    0 -0.16345349328E+02  0.12254272651E+02  0.35154312987E+02  0.50528888297E+02  0.30000086468E+02 0.  0.
        -12    1    1    2    0    0  0.16345349328E+02 -0.12254272651E+02 -0.35154312987E+02  0.40659111703E+02  0.00000000000E+00 0.  1.
         11    1    3    3    0    0 -0.54332580909E+01 -0.31977357220E+01  0.28468867108E+01  0.69174107464E+01  0.51100000000E-03 0. -1.
        -11    1    3    3    0    0 -0.13351520670E+02  0.95427086525E+00  0.21648442912E+02  0.25452481566E+02  0.51100000000E-03 0.  1.
         12    1    3    3    0    0  0.24394294331E+01  0.14497737508E+02  0.10658983364E+02  0.18158995985E+02  0.00000000000E+00 0. -1.
</event>
<event>
 7    1  0.1161807E-013  0.5052886E+02  0.7816164E-02  0.1300439E+00
        -11   -1    0    0    0    0  0.00000000000E+00  0.00000000000E+00  0.45593999997E+02  0.45594000000E+02  0.51100000000E-03 0. -1.
         11   -1    0    0    0    0 -0.00000000000E+00 -0.00000000000E+00 -0.45593999997E+02  0.45594000000E+02  0.51100000000E-03 0.  1.
    9900012    2    1    2    0    0  0.15228811030E+02 -0.21784550517E+02  0.30768204584E+02  0.50528859085E+02  0.29999997674E+02 0.  0.
        -12    1    1    2    0    0 -0.15228811030E+02  0.21784550517E+02 -0.30768204584E+02  0.40659140915E+02  0.00000000000E+00 0.  1.
         11    1    3    3    0    0  0.11810923780E+02 -0.19544846813E+02  0.28061748994E+02  0.36179562108E+02  0.51100000000E-03 0. -1.
        -11    1    3    3    0    0  0.41923294309E+01 -0.20214322004E+01  0.78592924346E+01  0.91340183945E+01  0.51100000000E-03 0.  1.
        -12    1    3    3    0    0 -0.77444218103E+00 -0.21827150347E+00 -0.51528368445E+01  0.52152785819E+01  0.00000000000E+00 0.  1.
</event>
<event>
 7    1  0.1161807E-013  0.5052886E+02  0.7816164E-02  0.1300439E+00
        -11   -1    0    0    0    0  0.00000000000E+00  0.00000000000E+00  0.45593999997E+02  0.45594000000E+02  0.51100000000E-03 0. -1.
         11   -1    0    0    0    0 -0.00000000000E+00 -0.00000000000E+00 -0.45593999997E+02  0.45594000000E+02  0.51100000000E-03 0.  1.
    9900012    2    1    2    0    0 -0.91022417938E+01 -0.32911262244E+02  0.22071783311E+02  0.50528860724E+02  0.30000002656E+02 0.  0.
        -12    1    1    2    0    0  0.91022417938E+01  0.32911262244E+02 -0.22071783311E+02  0.40659139276E+02  0.00000000000E+00 0.  1.
         11    1    3    3    0    0 -0.80664227236E+01 -0.13870574304E+02  0.23625091676E+02  0.28558798365E+02  0.51100000000E-03 0. -1.
        -11    1    3    3    0    0  0.14851513271E+01 -0.17864059056E+01  0.31457001840E+01  0.39105434958E+01  0.51100000000E-03 0.  1.
        -12    1    3    3    0    0 -0.25209703974E+01 -0.17254282034E+02 -0.46990085483E+01  0.18059518863E+02  0.00000000000E+00 0.  1.
</event>
<event>
 7    1  0.1161807E-013  0.5052886E+02  0.7816164E-02  0.1300439E+00
        -11   -1    0    0    0    0  0.00000000000E+00  0.00000000000E+00  0.45593999997E+02  0.45594000000E+02  0.51100000000E-03 0. -1.
         11   -1    0    0    0    0 -0.00000000000E+00 -0.00000000000E+00 -0.45593999997E+02  0.45594000000E+02  0.51100000000E-03 0.  1.
    9900012    2    1    2    0    0  0.12668765614E+02 -0.37733557880E+02 -0.82973980628E+01  0.50528858014E+02  0.29999994419E+02 0.  0.
         12    1    1    2    0    0 -0.12668765614E+02  0.37733557880E+02  0.82973980628E+01  0.40659141986E+02  0.00000000000E+00 0. -1.
         11    1    3    3    0    0  0.12147896236E+02 -0.59263774819E+01 -0.97739255330E+01  0.16680016595E+02  0.51100000000E-03 0. -1.
        -11    1    3    3    0    0 -0.15127375028E+01 -0.27827640554E+01 -0.30572534300E+01  0.44021528070E+01  0.51100000000E-03 0.  1.
        -12    1    3    3    0    0  0.20336068811E+01 -0.29024416343E+02  0.45337809002E+01  0.29446688612E+02  0.00000000000E+00 0.  1.
</event>
<event>
 7    1  0.1161807E-013  0.5052877E+02  0.7816164E-02  0.1300439E+00
        -11   -1    0    0    0    0  0.00000000000E+00  0.00000000000E+00  0.45593999997E+02  0.45594000000E+02  0.51100000000E-03 0. -1.
         11   -1    0    0    0    0 -0.00000000000E+00 -0.00000000000E+00 -0.45593999997E+02  0.45594000000E+02  0.51100000000E-03 0.  1.
    9900012    2    1    2    0    0  0.20890483580E+02  0.19962147876E+02  0.28605476250E+02  0.50528770746E+02  0.29999729158E+02 0.  0.
        -12    1    1    2    0    0 -0.20890483580E+02 -0.19962147876E+02 -0.28605476250E+02  0.40659229254E+02  0.00000000000E+00 0.  1.
         11    1    3    3    0    0  0.53332973860E+00  0.38177083454E+01 -0.28926302399E+01  0.48194032396E+01  0.51100000000E-03 0.  1.
        -11    1    3    3    0    0  0.87418385540E+01  0.81812503878E+01  0.29042904020E+02  0.31414055348E+02  0.51100000000E-03 0. -1.
         12    1    3    3    0    0  0.11615315287E+02  0.79631891429E+01  0.24552024703E+01  0.14295312159E+02  0.00000000000E+00 0. -1.
</event>
<event>
 7    1  0.1161807E-013  0.5052886E+02  0.7816164E-02  0.1300439E+00
        -11   -1    0    0    0    0  0.00000000000E+00  0.00000000000E+00  0.45593999997E+02  0.45594000000E+02  0.51100000000E-03 0. -1.
         11   -1    0    0    0    0 -0.00000000000E+00 -0.00000000000E+00 -0.45593999997E+02  0.45594000000E+02  0.51100000000E-03 0.  1.
    9900012    2    1    2    0    0  0.27091905201E+02  0.28429049816E+02  0.10534850301E+02  0.50528864843E+02  0.30000015177E+02 0.  0.
        -12    1    1    2    0    0 -0.27091905201E+02 -0.28429049816E+02 -0.10534850301E+02  0.40659135157E+02  0.00000000000E+00 0.  1.
         11    1    3    3    0    0  0.15098790283E+02  0.83343207331E+01  0.43662407599E+01  0.17790402714E+02  0.51100000000E-03 0. -1.
        -11    1    3    3    0    0  0.15525175598E+02  0.45034475940E+01  0.31978780955E+01  0.16478426568E+02  0.51100000000E-03 0.  1.
        -12    1    3    3    0    0 -0.35320606804E+01  0.15591281489E+02  0.29707314454E+01  0.16260035561E+02  0.00000000000E+00 0.  1.
</event>
<event>
 7    1  0.1161807E-013  0.5052886E+02  0.7816164E-02  0.1300439E+00
        -11   -1    0    0    0    0  0.00000000000E+00  0.00000000000E+00  0.45593999997E+02  0.45594000000E+02  0.51100000000E-03 0. -1.
         11   -1    0    0    0    0 -0.00000000000E+00 -0.00000000000E+00 -0.45593999997E+02  0.45594000000E+02  0.51100000000E-03 0.  1.
    9900012    2    1    2    0    0 -0.14212153172E+02  0.85039541681E+01  0.37133050100E+02  0.50528856576E+02  0.29999990048E+02 0.  0.
        -12    1    1    2    0    0  0.14212153172E+02 -0.85039541681E+01 -0.37133050100E+02  0.40659143424E+02  0.00000000000E+00 0.  1.
         11    1    3    3    0    0 -0.13098479160E+02  0.63538038816E+01  0.14035576347E+02  0.20222224994E+02  0.51100000000E-03 0. -1.
        -11    1    3    3    0    0 -0.69775854228E+01  0.39648746744E+01  0.19122627857E+01  0.82500714384E+01  0.51100000000E-03 0.  1.
        -12    1    3    3    0    0  0.58639114105E+01 -0.18147243879E+01  0.21185210967E+02  0.22056560143E+02  0.00000000000E+00 0.  1.
</event>
<event>
 7    1  0.1161807E-013  0.5052886E+02  0.7816164E-02  0.1300439E+00
        -11   -1    0    0    0    0  0.00000000000E+00  0.00000000000E+00  0.45593999997E+02  0.45594000000E+02  0.51100000000E-03 0. -1.
         11   -1    0    0    0    0 -0.00000000000E+00 -0.00000000000E+00 -0.45593999997E+02  0.45594000000E+02  0.51100000000E-03 0.  1.
    9900012    2    1    2    0    0  0.22116591028E+02 -0.35119942331E+00  0.34115962980E+02  0.50528857488E+02  0.29999992821E+02 0.  0.
        -12    1    1    2    0    0 -0.22116591028E+02  0.35119942331E+00 -0.34115962980E+02  0.40659142512E+02  0.00000000000E+00 0.  1.
         11    1    3    3    0    0  0.47222747697E+01 -0.99312948059E+01  0.98144236301E+01  0.14739518546E+02  0.51100000000E-03 0. -1.
        -11    1    3    3    0    0 -0.22659001537E+01 -0.12433499381E+01 -0.16352925879E+00  0.25897808120E+01  0.51100000000E-03 0.  1.
         12    1    3    3    0    0  0.19660216412E+02  0.10823445321E+02  0.24465068609E+02  0.33199558130E+02  0.00000000000E+00 0. -1.
</event>
<event>
 7    1  0.1737280E-013  0.5052886E+02  0.7816164E-02  0.1300439E+00
        -11   -1    0    0    0    0  0.00000000000E+00  0.00000000000E+00  0.45593999997E+02  0.45594000000E+02  0.51100000000E-03 0. -1.
         11   -1    0    0    0    0 -0.00000000000E+00 -0.00000000000E+00 -0.45593999997E+02  0.45594000000E+02  0.51100000000E-03 0.  1.
    9900012    2    1    2    0    0  0.11952443818E+02  0.13768003747E+00 -0.38862400368E+02  0.50528855501E+02  0.29999986781E+02 0.  0.
         12    1    1    2    0    0 -0.11952443818E+02 -0.13768003747E+00  0.38862400368E+02  0.40659144499E+02  0.00000000000E+00 0. -1.
         11    1    3    3    0    0  0.32685300585E+01 -0.56997640546E+01 -0.31573358153E+01  0.72896754888E+01  0.51100000000E-03 0. -1.
        -11    1    3    3    0    0  0.61070517258E+01  0.78347759691E-03  0.81928499310E+00  0.61617618873E+01  0.51100000000E-03 0.  1.
        -12    1    3    3    0    0  0.25768620339E+01  0.58366606144E+01 -0.36524349546E+02  0.37077418125E+02  0.00000000000E+00 0.  1.
</event>
<event>
 7    1  0.1161807E-013  0.5052887E+02  0.7816164E-02  0.1300439E+00
        -11   -1    0    0    0    0  0.00000000000E+00  0.00000000000E+00  0.45593999997E+02  0.45594000000E+02  0.51100000000E-03 0. -1.
         11   -1    0    0    0    0 -0.00000000000E+00 -0.00000000000E+00 -0.45593999997E+02  0.45594000000E+02  0.51100000000E-03 0.  1.
    9900012    2    1    2    0    0 -0.46372430645E+01  0.32263917954E+02  0.24304331692E+02  0.50528868627E+02  0.30000026680E+02 0.  0.
        -12    1    1    2    0    0  0.46372430645E+01 -0.32263917954E+02 -0.24304331692E+02  0.40659131373E+02  0.00000000000E+00 0.  1.
         11    1    3    3    0    0 -0.97122521372E-02  0.84009001070E+01 -0.45474415476E+01  0.95527190802E+01  0.51100000000E-03 0. -1.
        -11    1    3    3    0    0  0.58124210419E+01  0.11600003736E+02  0.12181016998E+02  0.17796671048E+02  0.51100000000E-03 0.  1.
         12    1    3    3    0    0 -0.10439951854E+02  0.12263014111E+02  0.16670756242E+02  0.23179478499E+02  0.00000000000E+00 0. -1.
</event>
<event>
 7    1  0.1161807E-013  0.5052886E+02  0.7816164E-02  0.1300439E+00
        -11   -1    0    0    0    0  0.00000000000E+00  0.00000000000E+00  0.45593999997E+02  0.45594000000E+02  0.51100000000E-03 0. -1.
         11   -1    0    0    0    0 -0.00000000000E+00 -0.00000000000E+00 -0.45593999997E+02  0.45594000000E+02  0.51100000000E-03 0.  1.
    9900012    2    1    2    0    0 -0.21280204529E+02  0.38671018022E+01  0.34429115956E+02  0.50528860724E+02  0.30000002656E+02 0.  0.
        -12    1    1    2    0    0  0.21280204529E+02 -0.38671018022E+01 -0.34429115956E+02  0.40659139276E+02  0.00000000000E+00 0.  1.
         11    1    3    3    0    0 -0.16926899611E+01 -0.28980442950E+01 -0.97439426001E+00  0.34947538504E+01  0.51100000000E-03 0. -1.
        -11    1    3    3    0    0  0.15626026560E+01  0.42839513053E+00 -0.26110325546E+01  0.30729042795E+01  0.51100000000E-03 0.  1.
         12    1    3    3    0    0 -0.21150117224E+02  0.63367509666E+01  0.38014542771E+02  0.43961202594E+02  0.00000000000E+00 0. -1.
</event>
<event>
 7    1  0.1161807E-013  0.5052885E+02  0.7816164E-02  0.1300439E+00
        -11   -1    0    0    0    0  0.00000000000E+00  0.00000000000E+00  0.45593999997E+02  0.45594000000E+02  0.51100000000E-03 0. -1.
         11   -1    0    0    0    0 -0.00000000000E+00 -0.00000000000E+00 -0.45593999997E+02  0.45594000000E+02  0.51100000000E-03 0.  1.
    9900012    2    1    2    0    0  0.55239883860E+01  0.19132102846E+02 -0.35448756224E+02  0.50528854352E+02  0.29999983288E+02 0.  0.
         12    1    1    2    0    0 -0.55239883860E+01 -0.19132102846E+02  0.35448756224E+02  0.40659145648E+02  0.00000000000E+00 0. -1.
         11    1    3    3    0    0  0.10751212879E+02 -0.82546523899E-01 -0.19860948292E+02  0.22584345455E+02  0.51100000000E-03 0. -1.
        -11    1    3    3    0    0  0.14238184824E+01  0.60653564342E+01 -0.10768231094E+02  0.12440683619E+02  0.51100000000E-03 0.  1.
         12    1    3    3    0    0 -0.66510429753E+01  0.13149292936E+02 -0.48195768375E+01  0.15503825278E+02  0.00000000000E+00 0. -1.
</event>
<event>
 7    1  0.1161807E-013  0.5052886E+02  0.7816164E-02  0.1300439E+00
        -11   -1    0    0    0    0  0.00000000000E+00  0.00000000000E+00  0.45593999997E+02  0.45594000000E+02  0.51100000000E-03 0. -1.
         11   -1    0    0    0    0 -0.00000000000E+00 -0.00000000000E+00 -0.45593999997E+02  0.45594000000E+02  0.51100000000E-03 0.  1.
    9900012    2    1    2    0    0  0.11139914370E+02 -0.24396602591E+02 -0.30559344754E+02  0.50528862504E+02  0.30000008066E+02 0.  0.
         12    1    1    2    0    0 -0.11139914370E+02  0.24396602591E+02  0.30559344754E+02  0.40659137496E+02  0.00000000000E+00 0. -1.
         11    1    3    3    0    0  0.63956735121E+01 -0.14744842362E+02 -0.79995396717E+01  0.17952928763E+02  0.51100000000E-03 0. -1.
        -11    1    3    3    0    0 -0.25799378820E+01 -0.14284605319E+02 -0.11463998274E+02  0.18496737152E+02  0.51100000000E-03 0.  1.
        -12    1    3    3    0    0  0.73241787401E+01  0.46328450899E+01 -0.11095806809E+02  0.14079196589E+02  0.00000000000E+00 0.  1.
</event>
<event>
 7    1  0.1161807E-013  0.5052886E+02  0.7816164E-02  0.1300439E+00
        -11   -1    0    0    0    0  0.00000000000E+00  0.00000000000E+00  0.45593999997E+02  0.45594000000E+02  0.51100000000E-03 0. -1.
         11   -1    0    0    0    0 -0.00000000000E+00 -0.00000000000E+00 -0.45593999997E+02  0.45594000000E+02  0.51100000000E-03 0.  1.
    9900012    2    1    2    0    0 -0.24190246108E+02 -0.74711824420E+01 -0.31814759512E+02  0.50528862077E+02  0.30000006770E+02 0.  0.
         12    1    1    2    0    0  0.24190246108E+02  0.74711824420E+01  0.31814759512E+02  0.40659137923E+02  0.00000000000E+00 0. -1.
         11    1    3    3    0    0 -0.12837411264E+02  0.41266801693E+01 -0.17759491237E+02  0.22298613105E+02  0.51100000000E-03 0. -1.
        -11    1    3    3    0    0 -0.11486566427E+02 -0.11036688542E+02 -0.18119060712E+02  0.24125713743E+02  0.51100000000E-03 0.  1.
         12    1    3    3    0    0  0.13373158322E+00 -0.56117406920E+00  0.40637924370E+01  0.41045352287E+01  0.00000000000E+00 0. -1.
</event>
<event>
 7    1  0.1161807E-013  0.5052886E+02  0.7816164E-02  0.1300439E+00
        -11   -1    0    0    0    0  0.00000000000E+00  0.00000000000E+00  0.45593999997E+02  0.45594000000E+02  0.51100000000E-03 0. -1.
         11   -1    0    0    0    0 -0.00000000000E+00 -0.00000000000E+00 -0.45593999997E+02  0.45594000000E+02  0.51100000000E-03 0.  1.
    9900012    2    1    2    0    0  0.95030081786E+01  0.16501549831E+01  0.39498551833E+02  0.50528858681E+02  0.29999996446E+02 0.  0.
        -12    1    1    2    0    0 -0.95030081786E+01 -0.16501549831E+01 -0.39498551833E+02  0.40659141319E+02  0.00000000000E+00 0.  1.
         11    1    3    3    0    0  0.79925069415E+01  0.27467791181E+01  0.29517580416E+01  0.89519740019E+01  0.51100000000E-03 0.  1.
        -11    1    3    3    0    0  0.28996582268E+01 -0.41982768420E+01  0.23638865954E+00  0.51077809403E+01  0.51100000000E-03 0. -1.
         12    1    3    3    0    0 -0.13891569897E+01  0.31016527071E+01  0.36310405132E+02  0.36469103739E+02  0.00000000000E+00 0. -1.
</event>
<event>
 7    1  0.1161807E-013  0.5052885E+02  0.7816164E-02  0.1300439E+00
        -11   -1    0    0    0    0  0.00000000000E+00  0.00000000000E+00  0.45593999997E+02  0.45594000000E+02  0.51100000000E-03 0. -1.
         11   -1    0    0    0    0 -0.00000000000E+00 -0.00000000000E+00 -0.45593999997E+02  0.45594000000E+02  0.51100000000E-03 0.  1.
    9900012    2    1    2    0    0 -0.10111378808E+02  0.38901544954E+02 -0.61315938466E+01  0.50528848210E+02  0.29999964619E+02 0.  0.
        -12    1    1    2    0    0  0.10111378808E+02 -0.38901544954E+02  0.61315938466E+01  0.40659151790E+02  0.00000000000E+00 0.  1.
         11    1    3    3    0    0  0.13514378780E+01 -0.20456359699E+00  0.49107060549E+01  0.50973782302E+01  0.51100000000E-03 0. -1.
        -11    1    3    3    0    0  0.22538309794E+01  0.20308376029E+02 -0.22536965173E+01  0.20556970576E+02  0.51100000000E-03 0.  1.
        -12    1    3    3    0    0 -0.13716647665E+02  0.18797732522E+02 -0.87886033842E+01  0.24874499404E+02  0.00000000000E+00 0.  1.
</event>
<event>
 7    1  0.1161807E-013  0.5052890E+02  0.7816164E-02  0.1300439E+00
        -11   -1    0    0    0    0  0.00000000000E+00  0.00000000000E+00  0.45593999997E+02  0.45594000000E+02  0.51100000000E-03 0. -1.
         11   -1    0    0    0    0 -0.00000000000E+00 -0.00000000000E+00 -0.45593999997E+02  0.45594000000E+02  0.51100000000E-03 0.  1.
    9900012    2    1    2    0    0 -0.12156430831E+02  0.16995650301E+02 -0.34878815342E+02  0.50528896476E+02  0.30000111328E+02 0.  0.
         12    1    1    2    0    0  0.12156430831E+02 -0.16995650301E+02  0.34878815342E+02  0.40659103524E+02  0.00000000000E+00 0. -1.
         11    1    3    3    0    0 -0.86405186039E+00 -0.67044274541E+00  0.30334510269E+01  0.32245781873E+01  0.51100000000E-03 0. -1.
        -11    1    3    3    0    0 -0.72926120925E-03 -0.18119930999E+01  0.12010964584E+01  0.21739255943E+01  0.51100000000E-03 0.  1.
        -12    1    3    3    0    0 -0.11291649709E+02  0.19478086146E+02 -0.39113362828E+02  0.45130392694E+02  0.00000000000E+00 0.  1.
</event>
<event>
 7    1  0.1161807E-013  0.5052886E+02  0.7816164E-02  0.1300439E+00
        -11   -1    0    0    0    0  0.00000000000E+00  0.00000000000E+00  0.45593999997E+02  0.45594000000E+02  0.51100000000E-03 0. -1.
         11   -1    0    0    0    0 -0.00000000000E+00 -0.00000000000E+00 -0.45593999997E+02  0.45594000000E+02  0.51100000000E-03 0.  1.
    9900012    2    1    2    0    0 -0.26199463653E+02 -0.16145044450E+02  0.26572375857E+02  0.50528861855E+02  0.30000006095E+02 0.  0.
        -12    1    1    2    0    0  0.26199463653E+02  0.16145044450E+02 -0.26572375857E+02  0.40659138145E+02  0.00000000000E+00 0.  1.
         11    1    3    3    0    0 -0.67457796794E+01 -0.17924395567E+01  0.37464360843E+01  0.79217527507E+01  0.51100000000E-03 0. -1.
        -11    1    3    3    0    0 -0.12364533096E+02 -0.10091891008E+02 -0.23272250956E+01  0.16128977640E+02  0.51100000000E-03 0.  1.
        -12    1    3    3    0    0 -0.70891508776E+01 -0.42607138856E+01  0.25153164868E+02  0.26478131465E+02  0.00000000000E+00 0.  1.
</event>
<event>
 7    1  0.1161807E-013  0.5052886E+02  0.7816164E-02  0.1300439E+00
        -11   -1    0    0    0    0  0.00000000000E+00  0.00000000000E+00  0.45593999997E+02  0.45594000000E+02  0.51100000000E-03 0. -1.
         11   -1    0    0    0    0 -0.00000000000E+00 -0.00000000000E+00 -0.45593999997E+02  0.45594000000E+02  0.51100000000E-03 0.  1.
    9900012    2    1    2    0    0 -0.29290658215E+02 -0.12504553732E+02 -0.25275666822E+02  0.50528857658E+02  0.29999993338E+02 0.  0.
         12    1    1    2    0    0  0.29290658215E+02  0.12504553732E+02  0.25275666822E+02  0.40659142342E+02  0.00000000000E+00 0. -1.
         11    1    3    3    0    0  0.10020593143E+01 -0.19848067056E+01 -0.55414964172E+01  0.59709097574E+01  0.51100000000E-03 0. -1.
        -11    1    3    3    0    0 -0.39830530108E+01  0.59229140275E+01 -0.95120178223E+01  0.11892186728E+02  0.51100000000E-03 0.  1.
        -12    1    3    3    0    0 -0.26309664518E+02 -0.16442661054E+02 -0.10222152582E+02  0.32665761173E+02  0.00000000000E+00 0.  1.
</event>
<event>
 7    1  0.1161807E-013  0.5052887E+02  0.7816164E-02  0.1300439E+00
        -11   -1    0    0    0    0  0.00000000000E+00  0.00000000000E+00  0.45593999997E+02  0.45594000000E+02  0.51100000000E-03 0. -1.
         11   -1    0    0    0    0 -0.00000000000E+00 -0.00000000000E+00 -0.45593999997E+02  0.45594000000E+02  0.51100000000E-03 0.  1.
    9900012    2    1    2    0    0 -0.67511224362E+01  0.89560186097E+01  0.39081674202E+02  0.50528865947E+02  0.30000018532E+02 0.  0.
        -12    1    1    2    0    0  0.67511224362E+01 -0.89560186097E+01 -0.39081674202E+02  0.40659134053E+02  0.00000000000E+00 0.  1.
         11    1    3    3    0    0 -0.10273334223E+02  0.14790570493E+02  0.18867718333E+02  0.26082430235E+02  0.51100000000E-03 0. -1.
        -11    1    3    3    0    0 -0.42962720821E+01 -0.36294798782E+01  0.81270286637E+01  0.98833027451E+01  0.51100000000E-03 0.  1.
        -12    1    3    3    0    0  0.78184838689E+01 -0.22050720052E+01  0.12086927205E+02  0.14563132967E+02  0.00000000000E+00 0.  1.
</event>
<event>
 7    1  0.1161807E-013  0.5052886E+02  0.7816164E-02  0.1300439E+00
        -11   -1    0    0    0    0  0.00000000000E+00  0.00000000000E+00  0.45593999997E+02  0.45594000000E+02  0.51100000000E-03 0. -1.
         11   -1    0    0    0    0 -0.00000000000E+00 -0.00000000000E+00 -0.45593999997E+02  0.45594000000E+02  0.51100000000E-03 0.  1.
    9900012    2    1    2    0    0 -0.21402080055E+02 -0.27941930456E+02 -0.20355957939E+02  0.50528861643E+02  0.30000005450E+02 0.  0.
         12    1    1    2    0    0  0.21402080055E+02  0.27941930456E+02  0.20355957939E+02  0.40659138357E+02  0.00000000000E+00 0. -1.
         11    1    3    3    0    0 -0.15261946915E+02 -0.50841793976E+00 -0.13551081617E+02  0.20416104567E+02  0.51100000000E-03 0. -1.
        -11    1    3    3    0    0 -0.62845114202E+01 -0.10189171202E+02 -0.41173201677E+01  0.12659645303E+02  0.51100000000E-03 0.  1.
        -12    1    3    3    0    0  0.14437828043E+00 -0.17244341315E+02 -0.26875561543E+01  0.17453111773E+02  0.00000000000E+00 0.  1.
</event>
<event>
 7    1  0.1161807E-013  0.5052886E+02  0.7816164E-02  0.1300439E+00
        -11   -1    0    0    0    0  0.00000000000E+00  0.00000000000E+00  0.45593999997E+02  0.45594000000E+02  0.51100000000E-03 0. -1.
         11   -1    0    0    0    0 -0.00000000000E+00 -0.00000000000E+00 -0.45593999997E+02  0.45594000000E+02  0.51100000000E-03 0.  1.
    9900012    2    1    2    0    0  0.24448030377E+02 -0.22930539814E+02  0.23014118036E+02  0.50528862350E+02  0.30000007599E+02 0.  0.
        -12    1    1    2    0    0 -0.24448030377E+02  0.22930539814E+02 -0.23014118036E+02  0.40659137650E+02  0.00000000000E+00 0.  1.
         11    1    3    3    0    0  0.57739491778E+01  0.26647559618E+00  0.22594654382E+01  0.62060198742E+01  0.51100000000E-03 0. -1.
        -11    1    3    3    0    0  0.23300550401E+02 -0.14029941966E+02  0.20486933024E+02  0.34050981565E+02  0.51100000000E-03 0.  1.
        -12    1    3    3    0    0 -0.46264692018E+01 -0.91670734439E+01  0.26771957407E+00  0.10271860911E+02  0.00000000000E+00 0.  1.
</event>
<event>
 7    1  0.1161807E-013  0.5052888E+02  0.7816164E-02  0.1300439E+00
        -11   -1    0    0    0    0  0.00000000000E+00  0.00000000000E+00  0.45593999997E+02  0.45594000000E+02  0.51100000000E-03 0. -1.
         11   -1    0    0    0    0 -0.00000000000E+00 -0.00000000000E+00 -0.45593999997E+02  0.45594000000E+02  0.51100000000E-03 0.  1.
    9900012    2    1    2    0    0  0.18723026367E+01  0.17756455999E+02  0.36528990687E+02  0.50528875472E+02  0.30000047483E+02 0.  0.
        -12    1    1    2    0    0 -0.18723026367E+01 -0.17756455999E+02 -0.36528990687E+02  0.40659124528E+02  0.00000000000E+00 0.  1.
         11    1    3    3    0    0  0.44937813720E+00  0.10190055475E+02  0.21920876320E+02  0.24177758171E+02  0.51100000000E-03 0. -1.
        -11    1    3    3    0    0  0.46091852071E+01  0.95901244140E+01  0.18237632539E+02  0.21114599580E+02  0.51100000000E-03 0.  1.
         12    1    3    3    0    0 -0.31862607076E+01 -0.20237238904E+01 -0.36295181712E+01  0.52365177204E+01  0.00000000000E+00 0. -1.
</event>
<event>
 7    1  0.1161807E-013  0.5052887E+02  0.7816164E-02  0.1300439E+00
        -11   -1    0    0    0    0  0.00000000000E+00  0.00000000000E+00  0.45593999997E+02  0.45594000000E+02  0.51100000000E-03 0. -1.
         11   -1    0    0    0    0 -0.00000000000E+00 -0.00000000000E+00 -0.45593999997E+02  0.45594000000E+02  0.51100000000E-03 0.  1.
    9900012    2    1    2    0    0 -0.13161453570E+02  0.16045644218E+02  0.34963961295E+02  0.50528866365E+02  0.30000019804E+02 0.  0.
        -12    1    1    2    0    0  0.13161453570E+02 -0.16045644218E+02 -0.34963961295E+02  0.40659133635E+02  0.00000000000E+00 0.  1.
         11    1    3    3    0    0 -0.53060282066E+00 -0.18692924362E+01  0.81005094118E+01  0.83303089113E+01  0.51100000000E-03 0. -1.
        -11    1    3    3    0    0 -0.13562278403E+02  0.14828952713E+02  0.31006562055E+02  0.36949155941E+02  0.51100000000E-03 0.  1.
        -12    1    3    3    0    0  0.93142765302E+00  0.30859839408E+01 -0.41431101711E+01  0.52494015131E+01  0.00000000000E+00 0.  1.
</event>
<event>
 7    1  0.1161807E-013  0.5052885E+02  0.7816164E-02  0.1300439E+00
        -11   -1    0    0    0    0  0.00000000000E+00  0.00000000000E+00  0.45593999997E+02  0.45594000000E+02  0.51100000000E-03 0. -1.
         11   -1    0    0    0    0 -0.00000000000E+00 -0.00000000000E+00 -0.45593999997E+02  0.45594000000E+02  0.51100000000E-03 0.  1.
    9900012    2    1    2    0    0 -0.17032319533E+02  0.27968791739E+02 -0.24100075437E+02  0.50528845359E+02  0.29999955953E+02 0.  0.
         12    1    1    2    0    0  0.17032319533E+02 -0.27968791739E+02  0.24100075437E+02  0.40659154641E+02  0.00000000000E+00 0. -1.
         11    1    3    3    0    0 -0.16608445433E+02  0.90500406048E+01 -0.21951166189E+02  0.28975807011E+02  0.51100000000E-03 0. -1.
        -11    1    3    3    0    0 -0.43316770984E+01  0.10263489728E+02 -0.40769898023E+01  0.11862735519E+02  0.51100000000E-03 0.  1.
        -12    1    3    3    0    0  0.39078029979E+01  0.86552614070E+01  0.19280805539E+01  0.96903028289E+01  0.00000000000E+00 0.  1.
</event>
<event>
 7    1  0.1161807E-013  0.5052886E+02  0.7816164E-02  0.1300439E+00
        -11   -1    0    0    0    0  0.00000000000E+00  0.00000000000E+00  0.45593999997E+02  0.45594000000E+02  0.51100000000E-03 0. -1.
         11   -1    0    0    0    0 -0.00000000000E+00 -0.00000000000E+00 -0.45593999997E+02  0.45594000000E+02  0.51100000000E-03 0.  1.
    9900012    2    1    2    0    0  0.53405020047E+01  0.16952144238E+02 -0.36568701202E+02  0.50528855106E+02  0.29999985580E+02 0.  0.
         12    1    1    2    0    0 -0.53405020047E+01 -0.16952144238E+02  0.36568701202E+02  0.40659144894E+02  0.00000000000E+00 0. -1.
         11    1    3    3    0    0 -0.99523543640E+00  0.22530156481E+01 -0.57519515915E+01  0.62571175837E+01  0.51100000000E-03 0. -1.
        -11    1    3    3    0    0 -0.74594287352E+00  0.14686785802E+02 -0.33588702677E+02  0.36666865911E+02  0.51100000000E-03 0.  1.
         12    1    3    3    0    0  0.70816803147E+01  0.12342788230E-01  0.27719530665E+01  0.76048716114E+01  0.00000000000E+00 0. -1.
</event>
<event>
 7    1  0.1161807E-013  0.5052887E+02  0.7816164E-02  0.1300439E+00
        -11   -1    0    0    0    0  0.00000000000E+00  0.00000000000E+00  0.45593999997E+02  0.45594000000E+02  0.51100000000E-03 0. -1.
         11   -1    0    0    0    0 -0.00000000000E+00 -0.00000000000E+00 -0.45593999997E+02  0.45594000000E+02  0.51100000000E-03 0.  1.
    9900012    2    1    2    0    0 -0.24260660040E+02  0.20248619819E+02 -0.25584730478E+02  0.50528872319E+02  0.30000037899E+02 0.  0.
         12    1    1    2    0    0  0.24260660040E+02 -0.20248619819E+02  0.25584730478E+02  0.40659127681E+02  0.00000000000E+00 0. -1.
         11    1    3    3    0    0  0.41945457836E+01  0.10219389183E+01 -0.11792339750E+02  0.12557780477E+02  0.51100000000E-03 0. -1.
        -11    1    3    3    0    0 -0.14657772848E+02  0.48501320490E+01 -0.65123022572E+01  0.16756615610E+02  0.51100000000E-03 0.  1.
        -12    1    3    3    0    0 -0.13797432976E+02  0.14376548852E+02 -0.72800884717E+01  0.21214476231E+02  0.00000000000E+00 0.  1.
</event>
<event>
 7    1  0.1161807E-013  0.5052886E+02  0.7816164E-02  0.1300439E+00
        -11   -1    0    0    0    0  0.00000000000E+00  0.00000000000E+00  0.45593999997E+02  0.45594000000E+02  0.51100000000E-03 0. -1.
         11   -1    0    0    0    0 -0.00000000000E+00 -0.00000000000E+00 -0.45593999997E+02  0.45594000000E+02  0.51100000000E-03 0.  1.
    9900012    2    1    2    0    0  0.15731767061E+02  0.34065536979E+02  0.15659376194E+02  0.50528863667E+02  0.30000011603E+02 0.  0.
        -12    1    1    2    0    0 -0.15731767061E+02 -0.34065536979E+02 -0.15659376194E+02  0.40659136333E+02  0.00000000000E+00 0.  1.
         11    1    3    3    0    0  0.10623276312E+01 -0.67139169601E+00  0.50200007455E+00  0.13532594509E+01  0.51100000000E-03 0. -1.
        -11    1    3    3    0    0 -0.30720448603E+01  0.22405121031E+02 -0.28762585924E+00  0.22616578807E+02  0.51100000000E-03 0.  1.
         12    1    3    3    0    0  0.17741484290E+02  0.12331807644E+02  0.15445001979E+02  0.26559025410E+02  0.00000000000E+00 0. -1.
</event>
<event>
 7    1  0.1161807E-013  0.5052886E+02  0.7816164E-02  0.1300439E+00
        -11   -1    0    0    0    0  0.00000000000E+00  0.00000000000E+00  0.45593999997E+02  0.45594000000E+02  0.51100000000E-03 0.  1.
         11   -1    0    0    0    0 -0.00000000000E+00 -0.00000000000E+00 -0.45593999997E+02  0.45594000000E+02  0.51100000000E-03 0. -1.
    9900012    2    1    2    0    0 -0.18269015671E+00  0.40311056077E+02 -0.53057617486E+01  0.50528859263E+02  0.29999998217E+02 0.  0.
         12    1    1    2    0    0  0.18269015671E+00 -0.40311056077E+02  0.53057617486E+01  0.40659140737E+02  0.00000000000E+00 0. -1.
         11    1    3    3    0    0 -0.34738429466E+00 -0.24553644936E+01  0.13330138368E+01  0.28153892794E+01  0.51100000000E-03 0. -1.
        -11    1    3    3    0    0  0.58201594216E+01  0.26976639175E+02 -0.12017030278E+02  0.30100204880E+02  0.51100000000E-03 0.  1.
        -12    1    3    3    0    0 -0.56554652837E+01  0.15789781395E+02  0.53782546924E+01  0.17613265104E+02  0.00000000000E+00 0.  1.
</event>
<event>
 7    1  0.1161807E-013  0.5052886E+02  0.7816164E-02  0.1300439E+00
        -11   -1    0    0    0    0  0.00000000000E+00  0.00000000000E+00  0.45593999997E+02  0.45594000000E+02  0.51100000000E-03 0. -1.
         11   -1    0    0    0    0 -0.00000000000E+00 -0.00000000000E+00 -0.45593999997E+02  0.45594000000E+02  0.51100000000E-03 0.  1.
    9900012    2    1    2    0    0 -0.11340979156E+02  0.36531956187E+02 -0.13782733129E+02  0.50528863713E+02  0.30000011743E+02 0.  0.
         12    1    1    2    0    0  0.11340979156E+02 -0.36531956187E+02  0.13782733129E+02  0.40659136287E+02  0.00000000000E+00 0. -1.
         11    1    3    3    0    0 -0.65829193903E+01  0.46824261352E+01 -0.60925881163E+01  0.10118279124E+02  0.51100000000E-03 0. -1.
        -11    1    3    3    0    0 -0.31985455351E+01  0.17608385214E+02 -0.15864856270E+02  0.23916094750E+02  0.51100000000E-03 0.  1.
         12    1    3    3    0    0 -0.15595142310E+01  0.14241144837E+02  0.81747112573E+01  0.16494489839E+02  0.00000000000E+00 0. -1.
</event>
<event>
 7    1  0.1161807E-013  0.5052887E+02  0.7816164E-02  0.1300439E+00
        -11   -1    0    0    0    0  0.00000000000E+00  0.00000000000E+00  0.45593999997E+02  0.45594000000E+02  0.51100000000E-03 0. -1.
         11   -1    0    0    0    0 -0.00000000000E+00 -0.00000000000E+00 -0.45593999997E+02  0.45594000000E+02  0.51100000000E-03 0.  1.
    9900012    2    1    2    0    0  0.14687779850E+02 -0.84097581797E+01 -0.36969045517E+02  0.50528865282E+02  0.30000016511E+02 0.  0.
         12    1    1    2    0    0 -0.14687779850E+02  0.84097581797E+01  0.36969045517E+02  0.40659134718E+02  0.00000000000E+00 0. -1.
         11    1    3    3    0    0  0.80479429402E+01 -0.11599629240E+02 -0.14560011506E+02  0.20280895429E+02  0.51100000000E-03 0. -1.
        -11    1    3    3    0    0  0.58278664349E+01 -0.38279238180E+01 -0.23587791983E+00  0.69765798637E+01  0.51100000000E-03 0.  1.
        -12    1    3    3    0    0  0.81197047465E+00  0.70177948781E+01 -0.22173156091E+02  0.23271389990E+02  0.00000000000E+00 0.  1.
</event>
<event>
 7    1  0.1161807E-013  0.5052886E+02  0.7816164E-02  0.1300439E+00
        -11   -1    0    0    0    0  0.00000000000E+00  0.00000000000E+00  0.45593999997E+02  0.45594000000E+02  0.51100000000E-03 0. -1.
         11   -1    0    0    0    0 -0.00000000000E+00 -0.00000000000E+00 -0.45593999997E+02  0.45594000000E+02  0.51100000000E-03 0.  1.
    9900012    2    1    2    0    0 -0.19264679052E+02 -0.22431687259E+02  0.27908017553E+02  0.50528857166E+02  0.29999991842E+02 0.  0.
        -12    1    1    2    0    0  0.19264679052E+02  0.22431687259E+02 -0.27908017553E+02  0.40659142834E+02  0.00000000000E+00 0.  1.
         11    1    3    3    0    0 -0.17150984850E+02 -0.20887848405E+02  0.84362120648E+01  0.28313038808E+02  0.51100000000E-03 0. -1.
        -11    1    3    3    0    0  0.27451577381E+01  0.19424906290E+01  0.24127090072E+01  0.41388797839E+01  0.51100000000E-03 0.  1.
        -12    1    3    3    0    0 -0.48588519397E+01 -0.34863294833E+01  0.17059096481E+02  0.18076938574E+02  0.00000000000E+00 0.  1.
</event>
<event>
 7    1  0.1161807E-013  0.5052886E+02  0.7816164E-02  0.1300439E+00
        -11   -1    0    0    0    0  0.00000000000E+00  0.00000000000E+00  0.45593999997E+02  0.45594000000E+02  0.51100000000E-03 0. -1.
         11   -1    0    0    0    0 -0.00000000000E+00 -0.00000000000E+00 -0.45593999997E+02  0.45594000000E+02  0.51100000000E-03 0.  1.
    9900012    2    1    2    0    0  0.39585275753E+01 -0.33373562956E+02  0.22884518514E+02  0.50528857946E+02  0.29999994213E+02 0.  0.
        -12    1    1    2    0    0 -0.39585275753E+01  0.33373562956E+02 -0.22884518514E+02  0.40659142054E+02  0.00000000000E+00 0.  1.
         11    1    3    3    0    0 -0.21048770716E+01  0.96168440811E-01  0.68419470935E-01  0.21081834220E+01  0.51100000000E-03 0. -1.
        -11    1    3    3    0    0  0.71916313253E+01 -0.11261519915E+02 -0.36513530362E+01  0.13851850821E+02  0.51100000000E-03 0.  1.
        -12    1    3    3    0    0 -0.11282266784E+01 -0.22208211481E+02  0.26467452079E+02  0.34568823703E+02  0.00000000000E+00 0.  1.
</event>
<event>
 7    1  0.1161807E-013  0.5052886E+02  0.7816164E-02  0.1300439E+00
        -11   -1    0    0    0    0  0.00000000000E+00  0.00000000000E+00  0.45593999997E+02  0.45594000000E+02  0.51100000000E-03 0. -1.
         11   -1    0    0    0    0 -0.00000000000E+00 -0.00000000000E+00 -0.45593999997E+02  0.45594000000E+02  0.51100000000E-03 0.  1.
    9900012    2    1    2    0    0  0.47679728534E+01  0.14304962827E+02 -0.37759769139E+02  0.50528859674E+02  0.29999999466E+02 0.  0.
         12    1    1    2    0    0 -0.47679728534E+01 -0.14304962827E+02  0.37759769139E+02  0.40659140326E+02  0.00000000000E+00 0. -1.
         11    1    3    3    0    0 -0.30740053317E+01 -0.38327226581E+01 -0.18013477805E+02  0.18671493102E+02  0.51100000000E-03 0. -1.
        -11    1    3    3    0    0  0.17341676537E+01  0.52994257802E+01 -0.16301658520E+02  0.17228909478E+02  0.51100000000E-03 0.  1.
        -12    1    3    3    0    0  0.61078105314E+01  0.12838259705E+02 -0.34446328136E+01  0.14628457094E+02  0.00000000000E+00 0.  1.
</event>
<event>
 7    1  0.1161807E-013  0.5052886E+02  0.7816164E-02  0.1300439E+00
        -11   -1    0    0    0    0  0.00000000000E+00  0.00000000000E+00  0.45593999997E+02  0.45594000000E+02  0.51100000000E-03 0.  1.
         11   -1    0    0    0    0 -0.00000000000E+00 -0.00000000000E+00 -0.45593999997E+02  0.45594000000E+02  0.51100000000E-03 0. -1.
    9900012    2    1    2    0    0 -0.38222866971E+02 -0.80403846814E+01 -0.11292926075E+02  0.50528861732E+02  0.30000005722E+02 0.  0.
         12    1    1    2    0    0  0.38222866971E+02  0.80403846814E+01  0.11292926075E+02  0.40659138268E+02  0.00000000000E+00 0. -1.
         11    1    3    3    0    0 -0.12237062589E+02  0.61469686292E+01 -0.27914326198E+01  0.13975801246E+02  0.51100000000E-03 0.  1.
        -11    1    3    3    0    0 -0.15446476254E+02 -0.15942636125E+02 -0.12096261618E+02  0.25280047877E+02  0.51100000000E-03 0. -1.
         12    1    3    3    0    0 -0.10539328128E+02  0.17552828140E+01  0.35947681629E+01  0.11273012609E+02  0.00000000000E+00 0. -1.
</event>
<event>
 7    1  0.1161807E-013  0.5052886E+02  0.7816164E-02  0.1300439E+00
        -11   -1    0    0    0    0  0.00000000000E+00  0.00000000000E+00  0.45593999997E+02  0.45594000000E+02  0.51100000000E-03 0. -1.
         11   -1    0    0    0    0 -0.00000000000E+00 -0.00000000000E+00 -0.45593999997E+02  0.45594000000E+02  0.51100000000E-03 0.  1.
    9900012    2    1    2    0    0  0.17821814846E+02  0.11350369640E+02  0.34737843460E+02  0.50528859040E+02  0.29999997537E+02 0.  0.
        -12    1    1    2    0    0 -0.17821814846E+02 -0.11350369640E+02 -0.34737843460E+02  0.40659140960E+02  0.00000000000E+00 0.  1.
         11    1    3    3    0    0  0.61669864507E+01  0.80546330607E+01  0.85529354157E+00  0.10180391099E+02  0.51100000000E-03 0. -1.
        -11    1    3    3    0    0  0.57060571055E+01  0.35246666911E+00 -0.10604223107E+00  0.57179161991E+01  0.51100000000E-03 0.  1.
         12    1    3    3    0    0  0.59487712902E+01  0.29432699106E+01  0.33988592149E+02  0.34630551742E+02  0.00000000000E+00 0. -1.
</event>
<event>
 7    1  0.1161807E-013  0.5052886E+02  0.7816164E-02  0.1300439E+00
        -11   -1    0    0    0    0  0.00000000000E+00  0.00000000000E+00  0.45593999997E+02  0.45594000000E+02  0.51100000000E-03 0. -1.
         11   -1    0    0    0    0 -0.00000000000E+00 -0.00000000000E+00 -0.45593999997E+02  0.45594000000E+02  0.51100000000E-03 0.  1.
    9900012    2    1    2    0    0 -0.25839288284E+02  0.17349375432E+02 -0.26162871661E+02  0.50528862030E+02  0.30000006627E+02 0.  0.
         12    1    1    2    0    0  0.25839288284E+02 -0.17349375432E+02  0.26162871661E+02  0.40659137970E+02  0.00000000000E+00 0. -1.
         11    1    3    3    0    0 -0.72724948014E+01  0.73155705574E+01 -0.46218376744E+01  0.11303456859E+02  0.51100000000E-03 0. -1.
        -11    1    3    3    0    0 -0.23090730078E+02  0.70501262523E+01 -0.93612051644E+01  0.25894367305E+02  0.51100000000E-03 0.  1.
        -12    1    3    3    0    0  0.45239365962E+01  0.29836786227E+01 -0.12179828822E+02  0.13331037866E+02  0.00000000000E+00 0.  1.
</event>
<event>
 7    1  0.1161807E-013  0.5052886E+02  0.7816164E-02  0.1300439E+00
        -11   -1    0    0    0    0  0.00000000000E+00  0.00000000000E+00  0.45593999997E+02  0.45594000000E+02  0.51100000000E-03 0. -1.
         11   -1    0    0    0    0 -0.00000000000E+00 -0.00000000000E+00 -0.45593999997E+02  0.45594000000E+02  0.51100000000E-03 0.  1.
    9900012    2    1    2    0    0  0.22736935373E+02 -0.20489489666E+02 -0.26765243109E+02  0.50528860121E+02  0.30000000825E+02 0.  0.
         12    1    1    2    0    0 -0.22736935373E+02  0.20489489666E+02  0.26765243109E+02  0.40659139879E+02  0.00000000000E+00 0. -1.
         11    1    3    3    0    0  0.98306929573E+01 -0.25103771864E+01 -0.11784071745E+02  0.15550204654E+02  0.51100000000E-03 0.  1.
        -11    1    3    3    0    0  0.42810593929E+00  0.45132834808E+01  0.10718279774E+01  0.46585210043E+01  0.51100000000E-03 0. -1.
        -12    1    3    3    0    0  0.12478136477E+02 -0.22492395961E+02 -0.16052999342E+02  0.30320134463E+02  0.00000000000E+00 0.  1.
</event>
<event>
 7    1  0.1161807E-013  0.5052885E+02  0.7816164E-02  0.1300439E+00
        -11   -1    0    0    0    0  0.00000000000E+00  0.00000000000E+00  0.45593999997E+02  0.45594000000E+02  0.51100000000E-03 0. -1.
         11   -1    0    0    0    0 -0.00000000000E+00 -0.00000000000E+00 -0.45593999997E+02  0.45594000000E+02  0.51100000000E-03 0.  1.
    9900012    2    1    2    0    0 -0.80893257740E+01  0.29014942856E+02  0.27310473675E+02  0.50528854992E+02  0.29999985234E+02 0.  0.
        -12    1    1    2    0    0  0.80893257740E+01 -0.29014942856E+02 -0.27310473675E+02  0.40659145008E+02  0.00000000000E+00 0.  1.
         11    1    3    3    0    0 -0.84280360203E+01  0.18213434300E+02  0.21619526767E+01  0.20185019688E+02  0.51100000000E-03 0.  1.
        -11    1    3    3    0    0 -0.23293515954E+01  0.12677652435E+02  0.15502300790E+02  0.20161103148E+02  0.51100000000E-03 0. -1.
        -12    1    3    3    0    0  0.26680618417E+01 -0.18761438788E+01  0.96462202089E+01  0.10182732156E+02  0.00000000000E+00 0.  1.
</event>
<event>
 7    1  0.1161807E-013  0.5052886E+02  0.7816164E-02  0.1300439E+00
        -11   -1    0    0    0    0  0.00000000000E+00  0.00000000000E+00  0.45593999997E+02  0.45594000000E+02  0.51100000000E-03 0. -1.
         11   -1    0    0    0    0 -0.00000000000E+00 -0.00000000000E+00 -0.45593999997E+02  0.45594000000E+02  0.51100000000E-03 0.  1.
    9900012    2    1    2    0    0 -0.20870824930E+01  0.25931395573E+02  0.31246962681E+02  0.50528857529E+02  0.29999992945E+02 0.  0.
        -12    1    1    2    0    0  0.20870824930E+01 -0.25931395573E+02 -0.31246962681E+02  0.40659142471E+02  0.00000000000E+00 0.  1.
         11    1    3    3    0    0  0.33640568731E+01  0.13617825423E+02  0.67371180319E+01  0.15561195569E+02  0.51100000000E-03 0. -1.
        -11    1    3    3    0    0 -0.38067087675E+01  0.16267778987E+01 -0.31939179701E+01  0.52286279494E+01  0.51100000000E-03 0.  1.
        -12    1    3    3    0    0 -0.16444305986E+01  0.10686792251E+02  0.27703762619E+02  0.29739034010E+02  0.00000000000E+00 0.  1.
</event>
<event>
 7    1  0.1161807E-013  0.5052885E+02  0.7816164E-02  0.1300439E+00
        -11   -1    0    0    0    0  0.00000000000E+00  0.00000000000E+00  0.45593999997E+02  0.45594000000E+02  0.51100000000E-03 0. -1.
         11   -1    0    0    0    0 -0.00000000000E+00 -0.00000000000E+00 -0.45593999997E+02  0.45594000000E+02  0.51100000000E-03 0.  1.
    9900012    2    1    2    0    0  0.18919459601E+02 -0.47557612505E+01  0.35673570223E+02  0.50528845691E+02  0.29999956962E+02 0.  0.
        -12    1    1    2    0    0 -0.18919459601E+02  0.47557612505E+01 -0.35673570223E+02  0.40659154309E+02  0.00000000000E+00 0.  1.
         11    1    3    3    0    0  0.45055005277E+01 -0.36638174542E+01  0.17319715625E+02  0.18267338145E+02  0.51100000000E-03 0. -1.
        -11    1    3    3    0    0 -0.56348313364E+00 -0.83862476254E+01  0.11507675161E+02  0.14250377200E+02  0.51100000000E-03 0.  1.
        -12    1    3    3    0    0  0.14977442207E+02  0.72943038291E+01  0.68461794375E+01  0.18011130345E+02  0.00000000000E+00 0.  1.
</event>
<event>
 7    1  0.1161807E-013  0.5052886E+02  0.7816164E-02  0.1300439E+00
        -11   -1    0    0    0    0  0.00000000000E+00  0.00000000000E+00  0.45593999997E+02  0.45594000000E+02  0.51100000000E-03 0. -1.
         11   -1    0    0    0    0 -0.00000000000E+00 -0.00000000000E+00 -0.45593999997E+02  0.45594000000E+02  0.51100000000E-03 0.  1.
    9900012    2    1    2    0    0 -0.69876629760E+01  0.18956160992E+02  0.35284583439E+02  0.50528864472E+02  0.30000014048E+02 0.  0.
        -12    1    1    2    0    0  0.69876629760E+01 -0.18956160992E+02 -0.35284583439E+02  0.40659135528E+02  0.00000000000E+00 0.  1.
         11    1    3    3    0    0 -0.39673201706E+00  0.52742683543E+01  0.70659900046E-02  0.52891732016E+01  0.51100000000E-03 0. -1.
        -11    1    3    3    0    0 -0.11618313725E+01 -0.46294692190E+01 -0.38114154751E+00  0.47882258226E+01  0.51100000000E-03 0.  1.
         12    1    3    3    0    0 -0.54290995865E+01  0.18311361857E+02  0.35658658997E+02  0.40451465447E+02  0.00000000000E+00 0. -1.
</event>
<event>
 7    1  0.1161807E-013  0.5052885E+02  0.7816164E-02  0.1300439E+00
        -11   -1    0    0    0    0  0.00000000000E+00  0.00000000000E+00  0.45593999997E+02  0.45594000000E+02  0.51100000000E-03 0. -1.
         11   -1    0    0    0    0 -0.00000000000E+00 -0.00000000000E+00 -0.45593999997E+02  0.45594000000E+02  0.51100000000E-03 0.  1.
    9900012    2    1    2    0    0 -0.25768946480E+01  0.23467977598E+02  0.33102565403E+02  0.50528853491E+02  0.29999980672E+02 0.  0.
        -12    1    1    2    0    0  0.25768946480E+01 -0.23467977598E+02 -0.33102565403E+02  0.40659146509E+02  0.00000000000E+00 0.  1.
         11    1    3    3    0    0  0.40287107748E+01  0.53977416819E+01  0.75396051145E+01  0.10109983745E+02  0.51100000000E-03 0. -1.
        -11    1    3    3    0    0  0.41946226070E+01 -0.12200100032E+01  0.15544945890E+02  0.16147093429E+02  0.51100000000E-03 0.  1.
         12    1    3    3    0    0 -0.10800228030E+02  0.19290245919E+02  0.10018014398E+02  0.24271776317E+02  0.00000000000E+00 0. -1.
</event>
<event>
 7    1  0.1161807E-013  0.5052886E+02  0.7816164E-02  0.1300439E+00
        -11   -1    0    0    0    0  0.00000000000E+00  0.00000000000E+00  0.45593999997E+02  0.45594000000E+02  0.51100000000E-03 0. -1.
         11   -1    0    0    0    0 -0.00000000000E+00 -0.00000000000E+00 -0.45593999997E+02  0.45594000000E+02  0.51100000000E-03 0.  1.
    9900012    2    1    2    0    0 -0.76367744256E+01 -0.27961018825E+02  0.28513628299E+02  0.50528857164E+02  0.29999991837E+02 0.  0.
        -12    1    1    2    0    0  0.76367744256E+01  0.27961018825E+02 -0.28513628299E+02  0.40659142836E+02  0.00000000000E+00 0.  1.
         11    1    3    3    0    0  0.65524883885E+00  0.11196325313E+01  0.54208960532E+01  0.55739610985E+01  0.51100000000E-03 0. -1.
        -11    1    3    3    0    0 -0.12186526868E+01 -0.78265456424E+01  0.21015405133E+02  0.22458565943E+02  0.51100000000E-03 0.  1.
        -12    1    3    3    0    0 -0.70733705777E+01 -0.21254105714E+02  0.20773271121E+01  0.22496330122E+02  0.00000000000E+00 0.  1.
</event>
<event>
 7    1  0.1318832E-013  0.5052887E+02  0.7816164E-02  0.1300439E+00
        -11   -1    0    0    0    0  0.00000000000E+00  0.00000000000E+00  0.45593999997E+02  0.45594000000E+02  0.51100000000E-03 0. -1.
         11   -1    0    0    0    0 -0.00000000000E+00 -0.00000000000E+00 -0.45593999997E+02  0.45594000000E+02  0.51100000000E-03 0.  1.
    9900012    2    1    2    0    0  0.32893670283E+01  0.10615125486E+02 -0.39110921679E+02  0.50528867949E+02  0.30000024619E+02 0.  0.
         12    1    1    2    0    0 -0.32893670283E+01 -0.10615125486E+02  0.39110921679E+02  0.40659132051E+02  0.00000000000E+00 0. -1.
         11    1    3    3    0    0 -0.32456670724E+01 -0.54582444081E+01 -0.25194340890E+01  0.68318617633E+01  0.51100000000E-03 0. -1.
        -11    1    3    3    0    0 -0.35681199289E+01  0.53759085308E+01 -0.22185518236E+02  0.23104741765E+02  0.51100000000E-03 0.  1.
        -12    1    3    3    0    0  0.10103154030E+02  0.10697461364E+02 -0.14405969354E+02  0.20592264421E+02  0.00000000000E+00 0.  1.
</event>
<event>
 7    1  0.1161807E-013  0.5052886E+02  0.7816164E-02  0.1300439E+00
        -11   -1    0    0    0    0  0.00000000000E+00  0.00000000000E+00  0.45593999997E+02  0.45594000000E+02  0.51100000000E-03 0. -1.
         11   -1    0    0    0    0 -0.00000000000E+00 -0.00000000000E+00 -0.45593999997E+02  0.45594000000E+02  0.51100000000E-03 0.  1.
    9900012    2    1    2    0    0  0.38613955331E+01  0.22259678060E+02 -0.33804767094E+02  0.50528856858E+02  0.29999990904E+02 0.  0.
         12    1    1    2    0    0 -0.38613955331E+01 -0.22259678060E+02  0.33804767094E+02  0.40659143142E+02  0.00000000000E+00 0. -1.
         11    1    3    3    0    0  0.71191704610E+01  0.61607681973E+01  0.23243080146E+01  0.96974254749E+01  0.51100000000E-03 0. -1.
        -11    1    3    3    0    0 -0.42430956757E+01  0.81565648401E+01 -0.10375970080E+02  0.13863411062E+02  0.51100000000E-03 0.  1.
        -12    1    3    3    0    0  0.98532074779E+00  0.79423450231E+01 -0.25753105028E+02  0.26968020321E+02  0.00000000000E+00 0.  1.
</event>
<event>
 7    1  0.1161807E-013  0.5052886E+02  0.7816164E-02  0.1300439E+00
        -11   -1    0    0    0    0  0.00000000000E+00  0.00000000000E+00  0.45593999997E+02  0.45594000000E+02  0.51100000000E-03 0. -1.
         11   -1    0    0    0    0 -0.00000000000E+00 -0.00000000000E+00 -0.45593999997E+02  0.45594000000E+02  0.51100000000E-03 0.  1.
    9900012    2    1    2    0    0  0.15262468062E+02  0.28352780893E+01 -0.37579038691E+02  0.50528857336E+02  0.29999992360E+02 0.  0.
         12    1    1    2    0    0 -0.15262468062E+02 -0.28352780893E+01  0.37579038691E+02  0.40659142664E+02  0.00000000000E+00 0. -1.
         11    1    3    3    0    0  0.60083226480E+01 -0.48798585349E+01 -0.16455199737E+02  0.18184789221E+02  0.51100000000E-03 0. -1.
        -11    1    3    3    0    0  0.50041998896E+01 -0.65510863171E+01 -0.27355304208E+01  0.86857282604E+01  0.51100000000E-03 0.  1.
        -12    1    3    3    0    0  0.42499455245E+01  0.14266222941E+02 -0.18388308533E+02  0.23658339855E+02  0.00000000000E+00 0.  1.
</event>
<event>
 7    1  0.1161807E-013  0.5052885E+02  0.7816164E-02  0.1300439E+00
        -11   -1    0    0    0    0  0.00000000000E+00  0.00000000000E+00  0.45593999997E+02  0.45594000000E+02  0.51100000000E-03 0. -1.
         11   -1    0    0    0    0 -0.00000000000E+00 -0.00000000000E+00 -0.45593999997E+02  0.45594000000E+02  0.51100000000E-03 0.  1.
    9900012    2    1    2    0    0  0.31559437230E+01  0.25733905570E+01 -0.40454716747E+02  0.50528850638E+02  0.29999972000E+02 0.  0.
         12    1    1    2    0    0 -0.31559437230E+01 -0.25733905570E+01  0.40454716747E+02  0.40659149362E+02  0.00000000000E+00 0. -1.
         11    1    3    3    0    0 -0.16914535246E+01  0.72602019502E+01 -0.14990049933E+02  0.16741360298E+02  0.51100000000E-03 0.  1.
        -11    1    3    3    0    0  0.97680595037E+00 -0.62467263236E+01  0.15030194801E+01  0.64988312369E+01  0.51100000000E-03 0. -1.
         12    1    3    3    0    0  0.38705912972E+01  0.15599149304E+01 -0.26967686295E+02  0.27288659103E+02  0.00000000000E+00 0. -1.
</event>
<event>
 7    1  0.1161807E-013  0.5052887E+02  0.7816164E-02  0.1300439E+00
        -11   -1    0    0    0    0  0.00000000000E+00  0.00000000000E+00  0.45593999997E+02  0.45594000000E+02  0.51100000000E-03 0. -1.
         11   -1    0    0    0    0 -0.00000000000E+00 -0.00000000000E+00 -0.45593999997E+02  0.45594000000E+02  0.51100000000E-03 0.  1.
    9900012    2    1    2    0    0  0.24468174600E+02 -0.17547497781E+01  0.32425212845E+02  0.50528866425E+02  0.30000019985E+02 0.  0.
        -12    1    1    2    0    0 -0.24468174600E+02  0.17547497781E+01 -0.32425212845E+02  0.40659133575E+02  0.00000000000E+00 0.  1.
         11    1    3    3    0    0  0.58836809716E+01  0.41916551155E+01  0.10587934158E+02  0.12817645040E+02  0.51100000000E-03 0. -1.
        -11    1    3    3    0    0 -0.33019051126E+01  0.24367607234E+00  0.12825683976E+02  0.13246136234E+02  0.51100000000E-03 0.  1.
         12    1    3    3    0    0  0.21886398741E+02 -0.61900809660E+01  0.90115947112E+01  0.24465085151E+02  0.00000000000E+00 0. -1.
</event>
<event>
 7    1 -0.4208997E-013  0.5052882E+02  0.7816164E-02  0.1300439E+00
        -11   -1    0    0    0    0  0.00000000000E+00  0.00000000000E+00  0.45593999997E+02  0.45594000000E+02  0.51100000000E-03 0. -1.
         11   -1    0    0    0    0 -0.00000000000E+00 -0.00000000000E+00 -0.45593999997E+02  0.45594000000E+02  0.51100000000E-03 0.  1.
    9900012    2    1    2    0    0  0.20855170553E+02 -0.21257834784E+02  0.27682759839E+02  0.50528820583E+02  0.29999880645E+02 0.  0.
        -12    1    1    2    0    0 -0.20855170553E+02  0.21257834784E+02 -0.27682759839E+02  0.40659179417E+02  0.00000000000E+00 0.  1.
         11    1    3    3    0    0  0.12958322348E+01  0.11230403607E+01  0.13868783745E+01  0.22054098756E+01  0.51100000000E-03 0. -1.
        -11    1    3    3    0    0  0.26147122447E+02 -0.19954086774E+02  0.18139448747E+02  0.37561645230E+02  0.51100000000E-03 0.  1.
        -12    1    3    3    0    0 -0.65877841291E+01 -0.24267883707E+01  0.81564327174E+01  0.10761765478E+02  0.00000000000E+00 0.  1.
</event>
<event>
 7    1  0.1161807E-013  0.5052887E+02  0.7816164E-02  0.1300439E+00
        -11   -1    0    0    0    0  0.00000000000E+00  0.00000000000E+00  0.45593999997E+02  0.45594000000E+02  0.51100000000E-03 0. -1.
         11   -1    0    0    0    0 -0.00000000000E+00 -0.00000000000E+00 -0.45593999997E+02  0.45594000000E+02  0.51100000000E-03 0.  1.
    9900012    2    1    2    0    0 -0.12898177924E+02 -0.40021716113E+01  0.38350804631E+02  0.50528873260E+02  0.30000040762E+02 0.  0.
        -12    1    1    2    0    0  0.12898177924E+02  0.40021716113E+01 -0.38350804631E+02  0.40659126740E+02  0.00000000000E+00 0.  1.
         11    1    3    3    0    0 -0.33630302744E+01 -0.57219164389E+01  0.10149284277E+02  0.12126758509E+02  0.51100000000E-03 0. -1.
        -11    1    3    3    0    0 -0.24002537155E+01 -0.66414979750E+01 -0.10629746076E+01  0.71414724342E+01  0.51100000000E-03 0.  1.
        -12    1    3    3    0    0 -0.71348939341E+01  0.83612428025E+01  0.29264494962E+02  0.31260642317E+02  0.00000000000E+00 0.  1.
</event>
<event>
 7    1  0.1161807E-013  0.5052885E+02  0.7816164E-02  0.1300439E+00
        -11   -1    0    0    0    0  0.00000000000E+00  0.00000000000E+00  0.45593999997E+02  0.45594000000E+02  0.51100000000E-03 0. -1.
         11   -1    0    0    0    0 -0.00000000000E+00 -0.00000000000E+00 -0.45593999997E+02  0.45594000000E+02  0.51100000000E-03 0.  1.
    9900012    2    1    2    0    0  0.24955965289E+01 -0.16442475011E+02 -0.37102338882E+02  0.50528849283E+02  0.29999967881E+02 0.  0.
         12    1    1    2    0    0 -0.24955965289E+01  0.16442475011E+02  0.37102338882E+02  0.40659150717E+02  0.00000000000E+00 0. -1.
         11    1    3    3    0    0  0.28907155155E+01 -0.26904275814E+00 -0.69703976171E+01  0.75508319674E+01  0.51100000000E-03 0. -1.
        -11    1    3    3    0    0 -0.10429434440E+02 -0.80589270679E+01 -0.39024379632E+01  0.13745851394E+02  0.51100000000E-03 0.  1.
        -12    1    3    3    0    0  0.10034315454E+02 -0.81145051848E+01 -0.26229503302E+02  0.29232165922E+02  0.00000000000E+00 0.  1.
</event>
<event>
 7    1  0.1161807E-013  0.5052886E+02  0.7816164E-02  0.1300439E+00
        -11   -1    0    0    0    0  0.00000000000E+00  0.00000000000E+00  0.45593999997E+02  0.45594000000E+02  0.51100000000E-03 0. -1.
         11   -1    0    0    0    0 -0.00000000000E+00 -0.00000000000E+00 -0.45593999997E+02  0.45594000000E+02  0.51100000000E-03 0.  1.
    9900012    2    1    2    0    0  0.30088513394E+01 -0.12734574435E+02 -0.38496016516E+02  0.50528857608E+02  0.29999993185E+02 0.  0.
         12    1    1    2    0    0 -0.30088513394E+01  0.12734574435E+02  0.38496016516E+02  0.40659142392E+02  0.00000000000E+00 0. -1.
         11    1    3    3    0    0  0.63938041287E+01 -0.13870632102E+02 -0.19176583754E+02  0.24515638496E+02  0.51100000000E-03 0.  1.
        -11    1    3    3    0    0  0.47882953359E+01 -0.42564964908E+01 -0.32212890333E+01  0.71709300580E+01  0.51100000000E-03 0. -1.
         12    1    3    3    0    0 -0.81732481252E+01  0.53925541572E+01 -0.16098143729E+02  0.18842289054E+02  0.00000000000E+00 0. -1.
</event>
<event>
 7    1  0.1161807E-013  0.5052887E+02  0.7816164E-02  0.1300439E+00
        -11   -1    0    0    0    0  0.00000000000E+00  0.00000000000E+00  0.45593999997E+02  0.45594000000E+02  0.51100000000E-03 0. -1.
         11   -1    0    0    0    0 -0.00000000000E+00 -0.00000000000E+00 -0.45593999997E+02  0.45594000000E+02  0.51100000000E-03 0.  1.
    9900012    2    1    2    0    0  0.36324410975E+01  0.16071786681E+02  0.37170797697E+02  0.50528866255E+02  0.30000019468E+02 0.  0.
        -12    1    1    2    0    0 -0.36324410975E+01 -0.16071786681E+02 -0.37170797697E+02  0.40659133745E+02  0.00000000000E+00 0.  1.
         11    1    3    3    0    0  0.12237378380E+02  0.14798532275E+02  0.30378332371E+02  0.35938740448E+02  0.51100000000E-03 0. -1.
        -11    1    3    3    0    0 -0.57969909610E+01  0.48128976188E+01  0.66819521143E+01  0.10070629176E+02  0.51100000000E-03 0.  1.
        -12    1    3    3    0    0 -0.28079463218E+01 -0.35396432124E+01  0.11051321224E+00  0.45194966298E+01  0.00000000000E+00 0.  1.
</event>
<event>
 7    1  0.1161807E-013  0.5052886E+02  0.7816164E-02  0.1300439E+00
        -11   -1    0    0    0    0  0.00000000000E+00  0.00000000000E+00  0.45593999997E+02  0.45594000000E+02  0.51100000000E-03 0. -1.
         11   -1    0    0    0    0 -0.00000000000E+00 -0.00000000000E+00 -0.45593999997E+02  0.45594000000E+02  0.51100000000E-03 0.  1.
    9900012    2    1    2    0    0  0.29879590435E+02  0.23347930104E+02 -0.14671403307E+02  0.50528857858E+02  0.29999993945E+02 0.  0.
         12    1    1    2    0    0 -0.29879590435E+02 -0.23347930104E+02  0.14671403307E+02  0.40659142142E+02  0.00000000000E+00 0. -1.
         11    1    3    3    0    0  0.61718006668E+01  0.63272124793E+01  0.73655524057E+01  0.11505481465E+02  0.51100000000E-03 0. -1.
        -11    1    3    3    0    0  0.52565941957E+01  0.85850148753E+01 -0.15400194240E+01  0.10183610511E+02  0.51100000000E-03 0.  1.
         12    1    3    3    0    0  0.18451195573E+02  0.84357027495E+01 -0.20496936289E+02  0.28839765883E+02  0.00000000000E+00 0. -1.
</event>
<event>
 7    1  0.1161807E-013  0.5052886E+02  0.7816164E-02  0.1300439E+00
        -11   -1    0    0    0    0  0.00000000000E+00  0.00000000000E+00  0.45593999997E+02  0.45594000000E+02  0.51100000000E-03 0. -1.
         11   -1    0    0    0    0 -0.00000000000E+00 -0.00000000000E+00 -0.45593999997E+02  0.45594000000E+02  0.51100000000E-03 0.  1.
    9900012    2    1    2    0    0 -0.98887492267E+01  0.26996288720E+01 -0.39345778630E+02  0.50528860150E+02  0.30000000913E+02 0.  0.
         12    1    1    2    0    0  0.98887492267E+01 -0.26996288720E+01  0.39345778630E+02  0.40659139850E+02  0.00000000000E+00 0. -1.
         11    1    3    3    0    0 -0.12329165455E+01 -0.51484154410E+01 -0.11850851947E+02  0.12979559195E+02  0.51100000000E-03 0. -1.
        -11    1    3    3    0    0 -0.52868727580E+01 -0.51844413337E+01 -0.21637099666E+02  0.22869051964E+02  0.51100000000E-03 0.  1.
         12    1    3    3    0    0 -0.33689599232E+01  0.13032485647E+02 -0.58578270165E+01  0.14680248991E+02  0.00000000000E+00 0. -1.
</event>
<event>
 7    1  0.1161807E-013  0.5052885E+02  0.7816164E-02  0.1300439E+00
        -11   -1    0    0    0    0  0.00000000000E+00  0.00000000000E+00  0.45593999997E+02  0.45594000000E+02  0.51100000000E-03 0. -1.
         11   -1    0    0    0    0 -0.00000000000E+00 -0.00000000000E+00 -0.45593999997E+02  0.45594000000E+02  0.51100000000E-03 0.  1.
    9900012    2    1    2    0    0  0.14275111091E+02  0.14063719435E+02  0.35377946640E+02  0.50528854541E+02  0.29999983861E+02 0.  0.
        -12    1    1    2    0    0 -0.14275111091E+02 -0.14063719435E+02 -0.35377946640E+02  0.40659145459E+02  0.00000000000E+00 0.  1.
         11    1    3    3    0    0  0.77357190868E+01  0.18690801669E+01  0.13549480585E+02  0.15713791231E+02  0.51100000000E-03 0. -1.
        -11    1    3    3    0    0  0.38274724368E+01  0.36128952245E+01  0.24788213335E+02  0.25340838142E+02  0.51100000000E-03 0.  1.
        -12    1    3    3    0    0  0.27119195670E+01  0.85817440435E+01 -0.29597472794E+01  0.94742251675E+01  0.00000000000E+00 0.  1.
</event>
<event>
 7    1  0.1161807E-013  0.5052884E+02  0.7816164E-02  0.1300439E+00
        -11   -1    0    0    0    0  0.00000000000E+00  0.00000000000E+00  0.45593999997E+02  0.45594000000E+02  0.51100000000E-03 0. -1.
         11   -1    0    0    0    0 -0.00000000000E+00 -0.00000000000E+00 -0.45593999997E+02  0.45594000000E+02  0.51100000000E-03 0.  1.
    9900012    2    1    2    0    0  0.24048679882E+01  0.72855226906E+01  0.39928748996E+02  0.50528840794E+02  0.29999942078E+02 0.  0.
        -12    1    1    2    0    0 -0.24048679882E+01 -0.72855226906E+01 -0.39928748996E+02  0.40659159206E+02  0.00000000000E+00 0.  1.
         11    1    3    3    0    0  0.10292037989E+02 -0.76302621013E+01  0.17907133318E+02  0.22018455206E+02  0.51100000000E-03 0. -1.
        -11    1    3    3    0    0 -0.11436936293E+01 -0.15133917608E+00  0.23667794949E+00  0.11776906966E+01  0.51100000000E-03 0.  1.
         12    1    3    3    0    0 -0.67434763715E+01  0.15067123968E+02  0.21784937728E+02  0.27332694892E+02  0.00000000000E+00 0. -1.
</event>
<event>
 7    1  0.1161807E-013  0.5052886E+02  0.7816164E-02  0.1300439E+00
        -11   -1    0    0    0    0  0.00000000000E+00  0.00000000000E+00  0.45593999997E+02  0.45594000000E+02  0.51100000000E-03 0.  1.
         11   -1    0    0    0    0 -0.00000000000E+00 -0.00000000000E+00 -0.45593999997E+02  0.45594000000E+02  0.51100000000E-03 0. -1.
    9900012    2    1    2    0    0 -0.12787875142E+02 -0.32396667919E+02  0.20978360482E+02  0.50528862633E+02  0.30000008460E+02 0.  0.
         12    1    1    2    0    0  0.12787875142E+02  0.32396667919E+02 -0.20978360482E+02  0.40659137367E+02  0.00000000000E+00 0. -1.
         11    1    3    3    0    0  0.33167368988E+00 -0.19493201769E+02  0.55579863786E+01  0.20272792987E+02  0.51100000000E-03 0. -1.
        -11    1    3    3    0    0 -0.46852639995E+01 -0.16074094410E+02  0.12081435413E+02  0.20646774366E+02  0.51100000000E-03 0.  1.
         12    1    3    3    0    0 -0.84342848326E+01  0.31706282600E+01  0.33389386905E+01  0.96092952801E+01  0.00000000000E+00 0. -1.
</event>
<event>
 7    1  0.1161807E-013  0.5052884E+02  0.7816164E-02  0.1300439E+00
        -11   -1    0    0    0    0  0.00000000000E+00  0.00000000000E+00  0.45593999997E+02  0.45594000000E+02  0.51100000000E-03 0. -1.
         11   -1    0    0    0    0 -0.00000000000E+00 -0.00000000000E+00 -0.45593999997E+02  0.45594000000E+02  0.51100000000E-03 0.  1.
    9900012    2    1    2    0    0  0.83961958390E+01 -0.34161711764E+02  0.20387453898E+02  0.50528844430E+02  0.29999953131E+02 0.  0.
        -12    1    1    2    0    0 -0.83961958390E+01  0.34161711764E+02 -0.20387453898E+02  0.40659155570E+02  0.00000000000E+00 0.  1.
         11    1    3    3    0    0  0.13176088268E+02 -0.27961971141E+02  0.22317649951E+02  0.38125564019E+02  0.51100000000E-03 0. -1.
        -11    1    3    3    0    0  0.12806946731E+01 -0.48976348763E+01  0.15499806587E+01  0.52942843266E+01  0.51100000000E-03 0.  1.
        -12    1    3    3    0    0 -0.60605871018E+01 -0.13021057463E+01 -0.34801767119E+01  0.71089960852E+01  0.00000000000E+00 0.  1.
</event>
<event>
 7    1  0.1161807E-013  0.5052886E+02  0.7816164E-02  0.1300439E+00
        -11   -1    0    0    0    0  0.00000000000E+00  0.00000000000E+00  0.45593999997E+02  0.45594000000E+02  0.51100000000E-03 0.  1.
         11   -1    0    0    0    0 -0.00000000000E+00 -0.00000000000E+00 -0.45593999997E+02  0.45594000000E+02  0.51100000000E-03 0. -1.
    9900012    2    1    2    0    0  0.77206950646E+01 -0.20017379208E+02  0.34537823135E+02  0.50528857983E+02  0.29999994326E+02 0.  0.
        -12    1    1    2    0    0 -0.77206950646E+01  0.20017379208E+02 -0.34537823135E+02  0.40659142017E+02  0.00000000000E+00 0.  1.
         11    1    3    3    0    0  0.80346887528E+01 -0.16904131249E+02  0.13387530575E+02  0.23011559091E+02  0.51100000000E-03 0. -1.
        -11    1    3    3    0    0 -0.17840462212E+01  0.51940961586E+01  0.17470329375E+02  0.18313215571E+02  0.51100000000E-03 0.  1.
         12    1    3    3    0    0  0.14700525331E+01 -0.83073441179E+01  0.36799631847E+01  0.92040833212E+01  0.00000000000E+00 0. -1.
</event>
<event>
 7    1  0.1161807E-013  0.5052886E+02  0.7816164E-02  0.1300439E+00
        -11   -1    0    0    0    0  0.00000000000E+00  0.00000000000E+00  0.45593999997E+02  0.45594000000E+02  0.51100000000E-03 0. -1.
         11   -1    0    0    0    0 -0.00000000000E+00 -0.00000000000E+00 -0.45593999997E+02  0.45594000000E+02  0.51100000000E-03 0.  1.
    9900012    2    1    2    0    0  0.75010179711E+01  0.10562175194E+02 -0.38540121505E+02  0.50528858580E+02  0.29999996139E+02 0.  0.
         12    1    1    2    0    0 -0.75010179711E+01 -0.10562175194E+02  0.38540121505E+02  0.40659141420E+02  0.00000000000E+00 0. -1.
         11    1    3    3    0    0  0.14396529950E+02  0.11565177519E+02 -0.12663151004E+02  0.22391266138E+02  0.51100000000E-03 0. -1.
        -11    1    3    3    0    0  0.16162132400E+01  0.14328694854E+01 -0.60406899462E+01  0.64152315225E+01  0.51100000000E-03 0.  1.
        -12    1    3    3    0    0 -0.85117252187E+01 -0.24358718108E+01 -0.19836280555E+02  0.21722360919E+02  0.00000000000E+00 0.  1.
</event>
<event>
 7    1  0.1161807E-013  0.5052885E+02  0.7816164E-02  0.1300439E+00
        -11   -1    0    0    0    0  0.00000000000E+00  0.00000000000E+00  0.45593999997E+02  0.45594000000E+02  0.51100000000E-03 0. -1.
         11   -1    0    0    0    0 -0.00000000000E+00 -0.00000000000E+00 -0.45593999997E+02  0.45594000000E+02  0.51100000000E-03 0.  1.
    9900012    2    1    2    0    0  0.23048435689E+02 -0.65360520454E+01  0.32851424268E+02  0.50528850470E+02  0.29999971488E+02 0.  0.
        -12    1    1    2    0    0 -0.23048435689E+02  0.65360520454E+01 -0.32851424268E+02  0.40659149530E+02  0.00000000000E+00 0.  1.
         11    1    3    3    0    0  0.13276827453E+02 -0.52954374126E+01  0.22507040236E+02  0.26662382959E+02  0.51100000000E-03 0. -1.
        -11    1    3    3    0    0  0.99596830177E+01 -0.81940301174E+01  0.10902819926E+02  0.16888128907E+02  0.51100000000E-03 0.  1.
         12    1    3    3    0    0 -0.18807478147E+00  0.69534154847E+01 -0.55843589346E+00  0.69783386041E+01  0.00000000000E+00 0. -1.
</event>
<event>
 7    1  0.1161807E-013  0.5052887E+02  0.7816164E-02  0.1300439E+00
        -11   -1    0    0    0    0  0.00000000000E+00  0.00000000000E+00  0.45593999997E+02  0.45594000000E+02  0.51100000000E-03 0. -1.
         11   -1    0    0    0    0 -0.00000000000E+00 -0.00000000000E+00 -0.45593999997E+02  0.45594000000E+02  0.51100000000E-03 0.  1.
    9900012    2    1    2    0    0  0.12615711133E+02  0.15354817350E+02 -0.35471656847E+02  0.50528867905E+02  0.30000024485E+02 0.  0.
         12    1    1    2    0    0 -0.12615711133E+02 -0.15354817350E+02  0.35471656847E+02  0.40659132095E+02  0.00000000000E+00 0. -1.
         11    1    3    3    0    0  0.42890545573E+01  0.15789801866E+01 -0.43360501193E+01  0.63000395494E+01  0.51100000000E-03 0. -1.
        -11    1    3    3    0    0  0.22017345798E+01  0.15753581257E+02 -0.33727442833E+02  0.37290258218E+02  0.51100000000E-03 0.  1.
         12    1    3    3    0    0  0.61249219963E+01 -0.19777440945E+01  0.25918361059E+01  0.69385701383E+01  0.00000000000E+00 0. -1.
</event>
<event>
 7    1  0.1161807E-013  0.5052887E+02  0.7816164E-02  0.1300439E+00
        -11   -1    0    0    0    0  0.00000000000E+00  0.00000000000E+00  0.45593999997E+02  0.45594000000E+02  0.51100000000E-03 0. -1.
         11   -1    0    0    0    0 -0.00000000000E+00 -0.00000000000E+00 -0.45593999997E+02  0.45594000000E+02  0.51100000000E-03 0.  1.
    9900012    2    1    2    0    0 -0.95721476880E+01 -0.20687549189E+02  0.33668440600E+02  0.50528873162E+02  0.30000040464E+02 0.  0.
        -12    1    1    2    0    0  0.95721476880E+01  0.20687549189E+02 -0.33668440600E+02  0.40659126838E+02  0.00000000000E+00 0.  1.
         11    1    3    3    0    0 -0.38942123237E+01  0.32501804562E+01  0.94433435919E+01  0.10719389025E+02  0.51100000000E-03 0. -1.
        -11    1    3    3    0    0 -0.45199440043E+01  0.21244803262E+01  0.15083210216E+01  0.52171201850E+01  0.51100000000E-03 0.  1.
        -12    1    3    3    0    0 -0.11579913599E+01 -0.26062209971E+02  0.22716775986E+02  0.34592363952E+02  0.00000000000E+00 0.  1.
</event>
<event>
 7    1  0.1161807E-013  0.5052883E+02  0.7816164E-02  0.1300439E+00
        -11   -1    0    0    0    0  0.00000000000E+00  0.00000000000E+00  0.45593999997E+02  0.45594000000E+02  0.51100000000E-03 0. -1.
         11   -1    0    0    0    0 -0.00000000000E+00 -0.00000000000E+00 -0.45593999997E+02  0.45594000000E+02  0.51100000000E-03 0.  1.
    9900012    2    1    2    0    0  0.17034628810E+02 -0.66443695458E+01  0.36315866514E+02  0.50528826545E+02  0.29999898767E+02 0.  0.
        -12    1    1    2    0    0 -0.17034628810E+02  0.66443695458E+01 -0.36315866514E+02  0.40659173455E+02  0.00000000000E+00 0.  1.
         11    1    3    3    0    0 -0.61439298285E+01 -0.16359409629E+01  0.13286557915E+02  0.14729453420E+02  0.51100000000E-03 0. -1.
        -11    1    3    3    0    0  0.11654969857E+02 -0.31107735321E+01  0.20597778896E+02  0.23870143067E+02  0.51100000000E-03 0.  1.
        -12    1    3    3    0    0  0.11523588781E+02 -0.18976550509E+01  0.24315297040E+01  0.11929230059E+02  0.00000000000E+00 0.  1.
</event>
<event>
 7    1  0.1161807E-013  0.5052886E+02  0.7816164E-02  0.1300439E+00
        -11   -1    0    0    0    0  0.00000000000E+00  0.00000000000E+00  0.45593999997E+02  0.45594000000E+02  0.51100000000E-03 0.  1.
         11   -1    0    0    0    0 -0.00000000000E+00 -0.00000000000E+00 -0.45593999997E+02  0.45594000000E+02  0.51100000000E-03 0. -1.
    9900012    2    1    2    0    0  0.27164922004E+02  0.25348362303E+02  0.16513430321E+02  0.50528857855E+02  0.29999993937E+02 0.  0.
        -12    1    1    2    0    0 -0.27164922004E+02 -0.25348362303E+02 -0.16513430321E+02  0.40659142145E+02  0.00000000000E+00 0.  1.
         11    1    3    3    0    0 -0.34151627447E+00 -0.26510680695E+01  0.34993492226E+01  0.44034350816E+01  0.51100000000E-03 0. -1.
        -11    1    3    3    0    0  0.45070136293E+01  0.13858757370E+01  0.97119865829E+01  0.10796133894E+02  0.51100000000E-03 0.  1.
         12    1    3    3    0    0  0.22999424649E+02  0.26613554636E+02  0.33020945160E+01  0.35329288880E+02  0.00000000000E+00 0. -1.
</event>
<event>
 7    1  0.1161807E-013  0.5052886E+02  0.7816164E-02  0.1300439E+00
        -11   -1    0    0    0    0  0.00000000000E+00  0.00000000000E+00  0.45593999997E+02  0.45594000000E+02  0.51100000000E-03 0. -1.
         11   -1    0    0    0    0 -0.00000000000E+00 -0.00000000000E+00 -0.45593999997E+02  0.45594000000E+02  0.51100000000E-03 0.  1.
    9900012    2    1    2    0    0  0.29091330694E+02  0.14049680252E+01 -0.28370515501E+02  0.50528860726E+02  0.30000002663E+02 0.  0.
         12    1    1    2    0    0 -0.29091330694E+02 -0.14049680252E+01  0.28370515501E+02  0.40659139274E+02  0.00000000000E+00 0. -1.
         11    1    3    3    0    0 -0.42382477369E+01 -0.33738816686E+01 -0.85795830223E+01  0.10146677608E+02  0.51100000000E-03 0. -1.
        -11    1    3    3    0    0  0.81722886369E+01  0.55168464049E+01 -0.38190738257E+01  0.10573893368E+02  0.51100000000E-03 0.  1.
        -12    1    3    3    0    0  0.25157289794E+02 -0.73799671116E+00 -0.15971858653E+02  0.29808289749E+02  0.00000000000E+00 0.  1.
</event>
<event>
 7    1  0.1161807E-013  0.5052886E+02  0.7816164E-02  0.1300439E+00
        -11   -1    0    0    0    0  0.00000000000E+00  0.00000000000E+00  0.45593999997E+02  0.45594000000E+02  0.51100000000E-03 0. -1.
         11   -1    0    0    0    0 -0.00000000000E+00 -0.00000000000E+00 -0.45593999997E+02  0.45594000000E+02  0.51100000000E-03 0.  1.
    9900012    2    1    2    0    0  0.22371090154E+01  0.11154013603E+02 -0.39035223153E+02  0.50528864215E+02  0.30000013267E+02 0.  0.
         12    1    1    2    0    0 -0.22371090154E+01 -0.11154013603E+02  0.39035223153E+02  0.40659135785E+02  0.00000000000E+00 0. -1.
         11    1    3    3    0    0  0.47120477187E+01 -0.48888556883E+01 -0.77355160536E+00  0.68339363468E+01  0.51100000000E-03 0. -1.
        -11    1    3    3    0    0  0.43727239569E+01  0.38999525622E+01 -0.52767790568E+01  0.78850962116E+01  0.51100000000E-03 0.  1.
        -12    1    3    3    0    0 -0.68476626602E+01  0.12142916729E+02 -0.32984892491E+02  0.35809831656E+02  0.00000000000E+00 0.  1.
</event>
<event>
 7    1  0.1161807E-013  0.5052888E+02  0.7816164E-02  0.1300439E+00
        -11   -1    0    0    0    0  0.00000000000E+00  0.00000000000E+00  0.45593999997E+02  0.45594000000E+02  0.51100000000E-03 0. -1.
         11   -1    0    0    0    0 -0.00000000000E+00 -0.00000000000E+00 -0.45593999997E+02  0.45594000000E+02  0.51100000000E-03 0.  1.
    9900012    2    1    2    0    0 -0.31694611741E+01  0.17473633798E+02  0.36575823157E+02  0.50528877999E+02  0.30000055166E+02 0.  0.
        -12    1    1    2    0    0  0.31694611741E+01 -0.17473633798E+02 -0.36575823157E+02  0.40659122001E+02  0.00000000000E+00 0.  1.
         11    1    3    3    0    0  0.15744378652E+01  0.48276116224E+01  0.13584497214E+01  0.52564317245E+01  0.51100000000E-03 0.  1.
        -11    1    3    3    0    0 -0.37630674818E+00  0.18595717482E+02  0.15474573088E+02  0.24195138519E+02  0.51100000000E-03 0. -1.
         12    1    3    3    0    0 -0.43675922911E+01 -0.59496953062E+01  0.19742800348E+02  0.21077307756E+02  0.00000000000E+00 0. -1.
</event>
<event>
 7    1  0.1161807E-013  0.5052886E+02  0.7816164E-02  0.1300439E+00
        -11   -1    0    0    0    0  0.00000000000E+00  0.00000000000E+00  0.45593999997E+02  0.45594000000E+02  0.51100000000E-03 0. -1.
         11   -1    0    0    0    0 -0.00000000000E+00 -0.00000000000E+00 -0.45593999997E+02  0.45594000000E+02  0.51100000000E-03 0.  1.
    9900012    2    1    2    0    0 -0.13035658721E+02 -0.28570366930E+02  0.25825792665E+02  0.50528857958E+02  0.29999994250E+02 0.  0.
        -12    1    1    2    0    0  0.13035658721E+02  0.28570366930E+02 -0.25825792665E+02  0.40659142042E+02  0.00000000000E+00 0.  1.
         11    1    3    3    0    0 -0.60355534866E+01 -0.93337182481E+00  0.72947303368E+01  0.95137889298E+01  0.51100000000E-03 0. -1.
        -11    1    3    3    0    0 -0.16957281977E+01  0.40867722113E+01  0.21278555417E+01  0.49096813232E+01  0.51100000000E-03 0.  1.
         12    1    3    3    0    0 -0.53043770363E+01 -0.31723767316E+02  0.16403206787E+02  0.36105387705E+02  0.00000000000E+00 0. -1.
</event>
<event>
 7    1  0.1161807E-013  0.5052886E+02  0.7816164E-02  0.1300439E+00
        -11   -1    0    0    0    0  0.00000000000E+00  0.00000000000E+00  0.45593999997E+02  0.45594000000E+02  0.51100000000E-03 0. -1.
         11   -1    0    0    0    0 -0.00000000000E+00 -0.00000000000E+00 -0.45593999997E+02  0.45594000000E+02  0.51100000000E-03 0.  1.
    9900012    2    1    2    0    0 -0.19643571747E+02 -0.14610703351E+02  0.32462646099E+02  0.50528856439E+02  0.29999989632E+02 0.  0.
        -12    1    1    2    0    0  0.19643571747E+02  0.14610703351E+02 -0.32462646099E+02  0.40659143561E+02  0.00000000000E+00 0.  1.
         11    1    3    3    0    0 -0.14229354889E+02 -0.48211061127E+01  0.24964776486E+02  0.29136878178E+02  0.51100000000E-03 0. -1.
        -11    1    3    3    0    0  0.17872485834E+01  0.40535450007E+01  0.15901646314E+01  0.47068151002E+01  0.51100000000E-03 0.  1.
         12    1    3    3    0    0 -0.72014654416E+01 -0.13843142239E+02  0.59077049814E+01  0.16685163161E+02  0.00000000000E+00 0. -1.
</event>
<event>
 7    1  0.1161807E-013  0.5052887E+02  0.7816164E-02  0.1300439E+00
        -11   -1    0    0    0    0  0.00000000000E+00  0.00000000000E+00  0.45593999997E+02  0.45594000000E+02  0.51100000000E-03 0. -1.
         11   -1    0    0    0    0 -0.00000000000E+00 -0.00000000000E+00 -0.45593999997E+02  0.45594000000E+02  0.51100000000E-03 0.  1.
    9900012    2    1    2    0    0  0.14314528463E+02  0.37532613223E+02 -0.62898157727E+01  0.50528873559E+02  0.30000041671E+02 0.  0.
         12    1    1    2    0    0 -0.14314528463E+02 -0.37532613223E+02  0.62898157727E+01  0.40659126441E+02  0.00000000000E+00 0. -1.
         11    1    3    3    0    0 -0.50612073305E+01  0.22363830043E+02 -0.48678351662E+01  0.23440403863E+02  0.51100000000E-03 0. -1.
        -11    1    3    3    0    0  0.15296764691E+02  0.16496851855E+02 -0.25806402712E+01  0.22645017898E+02  0.51100000000E-03 0.  1.
        -12    1    3    3    0    0  0.40789711026E+01 -0.13280686747E+01  0.11586596647E+01  0.44434517978E+01  0.00000000000E+00 0.  1.
</event>
<event>
 7    1  0.1161807E-013  0.5052886E+02  0.7816164E-02  0.1300439E+00
        -11   -1    0    0    0    0  0.00000000000E+00  0.00000000000E+00  0.45593999997E+02  0.45594000000E+02  0.51100000000E-03 0. -1.
         11   -1    0    0    0    0 -0.00000000000E+00 -0.00000000000E+00 -0.45593999997E+02  0.45594000000E+02  0.51100000000E-03 0.  1.
    9900012    2    1    2    0    0  0.14521019351E+02 -0.31482797020E+02  0.21240032903E+02  0.50528861926E+02  0.30000006311E+02 0.  0.
        -12    1    1    2    0    0 -0.14521019351E+02  0.31482797020E+02 -0.21240032903E+02  0.40659138074E+02  0.00000000000E+00 0.  1.
         11    1    3    3    0    0  0.44007388668E+01  0.27970185115E+01  0.55725481449E+01  0.76317172521E+01  0.51100000000E-03 0. -1.
        -11    1    3    3    0    0 -0.25886473456E+00 -0.18094168042E+02  0.15250097720E+02  0.23664982756E+02  0.51100000000E-03 0.  1.
         12    1    3    3    0    0  0.10379145219E+02 -0.16185647489E+02  0.41738703821E+00  0.19232161918E+02  0.00000000000E+00 0. -1.
</event>
<event>
 7    1  0.1161807E-013  0.5052886E+02  0.7816164E-02  0.1300439E+00
        -11   -1    0    0    0    0  0.00000000000E+00  0.00000000000E+00  0.45593999997E+02  0.45594000000E+02  0.51100000000E-03 0. -1.
         11   -1    0    0    0    0 -0.00000000000E+00 -0.00000000000E+00 -0.45593999997E+02  0.45594000000E+02  0.51100000000E-03 0.  1.
    9900012    2    1    2    0    0 -0.60750728071E+01 -0.29055138517E+02  0.27785932074E+02  0.50528860743E+02  0.30000002716E+02 0.  0.
        -12    1    1    2    0    0  0.60750728071E+01  0.29055138517E+02 -0.27785932074E+02  0.40659139257E+02  0.00000000000E+00 0.  1.
         11    1    3    3    0    0  0.39280893213E+01 -0.20923576407E+02  0.90825008921E+01  0.23145577506E+02  0.51100000000E-03 0. -1.
        -11    1    3    3    0    0  0.16274639953E+01 -0.47391700936E+01  0.13118080164E+02  0.14042521130E+02  0.51100000000E-03 0.  1.
        -12    1    3    3    0    0 -0.11630626124E+02 -0.33923920164E+01  0.55853510185E+01  0.13340762108E+02  0.00000000000E+00 0.  1.
</event>
<event>
 7    1  0.1161807E-013  0.5052891E+02  0.7816164E-02  0.1300439E+00
        -11   -1    0    0    0    0  0.00000000000E+00  0.00000000000E+00  0.45593999997E+02  0.45594000000E+02  0.51100000000E-03 0. -1.
         11   -1    0    0    0    0 -0.00000000000E+00 -0.00000000000E+00 -0.45593999997E+02  0.45594000000E+02  0.51100000000E-03 0.  1.
    9900012    2    1    2    0    0  0.18581082558E+02 -0.32394042572E+01 -0.36019600709E+02  0.50528905025E+02  0.30000137313E+02 0.  0.
         12    1    1    2    0    0 -0.18581082558E+02  0.32394042572E+01  0.36019600709E+02  0.40659094975E+02  0.00000000000E+00 0. -1.
         11    1    3    3    0    0  0.52836245597E+01  0.19311425043E+01 -0.26336157984E+01  0.62114356066E+01  0.51100000000E-03 0. -1.
        -11    1    3    3    0    0  0.10071839557E+02  0.79127709189E+01 -0.25920912365E+02  0.28912758322E+02  0.51100000000E-03 0.  1.
         12    1    3    3    0    0  0.32256184408E+01 -0.13083317680E+02 -0.74650725453E+01  0.15404711096E+02  0.00000000000E+00 0. -1.
</event>
<event>
 7    1  0.1161807E-013  0.5052886E+02  0.7816164E-02  0.1300439E+00
        -11   -1    0    0    0    0  0.00000000000E+00  0.00000000000E+00  0.45593999997E+02  0.45594000000E+02  0.51100000000E-03 0.  1.
         11   -1    0    0    0    0 -0.00000000000E+00 -0.00000000000E+00 -0.45593999997E+02  0.45594000000E+02  0.51100000000E-03 0. -1.
    9900012    2    1    2    0    0 -0.40524510885E+02 -0.27899817282E+01  0.17736697516E+01  0.50528857303E+02  0.29999992257E+02 0.  0.
         12    1    1    2    0    0  0.40524510885E+02  0.27899817282E+01 -0.17736697516E+01  0.40659142697E+02  0.00000000000E+00 0. -1.
         11    1    3    3    0    0 -0.35735670335E+02 -0.10965695976E+00 -0.23585183620E+01  0.35813583569E+02  0.51100000000E-03 0. -1.
        -11    1    3    3    0    0 -0.92257045200E+01 -0.29176949362E+01  0.26709807727E+01  0.10037963249E+02  0.51100000000E-03 0.  1.
         12    1    3    3    0    0  0.44368639699E+01  0.23737016778E+00  0.14612073408E+01  0.46773104854E+01  0.00000000000E+00 0. -1.
</event>
<event>
 7    1  0.1161807E-013  0.5052886E+02  0.7816164E-02  0.1300439E+00
        -11   -1    0    0    0    0  0.00000000000E+00  0.00000000000E+00  0.45593999997E+02  0.45594000000E+02  0.51100000000E-03 0. -1.
         11   -1    0    0    0    0 -0.00000000000E+00 -0.00000000000E+00 -0.45593999997E+02  0.45594000000E+02  0.51100000000E-03 0.  1.
    9900012    2    1    2    0    0 -0.33199831116E+02 -0.81465692676E+01 -0.22012956431E+02  0.50528860464E+02  0.30000001868E+02 0.  0.
         12    1    1    2    0    0  0.33199831116E+02  0.81465692676E+01  0.22012956431E+02  0.40659139536E+02  0.00000000000E+00 0. -1.
         11    1    3    3    0    0  0.17838294815E+01  0.41268302087E+00 -0.14907889695E+00  0.18370029051E+01  0.51100000000E-03 0. -1.
        -11    1    3    3    0    0 -0.23029350079E+01  0.48145648533E+01  0.23957687524E+01  0.58500643205E+01  0.51100000000E-03 0.  1.
        -12    1    3    3    0    0 -0.32680725589E+02 -0.13373817142E+02 -0.24259646286E+02  0.42841793239E+02  0.00000000000E+00 0.  1.
</event>
<event>
 7    1  0.1161807E-013  0.5052886E+02  0.7816164E-02  0.1300439E+00
        -11   -1    0    0    0    0  0.00000000000E+00  0.00000000000E+00  0.45593999997E+02  0.45594000000E+02  0.51100000000E-03 0.  1.
         11   -1    0    0    0    0 -0.00000000000E+00 -0.00000000000E+00 -0.45593999997E+02  0.45594000000E+02  0.51100000000E-03 0. -1.
    9900012    2    1    2    0    0 -0.12360202249E+02  0.29586151404E+02 -0.25001014156E+02  0.50528860026E+02  0.30000000536E+02 0.  0.
        -12    1    1    2    0    0  0.12360202249E+02 -0.29586151404E+02  0.25001014156E+02  0.40659139974E+02  0.00000000000E+00 0.  1.
         11    1    3    3    0    0 -0.39960147327E+01  0.32660320913E+02 -0.17402810468E+02  0.37222607490E+02  0.51100000000E-03 0.  1.
        -11    1    3    3    0    0  0.89220876701E-01 -0.12188792420E+01 -0.35445980964E+01  0.37493736674E+01  0.51100000000E-03 0. -1.
        -12    1    3    3    0    0 -0.84534083925E+01 -0.18552902670E+01 -0.40536055919E+01  0.95568788691E+01  0.00000000000E+00 0.  1.
</event>
<event>
 7    1  0.1161807E-013  0.5052886E+02  0.7816164E-02  0.1300439E+00
        -11   -1    0    0    0    0  0.00000000000E+00  0.00000000000E+00  0.45593999997E+02  0.45594000000E+02  0.51100000000E-03 0. -1.
         11   -1    0    0    0    0 -0.00000000000E+00 -0.00000000000E+00 -0.45593999997E+02  0.45594000000E+02  0.51100000000E-03 0.  1.
    9900012    2    1    2    0    0 -0.26345766261E+02  0.16928159740E+02  0.25932675466E+02  0.50528860205E+02  0.30000001078E+02 0.  0.
        -12    1    1    2    0    0  0.26345766261E+02 -0.16928159740E+02 -0.25932675466E+02  0.40659139795E+02  0.00000000000E+00 0.  1.
         11    1    3    3    0    0 -0.95119982727E+00  0.11854439034E+02  0.11148351330E+02  0.16300866344E+02  0.51100000000E-03 0. -1.
        -11    1    3    3    0    0 -0.41621768203E+01 -0.51210136557E+01  0.35984543542E+00  0.66089322696E+01  0.51100000000E-03 0.  1.
        -12    1    3    3    0    0 -0.21232389613E+02  0.10194734362E+02  0.14424478701E+02  0.27619061591E+02  0.00000000000E+00 0.  1.
</event>
<event>
 7    1  0.1161807E-013  0.5052884E+02  0.7816164E-02  0.1300439E+00
        -11   -1    0    0    0    0  0.00000000000E+00  0.00000000000E+00  0.45593999997E+02  0.45594000000E+02  0.51100000000E-03 0. -1.
         11   -1    0    0    0    0 -0.00000000000E+00 -0.00000000000E+00 -0.45593999997E+02  0.45594000000E+02  0.51100000000E-03 0.  1.
    9900012    2    1    2    0    0  0.19059487729E+02  0.16491239090E+02 -0.31905203440E+02  0.50528843027E+02  0.29999948864E+02 0.  0.
         12    1    1    2    0    0 -0.19059487729E+02 -0.16491239090E+02  0.31905203440E+02  0.40659156973E+02  0.00000000000E+00 0. -1.
         11    1    3    3    0    0  0.11306681689E+02  0.13566711682E+02 -0.27952769066E+02  0.33064391955E+02  0.51100000000E-03 0. -1.
        -11    1    3    3    0    0  0.26456594563E+01  0.72017404304E+01 -0.67693154254E+01  0.10231725699E+02  0.51100000000E-03 0.  1.
         12    1    3    3    0    0  0.51071465832E+01 -0.42772130224E+01  0.28168810507E+01  0.72327253726E+01  0.00000000000E+00 0. -1.
</event>
<event>
 7    1  0.1161807E-013  0.5052886E+02  0.7816164E-02  0.1300439E+00
        -11   -1    0    0    0    0  0.00000000000E+00  0.00000000000E+00  0.45593999997E+02  0.45594000000E+02  0.51100000000E-03 0. -1.
         11   -1    0    0    0    0 -0.00000000000E+00 -0.00000000000E+00 -0.45593999997E+02  0.45594000000E+02  0.51100000000E-03 0.  1.
    9900012    2    1    2    0    0  0.22844946162E+00 -0.34828292778E+02 -0.20978644291E+02  0.50528859782E+02  0.29999999793E+02 0.  0.
         12    1    1    2    0    0 -0.22844946162E+00  0.34828292778E+02  0.20978644291E+02  0.40659140218E+02  0.00000000000E+00 0. -1.
         11    1    3    3    0    0 -0.26078476636E+01 -0.47773701313E+01  0.16763843430E+01  0.56951206778E+01  0.51100000000E-03 0. -1.
        -11    1    3    3    0    0  0.82798310204E+01 -0.86785181887E+01  0.15423988624E+01  0.12093439304E+02  0.51100000000E-03 0.  1.
         12    1    3    3    0    0 -0.54435338951E+01 -0.21372404458E+02 -0.24197427496E+02  0.32740299800E+02  0.00000000000E+00 0. -1.
</event>
<event>
 7    1  0.1161807E-013  0.5052884E+02  0.7816164E-02  0.1300439E+00
        -11   -1    0    0    0    0  0.00000000000E+00  0.00000000000E+00  0.45593999997E+02  0.45594000000E+02  0.51100000000E-03 0. -1.
         11   -1    0    0    0    0 -0.00000000000E+00 -0.00000000000E+00 -0.45593999997E+02  0.45594000000E+02  0.51100000000E-03 0.  1.
    9900012    2    1    2    0    0 -0.10178535431E+02  0.10410119258E+02 -0.37963059178E+02  0.50528843237E+02  0.29999949505E+02 0.  0.
         12    1    1    2    0    0  0.10178535431E+02 -0.10410119258E+02  0.37963059178E+02  0.40659156763E+02  0.00000000000E+00 0. -1.
         11    1    3    3    0    0  0.30115053364E+01  0.68232039590E+01 -0.33999178087E+02  0.34807605312E+02  0.51100000000E-03 0.  1.
        -11    1    3    3    0    0 -0.55646646179E+01  0.41395454021E+01 -0.41337347714E+01  0.80739762117E+01  0.51100000000E-03 0. -1.
        -12    1    3    3    0    0 -0.76253761496E+01 -0.55263010355E+00  0.16985368044E+00  0.76472617143E+01  0.00000000000E+00 0.  1.
</event>
<event>
 7    1  0.1161807E-013  0.5052885E+02  0.7816164E-02  0.1300439E+00
        -11   -1    0    0    0    0  0.00000000000E+00  0.00000000000E+00  0.45593999997E+02  0.45594000000E+02  0.51100000000E-03 0. -1.
         11   -1    0    0    0    0 -0.00000000000E+00 -0.00000000000E+00 -0.45593999997E+02  0.45594000000E+02  0.51100000000E-03 0.  1.
    9900012    2    1    2    0    0 -0.18761693397E+01 -0.23108501879E+02  0.33401255893E+02  0.50528846471E+02  0.29999959333E+02 0.  0.
        -12    1    1    2    0    0  0.18761693397E+01  0.23108501879E+02 -0.33401255893E+02  0.40659153529E+02  0.00000000000E+00 0.  1.
         11    1    3    3    0    0  0.52474524703E+01 -0.10404589329E+02  0.44342936029E+01  0.12468127227E+02  0.51100000000E-03 0. -1.
        -11    1    3    3    0    0  0.18693395763E+00 -0.51841048847E+01 -0.18504332579E+01  0.55076302765E+01  0.51100000000E-03 0.  1.
         12    1    3    3    0    0 -0.73105557676E+01 -0.75198076653E+01  0.30817395548E+02  0.32553088968E+02  0.00000000000E+00 0. -1.
</event>
<event>
 7    1  0.1161807E-013  0.5052886E+02  0.7816164E-02  0.1300439E+00
        -11   -1    0    0    0    0  0.00000000000E+00  0.00000000000E+00  0.45593999997E+02  0.45594000000E+02  0.51100000000E-03 0. -1.
         11   -1    0    0    0    0 -0.00000000000E+00 -0.00000000000E+00 -0.45593999997E+02  0.45594000000E+02  0.51100000000E-03 0.  1.
    9900012    2    1    2    0    0 -0.28519782993E+02  0.11816702305E+02  0.26460403538E+02  0.50528862888E+02  0.30000009235E+02 0.  0.
        -12    1    1    2    0    0  0.28519782993E+02 -0.11816702305E+02 -0.26460403538E+02  0.40659137112E+02  0.00000000000E+00 0.  1.
         11    1    3    3    0    0 -0.11854937000E+02  0.43444151441E+01  0.59847134049E+01  0.13972482565E+02  0.51100000000E-03 0. -1.
        -11    1    3    3    0    0 -0.13890553714E+02  0.56384725748E+01 -0.80930401026E+00  0.15013155188E+02  0.51100000000E-03 0.  1.
         12    1    3    3    0    0 -0.27742922788E+01  0.18338145856E+01  0.21284994143E+02  0.21543225136E+02  0.00000000000E+00 0. -1.
</event>
<event>
 7    1  0.1161807E-013  0.5052886E+02  0.7816164E-02  0.1300439E+00
        -11   -1    0    0    0    0  0.00000000000E+00  0.00000000000E+00  0.45593999997E+02  0.45594000000E+02  0.51100000000E-03 0. -1.
         11   -1    0    0    0    0 -0.00000000000E+00 -0.00000000000E+00 -0.45593999997E+02  0.45594000000E+02  0.51100000000E-03 0.  1.
    9900012    2    1    2    0    0  0.13276431547E+02  0.23121867694E+02  0.30696595264E+02  0.50528863744E+02  0.30000011837E+02 0.  0.
        -12    1    1    2    0    0 -0.13276431547E+02 -0.23121867694E+02 -0.30696595264E+02  0.40659136256E+02  0.00000000000E+00 0.  1.
         11    1    3    3    0    0  0.34880676946E+01  0.12486980966E+01 -0.29570241767E+00  0.37166252648E+01  0.51100000000E-03 0. -1.
        -11    1    3    3    0    0  0.44224931442E+01 -0.54880872649E+01  0.80907129487E+01  0.10730199612E+02  0.51100000000E-03 0.  1.
         12    1    3    3    0    0  0.53658707086E+01  0.27361256862E+02  0.22901584733E+02  0.36082038867E+02  0.00000000000E+00 0. -1.
</event>
<event>
 7    1  0.1161807E-013  0.5052886E+02  0.7816164E-02  0.1300439E+00
        -11   -1    0    0    0    0  0.00000000000E+00  0.00000000000E+00  0.45593999997E+02  0.45594000000E+02  0.51100000000E-03 0. -1.
         11   -1    0    0    0    0 -0.00000000000E+00 -0.00000000000E+00 -0.45593999997E+02  0.45594000000E+02  0.51100000000E-03 0.  1.
    9900012    2    1    2    0    0 -0.16354035523E+02 -0.22659903266E+02  0.29533702473E+02  0.50528864794E+02  0.30000015029E+02 0.  0.
        -12    1    1    2    0    0  0.16354035523E+02  0.22659903266E+02 -0.29533702473E+02  0.40659135206E+02  0.00000000000E+00 0.  1.
         11    1    3    3    0    0  0.18448735161E+00 -0.21877020262E+02  0.11940958202E+02  0.24924376305E+02  0.51100000000E-03 0. -1.
        -11    1    3    3    0    0 -0.74277747290E+01 -0.45709283234E+01  0.77428763623E+01  0.11662647975E+02  0.51100000000E-03 0.  1.
        -12    1    3    3    0    0 -0.91107481452E+01  0.37880453198E+01  0.98498679091E+01  0.13941840515E+02  0.00000000000E+00 0.  1.
</event>
<event>
 7    1  0.1161807E-013  0.5052885E+02  0.7816164E-02  0.1300439E+00
        -11   -1    0    0    0    0  0.00000000000E+00  0.00000000000E+00  0.45593999997E+02  0.45594000000E+02  0.51100000000E-03 0. -1.
         11   -1    0    0    0    0 -0.00000000000E+00 -0.00000000000E+00 -0.45593999997E+02  0.45594000000E+02  0.51100000000E-03 0.  1.
    9900012    2    1    2    0    0 -0.25597157123E+02 -0.16223940117E+02 -0.27106017373E+02  0.50528845268E+02  0.29999955677E+02 0.  0.
         12    1    1    2    0    0  0.25597157123E+02  0.16223940117E+02  0.27106017373E+02  0.40659154732E+02  0.00000000000E+00 0. -1.
         11    1    3    3    0    0 -0.76208670075E+01 -0.57686953948E+01 -0.98714672577E+01  0.13740499503E+02  0.51100000000E-03 0. -1.
        -11    1    3    3    0    0 -0.95658015473E+01 -0.14905414251E+02 -0.20158862261E+02  0.26833852894E+02  0.51100000000E-03 0.  1.
         12    1    3    3    0    0 -0.84104885682E+01  0.44501695287E+01  0.29243121459E+01  0.99544928709E+01  0.00000000000E+00 0. -1.
</event>
<event>
 7    1  0.1161807E-013  0.5052887E+02  0.7816164E-02  0.1300439E+00
        -11   -1    0    0    0    0  0.00000000000E+00  0.00000000000E+00  0.45593999997E+02  0.45594000000E+02  0.51100000000E-03 0. -1.
         11   -1    0    0    0    0 -0.00000000000E+00 -0.00000000000E+00 -0.45593999997E+02  0.45594000000E+02  0.51100000000E-03 0.  1.
    9900012    2    1    2    0    0 -0.25267053700E+02  0.24356104401E+02  0.20530982839E+02  0.50528867193E+02  0.30000022320E+02 0.  0.
        -12    1    1    2    0    0  0.25267053700E+02 -0.24356104401E+02 -0.20530982839E+02  0.40659132807E+02  0.00000000000E+00 0.  1.
         11    1    3    3    0    0 -0.18755963535E+02  0.10844706146E+02  0.19209585730E+02  0.28955172313E+02  0.51100000000E-03 0. -1.
        -11    1    3    3    0    0 -0.34390514744E+01  0.47892725629E+01  0.81636668774E+01  0.10070236535E+02  0.51100000000E-03 0.  1.
        -12    1    3    3    0    0 -0.30720386899E+01  0.87221256930E+01 -0.68422697677E+01  0.11503458345E+02  0.00000000000E+00 0.  1.
</event>
<event>
 7    1  0.1161807E-013  0.5052886E+02  0.7816164E-02  0.1300439E+00
        -11   -1    0    0    0    0  0.00000000000E+00  0.00000000000E+00  0.45593999997E+02  0.45594000000E+02  0.51100000000E-03 0. -1.
         11   -1    0    0    0    0 -0.00000000000E+00 -0.00000000000E+00 -0.45593999997E+02  0.45594000000E+02  0.51100000000E-03 0.  1.
    9900012    2    1    2    0    0 -0.23804024427E+02  0.13480926614E+02 -0.30079869393E+02  0.50528861987E+02  0.30000006496E+02 0.  0.
         12    1    1    2    0    0  0.23804024427E+02 -0.13480926614E+02  0.30079869393E+02  0.40659138013E+02  0.00000000000E+00 0. -1.
         11    1    3    3    0    0  0.56352084862E+00  0.89112646638E+00  0.19505845575E+01  0.22173052345E+01  0.51100000000E-03 0. -1.
        -11    1    3    3    0    0  0.65057145337E+00 -0.90048804742E+00  0.30007026638E+01  0.31997404078E+01  0.51100000000E-03 0.  1.
        -12    1    3    3    0    0 -0.25018116729E+02  0.13490288195E+02 -0.35031156614E+02  0.45111816345E+02  0.00000000000E+00 0.  1.
</event>
<event>
 7    1  0.1161807E-013  0.5052886E+02  0.7816164E-02  0.1300439E+00
        -11   -1    0    0    0    0  0.00000000000E+00  0.00000000000E+00  0.45593999997E+02  0.45594000000E+02  0.51100000000E-03 0.  1.
         11   -1    0    0    0    0 -0.00000000000E+00 -0.00000000000E+00 -0.45593999997E+02  0.45594000000E+02  0.51100000000E-03 0. -1.
    9900012    2    1    2    0    0 -0.38975881763E+02 -0.90582442452E+01 -0.72107214225E+01  0.50528860174E+02  0.30000000983E+02 0.  0.
        -12    1    1    2    0    0  0.38975881763E+02  0.90582442452E+01  0.72107214225E+01  0.40659139826E+02  0.00000000000E+00 0.  1.
         11    1    3    3    0    0 -0.21510230228E+02 -0.82639425730E+01  0.79628809257E+01  0.24380119446E+02  0.51100000000E-03 0. -1.
        -11    1    3    3    0    0  0.10271851192E+01 -0.69443157305E+00  0.99062693074E+00  0.15870370052E+01  0.51100000000E-03 0.  1.
         12    1    3    3    0    0 -0.18492836654E+02 -0.99870099070E-01 -0.16164229279E+02  0.24561703722E+02  0.00000000000E+00 0. -1.
</event>
<event>
 7    1  0.1161807E-013  0.5052886E+02  0.7816164E-02  0.1300439E+00
        -11   -1    0    0    0    0  0.00000000000E+00  0.00000000000E+00  0.45593999997E+02  0.45594000000E+02  0.51100000000E-03 0. -1.
         11   -1    0    0    0    0 -0.00000000000E+00 -0.00000000000E+00 -0.45593999997E+02  0.45594000000E+02  0.51100000000E-03 0.  1.
    9900012    2    1    2    0    0 -0.39823565390E+01  0.72808634506E+01 -0.39803210147E+02  0.50528859893E+02  0.30000000131E+02 0.  0.
         12    1    1    2    0    0  0.39823565390E+01 -0.72808634506E+01  0.39803210147E+02  0.40659140107E+02  0.00000000000E+00 0. -1.
         11    1    3    3    0    0 -0.78874251871E+01 -0.45950680930E+01 -0.18666197464E+02  0.20778668265E+02  0.51100000000E-03 0. -1.
        -11    1    3    3    0    0  0.67870448775E+01  0.93492519792E+01 -0.22809484153E+02  0.25568438715E+02  0.51100000000E-03 0.  1.
         12    1    3    3    0    0 -0.28819762294E+01  0.25266795645E+01  0.16724714693E+01  0.41817529128E+01  0.00000000000E+00 0. -1.
</event>
<event>
 7    1  0.1161807E-013  0.5052887E+02  0.7816164E-02  0.1300439E+00
        -11   -1    0    0    0    0  0.00000000000E+00  0.00000000000E+00  0.45593999997E+02  0.45594000000E+02  0.51100000000E-03 0. -1.
         11   -1    0    0    0    0 -0.00000000000E+00 -0.00000000000E+00 -0.45593999997E+02  0.45594000000E+02  0.51100000000E-03 0.  1.
    9900012    2    1    2    0    0  0.11990393479E+02 -0.29804968674E+02  0.24921058347E+02  0.50528870121E+02  0.30000031218E+02 0.  0.
        -12    1    1    2    0    0 -0.11990393479E+02  0.29804968674E+02 -0.24921058347E+02  0.40659129879E+02  0.00000000000E+00 0.  1.
         11    1    3    3    0    0  0.22099238962E+01 -0.10373781146E+02  0.40649274439E+00  0.10614345741E+02  0.51100000000E-03 0. -1.
        -11    1    3    3    0    0  0.92363064320E+01 -0.21035582275E+02  0.95918644900E+01  0.24895962380E+02  0.51100000000E-03 0.  1.
        -12    1    3    3    0    0  0.54416315068E+00  0.16043947478E+01  0.14922701112E+02  0.15018561999E+02  0.00000000000E+00 0.  1.
</event>
<event>
 7    1  0.1161807E-013  0.5052886E+02  0.7816164E-02  0.1300439E+00
        -11   -1    0    0    0    0  0.00000000000E+00  0.00000000000E+00  0.45593999997E+02  0.45594000000E+02  0.51100000000E-03 0. -1.
         11   -1    0    0    0    0 -0.00000000000E+00 -0.00000000000E+00 -0.45593999997E+02  0.45594000000E+02  0.51100000000E-03 0.  1.
    9900012    2    1    2    0    0 -0.14678783751E+02 -0.21141471541E+02  0.31475980072E+02  0.50528857943E+02  0.29999994203E+02 0.  0.
        -12    1    1    2    0    0  0.14678783751E+02  0.21141471541E+02 -0.31475980072E+02  0.40659142057E+02  0.00000000000E+00 0.  1.
         11    1    3    3    0    0 -0.18410721084E+01 -0.13706059435E+02  0.12185999325E+02  0.18432151029E+02  0.51100000000E-03 0. -1.
        -11    1    3    3    0    0  0.19622271934E+01 -0.89769062085E+01  0.13051818897E+02  0.15961991023E+02  0.51100000000E-03 0.  1.
        -12    1    3    3    0    0 -0.14799938836E+02  0.15414941030E+01  0.62381618498E+01  0.16134715891E+02  0.00000000000E+00 0.  1.
</event>
<event>
 7    1  0.1161807E-013  0.5052885E+02  0.7816164E-02  0.1300439E+00
        -11   -1    0    0    0    0  0.00000000000E+00  0.00000000000E+00  0.45593999997E+02  0.45594000000E+02  0.51100000000E-03 0. -1.
         11   -1    0    0    0    0 -0.00000000000E+00 -0.00000000000E+00 -0.45593999997E+02  0.45594000000E+02  0.51100000000E-03 0.  1.
    9900012    2    1    2    0    0  0.25337118451E+02 -0.78086539998E+01 -0.30825666830E+02  0.50528851163E+02  0.29999973595E+02 0.  0.
         12    1    1    2    0    0 -0.25337118451E+02  0.78086539998E+01  0.30825666830E+02  0.40659148837E+02  0.00000000000E+00 0. -1.
         11    1    3    3    0    0 -0.36893680852E+01 -0.13582303751E+01 -0.78162383635E+00  0.40083865461E+01  0.51100000000E-03 0.  1.
        -11    1    3    3    0    0 -0.20969875037E+01 -0.29832140392E+01 -0.93371611605E+00  0.37641398275E+01  0.51100000000E-03 0. -1.
         12    1    3    3    0    0  0.31123474039E+02 -0.34672095855E+01 -0.29110326877E+02  0.42756324789E+02  0.00000000000E+00 0. -1.
</event>
<event>
 7    1  0.1161807E-013  0.5052886E+02  0.7816164E-02  0.1300439E+00
        -11   -1    0    0    0    0  0.00000000000E+00  0.00000000000E+00  0.45593999997E+02  0.45594000000E+02  0.51100000000E-03 0. -1.
         11   -1    0    0    0    0 -0.00000000000E+00 -0.00000000000E+00 -0.45593999997E+02  0.45594000000E+02  0.51100000000E-03 0.  1.
    9900012    2    1    2    0    0  0.98567226171E+01 -0.70081071017E+01  0.38818769674E+02  0.50528862959E+02  0.30000009451E+02 0.  0.
        -12    1    1    2    0    0 -0.98567226171E+01  0.70081071017E+01 -0.38818769674E+02  0.40659137041E+02  0.00000000000E+00 0.  1.
         11    1    3    3    0    0  0.64160075083E+00 -0.31546052648E+01  0.53494048663E+01  0.62433419404E+01  0.51100000000E-03 0. -1.
        -11    1    3    3    0    0  0.14784919110E+02 -0.11981051880E+02  0.20121701685E+02  0.27695167741E+02  0.51100000000E-03 0.  1.
         12    1    3    3    0    0 -0.55697972441E+01  0.81275500432E+01  0.13347663123E+02  0.16590353278E+02  0.00000000000E+00 0. -1.
</event>
<event>
 7    1  0.1161807E-013  0.5052887E+02  0.7816164E-02  0.1300439E+00
        -11   -1    0    0    0    0  0.00000000000E+00  0.00000000000E+00  0.45593999997E+02  0.45594000000E+02  0.51100000000E-03 0. -1.
         11   -1    0    0    0    0 -0.00000000000E+00 -0.00000000000E+00 -0.45593999997E+02  0.45594000000E+02  0.51100000000E-03 0.  1.
    9900012    2    1    2    0    0  0.29735983382E+02  0.14919765776E+02 -0.23373852798E+02  0.50528866793E+02  0.30000021104E+02 0.  0.
         12    1    1    2    0    0 -0.29735983382E+02 -0.14919765776E+02  0.23373852798E+02  0.40659133207E+02  0.00000000000E+00 0. -1.
         11    1    3    3    0    0 -0.23446106255E+01  0.31413115554E+00  0.25663964491E+01  0.34903106399E+01  0.51100000000E-03 0. -1.
        -11    1    3    3    0    0  0.22485632066E+02  0.35855454887E+01 -0.85439921279E+01  0.24319942179E+02  0.51100000000E-03 0.  1.
         12    1    3    3    0    0  0.95949619416E+01  0.11020089132E+02 -0.17396257119E+02  0.22718613974E+02  0.00000000000E+00 0. -1.
</event>
<event>
 7    1  0.1161807E-013  0.5052887E+02  0.7816164E-02  0.1300439E+00
        -11   -1    0    0    0    0  0.00000000000E+00  0.00000000000E+00  0.45593999997E+02  0.45594000000E+02  0.51100000000E-03 0. -1.
         11   -1    0    0    0    0 -0.00000000000E+00 -0.00000000000E+00 -0.45593999997E+02  0.45594000000E+02  0.51100000000E-03 0.  1.
    9900012    2    1    2    0    0 -0.11412779299E+02  0.20913458895E+02 -0.32947544399E+02  0.50528868477E+02  0.30000026223E+02 0.  0.
         12    1    1    2    0    0  0.11412779299E+02 -0.20913458895E+02  0.32947544399E+02  0.40659131523E+02  0.00000000000E+00 0. -1.
         11    1    3    3    0    0 -0.13855211241E+02  0.35165483832E+01 -0.54497890067E+01  0.15298143402E+02  0.51100000000E-03 0. -1.
        -11    1    3    3    0    0  0.43045152499E+00  0.18911692393E+01  0.13877597771E+01  0.23848872232E+01  0.51100000000E-03 0.  1.
        -12    1    3    3    0    0  0.20119804171E+01  0.15505741272E+02 -0.28885515170E+02  0.32845837852E+02  0.00000000000E+00 0.  1.
</event>
<event>
 7    1  0.1161807E-013  0.5052886E+02  0.7816164E-02  0.1300439E+00
        -11   -1    0    0    0    0  0.00000000000E+00  0.00000000000E+00  0.45593999997E+02  0.45594000000E+02  0.51100000000E-03 0. -1.
         11   -1    0    0    0    0 -0.00000000000E+00 -0.00000000000E+00 -0.45593999997E+02  0.45594000000E+02  0.51100000000E-03 0.  1.
    9900012    2    1    2    0    0 -0.27943963406E+02 -0.26297749929E+02 -0.13443550719E+02  0.50528858370E+02  0.29999995501E+02 0.  0.
         12    1    1    2    0    0  0.27943963406E+02  0.26297749929E+02  0.13443550719E+02  0.40659141630E+02  0.00000000000E+00 0. -1.
         11    1    3    3    0    0 -0.14984525892E+01  0.12440646601E+00 -0.54477621334E+01  0.56514555341E+01  0.51100000000E-03 0. -1.
        -11    1    3    3    0    0 -0.23824714036E+02 -0.21751561797E+02 -0.15393104649E+02  0.35744861316E+02  0.51100000000E-03 0.  1.
         12    1    3    3    0    0 -0.26207967811E+01 -0.46705945979E+01  0.73973160634E+01  0.91325415197E+01  0.00000000000E+00 0. -1.
</event>
<event>
 7    1  0.1161807E-013  0.5052887E+02  0.7816164E-02  0.1300439E+00
        -11   -1    0    0    0    0  0.00000000000E+00  0.00000000000E+00  0.45593999997E+02  0.45594000000E+02  0.51100000000E-03 0.  1.
         11   -1    0    0    0    0 -0.00000000000E+00 -0.00000000000E+00 -0.45593999997E+02  0.45594000000E+02  0.51100000000E-03 0. -1.
    9900012    2    1    2    0    0  0.37261481504E+02 -0.13400710368E+02 -0.92286521453E+01  0.50528867414E+02  0.30000022992E+02 0.  0.
        -12    1    1    2    0    0 -0.37261481504E+02  0.13400710368E+02  0.92286521453E+01  0.40659132586E+02  0.00000000000E+00 0.  1.
         11    1    3    3    0    0  0.40637648191E+01 -0.11559287077E+01  0.10829337265E+01  0.43615480507E+01  0.51100000000E-03 0. -1.
        -11    1    3    3    0    0  0.14633771798E+02 -0.32695270762E+01  0.93542385166E+01  0.17673111295E+02  0.51100000000E-03 0.  1.
         12    1    3    3    0    0  0.18563944886E+02 -0.89752545842E+01 -0.19665824388E+02  0.28494208069E+02  0.00000000000E+00 0. -1.
</event>
<event>
 7    1  0.1161807E-013  0.5052886E+02  0.7816164E-02  0.1300439E+00
        -11   -1    0    0    0    0  0.00000000000E+00  0.00000000000E+00  0.45593999997E+02  0.45594000000E+02  0.51100000000E-03 0. -1.
         11   -1    0    0    0    0 -0.00000000000E+00 -0.00000000000E+00 -0.45593999997E+02  0.45594000000E+02  0.51100000000E-03 0.  1.
    9900012    2    1    2    0    0 -0.15981668024E+02  0.44902256682E+01  0.37115900590E+02  0.50528856920E+02  0.29999991095E+02 0.  0.
        -12    1    1    2    0    0  0.15981668024E+02 -0.44902256682E+01 -0.37115900590E+02  0.40659143080E+02  0.00000000000E+00 0.  1.
         11    1    3    3    0    0  0.16775907544E+01 -0.39644364203E+01  0.10304683678E+01  0.44263904243E+01  0.51100000000E-03 0. -1.
        -11    1    3    3    0    0 -0.37993402121E+01 -0.69802160941E+01  0.10180410510E+02  0.12915074958E+02  0.51100000000E-03 0.  1.
         12    1    3    3    0    0 -0.13859918566E+02  0.15434878183E+02  0.25905021712E+02  0.33187391538E+02  0.00000000000E+00 0. -1.
</event>
<event>
 7    1  0.1161807E-013  0.5052886E+02  0.7816164E-02  0.1300439E+00
        -11   -1    0    0    0    0  0.00000000000E+00  0.00000000000E+00  0.45593999997E+02  0.45594000000E+02  0.51100000000E-03 0. -1.
         11   -1    0    0    0    0 -0.00000000000E+00 -0.00000000000E+00 -0.45593999997E+02  0.45594000000E+02  0.51100000000E-03 0.  1.
    9900012    2    1    2    0    0 -0.21664203054E+02  0.18205645546E+02  0.29195590198E+02  0.50528859444E+02  0.29999998767E+02 0.  0.
        -12    1    1    2    0    0  0.21664203054E+02 -0.18205645546E+02 -0.29195590198E+02  0.40659140556E+02  0.00000000000E+00 0.  1.
         11    1    3    3    0    0 -0.44225276293E+01  0.19973563626E+02  0.11706104349E+02  0.23569787310E+02  0.51100000000E-03 0.  1.
        -11    1    3    3    0    0 -0.62231721889E+01 -0.24210043498E+01  0.49653495173E+00  0.66959451442E+01  0.51100000000E-03 0. -1.
        -12    1    3    3    0    0 -0.11018503236E+02  0.65308626998E+00  0.16992950897E+02  0.20263126990E+02  0.00000000000E+00 0.  1.
</event>
<event>
 7    1  0.1161807E-013  0.5052885E+02  0.7816164E-02  0.1300439E+00
        -11   -1    0    0    0    0  0.00000000000E+00  0.00000000000E+00  0.45593999997E+02  0.45594000000E+02  0.51100000000E-03 0.  1.
         11   -1    0    0    0    0 -0.00000000000E+00 -0.00000000000E+00 -0.45593999997E+02  0.45594000000E+02  0.51100000000E-03 0. -1.
    9900012    2    1    2    0    0  0.27465166796E+02 -0.29293417018E+02  0.63817430962E+01  0.50528852041E+02  0.29999976265E+02 0.  0.
        -12    1    1    2    0    0 -0.27465166796E+02  0.29293417018E+02 -0.63817430962E+01  0.40659147959E+02  0.00000000000E+00 0.  1.
         11    1    3    3    0    0  0.72153399553E+00  0.98101961477E+00 -0.18329113152E+01  0.22005851363E+01  0.51100000000E-03 0. -1.
        -11    1    3    3    0    0 -0.43292426435E+01 -0.71003018676E+01  0.43172300612E+01  0.93699041692E+01  0.51100000000E-03 0.  1.
        -12    1    3    3    0    0  0.31072875444E+02 -0.23174134766E+02  0.38974243502E+01  0.38958362736E+02  0.00000000000E+00 0.  1.
</event>
<event>
 7    1  0.1161807E-013  0.5052886E+02  0.7816164E-02  0.1300439E+00
        -11   -1    0    0    0    0  0.00000000000E+00  0.00000000000E+00  0.45593999997E+02  0.45594000000E+02  0.51100000000E-03 0. -1.
         11   -1    0    0    0    0 -0.00000000000E+00 -0.00000000000E+00 -0.45593999997E+02  0.45594000000E+02  0.51100000000E-03 0.  1.
    9900012    2    1    2    0    0 -0.15326706701E+02 -0.14339570919E+02 -0.34822906094E+02  0.50528855626E+02  0.29999987160E+02 0.  0.
         12    1    1    2    0    0  0.15326706701E+02  0.14339570919E+02  0.34822906094E+02  0.40659144374E+02  0.00000000000E+00 0. -1.
         11    1    3    3    0    0 -0.95910832454E+00  0.34983060950E+01 -0.11758339817E+02  0.12305144852E+02  0.51100000000E-03 0. -1.
        -11    1    3    3    0    0  0.20177312052E+00  0.41082458111E+01 -0.25931429599E+01  0.48623848787E+01  0.51100000000E-03 0.  1.
        -12    1    3    3    0    0 -0.14569371497E+02 -0.21946122825E+02 -0.20471423316E+02  0.33361325895E+02  0.00000000000E+00 0.  1.
</event>
<event>
 7    1  0.1161807E-013  0.5052889E+02  0.7816164E-02  0.1300439E+00
        -11   -1    0    0    0    0  0.00000000000E+00  0.00000000000E+00  0.45593999997E+02  0.45594000000E+02  0.51100000000E-03 0. -1.
         11   -1    0    0    0    0 -0.00000000000E+00 -0.00000000000E+00 -0.45593999997E+02  0.45594000000E+02  0.51100000000E-03 0.  1.
    9900012    2    1    2    0    0 -0.12057611518E+02 -0.23261214520E+02  0.31091690805E+02  0.50528888677E+02  0.30000087622E+02 0.  0.
        -12    1    1    2    0    0  0.12057611518E+02  0.23261214520E+02 -0.31091690805E+02  0.40659111323E+02  0.00000000000E+00 0.  1.
         11    1    3    3    0    0 -0.89638758320E+01 -0.14252078185E+02  0.59954567804E+01  0.17872277549E+02  0.51100000000E-03 0. -1.
        -11    1    3    3    0    0 -0.10003757651E+02 -0.47787752273E+01  0.77961969222E+01  0.13553322343E+02  0.51100000000E-03 0.  1.
        -12    1    3    3    0    0  0.69100219649E+01 -0.42303611081E+01  0.17300037102E+02  0.19103288785E+02  0.00000000000E+00 0.  1.
</event>
<event>
 7    1  0.1161807E-013  0.5052887E+02  0.7816164E-02  0.1300439E+00
        -11   -1    0    0    0    0  0.00000000000E+00  0.00000000000E+00  0.45593999997E+02  0.45594000000E+02  0.51100000000E-03 0. -1.
         11   -1    0    0    0    0 -0.00000000000E+00 -0.00000000000E+00 -0.45593999997E+02  0.45594000000E+02  0.51100000000E-03 0.  1.
    9900012    2    1    2    0    0 -0.15541801875E+02 -0.26524695576E+02 -0.26609362455E+02  0.50528865095E+02  0.30000015943E+02 0.  0.
         12    1    1    2    0    0  0.15541801875E+02  0.26524695576E+02  0.26609362455E+02  0.40659134905E+02  0.00000000000E+00 0. -1.
         11    1    3    3    0    0 -0.17396011917E+02 -0.15188018909E+02 -0.96809133283E+01  0.25040312141E+02  0.51100000000E-03 0. -1.
        -11    1    3    3    0    0 -0.62038731202E+01 -0.82923078041E+01 -0.80383214664E+01  0.13109730076E+02  0.51100000000E-03 0.  1.
         12    1    3    3    0    0  0.80580831620E+01 -0.30443688632E+01 -0.88901276606E+01  0.12378822878E+02  0.00000000000E+00 0. -1.
</event>
<event>
 7    1  0.1161807E-013  0.5052890E+02  0.7816164E-02  0.1300439E+00
        -11   -1    0    0    0    0  0.00000000000E+00  0.00000000000E+00  0.45593999997E+02  0.45594000000E+02  0.51100000000E-03 0. -1.
         11   -1    0    0    0    0 -0.00000000000E+00 -0.00000000000E+00 -0.45593999997E+02  0.45594000000E+02  0.51100000000E-03 0.  1.
    9900012    2    1    2    0    0  0.17415301900E+02 -0.53566660719E+01 -0.36347980551E+02  0.50528901365E+02  0.30000126189E+02 0.  0.
         12    1    1    2    0    0 -0.17415301900E+02  0.53566660719E+01  0.36347980551E+02  0.40659098635E+02  0.00000000000E+00 0. -1.
         11    1    3    3    0    0  0.15563492905E+02 -0.19553036006E+01 -0.20624420027E+02  0.25911623363E+02  0.51100000000E-03 0. -1.
        -11    1    3    3    0    0 -0.25178292102E+01  0.13372637705E+01 -0.17658629998E+02  0.17887284646E+02  0.51100000000E-03 0.  1.
         12    1    3    3    0    0  0.43696382057E+01 -0.47386262418E+01  0.19350694749E+01  0.67299933566E+01  0.00000000000E+00 0. -1.
</event>
<event>
 7    1  0.1161807E-013  0.5052886E+02  0.7816164E-02  0.1300439E+00
        -11   -1    0    0    0    0  0.00000000000E+00  0.00000000000E+00  0.45593999997E+02  0.45594000000E+02  0.51100000000E-03 0. -1.
         11   -1    0    0    0    0 -0.00000000000E+00 -0.00000000000E+00 -0.45593999997E+02  0.45594000000E+02  0.51100000000E-03 0.  1.
    9900012    2    1    2    0    0 -0.28256439626E+02 -0.13531612207E+02  0.25915914940E+02  0.50528861341E+02  0.30000004533E+02 0.  0.
        -12    1    1    2    0    0  0.28256439626E+02  0.13531612207E+02 -0.25915914940E+02  0.40659138659E+02  0.00000000000E+00 0.  1.
         11    1    3    3    0    0 -0.85143916783E+01 -0.10160034831E+01  0.13296900204E+02  0.15821968399E+02  0.51100000000E-03 0. -1.
        -11    1    3    3    0    0 -0.28821718405E+01 -0.14622943814E+02  0.87427929003E+01  0.17279288997E+02  0.51100000000E-03 0.  1.
         12    1    3    3    0    0 -0.16859876107E+02  0.21073350897E+01  0.38762218366E+01  0.17427603945E+02  0.00000000000E+00 0. -1.
</event>
<event>
 7    1  0.1161807E-013  0.5052886E+02  0.7816164E-02  0.1300439E+00
        -11   -1    0    0    0    0  0.00000000000E+00  0.00000000000E+00  0.45593999997E+02  0.45594000000E+02  0.51100000000E-03 0. -1.
         11   -1    0    0    0    0 -0.00000000000E+00 -0.00000000000E+00 -0.45593999997E+02  0.45594000000E+02  0.51100000000E-03 0.  1.
    9900012    2    1    2    0    0  0.14842308049E+02 -0.24803730331E+02 -0.28594519696E+02  0.50528859537E+02  0.29999999049E+02 0.  0.
         12    1    1    2    0    0 -0.14842308049E+02  0.24803730331E+02  0.28594519696E+02  0.40659140463E+02  0.00000000000E+00 0. -1.
         11    1    3    3    0    0 -0.19480628431E+01  0.18738781007E+01 -0.10064523532E+01  0.28843222041E+01  0.51100000000E-03 0. -1.
        -11    1    3    3    0    0 -0.24876906928E+01 -0.27370048853E+01 -0.13195894860E+02  0.13704431479E+02  0.51100000000E-03 0.  1.
        -12    1    3    3    0    0  0.19278061585E+02 -0.23940603546E+02 -0.14392172482E+02  0.33940105854E+02  0.00000000000E+00 0.  1.
</event>
<event>
 7    1  0.1161807E-013  0.5052886E+02  0.7816164E-02  0.1300439E+00
        -11   -1    0    0    0    0  0.00000000000E+00  0.00000000000E+00  0.45593999997E+02  0.45594000000E+02  0.51100000000E-03 0. -1.
         11   -1    0    0    0    0 -0.00000000000E+00 -0.00000000000E+00 -0.45593999997E+02  0.45594000000E+02  0.51100000000E-03 0.  1.
    9900012    2    1    2    0    0  0.16412548953E+02 -0.44580521555E+01  0.36931285072E+02  0.50528858233E+02  0.29999995086E+02 0.  0.
        -12    1    1    2    0    0 -0.16412548953E+02  0.44580521555E+01 -0.36931285072E+02  0.40659141767E+02  0.00000000000E+00 0.  1.
         11    1    3    3    0    0  0.19726549590E+01  0.10638474368E+01  0.81360503396E+01  0.84391026979E+01  0.51100000000E-03 0.  1.
        -11    1    3    3    0    0  0.39531439830E+01 -0.23139175991E+01  0.30630235321E+02  0.30970839157E+02  0.51100000000E-03 0. -1.
         12    1    3    3    0    0  0.10486750011E+02 -0.32079819933E+01 -0.18350005890E+01  0.11118916378E+02  0.00000000000E+00 0. -1.
</event>
<event>
 7    1  0.1161807E-013  0.5052886E+02  0.7816164E-02  0.1300439E+00
        -11   -1    0    0    0    0  0.00000000000E+00  0.00000000000E+00  0.45593999997E+02  0.45594000000E+02  0.51100000000E-03 0. -1.
         11   -1    0    0    0    0 -0.00000000000E+00 -0.00000000000E+00 -0.45593999997E+02  0.45594000000E+02  0.51100000000E-03 0.  1.
    9900012    2    1    2    0    0  0.33563677616E+02  0.57716550095E+01  0.22211109817E+02  0.50528857659E+02  0.29999993340E+02 0.  0.
        -12    1    1    2    0    0 -0.33563677616E+02 -0.57716550095E+01 -0.22211109817E+02  0.40659142341E+02  0.00000000000E+00 0.  1.
         11    1    3    3    0    0  0.64384421676E+00  0.51594925049E+01  0.24645379613E+01  0.57540286676E+01  0.51100000000E-03 0. -1.
        -11    1    3    3    0    0  0.23633311646E+02  0.71678130977E+01  0.34952417238E+01  0.24942487424E+02  0.51100000000E-03 0.  1.
        -12    1    3    3    0    0  0.92865217531E+01 -0.65556505930E+01  0.16251330132E+02  0.19832341567E+02  0.00000000000E+00 0.  1.
</event>
<event>
 7    1  0.1161807E-013  0.5052886E+02  0.7816164E-02  0.1300439E+00
        -11   -1    0    0    0    0  0.00000000000E+00  0.00000000000E+00  0.45593999997E+02  0.45594000000E+02  0.51100000000E-03 0.  1.
         11   -1    0    0    0    0 -0.00000000000E+00 -0.00000000000E+00 -0.45593999997E+02  0.45594000000E+02  0.51100000000E-03 0. -1.
    9900012    2    1    2    0    0  0.39477435800E+01 -0.31552019186E+02 -0.25338726055E+02  0.50528860410E+02  0.30000001702E+02 0.  0.
         12    1    1    2    0    0 -0.39477435800E+01  0.31552019186E+02  0.25338726055E+02  0.40659139590E+02  0.00000000000E+00 0. -1.
         11    1    3    3    0    0  0.68430972942E+01 -0.38212655606E+01 -0.32023387996E+01  0.84667009579E+01  0.51100000000E-03 0. -1.
        -11    1    3    3    0    0 -0.60943984876E-01 -0.73062284148E+00  0.41849897768E+01  0.42487249380E+01  0.51100000000E-03 0.  1.
        -12    1    3    3    0    0 -0.28344097294E+01 -0.27000130784E+02 -0.26321377032E+02  0.37813434514E+02  0.00000000000E+00 0.  1.
</event>
<event>
 7    1  0.1161807E-013  0.5052887E+02  0.7816164E-02  0.1300439E+00
        -11   -1    0    0    0    0  0.00000000000E+00  0.00000000000E+00  0.45593999997E+02  0.45594000000E+02  0.51100000000E-03 0. -1.
         11   -1    0    0    0    0 -0.00000000000E+00 -0.00000000000E+00 -0.45593999997E+02  0.45594000000E+02  0.51100000000E-03 0.  1.
    9900012    2    1    2    0    0 -0.30646748833E+02  0.43492621662E+01 -0.26363334697E+02  0.50528871728E+02  0.30000036105E+02 0.  0.
         12    1    1    2    0    0  0.30646748833E+02 -0.43492621662E+01  0.26363334697E+02  0.40659128272E+02  0.00000000000E+00 0. -1.
         11    1    3    3    0    0 -0.15893531454E+02  0.28236538887E+00  0.26699995971E+01  0.16118714911E+02  0.51100000000E-03 0. -1.
        -11    1    3    3    0    0  0.58636807383E+00 -0.45223006911E+00  0.45195861305E+00  0.86752890582E+00  0.51100000000E-03 0.  1.
        -12    1    3    3    0    0 -0.15339585453E+02  0.45191268464E+01 -0.29485292908E+02  0.33542627911E+02  0.00000000000E+00 0.  1.
</event>
<event>
 7    1  0.1161807E-013  0.5052887E+02  0.7816164E-02  0.1300439E+00
        -11   -1    0    0    0    0  0.00000000000E+00  0.00000000000E+00  0.45593999997E+02  0.45594000000E+02  0.51100000000E-03 0. -1.
         11   -1    0    0    0    0 -0.00000000000E+00 -0.00000000000E+00 -0.45593999997E+02  0.45594000000E+02  0.51100000000E-03 0.  1.
    9900012    2    1    2    0    0 -0.20719271451E+02 -0.12479062457E+02  0.32682560207E+02  0.50528868788E+02  0.30000027168E+02 0.  0.
        -12    1    1    2    0    0  0.20719271451E+02  0.12479062457E+02 -0.32682560207E+02  0.40659131212E+02  0.00000000000E+00 0.  1.
         11    1    3    3    0    0 -0.77221754562E+01 -0.22935799872E+01  0.87124389402E+01  0.11865879465E+02  0.51100000000E-03 0. -1.
        -11    1    3    3    0    0 -0.19157219373E+02 -0.12291940969E+02  0.22465456570E+02  0.31981050734E+02  0.51100000000E-03 0.  1.
        -12    1    3    3    0    0  0.61601233789E+01  0.21064584993E+01  0.15046646962E+01  0.66819385885E+01  0.00000000000E+00 0.  1.
</event>
<event>
 7    1  0.1161807E-013  0.5052879E+02  0.7816164E-02  0.1300439E+00
        -11   -1    0    0    0    0  0.00000000000E+00  0.00000000000E+00  0.45593999997E+02  0.45594000000E+02  0.51100000000E-03 0. -1.
         11   -1    0    0    0    0 -0.00000000000E+00 -0.00000000000E+00 -0.45593999997E+02  0.45594000000E+02  0.51100000000E-03 0.  1.
    9900012    2    1    2    0    0  0.18979113647E+02 -0.19105295864E+02 -0.30462304773E+02  0.50528793208E+02  0.29999797434E+02 0.  0.
         12    1    1    2    0    0 -0.18979113647E+02  0.19105295864E+02  0.30462304773E+02  0.40659206792E+02  0.00000000000E+00 0. -1.
         11    1    3    3    0    0  0.14464941829E+02 -0.19055717431E+01 -0.16026624796E+02  0.21672988912E+02  0.51100000000E-03 0. -1.
        -11    1    3    3    0    0  0.89272215524E+01 -0.38295535023E+01 -0.10351905675E+02  0.14195869682E+02  0.51100000000E-03 0.  1.
         12    1    3    3    0    0 -0.44130497341E+01 -0.13370170619E+02 -0.40837743031E+01  0.14659934614E+02  0.00000000000E+00 0. -1.
</event>
<event>
 7    1  0.1161807E-013  0.5052889E+02  0.7816164E-02  0.1300439E+00
        -11   -1    0    0    0    0  0.00000000000E+00  0.00000000000E+00  0.45593999997E+02  0.45594000000E+02  0.51100000000E-03 0. -1.
         11   -1    0    0    0    0 -0.00000000000E+00 -0.00000000000E+00 -0.45593999997E+02  0.45594000000E+02  0.51100000000E-03 0.  1.
    9900012    2    1    2    0    0  0.24231432693E+02  0.24183862375E+02  0.21934944569E+02  0.50528888807E+02  0.30000088017E+02 0.  0.
        -12    1    1    2    0    0 -0.24231432693E+02 -0.24183862375E+02 -0.21934944569E+02  0.40659111193E+02  0.00000000000E+00 0.  1.
         11    1    3    3    0    0  0.11521784344E+02  0.42103915430E+01  0.25200547407E+01  0.12523162044E+02  0.51100000000E-03 0. -1.
        -11    1    3    3    0    0  0.14445868013E+02  0.23522955718E+02  0.19892861081E+02  0.34025556140E+02  0.51100000000E-03 0.  1.
        -12    1    3    3    0    0 -0.17362196637E+01 -0.35494848857E+01 -0.47797125246E+00  0.39801706235E+01  0.00000000000E+00 0.  1.
</event>
<event>
 7    1  0.1161807E-013  0.5052886E+02  0.7816164E-02  0.1300439E+00
        -11   -1    0    0    0    0  0.00000000000E+00  0.00000000000E+00  0.45593999997E+02  0.45594000000E+02  0.51100000000E-03 0. -1.
         11   -1    0    0    0    0 -0.00000000000E+00 -0.00000000000E+00 -0.45593999997E+02  0.45594000000E+02  0.51100000000E-03 0.  1.
    9900012    2    1    2    0    0 -0.82442137113E+01 -0.18447717589E+02  0.35282856414E+02  0.50528864487E+02  0.30000014094E+02 0.  0.
        -12    1    1    2    0    0  0.82442137113E+01  0.18447717589E+02 -0.35282856414E+02  0.40659135513E+02  0.00000000000E+00 0.  1.
         11    1    3    3    0    0  0.43797388554E+01 -0.95630411100E+01  0.25977877247E+02  0.28026487012E+02  0.51100000000E-03 0. -1.
        -11    1    3    3    0    0  0.54015245972E+00 -0.55931368460E+00  0.66580231126E+01  0.67032729697E+01  0.51100000000E-03 0.  1.
         12    1    3    3    0    0 -0.13164105026E+02 -0.83253627947E+01  0.26469560544E+01  0.15799104505E+02  0.00000000000E+00 0. -1.
</event>
<event>
 7    1  0.1161807E-013  0.5052887E+02  0.7816164E-02  0.1300439E+00
        -11   -1    0    0    0    0  0.00000000000E+00  0.00000000000E+00  0.45593999997E+02  0.45594000000E+02  0.51100000000E-03 0.  1.
         11   -1    0    0    0    0 -0.00000000000E+00 -0.00000000000E+00 -0.45593999997E+02  0.45594000000E+02  0.51100000000E-03 0. -1.
    9900012    2    1    2    0    0 -0.70959621657E+01  0.37919326519E+02 -0.12842764104E+02  0.50528873195E+02  0.30000040563E+02 0.  0.
         12    1    1    2    0    0  0.70959621657E+01 -0.37919326519E+02  0.12842764104E+02  0.40659126805E+02  0.00000000000E+00 0. -1.
         11    1    3    3    0    0 -0.98714294274E+01  0.14200352944E+02 -0.11708008979E+02  0.20884746041E+02  0.51100000000E-03 0. -1.
        -11    1    3    3    0    0 -0.54932291110E+01  0.12956384874E+02  0.47475527237E+01  0.14852027882E+02  0.51100000000E-03 0.  1.
         12    1    3    3    0    0  0.82686963727E+01  0.10762588701E+02 -0.58823078480E+01  0.14792099272E+02  0.00000000000E+00 0. -1.
</event>
<event>
 7    1  0.1161807E-013  0.5052885E+02  0.7816164E-02  0.1300439E+00
        -11   -1    0    0    0    0  0.00000000000E+00  0.00000000000E+00  0.45593999997E+02  0.45594000000E+02  0.51100000000E-03 0. -1.
         11   -1    0    0    0    0 -0.00000000000E+00 -0.00000000000E+00 -0.45593999997E+02  0.45594000000E+02  0.51100000000E-03 0.  1.
    9900012    2    1    2    0    0 -0.37661606814E+02  0.14892531756E+02  0.36030659406E+01  0.50528853255E+02  0.29999979953E+02 0.  0.
        -12    1    1    2    0    0  0.37661606814E+02 -0.14892531756E+02 -0.36030659406E+01  0.40659146745E+02  0.00000000000E+00 0.  1.
         11    1    3    3    0    0 -0.18684122233E+02  0.16546032178E+02  0.68143828503E+01  0.25870899063E+02  0.51100000000E-03 0. -1.
        -11    1    3    3    0    0 -0.53893073818E+01  0.65529702073E+01 -0.11764083307E+00  0.84852750232E+01  0.51100000000E-03 0.  1.
        -12    1    3    3    0    0 -0.13588177199E+02 -0.82064706301E+01 -0.30936760767E+01  0.16172679168E+02  0.00000000000E+00 0.  1.
</event>
<event>
 7    1  0.1161807E-013  0.5052886E+02  0.7816164E-02  0.1300439E+00
        -11   -1    0    0    0    0  0.00000000000E+00  0.00000000000E+00  0.45593999997E+02  0.45594000000E+02  0.51100000000E-03 0. -1.
         11   -1    0    0    0    0 -0.00000000000E+00 -0.00000000000E+00 -0.45593999997E+02  0.45594000000E+02  0.51100000000E-03 0.  1.
    9900012    2    1    2    0    0  0.14309801504E+02 -0.10541292949E+01 -0.38043181779E+02  0.50528864648E+02  0.30000014586E+02 0.  0.
         12    1    1    2    0    0 -0.14309801504E+02  0.10541292949E+01  0.38043181779E+02  0.40659135352E+02  0.00000000000E+00 0. -1.
         11    1    3    3    0    0  0.15302982770E+02 -0.92507817512E-01 -0.20117121935E+02  0.25276242492E+02  0.51100000000E-03 0. -1.
        -11    1    3    3    0    0  0.65930546403E+01  0.45247146618E+01 -0.11035513188E+02  0.13628057963E+02  0.51100000000E-03 0.  1.
         12    1    3    3    0    0 -0.75862359059E+01 -0.54863361392E+01 -0.68905466568E+01  0.11624564193E+02  0.00000000000E+00 0. -1.
</event>
<event>
 7    1  0.1161807E-013  0.5052886E+02  0.7816164E-02  0.1300439E+00
        -11   -1    0    0    0    0  0.00000000000E+00  0.00000000000E+00  0.45593999997E+02  0.45594000000E+02  0.51100000000E-03 0. -1.
         11   -1    0    0    0    0 -0.00000000000E+00 -0.00000000000E+00 -0.45593999997E+02  0.45594000000E+02  0.51100000000E-03 0.  1.
    9900012    2    1    2    0    0  0.20288865002E+02  0.52985561901E+01 -0.34834653528E+02  0.50528858012E+02  0.29999994414E+02 0.  0.
         12    1    1    2    0    0 -0.20288865002E+02 -0.52985561901E+01  0.34834653528E+02  0.40659141988E+02  0.00000000000E+00 0. -1.
         11    1    3    3    0    0  0.90782801324E+01  0.90139546310E+00 -0.44803223825E+01  0.10163708617E+02  0.51100000000E-03 0. -1.
        -11    1    3    3    0    0  0.16259657363E+02 -0.30408805621E+01 -0.24758560964E+02  0.29775992904E+02  0.51100000000E-03 0.  1.
         12    1    3    3    0    0 -0.50490724934E+01  0.74380412891E+01 -0.55957701811E+01  0.10589156491E+02  0.00000000000E+00 0. -1.
</event>
<event>
 7    1  0.1161807E-013  0.5052885E+02  0.7816164E-02  0.1300439E+00
        -11   -1    0    0    0    0  0.00000000000E+00  0.00000000000E+00  0.45593999997E+02  0.45594000000E+02  0.51100000000E-03 0. -1.
         11   -1    0    0    0    0 -0.00000000000E+00 -0.00000000000E+00 -0.45593999997E+02  0.45594000000E+02  0.51100000000E-03 0.  1.
    9900012    2    1    2    0    0  0.99081180266E+01 -0.11405181733E+02  0.37748081213E+02  0.50528848405E+02  0.29999965212E+02 0.  0.
        -12    1    1    2    0    0 -0.99081180266E+01  0.11405181733E+02 -0.37748081213E+02  0.40659151595E+02  0.00000000000E+00 0.  1.
         11    1    3    3    0    0  0.17650802417E+01  0.40141753627E+01  0.19245196290E+01  0.47888295194E+01  0.51100000000E-03 0.  1.
        -11    1    3    3    0    0 -0.79072124169E+00 -0.13362538775E+02  0.33796835478E+02  0.36351186655E+02  0.51100000000E-03 0. -1.
         12    1    3    3    0    0  0.89337590266E+01 -0.20568183203E+01  0.20267261052E+01  0.93888322305E+01  0.00000000000E+00 0. -1.
</event>
<event>
 7    1  0.1161807E-013  0.5052884E+02  0.7816164E-02  0.1300439E+00
        -11   -1    0    0    0    0  0.00000000000E+00  0.00000000000E+00  0.45593999997E+02  0.45594000000E+02  0.51100000000E-03 0. -1.
         11   -1    0    0    0    0 -0.00000000000E+00 -0.00000000000E+00 -0.45593999997E+02  0.45594000000E+02  0.51100000000E-03 0.  1.
    9900012    2    1    2    0    0  0.30232693960E+02 -0.13356341446E+02  0.23680358793E+02  0.50528843178E+02  0.29999949324E+02 0.  0.
        -12    1    1    2    0    0 -0.30232693960E+02  0.13356341446E+02 -0.23680358793E+02  0.40659156822E+02  0.00000000000E+00 0.  1.
         11    1    3    3    0    0  0.24285579573E+01 -0.11126018984E+02  0.20256014828E+01  0.11566730472E+02  0.51100000000E-03 0. -1.
        -11    1    3    3    0    0 -0.10316780820E+01 -0.33743056919E+01  0.21931220786E+01  0.41545256383E+01  0.51100000000E-03 0.  1.
         12    1    3    3    0    0  0.28835814085E+02  0.11439832298E+01  0.19461635231E+02  0.34807587067E+02  0.00000000000E+00 0. -1.
</event>
<event>
 7    1  0.1161807E-013  0.5052884E+02  0.7816164E-02  0.1300439E+00
        -11   -1    0    0    0    0  0.00000000000E+00  0.00000000000E+00  0.45593999997E+02  0.45594000000E+02  0.51100000000E-03 0. -1.
         11   -1    0    0    0    0 -0.00000000000E+00 -0.00000000000E+00 -0.45593999997E+02  0.45594000000E+02  0.51100000000E-03 0.  1.
    9900012    2    1    2    0    0 -0.34001473097E+02  0.15445536165E+02 -0.16078005860E+02  0.50528843188E+02  0.29999949355E+02 0.  0.
         12    1    1    2    0    0  0.34001473097E+02 -0.15445536165E+02  0.16078005860E+02  0.40659156812E+02  0.00000000000E+00 0. -1.
         11    1    3    3    0    0  0.87976636453E+00 -0.43470867375E+01 -0.28975491833E+01  0.52978244110E+01  0.51100000000E-03 0. -1.
        -11    1    3    3    0    0 -0.14238386250E+01 -0.25960420788E+01 -0.14662086238E+01  0.33040155712E+01  0.51100000000E-03 0.  1.
        -12    1    3    3    0    0 -0.33457400837E+02  0.22388664982E+02 -0.11714248053E+02  0.41927003206E+02  0.00000000000E+00 0.  1.
</event>
<event>
 7    1  0.1161807E-013  0.5052886E+02  0.7816164E-02  0.1300439E+00
        -11   -1    0    0    0    0  0.00000000000E+00  0.00000000000E+00  0.45593999997E+02  0.45594000000E+02  0.51100000000E-03 0.  1.
         11   -1    0    0    0    0 -0.00000000000E+00 -0.00000000000E+00 -0.45593999997E+02  0.45594000000E+02  0.51100000000E-03 0. -1.
    9900012    2    1    2    0    0 -0.37765277589E+02 -0.14804396167E+02 -0.27891271230E+01  0.50528861207E+02  0.30000004125E+02 0.  0.
         12    1    1    2    0    0  0.37765277589E+02  0.14804396167E+02  0.27891271230E+01  0.40659138793E+02  0.00000000000E+00 0. -1.
         11    1    3    3    0    0 -0.21706284042E+02 -0.51270132777E+01  0.68357398283E+01  0.23327588202E+02  0.51100000000E-03 0. -1.
        -11    1    3    3    0    0 -0.74612691084E+01 -0.28655691237E+01  0.46127567434E+01  0.92281931138E+01  0.51100000000E-03 0.  1.
         12    1    3    3    0    0 -0.85977244395E+01 -0.68118137658E+01 -0.14237623695E+02  0.17973079892E+02  0.00000000000E+00 0. -1.
</event>
<event>
 7    1  0.1161807E-013  0.5052886E+02  0.7816164E-02  0.1300439E+00
        -11   -1    0    0    0    0  0.00000000000E+00  0.00000000000E+00  0.45593999997E+02  0.45594000000E+02  0.51100000000E-03 0. -1.
         11   -1    0    0    0    0 -0.00000000000E+00 -0.00000000000E+00 -0.45593999997E+02  0.45594000000E+02  0.51100000000E-03 0.  1.
    9900012    2    1    2    0    0  0.20905684136E+02  0.23696848784E+02 -0.25584714826E+02  0.50528857065E+02  0.29999991535E+02 0.  0.
         12    1    1    2    0    0 -0.20905684136E+02 -0.23696848784E+02  0.25584714826E+02  0.40659142935E+02  0.00000000000E+00 0. -1.
         11    1    3    3    0    0  0.82537846883E+01  0.45473088848E+01 -0.57921496100E+01  0.11061282798E+02  0.51100000000E-03 0. -1.
        -11    1    3    3    0    0  0.14174250285E+02  0.15282961374E+02 -0.17105500665E+01  0.20914211945E+02  0.51100000000E-03 0.  1.
         12    1    3    3    0    0 -0.15223508377E+01  0.38665785250E+01 -0.18082015150E+02  0.18553362321E+02  0.00000000000E+00 0. -1.
</event>
<event>
 7    1  0.1161807E-013  0.5052886E+02  0.7816164E-02  0.1300439E+00
        -11   -1    0    0    0    0  0.00000000000E+00  0.00000000000E+00  0.45593999997E+02  0.45594000000E+02  0.51100000000E-03 0. -1.
         11   -1    0    0    0    0 -0.00000000000E+00 -0.00000000000E+00 -0.45593999997E+02  0.45594000000E+02  0.51100000000E-03 0.  1.
    9900012    2    1    2    0    0 -0.45754608398E+01  0.12512553176E+01 -0.40381491438E+02  0.50528864096E+02  0.30000012905E+02 0.  0.
         12    1    1    2    0    0  0.45754608398E+01 -0.12512553176E+01  0.40381491438E+02  0.40659135904E+02  0.00000000000E+00 0. -1.
         11    1    3    3    0    0  0.65415542717E+01  0.26598045101E+01 -0.25866328543E+02  0.26812934283E+02  0.51100000000E-03 0. -1.
        -11    1    3    3    0    0 -0.63824900575E+01  0.11788621122E-01 -0.17017943437E+02  0.18175442701E+02  0.51100000000E-03 0.  1.
        -12    1    3    3    0    0 -0.47345250540E+01 -0.14203378136E+01  0.25027805418E+01  0.55404871115E+01  0.00000000000E+00 0.  1.
</event>
<event>
 7    1  0.1161807E-013  0.5052886E+02  0.7816164E-02  0.1300439E+00
        -11   -1    0    0    0    0  0.00000000000E+00  0.00000000000E+00  0.45593999997E+02  0.45594000000E+02  0.51100000000E-03 0. -1.
         11   -1    0    0    0    0 -0.00000000000E+00 -0.00000000000E+00 -0.45593999997E+02  0.45594000000E+02  0.51100000000E-03 0.  1.
    9900012    2    1    2    0    0 -0.11718825338E+02 -0.25260864831E+02 -0.29626401748E+02  0.50528857856E+02  0.29999993940E+02 0.  0.
         12    1    1    2    0    0  0.11718825338E+02  0.25260864831E+02  0.29626401748E+02  0.40659142144E+02  0.00000000000E+00 0. -1.
         11    1    3    3    0    0 -0.12753625750E+02 -0.11302308949E+02 -0.80974835520E+01  0.18867071779E+02  0.51100000000E-03 0. -1.
        -11    1    3    3    0    0 -0.39034359555E+01 -0.16859244529E+02 -0.17812025297E+02  0.24834234110E+02  0.51100000000E-03 0.  1.
        -12    1    3    3    0    0  0.49382363675E+01  0.29006886480E+01 -0.37168928990E+01  0.68275519681E+01  0.00000000000E+00 0.  1.
</event>
<event>
 7    1  0.1161807E-013  0.5052886E+02  0.7816164E-02  0.1300439E+00
        -11   -1    0    0    0    0  0.00000000000E+00  0.00000000000E+00  0.45593999997E+02  0.45594000000E+02  0.51100000000E-03 0. -1.
         11   -1    0    0    0    0 -0.00000000000E+00 -0.00000000000E+00 -0.45593999997E+02  0.45594000000E+02  0.51100000000E-03 0.  1.
    9900012    2    1    2    0    0  0.34201560609E+01  0.10508474349E+02 -0.39128506938E+02  0.50528861349E+02  0.30000004557E+02 0.  0.
         12    1    1    2    0    0 -0.34201560609E+01 -0.10508474349E+02  0.39128506938E+02  0.40659138651E+02  0.00000000000E+00 0. -1.
         11    1    3    3    0    0  0.11202850586E+02 -0.31678600647E+01 -0.63485471734E+01  0.13260590112E+02  0.51100000000E-03 0. -1.
        -11    1    3    3    0    0  0.86998610599E+00  0.75913058772E+00 -0.75120753629E+01  0.76002915466E+01  0.51100000000E-03 0.  1.
        -12    1    3    3    0    0 -0.86526806314E+01  0.12917203826E+02 -0.25267884402E+02  0.29667979691E+02  0.00000000000E+00 0.  1.
</event>
<event>
 7    1  0.1161807E-013  0.5052885E+02  0.7816164E-02  0.1300439E+00
        -11   -1    0    0    0    0  0.00000000000E+00  0.00000000000E+00  0.45593999997E+02  0.45594000000E+02  0.51100000000E-03 0. -1.
         11   -1    0    0    0    0 -0.00000000000E+00 -0.00000000000E+00 -0.45593999997E+02  0.45594000000E+02  0.51100000000E-03 0.  1.
    9900012    2    1    2    0    0  0.27917978085E+02  0.90777782968E+01 -0.28130888939E+02  0.50528850086E+02  0.29999970323E+02 0.  0.
         12    1    1    2    0    0 -0.27917978085E+02 -0.90777782968E+01  0.28130888939E+02  0.40659149914E+02  0.00000000000E+00 0. -1.
         11    1    3    3    0    0  0.11563693026E+02  0.10428330563E+02 -0.22360676660E+02  0.27248283170E+02  0.51100000000E-03 0. -1.
        -11    1    3    3    0    0  0.54190609338E+01  0.12654072866E+01 -0.98551468267E+01  0.11317746960E+02  0.51100000000E-03 0.  1.
         12    1    3    3    0    0  0.10935224126E+02 -0.26159595527E+01  0.40849345479E+01  0.11962819957E+02  0.00000000000E+00 0. -1.
</event>
<event>
 7    1  0.1161807E-013  0.5052887E+02  0.7816164E-02  0.1300439E+00
        -11   -1    0    0    0    0  0.00000000000E+00  0.00000000000E+00  0.45593999997E+02  0.45594000000E+02  0.51100000000E-03 0. -1.
         11   -1    0    0    0    0 -0.00000000000E+00 -0.00000000000E+00 -0.45593999997E+02  0.45594000000E+02  0.51100000000E-03 0.  1.
    9900012    2    1    2    0    0 -0.21591596043E+02  0.12854112519E+01  0.34428414529E+02  0.50528867831E+02  0.30000024258E+02 0.  0.
        -12    1    1    2    0    0  0.21591596043E+02 -0.12854112519E+01 -0.34428414529E+02  0.40659132169E+02  0.00000000000E+00 0.  1.
         11    1    3    3    0    0 -0.84879148895E+01 -0.88332821933E+01  0.17343902282E+02  0.21233994446E+02  0.51100000000E-03 0. -1.
        -11    1    3    3    0    0 -0.40710428159E+01 -0.47611902653E+01  0.32336307882E+01  0.70497298308E+01  0.51100000000E-03 0.  1.
         12    1    3    3    0    0 -0.90326383376E+01  0.14879883710E+02  0.13850881459E+02  0.22245143554E+02  0.00000000000E+00 0. -1.
</event>
<event>
 7    1  0.1161807E-013  0.5052887E+02  0.7816164E-02  0.1300439E+00
        -11   -1    0    0    0    0  0.00000000000E+00  0.00000000000E+00  0.45593999997E+02  0.45594000000E+02  0.51100000000E-03 0. -1.
         11   -1    0    0    0    0 -0.00000000000E+00 -0.00000000000E+00 -0.45593999997E+02  0.45594000000E+02  0.51100000000E-03 0.  1.
    9900012    2    1    2    0    0  0.12854137300E+02  0.10277078850E+02  0.37179530914E+02  0.50528871696E+02  0.30000036008E+02 0.  0.
        -12    1    1    2    0    0 -0.12854137300E+02 -0.10277078850E+02 -0.37179530914E+02  0.40659128304E+02  0.00000000000E+00 0.  1.
         11    1    3    3    0    0  0.12840721356E+02 -0.26928969357E+01  0.23744303802E+02  0.27127988908E+02  0.51100000000E-03 0. -1.
        -11    1    3    3    0    0  0.24648301067E+01 -0.24670557454E+01  0.30677592602E+01  0.46446634588E+01  0.51100000000E-03 0.  1.
        -12    1    3    3    0    0 -0.24514141631E+01  0.15437031531E+02  0.10367467852E+02  0.18756219330E+02  0.00000000000E+00 0.  1.
</event>
<event>
 7    1  0.1161807E-013  0.5052885E+02  0.7816164E-02  0.1300439E+00
        -11   -1    0    0    0    0  0.00000000000E+00  0.00000000000E+00  0.45593999997E+02  0.45594000000E+02  0.51100000000E-03 0. -1.
         11   -1    0    0    0    0 -0.00000000000E+00 -0.00000000000E+00 -0.45593999997E+02  0.45594000000E+02  0.51100000000E-03 0.  1.
    9900012    2    1    2    0    0  0.14863942528E+02  0.25813763289E+02 -0.27674526929E+02  0.50528848467E+02  0.29999965400E+02 0.  0.
         12    1    1    2    0    0 -0.14863942528E+02 -0.25813763289E+02  0.27674526929E+02  0.40659151533E+02  0.00000000000E+00 0. -1.
         11    1    3    3    0    0  0.41098145318E+01  0.13271665452E+02 -0.25493004164E+02  0.29033100780E+02  0.51100000000E-03 0. -1.
        -11    1    3    3    0    0  0.42440753848E+01 -0.38444078413E+00 -0.51876685878E+01  0.67135591326E+01  0.51100000000E-03 0.  1.
         12    1    3    3    0    0  0.65100526118E+01  0.12926538622E+02  0.30061458227E+01  0.14782188554E+02  0.00000000000E+00 0. -1.
</event>
<event>
 7    1  0.1161807E-013  0.5052886E+02  0.7816164E-02  0.1300439E+00
        -11   -1    0    0    0    0  0.00000000000E+00  0.00000000000E+00  0.45593999997E+02  0.45594000000E+02  0.51100000000E-03 0. -1.
         11   -1    0    0    0    0 -0.00000000000E+00 -0.00000000000E+00 -0.45593999997E+02  0.45594000000E+02  0.51100000000E-03 0.  1.
    9900012    2    1    2    0    0  0.32895127184E+02  0.21077415431E+02 -0.11261385763E+02  0.50528860277E+02  0.30000001297E+02 0.  0.
         12    1    1    2    0    0 -0.32895127184E+02 -0.21077415431E+02  0.11261385763E+02  0.40659139723E+02  0.00000000000E+00 0. -1.
         11    1    3    3    0    0  0.23459289974E+02  0.12177821208E+02 -0.88034944076E+01  0.27859273672E+02  0.51100000000E-03 0. -1.
        -11    1    3    3    0    0  0.11507564236E+02  0.32823265710E+01 -0.80941201201E+01  0.14446884894E+02  0.51100000000E-03 0.  1.
         12    1    3    3    0    0 -0.20717270251E+01  0.56172676521E+01  0.56362287649E+01  0.82227017112E+01  0.00000000000E+00 0. -1.
</event>
<event>
 7    1  0.1161807E-013  0.5052882E+02  0.7816164E-02  0.1300439E+00
        -11   -1    0    0    0    0  0.00000000000E+00  0.00000000000E+00  0.45593999997E+02  0.45594000000E+02  0.51100000000E-03 0. -1.
         11   -1    0    0    0    0 -0.00000000000E+00 -0.00000000000E+00 -0.45593999997E+02  0.45594000000E+02  0.51100000000E-03 0.  1.
    9900012    2    1    2    0    0 -0.36570969599E+02  0.16236790506E+02  0.72179943360E+01  0.50528823600E+02  0.29999889813E+02 0.  0.
        -12    1    1    2    0    0  0.36570969599E+02 -0.16236790506E+02 -0.72179943360E+01  0.40659176400E+02  0.00000000000E+00 0.  1.
         11    1    3    3    0    0 -0.17899396717E+02 -0.88359039477E+00  0.22030832526E+01  0.18056098994E+02  0.51100000000E-03 0. -1.
        -11    1    3    3    0    0 -0.20924458864E+02  0.17752956692E+02  0.80900125807E+01  0.28608543373E+02  0.51100000000E-03 0.  1.
        -12    1    3    3    0    0  0.22528859823E+01 -0.63257579166E+00 -0.30751014974E+01  0.38641812329E+01  0.00000000000E+00 0.  1.
</event>
<event>
 7    1  0.1435001E-013  0.5052885E+02  0.7816164E-02  0.1300439E+00
        -11   -1    0    0    0    0  0.00000000000E+00  0.00000000000E+00  0.45593999997E+02  0.45594000000E+02  0.51100000000E-03 0. -1.
         11   -1    0    0    0    0 -0.00000000000E+00 -0.00000000000E+00 -0.45593999997E+02  0.45594000000E+02  0.51100000000E-03 0.  1.
    9900012    2    1    2    0    0  0.17774176662E+02  0.18518952362E+02 -0.31532419459E+02  0.50528850605E+02  0.29999971898E+02 0.  0.
         12    1    1    2    0    0 -0.17774176662E+02 -0.18518952362E+02  0.31532419459E+02  0.40659149395E+02  0.00000000000E+00 0. -1.
         11    1    3    3    0    0  0.29147660615E+01 -0.11561919706E+01  0.22877843080E+01  0.38815716362E+01  0.51100000000E-03 0. -1.
        -11    1    3    3    0    0  0.12780557679E+02  0.15679064420E+02 -0.10299702877E+02  0.22699330283E+02  0.51100000000E-03 0.  1.
        -12    1    3    3    0    0  0.20788529213E+01  0.39960799129E+01 -0.23520500890E+02  0.23947948686E+02  0.00000000000E+00 0.  1.
</event>
<event>
 7    1  0.1161807E-013  0.5052885E+02  0.7816164E-02  0.1300439E+00
        -11   -1    0    0    0    0  0.00000000000E+00  0.00000000000E+00  0.45593999997E+02  0.45594000000E+02  0.51100000000E-03 0. -1.
         11   -1    0    0    0    0 -0.00000000000E+00 -0.00000000000E+00 -0.45593999997E+02  0.45594000000E+02  0.51100000000E-03 0.  1.
    9900012    2    1    2    0    0 -0.12226752804E+02  0.85127311649E-01  0.38777126039E+02  0.50528853002E+02  0.29999979185E+02 0.  0.
        -12    1    1    2    0    0  0.12226752804E+02 -0.85127311649E-01 -0.38777126039E+02  0.40659146998E+02  0.00000000000E+00 0.  1.
         11    1    3    3    0    0 -0.59028535204E+01 -0.13652403841E+02  0.18897733601E+02  0.24049036277E+02  0.51100000000E-03 0. -1.
        -11    1    3    3    0    0  0.19815436714E+01  0.34376412051E+01  0.68126070049E+01  0.78838763841E+01  0.51100000000E-03 0.  1.
        -12    1    3    3    0    0 -0.83054429545E+01  0.10299889948E+02  0.13066785433E+02  0.18595940341E+02  0.00000000000E+00 0.  1.
</event>
<event>
 7    1  0.1161807E-013  0.5052886E+02  0.7816164E-02  0.1300439E+00
        -11   -1    0    0    0    0  0.00000000000E+00  0.00000000000E+00  0.45593999997E+02  0.45594000000E+02  0.51100000000E-03 0. -1.
         11   -1    0    0    0    0 -0.00000000000E+00 -0.00000000000E+00 -0.45593999997E+02  0.45594000000E+02  0.51100000000E-03 0.  1.
    9900012    2    1    2    0    0 -0.60353153942E+01 -0.17630275974E+02 -0.36137435008E+02  0.50528857463E+02  0.29999992746E+02 0.  0.
         12    1    1    2    0    0  0.60353153942E+01  0.17630275974E+02  0.36137435008E+02  0.40659142537E+02  0.00000000000E+00 0. -1.
         11    1    3    3    0    0  0.71999544067E+01 -0.36434245942E+01 -0.62307009303E+00  0.80933369406E+01  0.51100000000E-03 0. -1.
        -11    1    3    3    0    0 -0.78862143701E+01 -0.15656515255E+02 -0.25210132983E+02  0.30706182640E+02  0.51100000000E-03 0.  1.
        -12    1    3    3    0    0 -0.53490554308E+01  0.16696638753E+01 -0.10304231933E+02  0.11729337883E+02  0.00000000000E+00 0.  1.
</event>
<event>
 7    1  0.1161807E-013  0.5052886E+02  0.7816164E-02  0.1300439E+00
        -11   -1    0    0    0    0  0.00000000000E+00  0.00000000000E+00  0.45593999997E+02  0.45594000000E+02  0.51100000000E-03 0. -1.
         11   -1    0    0    0    0 -0.00000000000E+00 -0.00000000000E+00 -0.45593999997E+02  0.45594000000E+02  0.51100000000E-03 0.  1.
    9900012    2    1    2    0    0  0.39727090119E+01  0.34273705586E+02  0.21510380122E+02  0.50528858784E+02  0.29999996758E+02 0.  0.
        -12    1    1    2    0    0 -0.39727090119E+01 -0.34273705586E+02 -0.21510380122E+02  0.40659141216E+02  0.00000000000E+00 0.  1.
         11    1    3    3    0    0  0.10086962996E+01  0.15571227949E+02  0.12085534247E+02  0.19736786627E+02  0.51100000000E-03 0. -1.
        -11    1    3    3    0    0 -0.59330438354E+01  0.15498719926E+02  0.12578475505E+02  0.20823769467E+02  0.51100000000E-03 0.  1.
        -12    1    3    3    0    0  0.88970565477E+01  0.32037577101E+01 -0.31536296295E+01  0.99683026900E+01  0.00000000000E+00 0.  1.
</event>
<event>
 7    1  0.1161807E-013  0.5052886E+02  0.7816164E-02  0.1300439E+00
        -11   -1    0    0    0    0  0.00000000000E+00  0.00000000000E+00  0.45593999997E+02  0.45594000000E+02  0.51100000000E-03 0. -1.
         11   -1    0    0    0    0 -0.00000000000E+00 -0.00000000000E+00 -0.45593999997E+02  0.45594000000E+02  0.51100000000E-03 0.  1.
    9900012    2    1    2    0    0 -0.17320056740E+02 -0.13387285348E+02  0.34263130356E+02  0.50528857409E+02  0.29999992579E+02 0.  0.
        -12    1    1    2    0    0  0.17320056740E+02  0.13387285348E+02 -0.34263130356E+02  0.40659142591E+02  0.00000000000E+00 0.  1.
         11    1    3    3    0    0 -0.77113293641E+01 -0.84900833860E+01  0.94788420990E+01  0.14879333462E+02  0.51100000000E-03 0. -1.
        -11    1    3    3    0    0 -0.44257736759E+01 -0.14113661471E+02  0.16907306434E+02  0.22464192037E+02  0.51100000000E-03 0.  1.
        -12    1    3    3    0    0 -0.51829537001E+01  0.92164595090E+01  0.78769818230E+01  0.13185331910E+02  0.00000000000E+00 0.  1.
</event>
<event>
 7    1  0.1161807E-013  0.5052886E+02  0.7816164E-02  0.1300439E+00
        -11   -1    0    0    0    0  0.00000000000E+00  0.00000000000E+00  0.45593999997E+02  0.45594000000E+02  0.51100000000E-03 0. -1.
         11   -1    0    0    0    0 -0.00000000000E+00 -0.00000000000E+00 -0.45593999997E+02  0.45594000000E+02  0.51100000000E-03 0.  1.
    9900012    2    1    2    0    0  0.18581938559E+02  0.78586137589E+01 -0.35300417257E+02  0.50528859461E+02  0.29999998817E+02 0.  0.
         12    1    1    2    0    0 -0.18581938559E+02 -0.78586137589E+01  0.35300417257E+02  0.40659140539E+02  0.00000000000E+00 0. -1.
         11    1    3    3    0    0 -0.88147959927E+00 -0.25091064974E+00  0.13195437280E+01  0.16065983783E+01  0.51100000000E-03 0. -1.
        -11    1    3    3    0    0 -0.58659240377E+01  0.97702094298E-01 -0.70266373596E+01  0.91538103192E+01  0.51100000000E-03 0.  1.
        -12    1    3    3    0    0  0.25329342196E+02  0.80118223144E+01 -0.29593323626E+02  0.39768450763E+02  0.00000000000E+00 0.  1.
</event>
<event>
 7    1  0.1161807E-013  0.5052887E+02  0.7816164E-02  0.1300439E+00
        -11   -1    0    0    0    0  0.00000000000E+00  0.00000000000E+00  0.45593999997E+02  0.45594000000E+02  0.51100000000E-03 0. -1.
         11   -1    0    0    0    0 -0.00000000000E+00 -0.00000000000E+00 -0.45593999997E+02  0.45594000000E+02  0.51100000000E-03 0.  1.
    9900012    2    1    2    0    0  0.14616101091E+02 -0.14811291192E+02  0.34930794000E+02  0.50528866618E+02  0.30000020573E+02 0.  0.
        -12    1    1    2    0    0 -0.14616101091E+02  0.14811291192E+02 -0.34930794000E+02  0.40659133382E+02  0.00000000000E+00 0.  1.
         11    1    3    3    0    0  0.11594578225E+02  0.28801835891E+01  0.17950593056E+02  0.21562780272E+02  0.51100000000E-03 0. -1.
        -11    1    3    3    0    0  0.68376304203E+01 -0.73578517587E+01  0.17910221097E+01  0.10202888450E+02  0.51100000000E-03 0.  1.
         12    1    3    3    0    0 -0.38161075543E+01 -0.10333623023E+02  0.15189178834E+02  0.18763197896E+02  0.00000000000E+00 0. -1.
</event>
<event>
 7    1  0.1161807E-013  0.5052886E+02  0.7816164E-02  0.1300439E+00
        -11   -1    0    0    0    0  0.00000000000E+00  0.00000000000E+00  0.45593999997E+02  0.45594000000E+02  0.51100000000E-03 0. -1.
         11   -1    0    0    0    0 -0.00000000000E+00 -0.00000000000E+00 -0.45593999997E+02  0.45594000000E+02  0.51100000000E-03 0.  1.
    9900012    2    1    2    0    0  0.17984331769E+02 -0.15451154051E+02 -0.33030154565E+02  0.50528862511E+02  0.30000008090E+02 0.  0.
         12    1    1    2    0    0 -0.17984331769E+02  0.15451154051E+02  0.33030154565E+02  0.40659137489E+02  0.00000000000E+00 0. -1.
         11    1    3    3    0    0 -0.11167324988E+01 -0.90698173782E+01 -0.12396261531E+02  0.15400518788E+02  0.51100000000E-03 0. -1.
        -11    1    3    3    0    0  0.14573610557E+02 -0.14003109560E+01 -0.23600129843E+02  0.27772596643E+02  0.51100000000E-03 0.  1.
         12    1    3    3    0    0  0.45274537112E+01 -0.49810257168E+01  0.29662368084E+01  0.73557470798E+01  0.00000000000E+00 0. -1.
</event>
<event>
 7    1  0.1161807E-013  0.5052886E+02  0.7816164E-02  0.1300439E+00
        -11   -1    0    0    0    0  0.00000000000E+00  0.00000000000E+00  0.45593999997E+02  0.45594000000E+02  0.51100000000E-03 0. -1.
         11   -1    0    0    0    0 -0.00000000000E+00 -0.00000000000E+00 -0.45593999997E+02  0.45594000000E+02  0.51100000000E-03 0.  1.
    9900012    2    1    2    0    0 -0.57369401409E+01 -0.54264421127E+01 -0.39884919191E+02  0.50528861605E+02  0.30000005335E+02 0.  0.
         12    1    1    2    0    0  0.57369401409E+01  0.54264421127E+01  0.39884919191E+02  0.40659138395E+02  0.00000000000E+00 0. -1.
         11    1    3    3    0    0 -0.91720871962E+01 -0.99925369281E+01 -0.39629354904E+02  0.41886319344E+02  0.51100000000E-03 0. -1.
        -11    1    3    3    0    0 -0.20408550348E+00 -0.15246550987E+01 -0.16208856623E+00  0.15467698689E+01  0.51100000000E-03 0.  1.
         12    1    3    3    0    0  0.36392325588E+01  0.60907499142E+01 -0.93475720254E-01  0.70957723924E+01  0.00000000000E+00 0. -1.
</event>
<event>
 7    1  0.1161807E-013  0.5052887E+02  0.7816164E-02  0.1300439E+00
        -11   -1    0    0    0    0  0.00000000000E+00  0.00000000000E+00  0.45593999997E+02  0.45594000000E+02  0.51100000000E-03 0. -1.
         11   -1    0    0    0    0 -0.00000000000E+00 -0.00000000000E+00 -0.45593999997E+02  0.45594000000E+02  0.51100000000E-03 0.  1.
    9900012    2    1    2    0    0  0.18067832650E+02 -0.31568787607E+02  0.18169485419E+02  0.50528866610E+02  0.30000020548E+02 0.  0.
        -12    1    1    2    0    0 -0.18067832650E+02  0.31568787607E+02 -0.18169485419E+02  0.40659133390E+02  0.00000000000E+00 0.  1.
         11    1    3    3    0    0  0.16336381775E+02 -0.24624659068E+02  0.82082690830E+01  0.30669641101E+02  0.51100000000E-03 0. -1.
        -11    1    3    3    0    0  0.83467793720E+01 -0.33524274580E+01  0.26779759916E+01  0.93850440286E+01  0.51100000000E-03 0.  1.
         12    1    3    3    0    0 -0.66153284961E+01 -0.35917010808E+01  0.72832403441E+01  0.10474181480E+02  0.00000000000E+00 0. -1.
</event>
<event>
 7    1  0.1161807E-013  0.5052887E+02  0.7816164E-02  0.1300439E+00
        -11   -1    0    0    0    0  0.00000000000E+00  0.00000000000E+00  0.45593999997E+02  0.45594000000E+02  0.51100000000E-03 0. -1.
         11   -1    0    0    0    0 -0.00000000000E+00 -0.00000000000E+00 -0.45593999997E+02  0.45594000000E+02  0.51100000000E-03 0.  1.
    9900012    2    1    2    0    0 -0.30693190285E+02  0.41815432959E+01  0.26336438182E+02  0.50528865598E+02  0.30000017471E+02 0.  0.
        -12    1    1    2    0    0  0.30693190285E+02 -0.41815432959E+01 -0.26336438182E+02  0.40659134402E+02  0.00000000000E+00 0.  1.
         11    1    3    3    0    0 -0.10189352087E+02 -0.89492203809E+01  0.11859518268E+02  0.18015538160E+02  0.51100000000E-03 0. -1.
        -11    1    3    3    0    0 -0.91674030140E+01 -0.22868878620E+01  0.77775964799E+01  0.12237734324E+02  0.51100000000E-03 0.  1.
         12    1    3    3    0    0 -0.11336435184E+02  0.15417651539E+02  0.66993234342E+01  0.20275593114E+02  0.00000000000E+00 0. -1.
</event>
<event>
 7    1  0.1161807E-013  0.5052886E+02  0.7816164E-02  0.1300439E+00
        -11   -1    0    0    0    0  0.00000000000E+00  0.00000000000E+00  0.45593999997E+02  0.45594000000E+02  0.51100000000E-03 0. -1.
         11   -1    0    0    0    0 -0.00000000000E+00 -0.00000000000E+00 -0.45593999997E+02  0.45594000000E+02  0.51100000000E-03 0.  1.
    9900012    2    1    2    0    0  0.38493016658E+02 -0.77219213976E+01  0.10574744377E+02  0.50528860559E+02  0.30000002154E+02 0.  0.
        -12    1    1    2    0    0 -0.38493016658E+02  0.77219213976E+01 -0.10574744377E+02  0.40659139441E+02  0.00000000000E+00 0.  1.
         11    1    3    3    0    0  0.21114746679E+02  0.36140609848E+01  0.12834720982E+02  0.24972465378E+02  0.51100000000E-03 0. -1.
        -11    1    3    3    0    0  0.13915157450E+02 -0.82050523134E+01  0.50129129905E+01  0.16914011565E+02  0.51100000000E-03 0.  1.
        -12    1    3    3    0    0  0.34631125281E+01 -0.31309300691E+01 -0.72728895955E+01  0.86423836150E+01  0.00000000000E+00 0.  1.
</event>
<event>
 7    1  0.1161807E-013  0.5052885E+02  0.7816164E-02  0.1300439E+00
        -11   -1    0    0    0    0  0.00000000000E+00  0.00000000000E+00  0.45593999997E+02  0.45594000000E+02  0.51100000000E-03 0.  1.
         11   -1    0    0    0    0 -0.00000000000E+00 -0.00000000000E+00 -0.45593999997E+02  0.45594000000E+02  0.51100000000E-03 0. -1.
    9900012    2    1    2    0    0  0.19273006790E+02 -0.15784705712E+02 -0.32133477131E+02  0.50528854932E+02  0.29999985052E+02 0.  0.
         12    1    1    2    0    0 -0.19273006790E+02  0.15784705712E+02  0.32133477131E+02  0.40659145068E+02  0.00000000000E+00 0. -1.
         11    1    3    3    0    0  0.28749761183E+01  0.26579342815E+01 -0.15181672342E+02  0.15678433522E+02  0.51100000000E-03 0. -1.
        -11    1    3    3    0    0  0.15252930163E+02 -0.49704789467E+01 -0.13317443179E+02  0.20849744186E+02  0.51100000000E-03 0.  1.
        -12    1    3    3    0    0  0.11451005085E+01 -0.13472161047E+02 -0.36343616092E+01  0.14000677225E+02  0.00000000000E+00 0.  1.
</event>
<event>
 7    1  0.1161807E-013  0.5052885E+02  0.7816164E-02  0.1300439E+00
        -11   -1    0    0    0    0  0.00000000000E+00  0.00000000000E+00  0.45593999997E+02  0.45594000000E+02  0.51100000000E-03 0. -1.
         11   -1    0    0    0    0 -0.00000000000E+00 -0.00000000000E+00 -0.45593999997E+02  0.45594000000E+02  0.51100000000E-03 0.  1.
    9900012    2    1    2    0    0 -0.36770088102E+01  0.26473174684E+02  0.30640124363E+02  0.50528848600E+02  0.29999965804E+02 0.  0.
        -12    1    1    2    0    0  0.36770088102E+01 -0.26473174684E+02 -0.30640124363E+02  0.40659151400E+02  0.00000000000E+00 0.  1.
         11    1    3    3    0    0  0.19569000866E+01  0.19423932935E+02  0.21955370293E+02  0.29379532222E+02  0.51100000000E-03 0. -1.
        -11    1    3    3    0    0 -0.51386486993E+01 -0.49790754183E+01  0.42361070152E+01  0.83151371234E+01  0.51100000000E-03 0.  1.
         12    1    3    3    0    0 -0.49526019745E+00  0.12028317167E+02  0.44486470548E+01  0.12834179255E+02  0.00000000000E+00 0. -1.
</event>
<event>
 7    1  0.1161807E-013  0.5052885E+02  0.7816164E-02  0.1300439E+00
        -11   -1    0    0    0    0  0.00000000000E+00  0.00000000000E+00  0.45593999997E+02  0.45594000000E+02  0.51100000000E-03 0.  1.
         11   -1    0    0    0    0 -0.00000000000E+00 -0.00000000000E+00 -0.45593999997E+02  0.45594000000E+02  0.51100000000E-03 0. -1.
    9900012    2    1    2    0    0  0.85604350833E+01  0.39305252392E+02  0.59145984550E+01  0.50528851100E+02  0.29999973403E+02 0.  0.
        -12    1    1    2    0    0 -0.85604350833E+01 -0.39305252392E+02 -0.59145984550E+01  0.40659148900E+02  0.00000000000E+00 0.  1.
         11    1    3    3    0    0  0.81257750564E+01  0.14036423832E+02 -0.54100004180E+00  0.16227818570E+02  0.51100000000E-03 0. -1.
        -11    1    3    3    0    0  0.89285943989E+01  0.12715206393E+02  0.10328658517E+02  0.18656834099E+02  0.51100000000E-03 0.  1.
        -12    1    3    3    0    0 -0.84939343719E+01  0.12553622167E+02 -0.38730600204E+01  0.15644198431E+02  0.00000000000E+00 0.  1.
</event>
<event>
 7    1  0.1161807E-013  0.5052886E+02  0.7816164E-02  0.1300439E+00
        -11   -1    0    0    0    0  0.00000000000E+00  0.00000000000E+00  0.45593999997E+02  0.45594000000E+02  0.51100000000E-03 0. -1.
         11   -1    0    0    0    0 -0.00000000000E+00 -0.00000000000E+00 -0.45593999997E+02  0.45594000000E+02  0.51100000000E-03 0.  1.
    9900012    2    1    2    0    0 -0.17170498503E+02  0.14847613323E+02  0.33732593555E+02  0.50528861935E+02  0.30000006337E+02 0.  0.
        -12    1    1    2    0    0  0.17170498503E+02 -0.14847613323E+02 -0.33732593555E+02  0.40659138065E+02  0.00000000000E+00 0.  1.
         11    1    3    3    0    0 -0.31341994414E+01 -0.42210528253E+01  0.10174388588E+02  0.11452452859E+02  0.51100000000E-03 0. -1.
        -11    1    3    3    0    0 -0.49088319195E+01 -0.37409240858E+01  0.22950136736E+01  0.65846967928E+01  0.51100000000E-03 0.  1.
        -12    1    3    3    0    0 -0.91274671425E+01  0.22809590234E+02  0.21263191293E+02  0.32491712283E+02  0.00000000000E+00 0.  1.
</event>
<event>
 7    1  0.1161807E-013  0.5052885E+02  0.7816164E-02  0.1300439E+00
        -11   -1    0    0    0    0  0.00000000000E+00  0.00000000000E+00  0.45593999997E+02  0.45594000000E+02  0.51100000000E-03 0. -1.
         11   -1    0    0    0    0 -0.00000000000E+00 -0.00000000000E+00 -0.45593999997E+02  0.45594000000E+02  0.51100000000E-03 0.  1.
    9900012    2    1    2    0    0  0.10678828834E+02 -0.21477960473E+02  0.32830265852E+02  0.50528849404E+02  0.29999968247E+02 0.  0.
        -12    1    1    2    0    0 -0.10678828834E+02  0.21477960473E+02 -0.32830265852E+02  0.40659150596E+02  0.00000000000E+00 0.  1.
         11    1    3    3    0    0  0.77028547775E+01 -0.10054706709E+02  0.28246248109E+02  0.30956124292E+02  0.51100000000E-03 0. -1.
        -11    1    3    3    0    0  0.67684321850E+01  0.12412010768E+00  0.66421533281E+00  0.68020777938E+01  0.51100000000E-03 0.  1.
        -12    1    3    3    0    0 -0.37924581281E+01 -0.11547373871E+02  0.39198024102E+01  0.12770647318E+02  0.00000000000E+00 0.  1.
</event>
<event>
 7    1  0.1161807E-013  0.5052886E+02  0.7816164E-02  0.1300439E+00
        -11   -1    0    0    0    0  0.00000000000E+00  0.00000000000E+00  0.45593999997E+02  0.45594000000E+02  0.51100000000E-03 0. -1.
         11   -1    0    0    0    0 -0.00000000000E+00 -0.00000000000E+00 -0.45593999997E+02  0.45594000000E+02  0.51100000000E-03 0.  1.
    9900012    2    1    2    0    0 -0.65554056488E+01  0.21318718784E+02  0.33995654183E+02  0.50528860595E+02  0.30000002264E+02 0.  0.
        -12    1    1    2    0    0  0.65554056488E+01 -0.21318718784E+02 -0.33995654183E+02  0.40659139405E+02  0.00000000000E+00 0.  1.
         11    1    3    3    0    0  0.63318142616E+01  0.46646543197E+01  0.89866727155E+01  0.11941991397E+02  0.51100000000E-03 0. -1.
        -11    1    3    3    0    0  0.54409389766E+01  0.18998046523E+01  0.61924267617E+01  0.84592685336E+01  0.51100000000E-03 0.  1.
        -12    1    3    3    0    0 -0.18328158887E+02  0.14754259812E+02  0.18816554706E+02  0.30127600664E+02  0.00000000000E+00 0.  1.
</event>
<event>
 7    1  0.1161807E-013  0.5052888E+02  0.7816164E-02  0.1300439E+00
        -11   -1    0    0    0    0  0.00000000000E+00  0.00000000000E+00  0.45593999997E+02  0.45594000000E+02  0.51100000000E-03 0. -1.
         11   -1    0    0    0    0 -0.00000000000E+00 -0.00000000000E+00 -0.45593999997E+02  0.45594000000E+02  0.51100000000E-03 0.  1.
    9900012    2    1    2    0    0 -0.34921487964E+02 -0.62589303821E+01 -0.19861512383E+02  0.50528877958E+02  0.30000055040E+02 0.  0.
         12    1    1    2    0    0  0.34921487964E+02  0.62589303821E+01  0.19861512383E+02  0.40659122042E+02  0.00000000000E+00 0. -1.
         11    1    3    3    0    0 -0.36798918353E+02 -0.55103107062E+01 -0.91757867177E+01  0.38323869562E+02  0.51100000000E-03 0. -1.
        -11    1    3    3    0    0 -0.86520997743E+00 -0.19620110808E+00  0.24624515101E+00  0.92071717448E+00  0.51100000000E-03 0.  1.
         12    1    3    3    0    0  0.27426403667E+01 -0.55241856783E+00 -0.10931970816E+02  0.11284291222E+02  0.00000000000E+00 0. -1.
</event>
<event>
 7    1  0.1161807E-013  0.5052886E+02  0.7816164E-02  0.1300439E+00
        -11   -1    0    0    0    0  0.00000000000E+00  0.00000000000E+00  0.45593999997E+02  0.45594000000E+02  0.51100000000E-03 0. -1.
         11   -1    0    0    0    0 -0.00000000000E+00 -0.00000000000E+00 -0.45593999997E+02  0.45594000000E+02  0.51100000000E-03 0.  1.
    9900012    2    1    2    0    0  0.16190752573E+02 -0.41980194819E+00  0.37294082400E+02  0.50528864685E+02  0.30000014695E+02 0.  0.
        -12    1    1    2    0    0 -0.16190752573E+02  0.41980194819E+00 -0.37294082400E+02  0.40659135315E+02  0.00000000000E+00 0.  1.
         11    1    3    3    0    0  0.11449559676E+02 -0.20652398790E+01  0.41214261314E+02  0.42824910606E+02  0.51100000000E-03 0. -1.
        -11    1    3    3    0    0  0.50531810862E-01  0.10029618064E+01  0.59030140910E+00  0.11648784759E+01  0.51100000000E-03 0.  1.
         12    1    3    3    0    0  0.46906610857E+01  0.64247612446E+00 -0.45104803228E+01  0.65390756024E+01  0.00000000000E+00 0. -1.
</event>
<event>
 7    1  0.1161807E-013  0.5052887E+02  0.7816164E-02  0.1300439E+00
        -11   -1    0    0    0    0  0.00000000000E+00  0.00000000000E+00  0.45593999997E+02  0.45594000000E+02  0.51100000000E-03 0. -1.
         11   -1    0    0    0    0 -0.00000000000E+00 -0.00000000000E+00 -0.45593999997E+02  0.45594000000E+02  0.51100000000E-03 0.  1.
    9900012    2    1    2    0    0 -0.36706663482E+02  0.15407722615E+01 -0.17418719974E+02  0.50528869062E+02  0.30000028000E+02 0.  0.
         12    1    1    2    0    0  0.36706663482E+02 -0.15407722615E+01  0.17418719974E+02  0.40659130938E+02  0.00000000000E+00 0. -1.
         11    1    3    3    0    0 -0.25302833537E+02 -0.13177622446E+01 -0.18519607986E+02  0.31383845567E+02  0.51100000000E-03 0. -1.
        -11    1    3    3    0    0 -0.47955219598E+01  0.21167789830E+01 -0.69485794569E+01  0.87040531282E+01  0.51100000000E-03 0.  1.
         12    1    3    3    0    0 -0.66083079843E+01  0.74175552314E+00  0.80494674686E+01  0.10440970367E+02  0.00000000000E+00 0. -1.
</event>
<event>
 7    1  0.1161807E-013  0.5052886E+02  0.7816164E-02  0.1300439E+00
        -11   -1    0    0    0    0  0.00000000000E+00  0.00000000000E+00  0.45593999997E+02  0.45594000000E+02  0.51100000000E-03 0.  1.
         11   -1    0    0    0    0 -0.00000000000E+00 -0.00000000000E+00 -0.45593999997E+02  0.45594000000E+02  0.51100000000E-03 0. -1.
    9900012    2    1    2    0    0  0.83087867360E+01  0.26629813238E+02  0.29580101924E+02  0.50528864250E+02  0.30000013374E+02 0.  0.
        -12    1    1    2    0    0 -0.83087867360E+01 -0.26629813238E+02 -0.29580101924E+02  0.40659135750E+02  0.00000000000E+00 0.  1.
         11    1    3    3    0    0 -0.14212813986E+01  0.14909714020E+01  0.43950166481E+00  0.21062285038E+01  0.51100000000E-03 0. -1.
        -11    1    3    3    0    0 -0.96355990919E+00  0.21362899239E+02  0.53142898790E+01  0.22035053637E+02  0.51100000000E-03 0.  1.
         12    1    3    3    0    0  0.10693628044E+02  0.37759425971E+01  0.23826310380E+02  0.26387582109E+02  0.00000000000E+00 0. -1.
</event>
<event>
 7    1  0.1161807E-013  0.5052886E+02  0.7816164E-02  0.1300439E+00
        -11   -1    0    0    0    0  0.00000000000E+00  0.00000000000E+00  0.45593999997E+02  0.45594000000E+02  0.51100000000E-03 0.  1.
         11   -1    0    0    0    0 -0.00000000000E+00 -0.00000000000E+00 -0.45593999997E+02  0.45594000000E+02  0.51100000000E-03 0. -1.
    9900012    2    1    2    0    0 -0.56598860396E+01  0.39679640394E+02 -0.68306171846E+01  0.50528862000E+02  0.30000006534E+02 0.  0.
        -12    1    1    2    0    0  0.56598860396E+01 -0.39679640394E+02  0.68306171846E+01  0.40659138000E+02  0.00000000000E+00 0.  1.
         11    1    3    3    0    0 -0.11887851984E+01  0.33836840908E+01  0.55127122139E+01  0.65766651495E+01  0.51100000000E-03 0. -1.
        -11    1    3    3    0    0  0.47073636405E+01  0.68373834587E+01 -0.10016570272E+02  0.13009256907E+02  0.51100000000E-03 0.  1.
         12    1    3    3    0    0 -0.91784644817E+01  0.29458572845E+02 -0.23267591268E+01  0.30942939943E+02  0.00000000000E+00 0. -1.
</event>
<event>
 7    1  0.1161807E-013  0.5052886E+02  0.7816164E-02  0.1300439E+00
        -11   -1    0    0    0    0  0.00000000000E+00  0.00000000000E+00  0.45593999997E+02  0.45594000000E+02  0.51100000000E-03 0.  1.
         11   -1    0    0    0    0 -0.00000000000E+00 -0.00000000000E+00 -0.45593999997E+02  0.45594000000E+02  0.51100000000E-03 0. -1.
    9900012    2    1    2    0    0 -0.35529308235E+02 -0.17473018916E+02 -0.92481218861E+01  0.50528857214E+02  0.29999991988E+02 0.  0.
         12    1    1    2    0    0  0.35529308235E+02  0.17473018916E+02  0.92481218861E+01  0.40659142786E+02  0.00000000000E+00 0. -1.
         11    1    3    3    0    0  0.29651558612E+00 -0.83186050910E+01  0.20834196057E+01  0.85806613770E+01  0.51100000000E-03 0.  1.
        -11    1    3    3    0    0 -0.15300334976E+01  0.27857296931E+01 -0.36316899075E+01  0.48260195060E+01  0.51100000000E-03 0. -1.
        -12    1    3    3    0    0 -0.34295790323E+02 -0.11940143518E+02 -0.76998515843E+01  0.37122176331E+02  0.00000000000E+00 0.  1.
</event>
<event>
 7    1  0.1161807E-013  0.5052886E+02  0.7816164E-02  0.1300439E+00
        -11   -1    0    0    0    0  0.00000000000E+00  0.00000000000E+00  0.45593999997E+02  0.45594000000E+02  0.51100000000E-03 0. -1.
         11   -1    0    0    0    0 -0.00000000000E+00 -0.00000000000E+00 -0.45593999997E+02  0.45594000000E+02  0.51100000000E-03 0.  1.
    9900012    2    1    2    0    0  0.21482373355E+02  0.55894712984E+01  0.34065102305E+02  0.50528858969E+02  0.29999997322E+02 0.  0.
        -12    1    1    2    0    0 -0.21482373355E+02 -0.55894712984E+01 -0.34065102305E+02  0.40659141031E+02  0.00000000000E+00 0.  1.
         11    1    3    3    0    0 -0.22840814433E+01  0.26408836196E+01  0.10800635371E+02  0.11350991984E+02  0.51100000000E-03 0. -1.
        -11    1    3    3    0    0  0.28946955056E+01  0.78360617904E+00  0.17023600614E+02  0.17285724713E+02  0.51100000000E-03 0.  1.
        -12    1    3    3    0    0  0.20871759293E+02  0.21649814997E+01  0.62408663198E+01  0.21892142273E+02  0.00000000000E+00 0.  1.
</event>
<event>
 7    1  0.1161807E-013  0.5052887E+02  0.7816164E-02  0.1300439E+00
        -11   -1    0    0    0    0  0.00000000000E+00  0.00000000000E+00  0.45593999997E+02  0.45594000000E+02  0.51100000000E-03 0. -1.
         11   -1    0    0    0    0 -0.00000000000E+00 -0.00000000000E+00 -0.45593999997E+02  0.45594000000E+02  0.51100000000E-03 0.  1.
    9900012    2    1    2    0    0  0.16058064599E+02 -0.96307731781E+01  0.36090881391E+02  0.50528868796E+02  0.30000027192E+02 0.  0.
        -12    1    1    2    0    0 -0.16058064599E+02  0.96307731781E+01 -0.36090881391E+02  0.40659131204E+02  0.00000000000E+00 0.  1.
         11    1    3    3    0    0  0.14284681410E+02  0.16580286707E+00  0.16943933065E+02  0.22162501699E+02  0.51100000000E-03 0. -1.
        -11    1    3    3    0    0  0.22615806779E+01  0.21288024726E+01  0.15612822602E+02  0.15918755510E+02  0.51100000000E-03 0.  1.
         12    1    3    3    0    0 -0.48819748923E+00 -0.11925378518E+02  0.35341257245E+01  0.12447611587E+02  0.00000000000E+00 0. -1.
</event>
<event>
 7    1  0.1161807E-013  0.5052886E+02  0.7816164E-02  0.1300439E+00
        -11   -1    0    0    0    0  0.00000000000E+00  0.00000000000E+00  0.45593999997E+02  0.45594000000E+02  0.51100000000E-03 0. -1.
         11   -1    0    0    0    0 -0.00000000000E+00 -0.00000000000E+00 -0.45593999997E+02  0.45594000000E+02  0.51100000000E-03 0.  1.
    9900012    2    1    2    0    0  0.47333228064E+01 -0.43403779340E+01 -0.40148757758E+02  0.50528856196E+02  0.29999988893E+02 0.  0.
         12    1    1    2    0    0 -0.47333228064E+01  0.43403779340E+01  0.40148757758E+02  0.40659143804E+02  0.00000000000E+00 0. -1.
         11    1    3    3    0    0 -0.10215412784E+02  0.55055329408E+01 -0.10391327365E+02  0.15577074050E+02  0.51100000000E-03 0.  1.
        -11    1    3    3    0    0  0.47750464412E+01 -0.49568309721E+01 -0.13596324701E+02  0.15239136702E+02  0.51100000000E-03 0. -1.
        -12    1    3    3    0    0  0.10173689149E+02 -0.48890799027E+01 -0.16161105692E+02  0.19712645443E+02  0.00000000000E+00 0.  1.
</event>
<event>
 7    1  0.1161807E-013  0.5052887E+02  0.7816164E-02  0.1300439E+00
        -11   -1    0    0    0    0  0.00000000000E+00  0.00000000000E+00  0.45593999997E+02  0.45594000000E+02  0.51100000000E-03 0.  1.
         11   -1    0    0    0    0 -0.00000000000E+00 -0.00000000000E+00 -0.45593999997E+02  0.45594000000E+02  0.51100000000E-03 0. -1.
    9900012    2    1    2    0    0  0.35657319026E+02  0.17657145462E+02 -0.83633523033E+01  0.50528870057E+02  0.30000031025E+02 0.  0.
         12    1    1    2    0    0 -0.35657319026E+02 -0.17657145462E+02  0.83633523033E+01  0.40659129943E+02  0.00000000000E+00 0. -1.
         11    1    3    3    0    0  0.47109645062E+01 -0.27706490346E+00  0.44658794009E+00  0.47401890879E+01  0.51100000000E-03 0. -1.
        -11    1    3    3    0    0  0.27502659016E+02  0.38092062712E+01 -0.13000443725E+02  0.30658079566E+02  0.51100000000E-03 0.  1.
         12    1    3    3    0    0  0.34436955038E+01  0.14125004094E+02  0.41905034815E+01  0.15130601403E+02  0.00000000000E+00 0. -1.
</event>
<event>
 7    1  0.1161807E-013  0.5052878E+02  0.7816164E-02  0.1300439E+00
        -11   -1    0    0    0    0  0.00000000000E+00  0.00000000000E+00  0.45593999997E+02  0.45594000000E+02  0.51100000000E-03 0. -1.
         11   -1    0    0    0    0 -0.00000000000E+00 -0.00000000000E+00 -0.45593999997E+02  0.45594000000E+02  0.51100000000E-03 0.  1.
    9900012    2    1    2    0    0  0.25629095738E+02 -0.57418240443E+01  0.31037929277E+02  0.50528780314E+02  0.29999758241E+02 0.  0.
        -12    1    1    2    0    0 -0.25629095738E+02  0.57418240443E+01 -0.31037929277E+02  0.40659219686E+02  0.00000000000E+00 0.  1.
         11    1    3    3    0    0  0.83634030894E+01 -0.59982613443E+00  0.23337368703E+02  0.24797965257E+02  0.51100000000E-03 0. -1.
        -11    1    3    3    0    0  0.19516671334E+02 -0.95147251829E+00  0.76206453751E+01  0.20973316288E+02  0.51100000000E-03 0.  1.
         12    1    3    3    0    0 -0.22509786855E+01 -0.41905253916E+01  0.79915198200E-01  0.47574987692E+01  0.00000000000E+00 0. -1.
</event>
<event>
 7    1  0.1161807E-013  0.5052886E+02  0.7816164E-02  0.1300439E+00
        -11   -1    0    0    0    0  0.00000000000E+00  0.00000000000E+00  0.45593999997E+02  0.45594000000E+02  0.51100000000E-03 0. -1.
         11   -1    0    0    0    0 -0.00000000000E+00 -0.00000000000E+00 -0.45593999997E+02  0.45594000000E+02  0.51100000000E-03 0.  1.
    9900012    2    1    2    0    0  0.20994420724E+02  0.51417197425E+01 -0.34437809195E+02  0.50528859753E+02  0.29999999707E+02 0.  0.
         12    1    1    2    0    0 -0.20994420724E+02 -0.51417197425E+01  0.34437809195E+02  0.40659140247E+02  0.00000000000E+00 0. -1.
         11    1    3    3    0    0  0.24648228990E+01  0.75906750693E+01 -0.72494520894E-01  0.79811625499E+01  0.51100000000E-03 0. -1.
        -11    1    3    3    0    0  0.18240003322E+01  0.60255060632E+01 -0.99485893079E+01  0.11773195403E+02  0.51100000000E-03 0.  1.
        -12    1    3    3    0    0  0.16705597493E+02 -0.84744613900E+01 -0.24416725366E+02  0.30774501800E+02  0.00000000000E+00 0.  1.
</event>
<event>
 7    1  0.1161807E-013  0.5052884E+02  0.7816164E-02  0.1300439E+00
        -11   -1    0    0    0    0  0.00000000000E+00  0.00000000000E+00  0.45593999997E+02  0.45594000000E+02  0.51100000000E-03 0. -1.
         11   -1    0    0    0    0 -0.00000000000E+00 -0.00000000000E+00 -0.45593999997E+02  0.45594000000E+02  0.51100000000E-03 0.  1.
    9900012    2    1    2    0    0 -0.25437240472E+02 -0.19783199688E+02  0.24793939140E+02  0.50528836078E+02  0.29999927742E+02 0.  0.
        -12    1    1    2    0    0  0.25437240472E+02  0.19783199688E+02 -0.24793939140E+02  0.40659163922E+02  0.00000000000E+00 0.  1.
         11    1    3    3    0    0 -0.49773605913E+01  0.28828384935E+01  0.10874100824E+02  0.12301664327E+02  0.51100000000E-03 0.  1.
        -11    1    3    3    0    0  0.23258514379E+01 -0.29049331268E+01  0.59718936695E+01  0.70364576062E+01  0.51100000000E-03 0. -1.
        -12    1    3    3    0    0 -0.22785731319E+02 -0.19761105055E+02  0.79479446469E+01  0.31190714145E+02  0.00000000000E+00 0.  1.
</event>
<event>
 7    1  0.1161807E-013  0.5052887E+02  0.7816164E-02  0.1300439E+00
        -11   -1    0    0    0    0  0.00000000000E+00  0.00000000000E+00  0.45593999997E+02  0.45594000000E+02  0.51100000000E-03 0. -1.
         11   -1    0    0    0    0 -0.00000000000E+00 -0.00000000000E+00 -0.45593999997E+02  0.45594000000E+02  0.51100000000E-03 0.  1.
    9900012    2    1    2    0    0 -0.13987773815E+02  0.27892960653E+02 -0.26067026600E+02  0.50528868848E+02  0.30000027350E+02 0.  0.
         12    1    1    2    0    0  0.13987773815E+02 -0.27892960653E+02  0.26067026600E+02  0.40659131152E+02  0.00000000000E+00 0. -1.
         11    1    3    3    0    0 -0.39715052066E+01  0.17755384178E+02 -0.10884543383E+02  0.21201410468E+02  0.51100000000E-03 0.  1.
        -11    1    3    3    0    0 -0.73983307271E+00  0.14462954980E+02 -0.63691518474E+01  0.15820572532E+02  0.51100000000E-03 0. -1.
         12    1    3    3    0    0 -0.92764355358E+01 -0.43253785053E+01 -0.88133313696E+01  0.13506885847E+02  0.00000000000E+00 0. -1.
</event>
<event>
 7    1  0.1186080E-013  0.5052887E+02  0.7816164E-02  0.1300439E+00
        -11   -1    0    0    0    0  0.00000000000E+00  0.00000000000E+00  0.45593999997E+02  0.45594000000E+02  0.51100000000E-03 0. -1.
         11   -1    0    0    0    0 -0.00000000000E+00 -0.00000000000E+00 -0.45593999997E+02  0.45594000000E+02  0.51100000000E-03 0.  1.
    9900012    2    1    2    0    0  0.27095553930E+02  0.19895374851E+02 -0.22872914318E+02  0.50528865815E+02  0.30000018133E+02 0.  0.
         12    1    1    2    0    0 -0.27095553930E+02 -0.19895374851E+02  0.22872914318E+02  0.40659134185E+02  0.00000000000E+00 0. -1.
         11    1    3    3    0    0  0.55613204850E+00  0.54755891176E+01  0.44481068715E+01  0.70765114316E+01  0.51100000000E-03 0. -1.
        -11    1    3    3    0    0  0.26074748714E+01  0.24682958577E+01 -0.12214548738E+02  0.12731324000E+02  0.51100000000E-03 0.  1.
        -12    1    3    3    0    0  0.23931947010E+02  0.11951489876E+02 -0.15106472451E+02  0.30721030384E+02  0.00000000000E+00 0.  1.
</event>
<event>
 7    1  0.1161807E-013  0.5052892E+02  0.7816164E-02  0.1300439E+00
        -11   -1    0    0    0    0  0.00000000000E+00  0.00000000000E+00  0.45593999997E+02  0.45594000000E+02  0.51100000000E-03 0. -1.
         11   -1    0    0    0    0 -0.00000000000E+00 -0.00000000000E+00 -0.45593999997E+02  0.45594000000E+02  0.51100000000E-03 0.  1.
    9900012    2    1    2    0    0 -0.28510046605E+02  0.21630823254E+02  0.19298843737E+02  0.50528921781E+02  0.30000188243E+02 0.  0.
        -12    1    1    2    0    0  0.28510046605E+02 -0.21630823254E+02 -0.19298843737E+02  0.40659078219E+02  0.00000000000E+00 0.  1.
         11    1    3    3    0    0  0.28346159866E+01 -0.15035394483E+01  0.54797363148E+01  0.63500542521E+01  0.51100000000E-03 0. -1.
        -11    1    3    3    0    0 -0.15503886316E+02  0.71023537179E+01 -0.11995032482E+01  0.17095400772E+02  0.51100000000E-03 0.  1.
         12    1    3    3    0    0 -0.15840776275E+02  0.16032008984E+02  0.15018610671E+02  0.27083466756E+02  0.00000000000E+00 0. -1.
</event>
<event>
 7    1  0.1161807E-013  0.5052893E+02  0.7816164E-02  0.1300439E+00
        -11   -1    0    0    0    0  0.00000000000E+00  0.00000000000E+00  0.45593999997E+02  0.45594000000E+02  0.51100000000E-03 0.  1.
         11   -1    0    0    0    0 -0.00000000000E+00 -0.00000000000E+00 -0.45593999997E+02  0.45594000000E+02  0.51100000000E-03 0. -1.
    9900012    2    1    2    0    0  0.26251311741E+01  0.21411958403E+02 -0.34464431521E+02  0.50528925780E+02  0.30000200402E+02 0.  0.
         12    1    1    2    0    0 -0.26251311741E+01 -0.21411958403E+02  0.34464431521E+02  0.40659074220E+02  0.00000000000E+00 0. -1.
         11    1    3    3    0    0  0.18064180527E+01 -0.16898354361E+01  0.49971797331E+00  0.25235705451E+01  0.51100000000E-03 0. -1.
        -11    1    3    3    0    0 -0.63176161019E+00 -0.26518945543E+01  0.16731205673E+01  0.31985934648E+01  0.51100000000E-03 0.  1.
         12    1    3    3    0    0  0.14504747316E+01  0.25753688394E+02 -0.36637270061E+02  0.44806761771E+02  0.00000000000E+00 0. -1.
</event>
<event>
 7    1  0.1161807E-013  0.5052887E+02  0.7816164E-02  0.1300439E+00
        -11   -1    0    0    0    0  0.00000000000E+00  0.00000000000E+00  0.45593999997E+02  0.45594000000E+02  0.51100000000E-03 0. -1.
         11   -1    0    0    0    0 -0.00000000000E+00 -0.00000000000E+00 -0.45593999997E+02  0.45594000000E+02  0.51100000000E-03 0.  1.
    9900012    2    1    2    0    0 -0.20373766851E+02 -0.56605430623E+01  0.34727979900E+02  0.50528871734E+02  0.30000036122E+02 0.  0.
        -12    1    1    2    0    0  0.20373766851E+02  0.56605430623E+01 -0.34727979900E+02  0.40659128266E+02  0.00000000000E+00 0.  1.
         11    1    3    3    0    0 -0.54292887085E+00 -0.79641406640E+01  0.65555293742E+01  0.10329437251E+02  0.51100000000E-03 0. -1.
        -11    1    3    3    0    0  0.41251899619E+01 -0.11709565068E+01  0.59858781477E+01  0.73633598868E+01  0.51100000000E-03 0.  1.
         12    1    3    3    0    0 -0.23956027942E+02  0.34745541085E+01  0.22186572378E+02  0.32836074596E+02  0.00000000000E+00 0. -1.
</event>
<event>
 7    1  0.1161807E-013  0.5052889E+02  0.7816164E-02  0.1300439E+00
        -11   -1    0    0    0    0  0.00000000000E+00  0.00000000000E+00  0.45593999997E+02  0.45594000000E+02  0.51100000000E-03 0. -1.
         11   -1    0    0    0    0 -0.00000000000E+00 -0.00000000000E+00 -0.45593999997E+02  0.45594000000E+02  0.51100000000E-03 0.  1.
    9900012    2    1    2    0    0  0.22897289052E+02 -0.25961147873E+02 -0.21328304008E+02  0.50528885442E+02  0.30000077788E+02 0.  0.
         12    1    1    2    0    0 -0.22897289052E+02  0.25961147873E+02  0.21328304008E+02  0.40659114558E+02  0.00000000000E+00 0. -1.
         11    1    3    3    0    0 -0.30726306700E+01 -0.29081407700E+01 -0.62162616184E+01  0.75193251520E+01  0.51100000000E-03 0. -1.
        -11    1    3    3    0    0  0.10862714380E+02 -0.22687164065E+02 -0.92363214310E+01  0.26795813308E+02  0.51100000000E-03 0.  1.
        -12    1    3    3    0    0  0.15107205342E+02 -0.36584303728E+00 -0.58757209590E+01  0.16213746981E+02  0.00000000000E+00 0.  1.
</event>
<event>
 7    1  0.1161807E-013  0.5052885E+02  0.7816164E-02  0.1300439E+00
        -11   -1    0    0    0    0  0.00000000000E+00  0.00000000000E+00  0.45593999997E+02  0.45594000000E+02  0.51100000000E-03 0. -1.
         11   -1    0    0    0    0 -0.00000000000E+00 -0.00000000000E+00 -0.45593999997E+02  0.45594000000E+02  0.51100000000E-03 0.  1.
    9900012    2    1    2    0    0  0.24879526109E+02  0.21273299239E+02  0.24116852113E+02  0.50528848069E+02  0.29999964191E+02 0.  0.
        -12    1    1    2    0    0 -0.24879526109E+02 -0.21273299239E+02 -0.24116852113E+02  0.40659151931E+02  0.00000000000E+00 0.  1.
         11    1    3    3    0    0  0.11584954128E+02  0.15266657045E+02  0.15172076508E+02  0.24443278939E+02  0.51100000000E-03 0. -1.
        -11    1    3    3    0    0  0.42572119381E+01  0.88620989348E+01 -0.35058823203E+01  0.10438000868E+02  0.51100000000E-03 0.  1.
         12    1    3    3    0    0  0.90373600433E+01 -0.28554567411E+01  0.12450657925E+02  0.15647568262E+02  0.00000000000E+00 0. -1.
</event>
<event>
 7    1  0.1161807E-013  0.5052888E+02  0.7816164E-02  0.1300439E+00
        -11   -1    0    0    0    0  0.00000000000E+00  0.00000000000E+00  0.45593999997E+02  0.45594000000E+02  0.51100000000E-03 0. -1.
         11   -1    0    0    0    0 -0.00000000000E+00 -0.00000000000E+00 -0.45593999997E+02  0.45594000000E+02  0.51100000000E-03 0.  1.
    9900012    2    1    2    0    0 -0.17210613323E+02 -0.28014453237E+02  0.23919648979E+02  0.50528875459E+02  0.30000047445E+02 0.  0.
        -12    1    1    2    0    0  0.17210613323E+02  0.28014453237E+02 -0.23919648979E+02  0.40659124541E+02  0.00000000000E+00 0.  1.
         11    1    3    3    0    0 -0.76648504492E+01 -0.14943654154E+02 -0.10372017144E+01  0.16826720403E+02  0.51100000000E-03 0. -1.
        -11    1    3    3    0    0 -0.28875467992E+01  0.21583951214E+01  0.12280734579E+02  0.12798946757E+02  0.51100000000E-03 0.  1.
        -12    1    3    3    0    0 -0.66582160751E+01 -0.15229194205E+02  0.12676116114E+02  0.20903208299E+02  0.00000000000E+00 0.  1.
</event>
<event>
 7    1  0.1161807E-013  0.5052885E+02  0.7816164E-02  0.1300439E+00
        -11   -1    0    0    0    0  0.00000000000E+00  0.00000000000E+00  0.45593999997E+02  0.45594000000E+02  0.51100000000E-03 0. -1.
         11   -1    0    0    0    0 -0.00000000000E+00 -0.00000000000E+00 -0.45593999997E+02  0.45594000000E+02  0.51100000000E-03 0.  1.
    9900012    2    1    2    0    0  0.29749148404E+02  0.98405390933E+01 -0.25909817362E+02  0.50528847572E+02  0.29999962681E+02 0.  0.
         12    1    1    2    0    0 -0.29749148404E+02 -0.98405390933E+01  0.25909817362E+02  0.40659152428E+02  0.00000000000E+00 0. -1.
         11    1    3    3    0    0  0.17469666253E+02  0.10333734209E+02 -0.48013602310E+01  0.20857333531E+02  0.51100000000E-03 0. -1.
        -11    1    3    3    0    0  0.52207736890E+01  0.43001986690E+01  0.14921670530E+00  0.67653863446E+01  0.51100000000E-03 0.  1.
        -12    1    3    3    0    0  0.70587084620E+01 -0.47933937852E+01 -0.21257673836E+02  0.22906127696E+02  0.00000000000E+00 0.  1.
</event>
<event>
 7    1  0.1161807E-013  0.5052886E+02  0.7816164E-02  0.1300439E+00
        -11   -1    0    0    0    0  0.00000000000E+00  0.00000000000E+00  0.45593999997E+02  0.45594000000E+02  0.51100000000E-03 0. -1.
         11   -1    0    0    0    0 -0.00000000000E+00 -0.00000000000E+00 -0.45593999997E+02  0.45594000000E+02  0.51100000000E-03 0.  1.
    9900012    2    1    2    0    0  0.56684415353E+01  0.21346690772E+02  0.34137266601E+02  0.50528863175E+02  0.30000010108E+02 0.  0.
        -12    1    1    2    0    0 -0.56684415353E+01 -0.21346690772E+02 -0.34137266601E+02  0.40659136825E+02  0.00000000000E+00 0.  1.
         11    1    3    3    0    0 -0.43593462584E+00  0.38638117655E+01  0.61532648813E+01  0.72788563193E+01  0.51100000000E-03 0. -1.
        -11    1    3    3    0    0  0.93294375211E+01  0.13382791171E+02  0.32490730090E+02  0.36356361837E+02  0.51100000000E-03 0.  1.
        -12    1    3    3    0    0 -0.32250613600E+01  0.41000878356E+01 -0.45067283708E+01  0.68936450187E+01  0.00000000000E+00 0.  1.
</event>
<event>
 7    1  0.1161807E-013  0.5052886E+02  0.7816164E-02  0.1300439E+00
        -11   -1    0    0    0    0  0.00000000000E+00  0.00000000000E+00  0.45593999997E+02  0.45594000000E+02  0.51100000000E-03 0. -1.
         11   -1    0    0    0    0 -0.00000000000E+00 -0.00000000000E+00 -0.45593999997E+02  0.45594000000E+02  0.51100000000E-03 0.  1.
    9900012    2    1    2    0    0  0.33120652945E+02  0.17391401570E+02 -0.15928824575E+02  0.50528856472E+02  0.29999989732E+02 0.  0.
         12    1    1    2    0    0 -0.33120652945E+02 -0.17391401570E+02  0.15928824575E+02  0.40659143528E+02  0.00000000000E+00 0. -1.
         11    1    3    3    0    0  0.11353545527E+02 -0.51716939319E+01  0.14350728652E+01  0.12558218367E+02  0.51100000000E-03 0. -1.
        -11    1    3    3    0    0  0.28848025573E+01  0.54383562562E+01 -0.94518131653E+01  0.11279830537E+02  0.51100000000E-03 0.  1.
        -12    1    3    3    0    0  0.18882304861E+02  0.17124739245E+02 -0.79120842752E+01  0.26690807569E+02  0.00000000000E+00 0.  1.
</event>
<event>
 7    1  0.1161807E-013  0.5052886E+02  0.7816164E-02  0.1300439E+00
        -11   -1    0    0    0    0  0.00000000000E+00  0.00000000000E+00  0.45593999997E+02  0.45594000000E+02  0.51100000000E-03 0. -1.
         11   -1    0    0    0    0 -0.00000000000E+00 -0.00000000000E+00 -0.45593999997E+02  0.45594000000E+02  0.51100000000E-03 0.  1.
    9900012    2    1    2    0    0 -0.30751291711E+01  0.15317516849E+02  0.37537754831E+02  0.50528858597E+02  0.29999996192E+02 0.  0.
        -12    1    1    2    0    0  0.30751291711E+01 -0.15317516849E+02 -0.37537754831E+02  0.40659141403E+02  0.00000000000E+00 0.  1.
         11    1    3    3    0    0  0.20628892525E+00 -0.67176816733E+00  0.73218393253E+01  0.73554849573E+01  0.51100000000E-03 0. -1.
        -11    1    3    3    0    0 -0.10192540760E+02 -0.22956550484E+01  0.59847568176E+01  0.12040566169E+02  0.51100000000E-03 0.  1.
         12    1    3    3    0    0  0.69111226635E+01  0.18284940065E+02  0.24231158688E+02  0.31132807471E+02  0.00000000000E+00 0. -1.
</event>
<event>
 7    1  0.1161807E-013  0.5052886E+02  0.7816164E-02  0.1300439E+00
        -11   -1    0    0    0    0  0.00000000000E+00  0.00000000000E+00  0.45593999997E+02  0.45594000000E+02  0.51100000000E-03 0. -1.
         11   -1    0    0    0    0 -0.00000000000E+00 -0.00000000000E+00 -0.45593999997E+02  0.45594000000E+02  0.51100000000E-03 0.  1.
    9900012    2    1    2    0    0  0.17573638949E+02  0.28628667033E+01 -0.36553205849E+02  0.50528860197E+02  0.30000001055E+02 0.  0.
         12    1    1    2    0    0 -0.17573638949E+02 -0.28628667033E+01  0.36553205849E+02  0.40659139803E+02  0.00000000000E+00 0. -1.
         11    1    3    3    0    0  0.90354339615E+01  0.51541759679E+01 -0.29272020343E+02  0.31065346803E+02  0.51100000000E-03 0. -1.
        -11    1    3    3    0    0  0.11929849427E+02 -0.50751980520E+01 -0.76616197044E+01  0.15059195177E+02  0.51100000000E-03 0.  1.
         12    1    3    3    0    0 -0.33916444393E+01  0.27838887875E+01  0.38043419770E+00  0.44043182176E+01  0.00000000000E+00 0. -1.
</event>
<event>
 7    1  0.1161807E-013  0.5052887E+02  0.7816164E-02  0.1300439E+00
        -11   -1    0    0    0    0  0.00000000000E+00  0.00000000000E+00  0.45593999997E+02  0.45594000000E+02  0.51100000000E-03 0. -1.
         11   -1    0    0    0    0 -0.00000000000E+00 -0.00000000000E+00 -0.45593999997E+02  0.45594000000E+02  0.51100000000E-03 0.  1.
    9900012    2    1    2    0    0  0.34643516652E+01  0.33060600705E+02  0.23412819788E+02  0.50528865948E+02  0.30000018535E+02 0.  0.
        -12    1    1    2    0    0 -0.34643516652E+01 -0.33060600705E+02 -0.23412819788E+02  0.40659134052E+02  0.00000000000E+00 0.  1.
         11    1    3    3    0    0 -0.60091258636E+01  0.13320971625E+02  0.92877634396E+01  0.17315323522E+02  0.51100000000E-03 0. -1.
        -11    1    3    3    0    0  0.76855719495E+01  0.20205724516E+02  0.18507098488E+02  0.28457898976E+02  0.51100000000E-03 0.  1.
        -12    1    3    3    0    0  0.17879055793E+01 -0.46609543641E+00 -0.43820421395E+01  0.47556434506E+01  0.00000000000E+00 0.  1.
</event>
<event>
 7    1  0.1161807E-013  0.5052887E+02  0.7816164E-02  0.1300439E+00
        -11   -1    0    0    0    0  0.00000000000E+00  0.00000000000E+00  0.45593999997E+02  0.45594000000E+02  0.51100000000E-03 0. -1.
         11   -1    0    0    0    0 -0.00000000000E+00 -0.00000000000E+00 -0.45593999997E+02  0.45594000000E+02  0.51100000000E-03 0.  1.
    9900012    2    1    2    0    0 -0.27253424087E+00 -0.10988026726E+02 -0.39145292519E+02  0.50528869012E+02  0.30000027849E+02 0.  0.
         12    1    1    2    0    0  0.27253424087E+00  0.10988026726E+02  0.39145292519E+02  0.40659130988E+02  0.00000000000E+00 0. -1.
         11    1    3    3    0    0  0.25757645035E+01 -0.10132309379E+02 -0.83576354816E+01  0.13384630262E+02  0.51100000000E-03 0. -1.
        -11    1    3    3    0    0 -0.50421804749E+01  0.15715211360E+01 -0.32853190821E+02  0.33274996769E+02  0.51100000000E-03 0.  1.
         12    1    3    3    0    0  0.21938817306E+01 -0.24272384833E+01  0.20655337829E+01  0.38692419814E+01  0.00000000000E+00 0. -1.
</event>
<event>
 7    1  0.1161807E-013  0.5052886E+02  0.7816164E-02  0.1300439E+00
        -11   -1    0    0    0    0  0.00000000000E+00  0.00000000000E+00  0.45593999997E+02  0.45594000000E+02  0.51100000000E-03 0. -1.
         11   -1    0    0    0    0 -0.00000000000E+00 -0.00000000000E+00 -0.45593999997E+02  0.45594000000E+02  0.51100000000E-03 0.  1.
    9900012    2    1    2    0    0 -0.14468068516E+02 -0.13658245254E+02 -0.35458327043E+02  0.50528860478E+02  0.30000001909E+02 0.  0.
         12    1    1    2    0    0  0.14468068516E+02  0.13658245254E+02  0.35458327043E+02  0.40659139522E+02  0.00000000000E+00 0. -1.
         11    1    3    3    0    0  0.48118100319E+01 -0.75955250725E+01 -0.75607750155E+01  0.11747801326E+02  0.51100000000E-03 0. -1.
        -11    1    3    3    0    0 -0.11460974248E+01 -0.81381046047E+01 -0.55031933743E+01  0.98907746633E+01  0.51100000000E-03 0.  1.
         12    1    3    3    0    0 -0.18133781123E+02  0.20753844236E+01 -0.22394358653E+02  0.28890284488E+02  0.00000000000E+00 0. -1.
</event>
<event>
 7    1  0.1161807E-013  0.5052886E+02  0.7816164E-02  0.1300439E+00
        -11   -1    0    0    0    0  0.00000000000E+00  0.00000000000E+00  0.45593999997E+02  0.45594000000E+02  0.51100000000E-03 0. -1.
         11   -1    0    0    0    0 -0.00000000000E+00 -0.00000000000E+00 -0.45593999997E+02  0.45594000000E+02  0.51100000000E-03 0.  1.
    9900012    2    1    2    0    0 -0.91808926180E+01  0.32786944674E+02  0.22223698048E+02  0.50528864676E+02  0.30000014669E+02 0.  0.
        -12    1    1    2    0    0  0.91808926180E+01 -0.32786944674E+02 -0.22223698048E+02  0.40659135324E+02  0.00000000000E+00 0.  1.
         11    1    3    3    0    0 -0.12391024529E+02  0.27045770485E+02  0.96690703856E+01  0.31281018404E+02  0.51100000000E-03 0. -1.
        -11    1    3    3    0    0  0.51039062128E+01  0.70458848799E+01  0.26722090131E+01  0.91013764696E+01  0.51100000000E-03 0.  1.
        -12    1    3    3    0    0 -0.18937743015E+01 -0.13047106902E+01  0.98824186497E+01  0.10146469803E+02  0.00000000000E+00 0.  1.
</event>
<event>
 7    1  0.1161807E-013  0.5052886E+02  0.7816164E-02  0.1300439E+00
        -11   -1    0    0    0    0  0.00000000000E+00  0.00000000000E+00  0.45593999997E+02  0.45594000000E+02  0.51100000000E-03 0. -1.
         11   -1    0    0    0    0 -0.00000000000E+00 -0.00000000000E+00 -0.45593999997E+02  0.45594000000E+02  0.51100000000E-03 0.  1.
    9900012    2    1    2    0    0  0.12041271233E+01 -0.44008273903E+01  0.40402329825E+02  0.50528862539E+02  0.30000008172E+02 0.  0.
        -12    1    1    2    0    0 -0.12041271233E+01  0.44008273903E+01 -0.40402329825E+02  0.40659137461E+02  0.00000000000E+00 0.  1.
         11    1    3    3    0    0 -0.76822004705E+01 -0.14788407507E+00  0.36901384164E+01  0.85238017083E+01  0.51100000000E-03 0. -1.
        -11    1    3    3    0    0  0.11422345104E+01 -0.78491414552E+01  0.30316536395E+02  0.31336976570E+02  0.51100000000E-03 0.  1.
        -12    1    3    3    0    0  0.77440930835E+01  0.35961981400E+01  0.63956550128E+01  0.10668084261E+02  0.00000000000E+00 0.  1.
</event>
<event>
 7    1  0.1161807E-013  0.5052885E+02  0.7816164E-02  0.1300439E+00
        -11   -1    0    0    0    0  0.00000000000E+00  0.00000000000E+00  0.45593999997E+02  0.45594000000E+02  0.51100000000E-03 0. -1.
         11   -1    0    0    0    0 -0.00000000000E+00 -0.00000000000E+00 -0.45593999997E+02  0.45594000000E+02  0.51100000000E-03 0.  1.
    9900012    2    1    2    0    0  0.26112481913E+02 -0.21709732555E+02  0.22360500705E+02  0.50528853537E+02  0.29999980812E+02 0.  0.
        -12    1    1    2    0    0 -0.26112481913E+02  0.21709732555E+02 -0.22360500705E+02  0.40659146463E+02  0.00000000000E+00 0.  1.
         11    1    3    3    0    0  0.13867336428E+02 -0.15817619889E+02  0.49987676741E+01  0.21621466117E+02  0.51100000000E-03 0.  1.
        -11    1    3    3    0    0  0.33517912123E+01 -0.10806645272E+02  0.37466171685E+01  0.11918692329E+02  0.51100000000E-03 0. -1.
        -12    1    3    3    0    0  0.88933542729E+01  0.49145326048E+01  0.13615115863E+02  0.16988695091E+02  0.00000000000E+00 0.  1.
</event>
<event>
 7    1  0.1679688E-013  0.5052888E+02  0.7816164E-02  0.1300439E+00
        -11   -1    0    0    0    0  0.00000000000E+00  0.00000000000E+00  0.45593999997E+02  0.45594000000E+02  0.51100000000E-03 0. -1.
         11   -1    0    0    0    0 -0.00000000000E+00 -0.00000000000E+00 -0.45593999997E+02  0.45594000000E+02  0.51100000000E-03 0.  1.
    9900012    2    1    2    0    0 -0.47076866133E+01  0.84675685131E+01 -0.39488002582E+02  0.50528875837E+02  0.30000048594E+02 0.  0.
         12    1    1    2    0    0  0.47076866133E+01 -0.84675685131E+01  0.39488002582E+02  0.40659124163E+02  0.00000000000E+00 0. -1.
         11    1    3    3    0    0  0.44057731590E+01 -0.15196371173E+00 -0.47971780866E+01  0.65151245540E+01  0.51100000000E-03 0. -1.
        -11    1    3    3    0    0 -0.77165167704E-01 -0.42193937090E+01  0.15678474866E+01  0.45019311120E+01  0.51100000000E-03 0.  1.
        -12    1    3    3    0    0 -0.90362946047E+01  0.12838925934E+02 -0.36258671982E+02  0.39511820171E+02  0.00000000000E+00 0.  1.
</event>
<event>
 7    1  0.1161807E-013  0.5052886E+02  0.7816164E-02  0.1300439E+00
        -11   -1    0    0    0    0  0.00000000000E+00  0.00000000000E+00  0.45593999997E+02  0.45594000000E+02  0.51100000000E-03 0. -1.
         11   -1    0    0    0    0 -0.00000000000E+00 -0.00000000000E+00 -0.45593999997E+02  0.45594000000E+02  0.51100000000E-03 0.  1.
    9900012    2    1    2    0    0 -0.18028926738E+02  0.82947557713E+01 -0.35486905992E+02  0.50528859951E+02  0.30000000307E+02 0.  0.
         12    1    1    2    0    0  0.18028926738E+02 -0.82947557713E+01  0.35486905992E+02  0.40659140049E+02  0.00000000000E+00 0. -1.
         11    1    3    3    0    0 -0.96863649451E+01 -0.17219003472E+01 -0.69484621395E+01  0.12044572762E+02  0.51100000000E-03 0. -1.
        -11    1    3    3    0    0 -0.52637180836E+01  0.14048285482E+02 -0.73664217517E+01  0.16713025541E+02  0.51100000000E-03 0.  1.
         12    1    3    3    0    0 -0.30788437095E+01 -0.40316293631E+01 -0.21172022101E+02  0.21771261648E+02  0.00000000000E+00 0. -1.
</event>
<event>
 7    1  0.1161807E-013  0.5052886E+02  0.7816164E-02  0.1300439E+00
        -11   -1    0    0    0    0  0.00000000000E+00  0.00000000000E+00  0.45593999997E+02  0.45594000000E+02  0.51100000000E-03 0.  1.
         11   -1    0    0    0    0 -0.00000000000E+00 -0.00000000000E+00 -0.45593999997E+02  0.45594000000E+02  0.51100000000E-03 0. -1.
    9900012    2    1    2    0    0  0.35947795325E+02 -0.35672997563E+01 -0.18660019098E+02  0.50528856760E+02  0.29999990608E+02 0.  0.
        -12    1    1    2    0    0 -0.35947795325E+02  0.35672997563E+01  0.18660019098E+02  0.40659143240E+02  0.00000000000E+00 0.  1.
         11    1    3    3    0    0  0.19609950354E+02 -0.32365026870E+01 -0.96650049929E+01  0.22100620450E+02  0.51100000000E-03 0. -1.
        -11    1    3    3    0    0  0.53314727729E+01  0.54385624532E+01 -0.13258653355E+02  0.15290338536E+02  0.51100000000E-03 0.  1.
        -12    1    3    3    0    0  0.11006372198E+02 -0.57693595225E+01  0.42636392500E+01  0.13137897774E+02  0.00000000000E+00 0.  1.
</event>
<event>
 7    1  0.1343547E-013  0.5052887E+02  0.7816164E-02  0.1300439E+00
        -11   -1    0    0    0    0  0.00000000000E+00  0.00000000000E+00  0.45593999997E+02  0.45594000000E+02  0.51100000000E-03 0. -1.
         11   -1    0    0    0    0 -0.00000000000E+00 -0.00000000000E+00 -0.45593999997E+02  0.45594000000E+02  0.51100000000E-03 0.  1.
    9900012    2    1    2    0    0  0.78732570001E+01 -0.57676815595E+01 -0.39470376198E+02  0.50528869124E+02  0.30000028190E+02 0.  0.
         12    1    1    2    0    0 -0.78732570001E+01  0.57676815595E+01  0.39470376198E+02  0.40659130876E+02  0.00000000000E+00 0. -1.
         11    1    3    3    0    0  0.14088089981E+02 -0.44245558645E+01 -0.12219190421E+02  0.19166626952E+02  0.51100000000E-03 0. -1.
        -11    1    3    3    0    0 -0.37640383191E+01  0.54123725679E+01 -0.59465890613E+01  0.88782702710E+01  0.51100000000E-03 0.  1.
        -12    1    3    3    0    0 -0.24507946618E+01 -0.67554982628E+01 -0.21304596715E+02  0.22483971901E+02  0.00000000000E+00 0.  1.
</event>
<event>
 7    1  0.1161807E-013  0.5052886E+02  0.7816164E-02  0.1300439E+00
        -11   -1    0    0    0    0  0.00000000000E+00  0.00000000000E+00  0.45593999997E+02  0.45594000000E+02  0.51100000000E-03 0. -1.
         11   -1    0    0    0    0 -0.00000000000E+00 -0.00000000000E+00 -0.45593999997E+02  0.45594000000E+02  0.51100000000E-03 0.  1.
    9900012    2    1    2    0    0 -0.28453297560E+02 -0.61633233771E+01 -0.28382898990E+02  0.50528860165E+02  0.30000000957E+02 0.  0.
         12    1    1    2    0    0  0.28453297560E+02  0.61633233771E+01  0.28382898990E+02  0.40659139835E+02  0.00000000000E+00 0. -1.
         11    1    3    3    0    0  0.80063633728E+00 -0.19687181049E+00 -0.60649035590E+01  0.61206888906E+01  0.51100000000E-03 0. -1.
        -11    1    3    3    0    0  0.63432074107E+00 -0.83776190330E+01 -0.45712039447E+01  0.95646625257E+01  0.51100000000E-03 0.  1.
         12    1    3    3    0    0 -0.29888254638E+02  0.24111674664E+01 -0.17746791486E+02  0.34843508749E+02  0.00000000000E+00 0. -1.
</event>
<event>
 7    1  0.1161807E-013  0.5052878E+02  0.7816164E-02  0.1300439E+00
        -11   -1    0    0    0    0  0.00000000000E+00  0.00000000000E+00  0.45593999997E+02  0.45594000000E+02  0.51100000000E-03 0. -1.
         11   -1    0    0    0    0 -0.00000000000E+00 -0.00000000000E+00 -0.45593999997E+02  0.45594000000E+02  0.51100000000E-03 0.  1.
    9900012    2    1    2    0    0 -0.19002030772E+02 -0.62017616798E+01  0.35406685880E+02  0.50528776859E+02  0.29999747740E+02 0.  0.
        -12    1    1    2    0    0  0.19002030772E+02  0.62017616798E+01 -0.35406685880E+02  0.40659223141E+02  0.00000000000E+00 0.  1.
         11    1    3    3    0    0 -0.10302681459E+02 -0.10157056071E+02  0.17317953233E+02  0.22565959712E+02  0.51100000000E-03 0. -1.
        -11    1    3    3    0    0 -0.87283197542E+01  0.24141843227E+00 -0.74781111487E+00  0.87636219862E+01  0.51100000000E-03 0.  1.
        -12    1    3    3    0    0  0.28970441485E-01  0.37138759594E+01  0.18836543762E+02  0.19199195161E+02  0.00000000000E+00 0.  1.
</event>
<event>
 7    1  0.1161807E-013  0.5052887E+02  0.7816164E-02  0.1300439E+00
        -11   -1    0    0    0    0  0.00000000000E+00  0.00000000000E+00  0.45593999997E+02  0.45594000000E+02  0.51100000000E-03 0. -1.
         11   -1    0    0    0    0 -0.00000000000E+00 -0.00000000000E+00 -0.45593999997E+02  0.45594000000E+02  0.51100000000E-03 0.  1.
    9900012    2    1    2    0    0 -0.14266832947E+02  0.29938952364E+02 -0.23521939596E+02  0.50528867774E+02  0.30000024086E+02 0.  0.
         12    1    1    2    0    0  0.14266832947E+02 -0.29938952364E+02  0.23521939596E+02  0.40659132226E+02  0.00000000000E+00 0. -1.
         11    1    3    3    0    0 -0.34192823289E+01  0.19097795820E+00  0.24212042190E+01  0.41940665656E+01  0.51100000000E-03 0. -1.
        -11    1    3    3    0    0 -0.10916291360E+02  0.27265080750E+01 -0.93129266205E+01  0.14605816165E+02  0.51100000000E-03 0.  1.
        -12    1    3    3    0    0  0.68740741445E-01  0.27021466331E+02 -0.16630217195E+02  0.31728985044E+02  0.00000000000E+00 0.  1.
</event>
<event>
 7    1  0.1161807E-013  0.5052887E+02  0.7816164E-02  0.1300439E+00
        -11   -1    0    0    0    0  0.00000000000E+00  0.00000000000E+00  0.45593999997E+02  0.45594000000E+02  0.51100000000E-03 0. -1.
         11   -1    0    0    0    0 -0.00000000000E+00 -0.00000000000E+00 -0.45593999997E+02  0.45594000000E+02  0.51100000000E-03 0.  1.
    9900012    2    1    2    0    0 -0.21302642129E+02  0.12234519362E+01  0.34610196723E+02  0.50528866788E+02  0.30000021090E+02 0.  0.
        -12    1    1    2    0    0  0.21302642129E+02 -0.12234519362E+01 -0.34610196723E+02  0.40659133212E+02  0.00000000000E+00 0.  1.
         11    1    3    3    0    0  0.29468545816E+00  0.40364582003E+00 -0.12609039188E+01  0.13563363966E+01  0.51100000000E-03 0.  1.
        -11    1    3    3    0    0  0.28029245525E+01 -0.30418663995E+01  0.18539272478E+02  0.18995103619E+02  0.51100000000E-03 0. -1.
         12    1    3    3    0    0 -0.24400252140E+02  0.38616725156E+01  0.17331828164E+02  0.30177426772E+02  0.00000000000E+00 0. -1.
</event>
<event>
 7    1  0.1161807E-013  0.5052885E+02  0.7816164E-02  0.1300439E+00
        -11   -1    0    0    0    0  0.00000000000E+00  0.00000000000E+00  0.45593999997E+02  0.45594000000E+02  0.51100000000E-03 0. -1.
         11   -1    0    0    0    0 -0.00000000000E+00 -0.00000000000E+00 -0.45593999997E+02  0.45594000000E+02  0.51100000000E-03 0.  1.
    9900012    2    1    2    0    0  0.24384698471E+02  0.15207789758E+02  0.28762410411E+02  0.50528847998E+02  0.29999963976E+02 0.  0.
        -12    1    1    2    0    0 -0.24384698471E+02 -0.15207789758E+02 -0.28762410411E+02  0.40659152002E+02  0.00000000000E+00 0.  1.
         11    1    3    3    0    0  0.98043518397E+01  0.90423883077E+01  0.40656382542E+01  0.13943439891E+02  0.51100000000E-03 0. -1.
        -11    1    3    3    0    0  0.57421488589E+01  0.12288216691E+02  0.21405571209E+02  0.25341093544E+02  0.51100000000E-03 0.  1.
        -12    1    3    3    0    0  0.88381977721E+01 -0.61228152407E+01  0.32912009478E+01  0.11244314564E+02  0.00000000000E+00 0.  1.
</event>
<event>
 7    1  0.1161807E-013  0.5052885E+02  0.7816164E-02  0.1300439E+00
        -11   -1    0    0    0    0  0.00000000000E+00  0.00000000000E+00  0.45593999997E+02  0.45594000000E+02  0.51100000000E-03 0. -1.
         11   -1    0    0    0    0 -0.00000000000E+00 -0.00000000000E+00 -0.45593999997E+02  0.45594000000E+02  0.51100000000E-03 0.  1.
    9900012    2    1    2    0    0  0.11827862491E+02 -0.18205532928E+02  0.34377707616E+02  0.50528849231E+02  0.29999967724E+02 0.  0.
        -12    1    1    2    0    0 -0.11827862491E+02  0.18205532928E+02 -0.34377707616E+02  0.40659150769E+02  0.00000000000E+00 0.  1.
         11    1    3    3    0    0  0.10632289395E+02 -0.18871676457E+02  0.35755080539E+02  0.41804443959E+02  0.51100000000E-03 0. -1.
        -11    1    3    3    0    0  0.91711272965E+00 -0.16963710018E+01  0.31019911981E+01  0.36525497928E+01  0.51100000000E-03 0.  1.
        -12    1    3    3    0    0  0.27846036560E+00  0.23625145315E+01 -0.44793641206E+01  0.50718554801E+01  0.00000000000E+00 0.  1.
</event>
<event>
 7    1  0.1161807E-013  0.5052887E+02  0.7816164E-02  0.1300439E+00
        -11   -1    0    0    0    0  0.00000000000E+00  0.00000000000E+00  0.45593999997E+02  0.45594000000E+02  0.51100000000E-03 0.  1.
         11   -1    0    0    0    0 -0.00000000000E+00 -0.00000000000E+00 -0.45593999997E+02  0.45594000000E+02  0.51100000000E-03 0. -1.
    9900012    2    1    2    0    0 -0.25879026945E+02 -0.18356713042E+02 -0.25425816364E+02  0.50528867114E+02  0.30000022078E+02 0.  0.
         12    1    1    2    0    0  0.25879026945E+02  0.18356713042E+02  0.25425816364E+02  0.40659132886E+02  0.00000000000E+00 0. -1.
         11    1    3    3    0    0 -0.21954043787E+02 -0.98301369800E+01 -0.15382562767E+02  0.28552318106E+02  0.51100000000E-03 0. -1.
        -11    1    3    3    0    0 -0.78068965491E+01 -0.10070252749E+02 -0.11872612089E+02  0.17415985250E+02  0.51100000000E-03 0.  1.
        -12    1    3    3    0    0  0.38819133917E+01  0.15436766874E+01  0.18293584921E+01  0.45605637577E+01  0.00000000000E+00 0.  1.
</event>
<event>
 7    1  0.1161807E-013  0.5052886E+02  0.7816164E-02  0.1300439E+00
        -11   -1    0    0    0    0  0.00000000000E+00  0.00000000000E+00  0.45593999997E+02  0.45594000000E+02  0.51100000000E-03 0. -1.
         11   -1    0    0    0    0 -0.00000000000E+00 -0.00000000000E+00 -0.45593999997E+02  0.45594000000E+02  0.51100000000E-03 0.  1.
    9900012    2    1    2    0    0 -0.19693579584E+01  0.33666803458E+02  0.22711966216E+02  0.50528862832E+02  0.30000009064E+02 0.  0.
        -12    1    1    2    0    0  0.19693579584E+01 -0.33666803458E+02 -0.22711966216E+02  0.40659137168E+02  0.00000000000E+00 0.  1.
         11    1    3    3    0    0  0.41190026174E+01  0.70271735201E+01  0.80754057200E+01  0.11469940194E+02  0.51100000000E-03 0. -1.
        -11    1    3    3    0    0  0.83598183357E+01  0.37987835156E+01  0.34765317136E+01  0.98185330789E+01  0.51100000000E-03 0.  1.
         12    1    3    3    0    0 -0.14448178912E+02  0.22840846423E+02  0.11160028782E+02  0.29240389559E+02  0.00000000000E+00 0. -1.
</event>
<event>
 7    1  0.1161807E-013  0.5052887E+02  0.7816164E-02  0.1300439E+00
        -11   -1    0    0    0    0  0.00000000000E+00  0.00000000000E+00  0.45593999997E+02  0.45594000000E+02  0.51100000000E-03 0. -1.
         11   -1    0    0    0    0 -0.00000000000E+00 -0.00000000000E+00 -0.45593999997E+02  0.45594000000E+02  0.51100000000E-03 0.  1.
    9900012    2    1    2    0    0 -0.26942594460E+02 -0.18873660517E+02  0.23896576416E+02  0.50528870373E+02  0.30000031987E+02 0.  0.
        -12    1    1    2    0    0  0.26942594460E+02  0.18873660517E+02 -0.23896576416E+02  0.40659129627E+02  0.00000000000E+00 0.  1.
         11    1    3    3    0    0 -0.18943050857E+02 -0.19725620042E+01  0.48539760074E+01  0.19654293677E+02  0.51100000000E-03 0. -1.
        -11    1    3    3    0    0 -0.16456129539E+01  0.29812975059E+01  0.31648577714E+01  0.46489247991E+01  0.51100000000E-03 0.  1.
         12    1    3    3    0    0 -0.63539306499E+01 -0.19882396019E+02  0.15877742637E+02  0.26225651897E+02  0.00000000000E+00 0. -1.
</event>
<event>
 7    1  0.1161807E-013  0.5052887E+02  0.7816164E-02  0.1300439E+00
        -11   -1    0    0    0    0  0.00000000000E+00  0.00000000000E+00  0.45593999997E+02  0.45594000000E+02  0.51100000000E-03 0. -1.
         11   -1    0    0    0    0 -0.00000000000E+00 -0.00000000000E+00 -0.45593999997E+02  0.45594000000E+02  0.51100000000E-03 0.  1.
    9900012    2    1    2    0    0 -0.55134132200E+01  0.38347965909E+02  0.12336973896E+02  0.50528866468E+02  0.30000020117E+02 0.  0.
        -12    1    1    2    0    0  0.55134132200E+01 -0.38347965909E+02 -0.12336973896E+02  0.40659133532E+02  0.00000000000E+00 0.  1.
         11    1    3    3    0    0  0.16517140959E+01 -0.10794853399E+01  0.18163821337E+00  0.19815248561E+01  0.51100000000E-03 0. -1.
        -11    1    3    3    0    0 -0.15620457090E+02  0.19297229159E+02  0.35531607876E+01  0.25080005678E+02  0.51100000000E-03 0.  1.
         12    1    3    3    0    0  0.84553297743E+01  0.20130222089E+02  0.86021748946E+01  0.23467335935E+02  0.00000000000E+00 0. -1.
</event>
<event>
 7    1  0.1161807E-013  0.5052886E+02  0.7816164E-02  0.1300439E+00
        -11   -1    0    0    0    0  0.00000000000E+00  0.00000000000E+00  0.45593999997E+02  0.45594000000E+02  0.51100000000E-03 0. -1.
         11   -1    0    0    0    0 -0.00000000000E+00 -0.00000000000E+00 -0.45593999997E+02  0.45594000000E+02  0.51100000000E-03 0.  1.
    9900012    2    1    2    0    0 -0.24404343003E+02  0.44048632314E+01 -0.32220968830E+02  0.50528860685E+02  0.30000002537E+02 0.  0.
         12    1    1    2    0    0  0.24404343003E+02 -0.44048632314E+01  0.32220968830E+02  0.40659139315E+02  0.00000000000E+00 0. -1.
         11    1    3    3    0    0 -0.11181913052E+02  0.78767060036E+01 -0.21564149778E+02  0.25536057504E+02  0.51100000000E-03 0. -1.
        -11    1    3    3    0    0 -0.12840543212E+02 -0.11404056072E+01 -0.15164632238E+02  0.19903420462E+02  0.51100000000E-03 0.  1.
         12    1    3    3    0    0 -0.38188673938E+00 -0.23314371650E+01  0.45078131854E+01  0.50893827180E+01  0.00000000000E+00 0. -1.
</event>
<event>
 7    1  0.1161807E-013  0.5052885E+02  0.7816164E-02  0.1300439E+00
        -11   -1    0    0    0    0  0.00000000000E+00  0.00000000000E+00  0.45593999997E+02  0.45594000000E+02  0.51100000000E-03 0. -1.
         11   -1    0    0    0    0 -0.00000000000E+00 -0.00000000000E+00 -0.45593999997E+02  0.45594000000E+02  0.51100000000E-03 0.  1.
    9900012    2    1    2    0    0 -0.19158371299E+02  0.14262221994E+02 -0.32904595318E+02  0.50528848999E+02  0.29999967019E+02 0.  0.
         12    1    1    2    0    0  0.19158371299E+02 -0.14262221994E+02  0.32904595318E+02  0.40659151001E+02  0.00000000000E+00 0. -1.
         11    1    3    3    0    0 -0.52085237512E-01  0.12584889209E+02 -0.87225222768E+00  0.12615188206E+02  0.51100000000E-03 0.  1.
        -11    1    3    3    0    0 -0.21943571230E+01 -0.20045859851E+01 -0.48923131082E+01  0.57243598738E+01  0.51100000000E-03 0. -1.
        -12    1    3    3    0    0 -0.16911928939E+02  0.36819187707E+01 -0.27140029982E+02  0.32189300920E+02  0.00000000000E+00 0.  1.
</event>
<event>
 7    1  0.1161807E-013  0.5052885E+02  0.7816164E-02  0.1300439E+00
        -11   -1    0    0    0    0  0.00000000000E+00  0.00000000000E+00  0.45593999997E+02  0.45594000000E+02  0.51100000000E-03 0. -1.
         11   -1    0    0    0    0 -0.00000000000E+00 -0.00000000000E+00 -0.45593999997E+02  0.45594000000E+02  0.51100000000E-03 0.  1.
    9900012    2    1    2    0    0 -0.32132746689E+02  0.17058279577E+02 -0.18156756718E+02  0.50528854332E+02  0.29999983228E+02 0.  0.
        -12    1    1    2    0    0  0.32132746689E+02 -0.17058279577E+02  0.18156756718E+02  0.40659145668E+02  0.00000000000E+00 0.  1.
         11    1    3    3    0    0 -0.27913246473E+02  0.23008301496E+02 -0.97837424435E+01  0.37473362310E+02  0.51100000000E-03 0. -1.
        -11    1    3    3    0    0 -0.24437195926E+01 -0.20674572650E+01 -0.81774552029E+01  0.87816239299E+01  0.51100000000E-03 0.  1.
        -12    1    3    3    0    0 -0.17757806239E+01 -0.38825646541E+01 -0.19555907153E+00  0.42738680920E+01  0.00000000000E+00 0.  1.
</event>
<event>
 7    1  0.1161807E-013  0.5052886E+02  0.7816164E-02  0.1300439E+00
        -11   -1    0    0    0    0  0.00000000000E+00  0.00000000000E+00  0.45593999997E+02  0.45594000000E+02  0.51100000000E-03 0. -1.
         11   -1    0    0    0    0 -0.00000000000E+00 -0.00000000000E+00 -0.45593999997E+02  0.45594000000E+02  0.51100000000E-03 0.  1.
    9900012    2    1    2    0    0  0.11288756742E+02  0.15556929831E-01 -0.39060582792E+02  0.50528863280E+02  0.30000010426E+02 0.  0.
         12    1    1    2    0    0 -0.11288756742E+02 -0.15556929831E-01  0.39060582792E+02  0.40659136720E+02  0.00000000000E+00 0. -1.
         11    1    3    3    0    0 -0.66467308554E+01  0.23469688407E+01 -0.15336932458E+02  0.16879241431E+02  0.51100000000E-03 0. -1.
        -11    1    3    3    0    0 -0.24648183599E+01 -0.23564893263E+01 -0.42264740663E+01  0.54306035379E+01  0.51100000000E-03 0.  1.
         12    1    3    3    0    0  0.20400305958E+02  0.25077415398E-01 -0.19497176267E+02  0.28219018311E+02  0.00000000000E+00 0. -1.
</event>
<event>
 7    1  0.1161807E-013  0.5052885E+02  0.7816164E-02  0.1300439E+00
        -11   -1    0    0    0    0  0.00000000000E+00  0.00000000000E+00  0.45593999997E+02  0.45594000000E+02  0.51100000000E-03 0.  1.
         11   -1    0    0    0    0 -0.00000000000E+00 -0.00000000000E+00 -0.45593999997E+02  0.45594000000E+02  0.51100000000E-03 0. -1.
    9900012    2    1    2    0    0  0.13687775871E+02 -0.36629483822E+02  0.11139649985E+02  0.50528854717E+02  0.29999984397E+02 0.  0.
         12    1    1    2    0    0 -0.13687775871E+02  0.36629483822E+02 -0.11139649985E+02  0.40659145283E+02  0.00000000000E+00 0. -1.
         11    1    3    3    0    0 -0.19496251726E+01 -0.42342028592E+01 -0.19592018929E+00  0.46656079077E+01  0.51100000000E-03 0. -1.
        -11    1    3    3    0    0  0.22463333669E+01 -0.21275537263E+01  0.12368359444E+02  0.12749463285E+02  0.51100000000E-03 0.  1.
        -12    1    3    3    0    0  0.13391067677E+02 -0.30267727237E+02 -0.10327892701E+01  0.33113783524E+02  0.00000000000E+00 0.  1.
</event>
<event>
 7    1  0.1161807E-013  0.5052889E+02  0.7816164E-02  0.1300439E+00
        -11   -1    0    0    0    0  0.00000000000E+00  0.00000000000E+00  0.45593999997E+02  0.45594000000E+02  0.51100000000E-03 0. -1.
         11   -1    0    0    0    0 -0.00000000000E+00 -0.00000000000E+00 -0.45593999997E+02  0.45594000000E+02  0.51100000000E-03 0.  1.
    9900012    2    1    2    0    0  0.35973410522E+02 -0.40511917407E+01 -0.18511208066E+02  0.50528889789E+02  0.30000091003E+02 0.  0.
         12    1    1    2    0    0 -0.35973410522E+02  0.40511917407E+01  0.18511208066E+02  0.40659110211E+02  0.00000000000E+00 0. -1.
         11    1    3    3    0    0  0.77066127105E+01  0.29092068360E+01 -0.95054928980E+01  0.12578146103E+02  0.51100000000E-03 0. -1.
        -11    1    3    3    0    0  0.64730572602E+00  0.84676281251E+00 -0.91868414029E+01  0.92484629635E+01  0.51100000000E-03 0.  1.
         12    1    3    3    0    0  0.27619492085E+02 -0.78071613892E+01  0.18112623514E+00  0.28702280723E+02  0.00000000000E+00 0. -1.
</event>
<event>
 7    1  0.1161807E-013  0.5052886E+02  0.7816164E-02  0.1300439E+00
        -11   -1    0    0    0    0  0.00000000000E+00  0.00000000000E+00  0.45593999997E+02  0.45594000000E+02  0.51100000000E-03 0. -1.
         11   -1    0    0    0    0 -0.00000000000E+00 -0.00000000000E+00 -0.45593999997E+02  0.45594000000E+02  0.51100000000E-03 0.  1.
    9900012    2    1    2    0    0  0.32316477151E+01  0.21083531567E+02  0.34615129635E+02  0.50528855273E+02  0.29999986087E+02 0.  0.
        -12    1    1    2    0    0 -0.32316477151E+01 -0.21083531567E+02 -0.34615129635E+02  0.40659144727E+02  0.00000000000E+00 0.  1.
         11    1    3    3    0    0 -0.18252990489E+01  0.65520069066E+01  0.10453524447E+02  0.12471434751E+02  0.51100000000E-03 0. -1.
        -11    1    3    3    0    0 -0.11350413690E+01  0.19142464885E+02  0.93045211277E+01  0.21314229859E+02  0.51100000000E-03 0.  1.
        -12    1    3    3    0    0  0.61919881330E+01 -0.46109402252E+01  0.14857084060E+02  0.16743190663E+02  0.00000000000E+00 0.  1.
</event>
<event>
 7    1  0.1161807E-013  0.5052886E+02  0.7816164E-02  0.1300439E+00
        -11   -1    0    0    0    0  0.00000000000E+00  0.00000000000E+00  0.45593999997E+02  0.45594000000E+02  0.51100000000E-03 0. -1.
         11   -1    0    0    0    0 -0.00000000000E+00 -0.00000000000E+00 -0.45593999997E+02  0.45594000000E+02  0.51100000000E-03 0.  1.
    9900012    2    1    2    0    0  0.31684442700E+02 -0.23690312598E+02 -0.93824629497E+01  0.50528862882E+02  0.30000009217E+02 0.  0.
         12    1    1    2    0    0 -0.31684442700E+02  0.23690312598E+02  0.93824629497E+01  0.40659137118E+02  0.00000000000E+00 0. -1.
         11    1    3    3    0    0  0.22972690501E+01  0.63593284048E+00  0.57253012043E+01  0.62016876580E+01  0.51100000000E-03 0. -1.
        -11    1    3    3    0    0 -0.72182115717E+00 -0.64580944371E+01 -0.97688022208E+00  0.65713244305E+01  0.51100000000E-03 0.  1.
         12    1    3    3    0    0  0.30108994807E+02 -0.17868151001E+02 -0.14130883932E+02  0.37755850794E+02  0.00000000000E+00 0. -1.
</event>
<event>
 7    1  0.1161807E-013  0.5052885E+02  0.7816164E-02  0.1300439E+00
        -11   -1    0    0    0    0  0.00000000000E+00  0.00000000000E+00  0.45593999997E+02  0.45594000000E+02  0.51100000000E-03 0.  1.
         11   -1    0    0    0    0 -0.00000000000E+00 -0.00000000000E+00 -0.45593999997E+02  0.45594000000E+02  0.51100000000E-03 0. -1.
    9900012    2    1    2    0    0  0.26404168771E+02  0.24615316358E+02  0.18710220050E+02  0.50528852663E+02  0.29999978154E+02 0.  0.
        -12    1    1    2    0    0 -0.26404168771E+02 -0.24615316358E+02 -0.18710220050E+02  0.40659147337E+02  0.00000000000E+00 0.  1.
         11    1    3    3    0    0  0.22360704371E+02  0.85838260918E+01  0.16620597254E+02  0.29153514775E+02  0.51100000000E-03 0. -1.
        -11    1    3    3    0    0  0.73156092014E+01  0.74876584603E+01 -0.30214220439E+01  0.10895510940E+02  0.51100000000E-03 0.  1.
        -12    1    3    3    0    0 -0.32721448020E+01  0.85438318055E+01  0.51110448391E+01  0.10479826949E+02  0.00000000000E+00 0.  1.
</event>
<event>
 7    1  0.1161807E-013  0.5052886E+02  0.7816164E-02  0.1300439E+00
        -11   -1    0    0    0    0  0.00000000000E+00  0.00000000000E+00  0.45593999997E+02  0.45594000000E+02  0.51100000000E-03 0. -1.
         11   -1    0    0    0    0 -0.00000000000E+00 -0.00000000000E+00 -0.45593999997E+02  0.45594000000E+02  0.51100000000E-03 0.  1.
    9900012    2    1    2    0    0  0.29992238217E+02  0.87658280357E+00  0.27438349601E+02  0.50528858598E+02  0.29999996195E+02 0.  0.
        -12    1    1    2    0    0 -0.29992238217E+02 -0.87658280357E+00 -0.27438349601E+02  0.40659141402E+02  0.00000000000E+00 0.  1.
         11    1    3    3    0    0  0.44591073875E+00  0.41886208703E+01 -0.19191492651E+01  0.46288784111E+01  0.51100000000E-03 0.  1.
        -11    1    3    3    0    0  0.39709175901E+01  0.29354533543E+01 -0.16654911866E+01  0.52114234194E+01  0.51100000000E-03 0. -1.
         12    1    3    3    0    0  0.25575409888E+02 -0.62474914211E+01  0.31022990053E+02  0.40688556768E+02  0.00000000000E+00 0. -1.
</event>
<event>
 7    1  0.1161807E-013  0.5052886E+02  0.7816164E-02  0.1300439E+00
        -11   -1    0    0    0    0  0.00000000000E+00  0.00000000000E+00  0.45593999997E+02  0.45594000000E+02  0.51100000000E-03 0. -1.
         11   -1    0    0    0    0 -0.00000000000E+00 -0.00000000000E+00 -0.45593999997E+02  0.45594000000E+02  0.51100000000E-03 0.  1.
    9900012    2    1    2    0    0 -0.63394660686E+01  0.31385837750E+01  0.40039058316E+02  0.50528859220E+02  0.29999998085E+02 0.  0.
        -12    1    1    2    0    0  0.63394660686E+01 -0.31385837750E+01 -0.40039058316E+02  0.40659140780E+02  0.00000000000E+00 0.  1.
         11    1    3    3    0    0 -0.87980688284E+01  0.60060830898E+01  0.57713665310E+00  0.10668277095E+02  0.51100000000E-03 0.  1.
        -11    1    3    3    0    0  0.24433726390E+01  0.16469129214E+00  0.22166678885E+02  0.22301543582E+02  0.51100000000E-03 0. -1.
        -12    1    3    3    0    0  0.15230120784E-01 -0.30321906070E+01  0.17295242777E+02  0.17559038543E+02  0.00000000000E+00 0.  1.
</event>
<event>
 7    1  0.1161807E-013  0.5052886E+02  0.7816164E-02  0.1300439E+00
        -11   -1    0    0    0    0  0.00000000000E+00  0.00000000000E+00  0.45593999997E+02  0.45594000000E+02  0.51100000000E-03 0.  1.
         11   -1    0    0    0    0 -0.00000000000E+00 -0.00000000000E+00 -0.45593999997E+02  0.45594000000E+02  0.51100000000E-03 0. -1.
    9900012    2    1    2    0    0 -0.33777041358E+02 -0.26395788640E+01  0.22479087355E+02  0.50528864891E+02  0.30000015323E+02 0.  0.
        -12    1    1    2    0    0  0.33777041358E+02  0.26395788640E+01 -0.22479087355E+02  0.40659135109E+02  0.00000000000E+00 0.  1.
         11    1    3    3    0    0 -0.38329213266E+01  0.20527705650E+01  0.31464813104E+01  0.53670753475E+01  0.51100000000E-03 0.  1.
        -11    1    3    3    0    0  0.27671464669E+01  0.58270716474E+01  0.28620048294E+01  0.70571194873E+01  0.51100000000E-03 0. -1.
         12    1    3    3    0    0 -0.32711266499E+02 -0.10519421076E+02  0.16470601215E+02  0.38104670056E+02  0.00000000000E+00 0. -1.
</event>
<event>
 7    1  0.1161807E-013  0.5052884E+02  0.7816164E-02  0.1300439E+00
        -11   -1    0    0    0    0  0.00000000000E+00  0.00000000000E+00  0.45593999997E+02  0.45594000000E+02  0.51100000000E-03 0. -1.
         11   -1    0    0    0    0 -0.00000000000E+00 -0.00000000000E+00 -0.45593999997E+02  0.45594000000E+02  0.51100000000E-03 0.  1.
    9900012    2    1    2    0    0 -0.27049936678E+02  0.21732799680E+02  0.21193239396E+02  0.50528842946E+02  0.29999948619E+02 0.  0.
        -12    1    1    2    0    0  0.27049936678E+02 -0.21732799680E+02 -0.21193239396E+02  0.40659157054E+02  0.00000000000E+00 0.  1.
         11    1    3    3    0    0 -0.30586418728E+01 -0.15783791580E+01 -0.65741874521E+00  0.35041076667E+01  0.51100000000E-03 0.  1.
        -11    1    3    3    0    0  0.16266842522E+01  0.10101010126E+02  0.13647575052E+02  0.17056752689E+02  0.51100000000E-03 0. -1.
         12    1    3    3    0    0 -0.25617979057E+02  0.13210168712E+02  0.82030830897E+01  0.29967982591E+02  0.00000000000E+00 0. -1.
</event>
<event>
 7    1  0.1161807E-013  0.5052891E+02  0.7816164E-02  0.1300439E+00
        -11   -1    0    0    0    0  0.00000000000E+00  0.00000000000E+00  0.45593999997E+02  0.45594000000E+02  0.51100000000E-03 0. -1.
         11   -1    0    0    0    0 -0.00000000000E+00 -0.00000000000E+00 -0.45593999997E+02  0.45594000000E+02  0.51100000000E-03 0.  1.
    9900012    2    1    2    0    0  0.10077216824E+02 -0.18339382317E+02  0.34860840003E+02  0.50528912352E+02  0.30000159585E+02 0.  0.
        -12    1    1    2    0    0 -0.10077216824E+02  0.18339382317E+02 -0.34860840003E+02  0.40659087648E+02  0.00000000000E+00 0.  1.
         11    1    3    3    0    0  0.27196292979E+01 -0.95522516326E+01  0.29028901358E+02  0.30680922559E+02  0.51100000000E-03 0. -1.
        -11    1    3    3    0    0 -0.16594719919E+01  0.29984693917E+01 -0.91455346766E+00  0.35469810108E+01  0.51100000000E-03 0.  1.
        -12    1    3    3    0    0  0.90170595176E+01 -0.11785600076E+02  0.67464921125E+01  0.16301008782E+02  0.00000000000E+00 0.  1.
</event>
<event>
 7    1  0.1161807E-013  0.5052886E+02  0.7816164E-02  0.1300439E+00
        -11   -1    0    0    0    0  0.00000000000E+00  0.00000000000E+00  0.45593999997E+02  0.45594000000E+02  0.51100000000E-03 0. -1.
         11   -1    0    0    0    0 -0.00000000000E+00 -0.00000000000E+00 -0.45593999997E+02  0.45594000000E+02  0.51100000000E-03 0.  1.
    9900012    2    1    2    0    0  0.10301032500E+02  0.42962889337E+01  0.39097270736E+02  0.50528856524E+02  0.29999989890E+02 0.  0.
        -12    1    1    2    0    0 -0.10301032500E+02 -0.42962889337E+01 -0.39097270736E+02  0.40659143476E+02  0.00000000000E+00 0.  1.
         11    1    3    3    0    0  0.12584090143E+01 -0.52012953298E+01  0.13790331623E+01  0.55261920958E+01  0.51100000000E-03 0. -1.
        -11    1    3    3    0    0 -0.25121165336E+01 -0.51677497775E+01  0.70089307140E+01  0.90631935462E+01  0.51100000000E-03 0.  1.
         12    1    3    3    0    0  0.11554740019E+02  0.14665334041E+02  0.30709306860E+02  0.35939470882E+02  0.00000000000E+00 0. -1.
</event>
<event>
 7    1  0.1161807E-013  0.5052888E+02  0.7816164E-02  0.1300439E+00
        -11   -1    0    0    0    0  0.00000000000E+00  0.00000000000E+00  0.45593999997E+02  0.45594000000E+02  0.51100000000E-03 0. -1.
         11   -1    0    0    0    0 -0.00000000000E+00 -0.00000000000E+00 -0.45593999997E+02  0.45594000000E+02  0.51100000000E-03 0.  1.
    9900012    2    1    2    0    0 -0.11119386399E+02  0.27028369992E+02  0.28266415656E+02  0.50528883035E+02  0.30000070474E+02 0.  0.
        -12    1    1    2    0    0  0.11119386399E+02 -0.27028369992E+02 -0.28266415656E+02  0.40659116965E+02  0.00000000000E+00 0.  1.
         11    1    3    3    0    0 -0.66591112106E+01  0.25533371096E+01  0.83465268861E+01  0.10978515557E+02  0.51100000000E-03 0. -1.
        -11    1    3    3    0    0 -0.12881202522E+02  0.72097475298E+01  0.65705166002E+01  0.16157893629E+02  0.51100000000E-03 0.  1.
         12    1    3    3    0    0  0.84209273341E+01  0.17265285353E+02  0.13349372170E+02  0.23392473850E+02  0.00000000000E+00 0. -1.
</event>
<event>
 7    1  0.1161807E-013  0.5052886E+02  0.7816164E-02  0.1300439E+00
        -11   -1    0    0    0    0  0.00000000000E+00  0.00000000000E+00  0.45593999997E+02  0.45594000000E+02  0.51100000000E-03 0. -1.
         11   -1    0    0    0    0 -0.00000000000E+00 -0.00000000000E+00 -0.45593999997E+02  0.45594000000E+02  0.51100000000E-03 0.  1.
    9900012    2    1    2    0    0  0.23887607779E+02  0.56421603522E+01 -0.32414717812E+02  0.50528859457E+02  0.29999998805E+02 0.  0.
         12    1    1    2    0    0 -0.23887607779E+02 -0.56421603522E+01  0.32414717812E+02  0.40659140543E+02  0.00000000000E+00 0. -1.
         11    1    3    3    0    0  0.52069353536E+01 -0.41640985308E+01 -0.89145846547E+01  0.11132012944E+02  0.51100000000E-03 0.  1.
        -11    1    3    3    0    0  0.16145472384E+02  0.31869152411E+01 -0.26900492584E+02  0.31535205862E+02  0.51100000000E-03 0. -1.
         12    1    3    3    0    0  0.25352000412E+01  0.66193436419E+01  0.34003594261E+01  0.78616406510E+01  0.00000000000E+00 0. -1.
</event>
<event>
 7    1  0.1161807E-013  0.5052886E+02  0.7816164E-02  0.1300439E+00
        -11   -1    0    0    0    0  0.00000000000E+00  0.00000000000E+00  0.45593999997E+02  0.45594000000E+02  0.51100000000E-03 0. -1.
         11   -1    0    0    0    0 -0.00000000000E+00 -0.00000000000E+00 -0.45593999997E+02  0.45594000000E+02  0.51100000000E-03 0.  1.
    9900012    2    1    2    0    0  0.13069012815E+02  0.32855614621E+02 -0.20071743877E+02  0.50528863139E+02  0.30000009996E+02 0.  0.
         12    1    1    2    0    0 -0.13069012815E+02 -0.32855614621E+02  0.20071743877E+02  0.40659136861E+02  0.00000000000E+00 0. -1.
         11    1    3    3    0    0  0.12014805210E+02  0.12574532475E+02  0.85169289783E+00  0.17412633122E+02  0.51100000000E-03 0. -1.
        -11    1    3    3    0    0  0.62478186654E+01  0.67719966873E+01 -0.14728539307E+02  0.17373112778E+02  0.51100000000E-03 0.  1.
         12    1    3    3    0    0 -0.51936110598E+01  0.13509085458E+02 -0.61948974670E+01  0.15743117238E+02  0.00000000000E+00 0. -1.
</event>
<event>
 7    1  0.1161807E-013  0.5052885E+02  0.7816164E-02  0.1300439E+00
        -11   -1    0    0    0    0  0.00000000000E+00  0.00000000000E+00  0.45593999997E+02  0.45594000000E+02  0.51100000000E-03 0. -1.
         11   -1    0    0    0    0 -0.00000000000E+00 -0.00000000000E+00 -0.45593999997E+02  0.45594000000E+02  0.51100000000E-03 0.  1.
    9900012    2    1    2    0    0 -0.35880401611E+01 -0.14134936487E+02 -0.37953865163E+02  0.50528851675E+02  0.29999975152E+02 0.  0.
         12    1    1    2    0    0  0.35880401611E+01  0.14134936487E+02  0.37953865163E+02  0.40659148325E+02  0.00000000000E+00 0. -1.
         11    1    3    3    0    0 -0.83140752467E+01 -0.17470531293E+01  0.13882022026E+01  0.86083185037E+01  0.51100000000E-03 0.  1.
        -11    1    3    3    0    0  0.23508645256E+01 -0.35436068712E+01 -0.60711739402E+01  0.74123455767E+01  0.51100000000E-03 0. -1.
         12    1    3    3    0    0  0.23751705600E+01 -0.88442764863E+01 -0.33270893425E+02  0.34508187595E+02  0.00000000000E+00 0. -1.
</event>
<event>
 7    1  0.1161807E-013  0.5052886E+02  0.7816164E-02  0.1300439E+00
        -11   -1    0    0    0    0  0.00000000000E+00  0.00000000000E+00  0.45593999997E+02  0.45594000000E+02  0.51100000000E-03 0.  1.
         11   -1    0    0    0    0 -0.00000000000E+00 -0.00000000000E+00 -0.45593999997E+02  0.45594000000E+02  0.51100000000E-03 0. -1.
    9900012    2    1    2    0    0 -0.84857387787E+01  0.34386354743E+02  0.19968394512E+02  0.50528856692E+02  0.29999990402E+02 0.  0.
        -12    1    1    2    0    0  0.84857387787E+01 -0.34386354743E+02 -0.19968394512E+02  0.40659143308E+02  0.00000000000E+00 0.  1.
         11    1    3    3    0    0 -0.45003199487E+01  0.15090131565E+02  0.66832107858E+01  0.17106439050E+02  0.51100000000E-03 0. -1.
        -11    1    3    3    0    0 -0.11291469211E+02  0.20363497540E+02  0.10164753703E+02  0.25406525286E+02  0.51100000000E-03 0.  1.
         12    1    3    3    0    0  0.73060503813E+01 -0.10672743622E+01  0.31204300232E+01  0.80158923563E+01  0.00000000000E+00 0. -1.
</event>
<event>
 7    1  0.1161807E-013  0.5052889E+02  0.7816164E-02  0.1300439E+00
        -11   -1    0    0    0    0  0.00000000000E+00  0.00000000000E+00  0.45593999997E+02  0.45594000000E+02  0.51100000000E-03 0.  1.
         11   -1    0    0    0    0 -0.00000000000E+00 -0.00000000000E+00 -0.45593999997E+02  0.45594000000E+02  0.51100000000E-03 0. -1.
    9900012    2    1    2    0    0 -0.24546923655E+02 -0.16699007907E+02 -0.27780483858E+02  0.50528885285E+02  0.30000077313E+02 0.  0.
         12    1    1    2    0    0  0.24546923655E+02  0.16699007907E+02  0.27780483858E+02  0.40659114715E+02  0.00000000000E+00 0. -1.
         11    1    3    3    0    0 -0.21893494820E+01 -0.44512697034E+00 -0.92085465068E+01  0.94756909090E+01  0.51100000000E-03 0. -1.
        -11    1    3    3    0    0 -0.15567891279E+02 -0.11696855427E+01 -0.18892496997E+02  0.24508240374E+02  0.51100000000E-03 0.  1.
        -12    1    3    3    0    0 -0.67896828936E+01 -0.15084195393E+02  0.32055964589E+00  0.16544954003E+02  0.00000000000E+00 0.  1.
</event>
<event>
 7    1  0.1161807E-013  0.5052885E+02  0.7816164E-02  0.1300439E+00
        -11   -1    0    0    0    0  0.00000000000E+00  0.00000000000E+00  0.45593999997E+02  0.45594000000E+02  0.51100000000E-03 0. -1.
         11   -1    0    0    0    0 -0.00000000000E+00 -0.00000000000E+00 -0.45593999997E+02  0.45594000000E+02  0.51100000000E-03 0.  1.
    9900012    2    1    2    0    0  0.18083932887E+02 -0.50390431813E+01 -0.36065854531E+02  0.50528850379E+02  0.29999971211E+02 0.  0.
         12    1    1    2    0    0 -0.18083932887E+02  0.50390431813E+01  0.36065854531E+02  0.40659149621E+02  0.00000000000E+00 0. -1.
         11    1    3    3    0    0  0.50345910892E+01 -0.48554957032E+01 -0.99633669352E+01  0.12173398330E+02  0.51100000000E-03 0. -1.
        -11    1    3    3    0    0  0.11308221349E+02 -0.65590032878E+01 -0.28475907805E+02  0.31333268578E+02  0.51100000000E-03 0.  1.
         12    1    3    3    0    0  0.17411204489E+01  0.63754558096E+01  0.23734202091E+01  0.70221834701E+01  0.00000000000E+00 0. -1.
</event>
<event>
 7    1  0.1161807E-013  0.5052887E+02  0.7816164E-02  0.1300439E+00
        -11   -1    0    0    0    0  0.00000000000E+00  0.00000000000E+00  0.45593999997E+02  0.45594000000E+02  0.51100000000E-03 0. -1.
         11   -1    0    0    0    0 -0.00000000000E+00 -0.00000000000E+00 -0.45593999997E+02  0.45594000000E+02  0.51100000000E-03 0.  1.
    9900012    2    1    2    0    0 -0.22745170405E+02 -0.25400396429E+02  0.22150444434E+02  0.50528866903E+02  0.30000021439E+02 0.  0.
        -12    1    1    2    0    0  0.22745170405E+02  0.25400396429E+02 -0.22150444434E+02  0.40659133097E+02  0.00000000000E+00 0.  1.
         11    1    3    3    0    0 -0.21010672772E+02 -0.14103964236E+02  0.18963165609E+02  0.31622331155E+02  0.51100000000E-03 0. -1.
        -11    1    3    3    0    0 -0.78674904209E+01 -0.92246519871E+01  0.26542721497E+01  0.12411155092E+02  0.51100000000E-03 0.  1.
        -12    1    3    3    0    0  0.61329927875E+01 -0.20717802062E+01  0.53300667504E+00  0.64953806563E+01  0.00000000000E+00 0.  1.
</event>
<event>
 7    1  0.1161807E-013  0.5052883E+02  0.7816164E-02  0.1300439E+00
        -11   -1    0    0    0    0  0.00000000000E+00  0.00000000000E+00  0.45593999997E+02  0.45594000000E+02  0.51100000000E-03 0. -1.
         11   -1    0    0    0    0 -0.00000000000E+00 -0.00000000000E+00 -0.45593999997E+02  0.45594000000E+02  0.51100000000E-03 0.  1.
    9900012    2    1    2    0    0  0.28297544887E+00  0.40658169005E+02 -0.41477441878E-01  0.50528825115E+02  0.29999894421E+02 0.  0.
        -12    1    1    2    0    0 -0.28297544887E+00 -0.40658169005E+02  0.41477441878E-01  0.40659174885E+02  0.00000000000E+00 0.  1.
         11    1    3    3    0    0  0.96721605678E+01  0.13146128033E+02  0.22441009543E+01  0.16474445717E+02  0.51100000000E-03 0. -1.
        -11    1    3    3    0    0  0.31098332535E+01  0.14810379147E+02 -0.51910630678E+01  0.15998922757E+02  0.51100000000E-03 0.  1.
        -12    1    3    3    0    0 -0.12499018372E+02  0.12701661824E+02  0.29054846716E+01  0.18055456642E+02  0.00000000000E+00 0.  1.
</event>
<event>
 7    1  0.1161807E-013  0.5052886E+02  0.7816164E-02  0.1300439E+00
        -11   -1    0    0    0    0  0.00000000000E+00  0.00000000000E+00  0.45593999997E+02  0.45594000000E+02  0.51100000000E-03 0. -1.
         11   -1    0    0    0    0 -0.00000000000E+00 -0.00000000000E+00 -0.45593999997E+02  0.45594000000E+02  0.51100000000E-03 0.  1.
    9900012    2    1    2    0    0 -0.24988101390E+02 -0.10211978135E+02 -0.30405201862E+02  0.50528855779E+02  0.29999987626E+02 0.  0.
         12    1    1    2    0    0  0.24988101390E+02  0.10211978135E+02  0.30405201862E+02  0.40659144221E+02  0.00000000000E+00 0. -1.
         11    1    3    3    0    0 -0.11329444042E+02 -0.10578343133E+02 -0.18569782297E+02  0.24188725898E+02  0.51100000000E-03 0.  1.
        -11    1    3    3    0    0 -0.82215182601E+01 -0.83768560563E+01 -0.10872497502E+02  0.15999258798E+02  0.51100000000E-03 0. -1.
         12    1    3    3    0    0 -0.54371390873E+01  0.87432210547E+01 -0.96292206336E+00  0.10340871083E+02  0.00000000000E+00 0. -1.
</event>
<event>
 7    1  0.1161807E-013  0.5052888E+02  0.7816164E-02  0.1300439E+00
        -11   -1    0    0    0    0  0.00000000000E+00  0.00000000000E+00  0.45593999997E+02  0.45594000000E+02  0.51100000000E-03 0. -1.
         11   -1    0    0    0    0 -0.00000000000E+00 -0.00000000000E+00 -0.45593999997E+02  0.45594000000E+02  0.51100000000E-03 0.  1.
    9900012    2    1    2    0    0  0.30914248162E+02 -0.75047007756E+01  0.25321001930E+02  0.50528875416E+02  0.30000047315E+02 0.  0.
        -12    1    1    2    0    0 -0.30914248162E+02  0.75047007756E+01 -0.25321001930E+02  0.40659124584E+02  0.00000000000E+00 0.  1.
         11    1    3    3    0    0  0.87886844722E+01 -0.38111719910E+01  0.80084393398E+01  0.12486036506E+02  0.51100000000E-03 0. -1.
        -11    1    3    3    0    0  0.19621311516E+02 -0.37032441293E+01  0.23812929669E+02  0.31076767888E+02  0.51100000000E-03 0.  1.
        -12    1    3    3    0    0  0.25042521743E+01  0.97153447795E-02 -0.65003670785E+01  0.69660710229E+01  0.00000000000E+00 0.  1.
</event>
<event>
 7    1  0.1161807E-013  0.5052890E+02  0.7816164E-02  0.1300439E+00
        -11   -1    0    0    0    0  0.00000000000E+00  0.00000000000E+00  0.45593999997E+02  0.45594000000E+02  0.51100000000E-03 0.  1.
         11   -1    0    0    0    0 -0.00000000000E+00 -0.00000000000E+00 -0.45593999997E+02  0.45594000000E+02  0.51100000000E-03 0. -1.
    9900012    2    1    2    0    0 -0.10727285819E+02 -0.38144355367E+02  0.91157141421E+01  0.50528895833E+02  0.30000109373E+02 0.  0.
        -12    1    1    2    0    0  0.10727285819E+02  0.38144355367E+02 -0.91157141421E+01  0.40659104167E+02  0.00000000000E+00 0.  1.
         11    1    3    3    0    0 -0.94589161101E+01 -0.15778873468E+02 -0.49803031671E+01  0.19059049341E+02  0.51100000000E-03 0. -1.
        -11    1    3    3    0    0 -0.33011055850E+01 -0.45130030302E+00  0.79493652849E+01  0.86193606921E+01  0.51100000000E-03 0.  1.
        -12    1    3    3    0    0  0.20327358765E+01 -0.21914181596E+02  0.61466520243E+01  0.22850485799E+02  0.00000000000E+00 0.  1.
</event>
<event>
 7    1  0.1161807E-013  0.5052886E+02  0.7816164E-02  0.1300439E+00
        -11   -1    0    0    0    0  0.00000000000E+00  0.00000000000E+00  0.45593999997E+02  0.45594000000E+02  0.51100000000E-03 0. -1.
         11   -1    0    0    0    0 -0.00000000000E+00 -0.00000000000E+00 -0.45593999997E+02  0.45594000000E+02  0.51100000000E-03 0.  1.
    9900012    2    1    2    0    0 -0.20302566517E+02 -0.27399483393E+02 -0.22141358364E+02  0.50528860220E+02  0.30000001126E+02 0.  0.
         12    1    1    2    0    0  0.20302566517E+02  0.27399483393E+02  0.22141358364E+02  0.40659139780E+02  0.00000000000E+00 0. -1.
         11    1    3    3    0    0  0.72780369873E+00 -0.86793748999E+01 -0.59390604108E+01  0.10541996286E+02  0.51100000000E-03 0. -1.
        -11    1    3    3    0    0 -0.87994643026E+01 -0.18898451486E+02 -0.15563369193E+01  0.20904646026E+02  0.51100000000E-03 0.  1.
        -12    1    3    3    0    0 -0.12230905913E+02  0.17834299293E+00 -0.14645961034E+02  0.19082217908E+02  0.00000000000E+00 0.  1.
</event>
<event>
 7    1  0.1161807E-013  0.5052886E+02  0.7816164E-02  0.1300439E+00
        -11   -1    0    0    0    0  0.00000000000E+00  0.00000000000E+00  0.45593999997E+02  0.45594000000E+02  0.51100000000E-03 0.  1.
         11   -1    0    0    0    0 -0.00000000000E+00 -0.00000000000E+00 -0.45593999997E+02  0.45594000000E+02  0.51100000000E-03 0. -1.
    9900012    2    1    2    0    0 -0.22822053223E+02 -0.32635431559E+02  0.82004853418E+01  0.50528862451E+02  0.30000007907E+02 0.  0.
         12    1    1    2    0    0  0.22822053223E+02  0.32635431559E+02 -0.82004853418E+01  0.40659137549E+02  0.00000000000E+00 0. -1.
         11    1    3    3    0    0 -0.10878349114E+02  0.21795157960E+01  0.17226917927E+00  0.11095875156E+02  0.51100000000E-03 0. -1.
        -11    1    3    3    0    0 -0.16662582703E+01 -0.10501337161E+02 -0.26507131868E+01  0.10958137590E+02  0.51100000000E-03 0.  1.
         12    1    3    3    0    0 -0.10277445839E+02 -0.24313610194E+02  0.10678929349E+02  0.28474849705E+02  0.00000000000E+00 0. -1.
</event>
<event>
 7    1  0.1161807E-013  0.5052885E+02  0.7816164E-02  0.1300439E+00
        -11   -1    0    0    0    0  0.00000000000E+00  0.00000000000E+00  0.45593999997E+02  0.45594000000E+02  0.51100000000E-03 0. -1.
         11   -1    0    0    0    0 -0.00000000000E+00 -0.00000000000E+00 -0.45593999997E+02  0.45594000000E+02  0.51100000000E-03 0.  1.
    9900012    2    1    2    0    0 -0.33683972504E+02 -0.59742542255E+01 -0.21974183923E+02  0.50528850030E+02  0.29999970152E+02 0.  0.
         12    1    1    2    0    0  0.33683972504E+02  0.59742542255E+01  0.21974183923E+02  0.40659149970E+02  0.00000000000E+00 0. -1.
         11    1    3    3    0    0 -0.54433114286E+01  0.21436919756E+00 -0.32486666540E+01  0.63426673216E+01  0.51100000000E-03 0. -1.
        -11    1    3    3    0    0 -0.12837903099E+02  0.70638806299E+00 -0.23378552404E+02  0.26680844305E+02  0.51100000000E-03 0.  1.
         12    1    3    3    0    0 -0.15402757976E+02 -0.68950114860E+01  0.46530351344E+01  0.17505338404E+02  0.00000000000E+00 0. -1.
</event>
<event>
 7    1  0.1161807E-013  0.5052886E+02  0.7816164E-02  0.1300439E+00
        -11   -1    0    0    0    0  0.00000000000E+00  0.00000000000E+00  0.45593999997E+02  0.45594000000E+02  0.51100000000E-03 0. -1.
         11   -1    0    0    0    0 -0.00000000000E+00 -0.00000000000E+00 -0.45593999997E+02  0.45594000000E+02  0.51100000000E-03 0.  1.
    9900012    2    1    2    0    0 -0.95364335021E+01  0.71152822422E+01  0.38879229264E+02  0.50528864822E+02  0.30000015112E+02 0.  0.
        -12    1    1    2    0    0  0.95364335021E+01 -0.71152822422E+01 -0.38879229264E+02  0.40659135178E+02  0.00000000000E+00 0.  1.
         11    1    3    3    0    0 -0.74469798781E+01  0.28450951317E+01 -0.27083755629E+01  0.84194640010E+01  0.51100000000E-03 0.  1.
        -11    1    3    3    0    0  0.18468476850E+00  0.30834156840E+00  0.21736245577E+02  0.21739216983E+02  0.51100000000E-03 0. -1.
        -12    1    3    3    0    0 -0.22741383924E+01  0.39618455421E+01  0.19851359250E+02  0.20370183838E+02  0.00000000000E+00 0.  1.
</event>
<event>
 7    1  0.1161807E-013  0.5052888E+02  0.7816164E-02  0.1300439E+00
        -11   -1    0    0    0    0  0.00000000000E+00  0.00000000000E+00  0.45593999997E+02  0.45594000000E+02  0.51100000000E-03 0.  1.
         11   -1    0    0    0    0 -0.00000000000E+00 -0.00000000000E+00 -0.45593999997E+02  0.45594000000E+02  0.51100000000E-03 0. -1.
    9900012    2    1    2    0    0 -0.17763736167E+02 -0.32414536779E+02  0.16938469902E+02  0.50528877040E+02  0.30000052251E+02 0.  0.
        -12    1    1    2    0    0  0.17763736167E+02  0.32414536779E+02 -0.16938469902E+02  0.40659122960E+02  0.00000000000E+00 0.  1.
         11    1    3    3    0    0 -0.75665399692E+01 -0.20860834510E+02  0.83344732226E+01  0.23704227212E+02  0.51100000000E-03 0. -1.
        -11    1    3    3    0    0 -0.12750898601E+02 -0.12979765102E+02  0.12410236220E+02  0.22024388313E+02  0.51100000000E-03 0.  1.
        -12    1    3    3    0    0  0.25537024032E+01  0.14260628328E+01 -0.38062395412E+01  0.48002615150E+01  0.00000000000E+00 0.  1.
</event>
<event>
 7    1  0.1161807E-013  0.5052887E+02  0.7816164E-02  0.1300439E+00
        -11   -1    0    0    0    0  0.00000000000E+00  0.00000000000E+00  0.45593999997E+02  0.45594000000E+02  0.51100000000E-03 0. -1.
         11   -1    0    0    0    0 -0.00000000000E+00 -0.00000000000E+00 -0.45593999997E+02  0.45594000000E+02  0.51100000000E-03 0.  1.
    9900012    2    1    2    0    0  0.15986277390E+02 -0.29514404377E+02 -0.22945666883E+02  0.50528871145E+02  0.30000034332E+02 0.  0.
         12    1    1    2    0    0 -0.15986277390E+02  0.29514404377E+02  0.22945666883E+02  0.40659128855E+02  0.00000000000E+00 0. -1.
         11    1    3    3    0    0  0.71366503472E+01 -0.19675949109E+02 -0.14959009959E+02  0.25726381998E+02  0.51100000000E-03 0. -1.
        -11    1    3    3    0    0  0.14622364013E+02 -0.38869847379E+01 -0.43057909889E+01  0.15730925465E+02  0.51100000000E-03 0.  1.
         12    1    3    3    0    0 -0.57727369702E+01 -0.59514705305E+01 -0.36808659355E+01  0.90715636821E+01  0.00000000000E+00 0. -1.
</event>
<event>
 7    1  0.1341351E-013  0.5052886E+02  0.7816164E-02  0.1300439E+00
        -11   -1    0    0    0    0  0.00000000000E+00  0.00000000000E+00  0.45593999997E+02  0.45594000000E+02  0.51100000000E-03 0. -1.
         11   -1    0    0    0    0 -0.00000000000E+00 -0.00000000000E+00 -0.45593999997E+02  0.45594000000E+02  0.51100000000E-03 0.  1.
    9900012    2    1    2    0    0 -0.85809554387E+01 -0.31164249398E+01 -0.39620964133E+02  0.50528859583E+02  0.29999999187E+02 0.  0.
         12    1    1    2    0    0  0.85809554387E+01  0.31164249398E+01  0.39620964133E+02  0.40659140417E+02  0.00000000000E+00 0. -1.
         11    1    3    3    0    0  0.79495348521E+01 -0.60373866782E+01 -0.86557095025E+01  0.13212359726E+02  0.51100000000E-03 0. -1.
        -11    1    3    3    0    0 -0.52908163097E+01  0.68235011078E+01 -0.16168322342E+02  0.18329417672E+02  0.51100000000E-03 0.  1.
        -12    1    3    3    0    0 -0.11239673981E+02 -0.39025393695E+01 -0.14796932289E+02  0.18987082185E+02  0.00000000000E+00 0.  1.
</event>
<event>
 7    1  0.1161807E-013  0.5052884E+02  0.7816164E-02  0.1300439E+00
        -11   -1    0    0    0    0  0.00000000000E+00  0.00000000000E+00  0.45593999997E+02  0.45594000000E+02  0.51100000000E-03 0.  1.
         11   -1    0    0    0    0 -0.00000000000E+00 -0.00000000000E+00 -0.45593999997E+02  0.45594000000E+02  0.51100000000E-03 0. -1.
    9900012    2    1    2    0    0 -0.39358547697E+02 -0.77669221554E+01 -0.66141490935E+01  0.50528839595E+02  0.29999938433E+02 0.  0.
        -12    1    1    2    0    0  0.39358547697E+02  0.77669221554E+01  0.66141490935E+01  0.40659160405E+02  0.00000000000E+00 0.  1.
         11    1    3    3    0    0 -0.11415451556E+02  0.69934921222E+00  0.19103212562E+01  0.11595298664E+02  0.51100000000E-03 0. -1.
        -11    1    3    3    0    0 -0.15085340378E+02 -0.86955462848E+01  0.70071036531E+01  0.18769110831E+02  0.51100000000E-03 0.  1.
         12    1    3    3    0    0 -0.12857755763E+02  0.22927491721E+00 -0.15531574003E+02  0.20164430100E+02  0.00000000000E+00 0. -1.
</event>
<event>
 7    1  0.1161807E-013  0.5052886E+02  0.7816164E-02  0.1300439E+00
        -11   -1    0    0    0    0  0.00000000000E+00  0.00000000000E+00  0.45593999997E+02  0.45594000000E+02  0.51100000000E-03 0. -1.
         11   -1    0    0    0    0 -0.00000000000E+00 -0.00000000000E+00 -0.45593999997E+02  0.45594000000E+02  0.51100000000E-03 0.  1.
    9900012    2    1    2    0    0  0.34025478027E+01  0.95803221498E+01 -0.39367571884E+02  0.50528860559E+02  0.30000002154E+02 0.  0.
         12    1    1    2    0    0 -0.34025478027E+01 -0.95803221498E+01  0.39367571884E+02  0.40659139441E+02  0.00000000000E+00 0. -1.
         11    1    3    3    0    0 -0.46747403572E+01 -0.28260859662E+01 -0.22689885399E+00  0.54673067087E+01  0.51100000000E-03 0. -1.
        -11    1    3    3    0    0  0.54951926636E+01  0.13634706326E+02 -0.15933891047E+02  0.21679281427E+02  0.51100000000E-03 0.  1.
         12    1    3    3    0    0  0.25820954963E+01 -0.12282982104E+01 -0.23206781983E+02  0.23382272423E+02  0.00000000000E+00 0. -1.
</event>
<event>
 7    1  0.1161807E-013  0.5052885E+02  0.7816164E-02  0.1300439E+00
        -11   -1    0    0    0    0  0.00000000000E+00  0.00000000000E+00  0.45593999997E+02  0.45594000000E+02  0.51100000000E-03 0. -1.
         11   -1    0    0    0    0 -0.00000000000E+00 -0.00000000000E+00 -0.45593999997E+02  0.45594000000E+02  0.51100000000E-03 0.  1.
    9900012    2    1    2    0    0 -0.20760161838E+02 -0.34770945348E+02  0.36281084340E+01  0.50528854279E+02  0.29999983067E+02 0.  0.
        -12    1    1    2    0    0  0.20760161838E+02  0.34770945348E+02 -0.36281084340E+01  0.40659145721E+02  0.00000000000E+00 0.  1.
         11    1    3    3    0    0 -0.32758941943E+01 -0.96907216559E+01 -0.27966872600E+01  0.10604858739E+02  0.51100000000E-03 0. -1.
        -11    1    3    3    0    0 -0.13841200371E+02 -0.27050802922E+02 -0.20871208572E+01  0.30457853505E+02  0.51100000000E-03 0.  1.
        -12    1    3    3    0    0 -0.36430672727E+01  0.19705792292E+01  0.85119165513E+01  0.94661420350E+01  0.00000000000E+00 0.  1.
</event>
<event>
 7    1  0.1161807E-013  0.5052886E+02  0.7816164E-02  0.1300439E+00
        -11   -1    0    0    0    0  0.00000000000E+00  0.00000000000E+00  0.45593999997E+02  0.45594000000E+02  0.51100000000E-03 0. -1.
         11   -1    0    0    0    0 -0.00000000000E+00 -0.00000000000E+00 -0.45593999997E+02  0.45594000000E+02  0.51100000000E-03 0.  1.
    9900012    2    1    2    0    0 -0.12069706079E+02 -0.13037741492E+02  0.36571917609E+02  0.50528859999E+02  0.30000000452E+02 0.  0.
        -12    1    1    2    0    0  0.12069706079E+02  0.13037741492E+02 -0.36571917609E+02  0.40659140001E+02  0.00000000000E+00 0.  1.
         11    1    3    3    0    0 -0.27166920322E+00  0.96943429161E-01  0.64272824929E+01  0.64337518361E+01  0.51100000000E-03 0. -1.
        -11    1    3    3    0    0 -0.95430906967E+01  0.47354441498E+01  0.21758749858E+02  0.24226807611E+02  0.51100000000E-03 0.  1.
         12    1    3    3    0    0 -0.22549461795E+01 -0.17870129070E+02  0.83858852576E+01  0.19868300552E+02  0.00000000000E+00 0. -1.
</event>
<event>
 7    1  0.1161807E-013  0.5052886E+02  0.7816164E-02  0.1300439E+00
        -11   -1    0    0    0    0  0.00000000000E+00  0.00000000000E+00  0.45593999997E+02  0.45594000000E+02  0.51100000000E-03 0.  1.
         11   -1    0    0    0    0 -0.00000000000E+00 -0.00000000000E+00 -0.45593999997E+02  0.45594000000E+02  0.51100000000E-03 0. -1.
    9900012    2    1    2    0    0  0.33498015901E+02  0.30927151917E+01  0.22836022903E+02  0.50528857134E+02  0.29999991746E+02 0.  0.
        -12    1    1    2    0    0 -0.33498015901E+02 -0.30927151917E+01 -0.22836022903E+02  0.40659142866E+02  0.00000000000E+00 0.  1.
         11    1    3    3    0    0  0.23783682557E+01 -0.60503135685E+01  0.37234076843E+01  0.74917751489E+01  0.51100000000E-03 0. -1.
        -11    1    3    3    0    0  0.60737483811E+01 -0.65349094306E+01  0.32114812428E+01  0.94820394798E+01  0.51100000000E-03 0.  1.
        -12    1    3    3    0    0  0.25045899264E+02  0.15677938191E+02  0.15901133976E+02  0.33555042506E+02  0.00000000000E+00 0.  1.
</event>
<event>
 7    1  0.1161807E-013  0.5052886E+02  0.7816164E-02  0.1300439E+00
        -11   -1    0    0    0    0  0.00000000000E+00  0.00000000000E+00  0.45593999997E+02  0.45594000000E+02  0.51100000000E-03 0. -1.
         11   -1    0    0    0    0 -0.00000000000E+00 -0.00000000000E+00 -0.45593999997E+02  0.45594000000E+02  0.51100000000E-03 0.  1.
    9900012    2    1    2    0    0  0.34186978941E+01 -0.19828148393E+02 -0.35331611439E+02  0.50528859196E+02  0.29999998013E+02 0.  0.
         12    1    1    2    0    0 -0.34186978941E+01  0.19828148393E+02  0.35331611439E+02  0.40659140804E+02  0.00000000000E+00 0. -1.
         11    1    3    3    0    0  0.52903770689E+01 -0.15579790114E+01  0.26543382061E+01  0.61205309986E+01  0.51100000000E-03 0. -1.
        -11    1    3    3    0    0  0.35293109811E+01 -0.13895561372E+01 -0.19848064501E+01  0.42809297080E+01  0.51100000000E-03 0.  1.
        -12    1    3    3    0    0 -0.54009901559E+01 -0.16880613244E+02 -0.36001143195E+02  0.40127398490E+02  0.00000000000E+00 0.  1.
</event>
<event>
 7    1  0.1161807E-013  0.5052886E+02  0.7816164E-02  0.1300439E+00
        -11   -1    0    0    0    0  0.00000000000E+00  0.00000000000E+00  0.45593999997E+02  0.45594000000E+02  0.51100000000E-03 0. -1.
         11   -1    0    0    0    0 -0.00000000000E+00 -0.00000000000E+00 -0.45593999997E+02  0.45594000000E+02  0.51100000000E-03 0.  1.
    9900012    2    1    2    0    0 -0.11267562430E+02  0.18589200013E+01  0.39022457157E+02  0.50528859463E+02  0.29999998823E+02 0.  0.
        -12    1    1    2    0    0  0.11267562430E+02 -0.18589200013E+01 -0.39022457157E+02  0.40659140537E+02  0.00000000000E+00 0.  1.
         11    1    3    3    0    0 -0.55955889753E+01 -0.54194421765E+01  0.54235029586E+01  0.94918572518E+01  0.51100000000E-03 0. -1.
        -11    1    3    3    0    0 -0.73269030717E+01  0.10807607892E+02  0.83718107314E+01  0.15510483944E+02  0.51100000000E-03 0.  1.
        -12    1    3    3    0    0  0.16549296174E+01 -0.35292457146E+01  0.25227143467E+02  0.25526518267E+02  0.00000000000E+00 0.  1.
</event>
<event>
 7    1  0.1161807E-013  0.5052886E+02  0.7816164E-02  0.1300439E+00
        -11   -1    0    0    0    0  0.00000000000E+00  0.00000000000E+00  0.45593999997E+02  0.45594000000E+02  0.51100000000E-03 0. -1.
         11   -1    0    0    0    0 -0.00000000000E+00 -0.00000000000E+00 -0.45593999997E+02  0.45594000000E+02  0.51100000000E-03 0.  1.
    9900012    2    1    2    0    0 -0.24967713187E+02 -0.27912255548E+02 -0.15833038647E+02  0.50528858047E+02  0.29999994519E+02 0.  0.
         12    1    1    2    0    0  0.24967713187E+02  0.27912255548E+02  0.15833038647E+02  0.40659141953E+02  0.00000000000E+00 0. -1.
         11    1    3    3    0    0 -0.24441553281E+01 -0.14912587598E+01  0.17391433002E+01  0.33499802442E+01  0.51100000000E-03 0. -1.
        -11    1    3    3    0    0  0.28321839157E+01  0.27125101794E+01 -0.54200775598E+01  0.66900088357E+01  0.51100000000E-03 0.  1.
         12    1    3    3    0    0 -0.25355741775E+02 -0.29133506967E+02 -0.12152104388E+02  0.40488868967E+02  0.00000000000E+00 0. -1.
</event>
<event>
 7    1  0.1161807E-013  0.5052887E+02  0.7816164E-02  0.1300439E+00
        -11   -1    0    0    0    0  0.00000000000E+00  0.00000000000E+00  0.45593999997E+02  0.45594000000E+02  0.51100000000E-03 0. -1.
         11   -1    0    0    0    0 -0.00000000000E+00 -0.00000000000E+00 -0.45593999997E+02  0.45594000000E+02  0.51100000000E-03 0.  1.
    9900012    2    1    2    0    0 -0.34138202211E+02 -0.11626502795E+02 -0.18776922932E+02  0.50528865082E+02  0.30000015904E+02 0.  0.
         12    1    1    2    0    0  0.34138202211E+02  0.11626502795E+02  0.18776922932E+02  0.40659134918E+02  0.00000000000E+00 0. -1.
         11    1    3    3    0    0 -0.62889673316E+01 -0.69758548017E+01  0.47764014537E+01  0.10536966899E+02  0.51100000000E-03 0. -1.
        -11    1    3    3    0    0 -0.89201230913E+01  0.58218092015E+01 -0.86594702818E+01  0.13727653993E+02  0.51100000000E-03 0.  1.
        -12    1    3    3    0    0 -0.18929111788E+02 -0.10472457195E+02 -0.14893854104E+02  0.26264244190E+02  0.00000000000E+00 0.  1.
</event>
<event>
 7    1  0.1161807E-013  0.5052884E+02  0.7816164E-02  0.1300439E+00
        -11   -1    0    0    0    0  0.00000000000E+00  0.00000000000E+00  0.45593999997E+02  0.45594000000E+02  0.51100000000E-03 0.  1.
         11   -1    0    0    0    0 -0.00000000000E+00 -0.00000000000E+00 -0.45593999997E+02  0.45594000000E+02  0.51100000000E-03 0. -1.
    9900012    2    1    2    0    0 -0.63884984599E+01  0.39927638554E+02  0.42589250879E+01  0.50528835277E+02  0.29999925307E+02 0.  0.
         12    1    1    2    0    0  0.63884984599E+01 -0.39927638554E+02 -0.42589250879E+01  0.40659164723E+02  0.00000000000E+00 0. -1.
         11    1    3    3    0    0  0.67719610953E+01  0.25110192818E+01  0.13130601019E+01  0.73408992638E+01  0.51100000000E-03 0. -1.
        -11    1    3    3    0    0  0.37373099272E+01  0.11768564419E+02  0.15172757416E+01  0.12440607698E+02  0.51100000000E-03 0.  1.
        -12    1    3    3    0    0 -0.16897769482E+02  0.25648054854E+02  0.14285892444E+01  0.30747328315E+02  0.00000000000E+00 0.  1.
</event>
<event>
 7    1  0.1161807E-013  0.5052886E+02  0.7816164E-02  0.1300439E+00
        -11   -1    0    0    0    0  0.00000000000E+00  0.00000000000E+00  0.45593999997E+02  0.45594000000E+02  0.51100000000E-03 0. -1.
         11   -1    0    0    0    0 -0.00000000000E+00 -0.00000000000E+00 -0.45593999997E+02  0.45594000000E+02  0.51100000000E-03 0.  1.
    9900012    2    1    2    0    0 -0.10796221587E+02 -0.14653138955E+02 -0.36357845212E+02  0.50528858467E+02  0.29999995795E+02 0.  0.
         12    1    1    2    0    0  0.10796221587E+02  0.14653138955E+02  0.36357845212E+02  0.40659141533E+02  0.00000000000E+00 0. -1.
         11    1    3    3    0    0 -0.46175797676E+00 -0.51030616753E+01  0.39922962807E-01  0.51240660608E+01  0.51100000000E-03 0. -1.
        -11    1    3    3    0    0 -0.39227375291E+01 -0.16490639425E+02 -0.18016272922E+02  0.24736918738E+02  0.51100000000E-03 0.  1.
        -12    1    3    3    0    0 -0.64117260808E+01  0.69405621457E+01 -0.18381495253E+02  0.20667873668E+02  0.00000000000E+00 0.  1.
</event>
<event>
 7    1  0.1161807E-013  0.5052886E+02  0.7816164E-02  0.1300439E+00
        -11   -1    0    0    0    0  0.00000000000E+00  0.00000000000E+00  0.45593999997E+02  0.45594000000E+02  0.51100000000E-03 0.  1.
         11   -1    0    0    0    0 -0.00000000000E+00 -0.00000000000E+00 -0.45593999997E+02  0.45594000000E+02  0.51100000000E-03 0. -1.
    9900012    2    1    2    0    0 -0.36384006222E+02 -0.12292655975E+02 -0.13351430629E+02  0.50528855893E+02  0.29999987972E+02 0.  0.
         12    1    1    2    0    0  0.36384006222E+02  0.12292655975E+02  0.13351430629E+02  0.40659144107E+02  0.00000000000E+00 0. -1.
         11    1    3    3    0    0 -0.68817596188E+01  0.60266392060E+01 -0.57220636824E+00  0.91655014025E+01  0.51100000000E-03 0. -1.
        -11    1    3    3    0    0 -0.33247346524E+01 -0.34503166323E+01 -0.10050608456E+02  0.11134328716E+02  0.51100000000E-03 0.  1.
         12    1    3    3    0    0 -0.26177511951E+02 -0.14868978549E+02 -0.27286158053E+01  0.30229025774E+02  0.00000000000E+00 0. -1.
</event>
<event>
 7    1  0.1161807E-013  0.5052884E+02  0.7816164E-02  0.1300439E+00
        -11   -1    0    0    0    0  0.00000000000E+00  0.00000000000E+00  0.45593999997E+02  0.45594000000E+02  0.51100000000E-03 0. -1.
         11   -1    0    0    0    0 -0.00000000000E+00 -0.00000000000E+00 -0.45593999997E+02  0.45594000000E+02  0.51100000000E-03 0.  1.
    9900012    2    1    2    0    0 -0.15956635166E+02  0.24095248537E+02  0.28600204669E+02  0.50528844635E+02  0.29999953753E+02 0.  0.
        -12    1    1    2    0    0  0.15956635166E+02 -0.24095248537E+02 -0.28600204669E+02  0.40659155365E+02  0.00000000000E+00 0.  1.
         11    1    3    3    0    0 -0.77921145296E+00  0.14024662570E+02  0.77111616807E+01  0.16023743178E+02  0.51100000000E-03 0. -1.
        -11    1    3    3    0    0  0.15378953937E+01  0.37387047724E+01 -0.27350351893E+01  0.48809275107E+01  0.51100000000E-03 0.  1.
         12    1    3    3    0    0 -0.16715319107E+02  0.63318811946E+01  0.23624078177E+02  0.29624173947E+02  0.00000000000E+00 0. -1.
</event>
<event>
 7    1  0.1161807E-013  0.5052885E+02  0.7816164E-02  0.1300439E+00
        -11   -1    0    0    0    0  0.00000000000E+00  0.00000000000E+00  0.45593999997E+02  0.45594000000E+02  0.51100000000E-03 0. -1.
         11   -1    0    0    0    0 -0.00000000000E+00 -0.00000000000E+00 -0.45593999997E+02  0.45594000000E+02  0.51100000000E-03 0.  1.
    9900012    2    1    2    0    0 -0.88823336488E+01 -0.15208873721E+01 -0.39647919601E+02  0.50528850008E+02  0.29999970083E+02 0.  0.
         12    1    1    2    0    0  0.88823336488E+01  0.15208873721E+01  0.39647919601E+02  0.40659149992E+02  0.00000000000E+00 0. -1.
         11    1    3    3    0    0 -0.40605230892E+01 -0.10112777881E+02 -0.63661098346E+01  0.12620755878E+02  0.51100000000E-03 0. -1.
        -11    1    3    3    0    0 -0.19677144104E+01 -0.35806249127E+01 -0.27757565535E+01  0.49393926217E+01  0.51100000000E-03 0.  1.
        -12    1    3    3    0    0 -0.28540961493E+01  0.12172515422E+02 -0.30506053213E+02  0.32968701508E+02  0.00000000000E+00 0.  1.
</event>
<event>
 7    1  0.1161807E-013  0.5052887E+02  0.7816164E-02  0.1300439E+00
        -11   -1    0    0    0    0  0.00000000000E+00  0.00000000000E+00  0.45593999997E+02  0.45594000000E+02  0.51100000000E-03 0. -1.
         11   -1    0    0    0    0 -0.00000000000E+00 -0.00000000000E+00 -0.45593999997E+02  0.45594000000E+02  0.51100000000E-03 0.  1.
    9900012    2    1    2    0    0 -0.33153223664E+02  0.66765699974E+01  0.22571051049E+02  0.50528866073E+02  0.30000018916E+02 0.  0.
        -12    1    1    2    0    0  0.33153223664E+02 -0.66765699974E+01 -0.22571051049E+02  0.40659133927E+02  0.00000000000E+00 0.  1.
         11    1    3    3    0    0 -0.23862490748E+02  0.71142387615E+01  0.15539667764E+02  0.29351526916E+02  0.51100000000E-03 0. -1.
        -11    1    3    3    0    0 -0.23217701007E+01 -0.29300046843E+01  0.11796580231E+02  0.12374766635E+02  0.51100000000E-03 0.  1.
        -12    1    3    3    0    0 -0.69689628156E+01  0.24923359201E+01 -0.47651969467E+01  0.88025725220E+01  0.00000000000E+00 0.  1.
</event>
<event>
 7    1  0.1161807E-013  0.5052886E+02  0.7816164E-02  0.1300439E+00
        -11   -1    0    0    0    0  0.00000000000E+00  0.00000000000E+00  0.45593999997E+02  0.45594000000E+02  0.51100000000E-03 0. -1.
         11   -1    0    0    0    0 -0.00000000000E+00 -0.00000000000E+00 -0.45593999997E+02  0.45594000000E+02  0.51100000000E-03 0.  1.
    9900012    2    1    2    0    0  0.23327827894E+02 -0.25319367067E+02  0.21631180201E+02  0.50528857611E+02  0.29999993194E+02 0.  0.
        -12    1    1    2    0    0 -0.23327827894E+02  0.25319367067E+02 -0.21631180201E+02  0.40659142389E+02  0.00000000000E+00 0.  1.
         11    1    3    3    0    0  0.11796327680E+01 -0.90022553432E+01  0.40344490187E+01  0.99352359749E+01  0.51100000000E-03 0. -1.
        -11    1    3    3    0    0 -0.80143650646E+00 -0.12582277624E+02  0.10128055946E+02  0.16171998275E+02  0.51100000000E-03 0.  1.
        -12    1    3    3    0    0  0.22949631633E+02 -0.37348340993E+01  0.74686752365E+01  0.24421623361E+02  0.00000000000E+00 0.  1.
</event>
<event>
 7    1  0.1161807E-013  0.5052886E+02  0.7816164E-02  0.1300439E+00
        -11   -1    0    0    0    0  0.00000000000E+00  0.00000000000E+00  0.45593999997E+02  0.45594000000E+02  0.51100000000E-03 0. -1.
         11   -1    0    0    0    0 -0.00000000000E+00 -0.00000000000E+00 -0.45593999997E+02  0.45594000000E+02  0.51100000000E-03 0.  1.
    9900012    2    1    2    0    0 -0.26024169438E+02 -0.14799154449E-01  0.31239532836E+02  0.50528855570E+02  0.29999986992E+02 0.  0.
        -12    1    1    2    0    0  0.26024169438E+02  0.14799154449E-01 -0.31239532836E+02  0.40659144430E+02  0.00000000000E+00 0.  1.
         11    1    3    3    0    0 -0.18719867518E+02  0.38802703518E+01  0.24405813022E+02  0.31002155529E+02  0.51100000000E-03 0. -1.
        -11    1    3    3    0    0 -0.83369045882E+01  0.36077132889E+01  0.76939806753E+01  0.11904491261E+02  0.51100000000E-03 0.  1.
        -12    1    3    3    0    0  0.10326026683E+01 -0.75027827952E+01 -0.86026086197E+00  0.76222087804E+01  0.00000000000E+00 0.  1.
</event>
<event>
 7    1  0.1161807E-013  0.5052884E+02  0.7816164E-02  0.1300439E+00
        -11   -1    0    0    0    0  0.00000000000E+00  0.00000000000E+00  0.45593999997E+02  0.45594000000E+02  0.51100000000E-03 0. -1.
         11   -1    0    0    0    0 -0.00000000000E+00 -0.00000000000E+00 -0.45593999997E+02  0.45594000000E+02  0.51100000000E-03 0.  1.
    9900012    2    1    2    0    0  0.16534012661E+01 -0.33378653578E+02 -0.23158128478E+02  0.50528841561E+02  0.29999944408E+02 0.  0.
         12    1    1    2    0    0 -0.16534012661E+01  0.33378653578E+02  0.23158128478E+02  0.40659158439E+02  0.00000000000E+00 0. -1.
         11    1    3    3    0    0 -0.17856822958E+01 -0.39063189919E+01  0.46699346396E+01  0.63447836155E+01  0.51100000000E-03 0. -1.
        -11    1    3    3    0    0  0.73873491543E+01 -0.10570950398E+02 -0.39753197488E+01  0.13495224608E+02  0.51100000000E-03 0.  1.
        -12    1    3    3    0    0 -0.39482655924E+01 -0.18901384188E+02 -0.23852743369E+02  0.30688833337E+02  0.00000000000E+00 0.  1.
</event>
<event>
 7    1  0.1161807E-013  0.5052879E+02  0.7816164E-02  0.1300439E+00
        -11   -1    0    0    0    0  0.00000000000E+00  0.00000000000E+00  0.45593999997E+02  0.45594000000E+02  0.51100000000E-03 0. -1.
         11   -1    0    0    0    0 -0.00000000000E+00 -0.00000000000E+00 -0.45593999997E+02  0.45594000000E+02  0.51100000000E-03 0.  1.
    9900012    2    1    2    0    0 -0.28759388063E+01 -0.40424807277E+02 -0.32764372903E+01  0.50528793063E+02  0.29999796994E+02 0.  0.
         12    1    1    2    0    0  0.28759388063E+01  0.40424807277E+02  0.32764372903E+01  0.40659206937E+02  0.00000000000E+00 0. -1.
         11    1    3    3    0    0  0.53796779029E+01 -0.87212805699E+00  0.27961083906E+01  0.61253378747E+01  0.51100000000E-03 0. -1.
        -11    1    3    3    0    0  0.50581313257E+00 -0.29551274344E+01 -0.60719267125E+01  0.67717737220E+01  0.51100000000E-03 0.  1.
        -12    1    3    3    0    0 -0.87614298418E+01 -0.36597551786E+02 -0.61896844578E-03  0.37631681466E+02  0.00000000000E+00 0.  1.
</event>
<event>
 7    1  0.1161807E-013  0.5052893E+02  0.7816164E-02  0.1300439E+00
        -11   -1    0    0    0    0  0.00000000000E+00  0.00000000000E+00  0.45593999997E+02  0.45594000000E+02  0.51100000000E-03 0. -1.
         11   -1    0    0    0    0 -0.00000000000E+00 -0.00000000000E+00 -0.45593999997E+02  0.45594000000E+02  0.51100000000E-03 0.  1.
    9900012    2    1    2    0    0  0.28993470849E+02 -0.16380879074E+02  0.23328218936E+02  0.50528925369E+02  0.30000199150E+02 0.  0.
        -12    1    1    2    0    0 -0.28993470849E+02  0.16380879074E+02 -0.23328218936E+02  0.40659074631E+02  0.00000000000E+00 0.  1.
         11    1    3    3    0    0  0.96878975616E+01 -0.16484861242E+02  0.38126487090E+01  0.19497238260E+02  0.51100000000E-03 0. -1.
        -11    1    3    3    0    0 -0.16473097988E+01  0.16520734426E+01 -0.33843587744E-01  0.23332642119E+01  0.51100000000E-03 0.  1.
         12    1    3    3    0    0  0.20952883087E+02 -0.15480912747E+01  0.19549413815E+02  0.28698422897E+02  0.00000000000E+00 0. -1.
</event>
<event>
 7    1  0.1161807E-013  0.5052884E+02  0.7816164E-02  0.1300439E+00
        -11   -1    0    0    0    0  0.00000000000E+00  0.00000000000E+00  0.45593999997E+02  0.45594000000E+02  0.51100000000E-03 0.  1.
         11   -1    0    0    0    0 -0.00000000000E+00 -0.00000000000E+00 -0.45593999997E+02  0.45594000000E+02  0.51100000000E-03 0. -1.
    9900012    2    1    2    0    0 -0.97149986493E+01  0.37265770064E+02 -0.13040260407E+02  0.50528841023E+02  0.29999942774E+02 0.  0.
        -12    1    1    2    0    0  0.97149986493E+01 -0.37265770064E+02  0.13040260407E+02  0.40659158977E+02  0.00000000000E+00 0.  1.
         11    1    3    3    0    0 -0.10589353733E+02  0.23205867979E+02 -0.28863873809E+01  0.25670565898E+02  0.51100000000E-03 0. -1.
        -11    1    3    3    0    0 -0.44488478325E+01  0.58175096059E+01 -0.12754491660E+02  0.14707573655E+02  0.51100000000E-03 0.  1.
         12    1    3    3    0    0  0.53232029164E+01  0.82423924791E+01  0.26006186332E+01  0.10150701471E+02  0.00000000000E+00 0. -1.
</event>
<event>
 7    1  0.1161807E-013  0.5052886E+02  0.7816164E-02  0.1300439E+00
        -11   -1    0    0    0    0  0.00000000000E+00  0.00000000000E+00  0.45593999997E+02  0.45594000000E+02  0.51100000000E-03 0. -1.
         11   -1    0    0    0    0 -0.00000000000E+00 -0.00000000000E+00 -0.45593999997E+02  0.45594000000E+02  0.51100000000E-03 0.  1.
    9900012    2    1    2    0    0  0.66961145739E+01  0.34651752359E+02 -0.20188707122E+02  0.50528858504E+02  0.29999995909E+02 0.  0.
         12    1    1    2    0    0 -0.66961145739E+01 -0.34651752359E+02  0.20188707122E+02  0.40659141496E+02  0.00000000000E+00 0. -1.
         11    1    3    3    0    0 -0.19963250995E+00  0.13393701968E+02  0.15549619907E+01  0.13485140436E+02  0.51100000000E-03 0. -1.
        -11    1    3    3    0    0  0.66794604006E+01  0.25111466876E+02 -0.17617751975E+02  0.31394046328E+02  0.51100000000E-03 0.  1.
        -12    1    3    3    0    0  0.21628668319E+00 -0.38534164854E+01 -0.41259171378E+01  0.56496717398E+01  0.00000000000E+00 0.  1.
</event>
<event>
 7    1  0.1161807E-013  0.5052876E+02  0.7816164E-02  0.1300439E+00
        -11   -1    0    0    0    0  0.00000000000E+00  0.00000000000E+00  0.45593999997E+02  0.45594000000E+02  0.51100000000E-03 0.  1.
         11   -1    0    0    0    0 -0.00000000000E+00 -0.00000000000E+00 -0.45593999997E+02  0.45594000000E+02  0.51100000000E-03 0. -1.
    9900012    2    1    2    0    0  0.20907139662E+02  0.23783431842E+02 -0.25503212333E+02  0.50528758021E+02  0.29999690479E+02 0.  0.
         12    1    1    2    0    0 -0.20907139662E+02 -0.23783431842E+02  0.25503212333E+02  0.40659241979E+02  0.00000000000E+00 0. -1.
         11    1    3    3    0    0  0.13167775478E+01  0.11041765116E+01  0.60255368096E+01  0.62657962769E+01  0.51100000000E-03 0. -1.
        -11    1    3    3    0    0  0.32231169104E+01  0.27859767206E+01 -0.11118501305E+01  0.44029944219E+01  0.51100000000E-03 0.  1.
        -12    1    3    3    0    0  0.16367245204E+02  0.19893278610E+02 -0.30416899012E+02  0.39859967322E+02  0.00000000000E+00 0.  1.
</event>
<event>
 7    1  0.1161807E-013  0.5052882E+02  0.7816164E-02  0.1300439E+00
        -11   -1    0    0    0    0  0.00000000000E+00  0.00000000000E+00  0.45593999997E+02  0.45594000000E+02  0.51100000000E-03 0. -1.
         11   -1    0    0    0    0 -0.00000000000E+00 -0.00000000000E+00 -0.45593999997E+02  0.45594000000E+02  0.51100000000E-03 0.  1.
    9900012    2    1    2    0    0 -0.33975272072E+02 -0.99221004258E+00 -0.22312901111E+02  0.50528817161E+02  0.29999870243E+02 0.  0.
         12    1    1    2    0    0  0.33975272072E+02  0.99221004258E+00  0.22312901111E+02  0.40659182839E+02  0.00000000000E+00 0. -1.
         11    1    3    3    0    0 -0.22355862342E+02 -0.10153990477E+02 -0.92393768773E+01  0.26234599082E+02  0.51100000000E-03 0. -1.
        -11    1    3    3    0    0 -0.11810312638E+02  0.50953961261E+01 -0.26895359740E+01  0.13140781952E+02  0.51100000000E-03 0.  1.
        -12    1    3    3    0    0  0.19090290787E+00  0.40663843084E+01 -0.10383988260E+02  0.11153436127E+02  0.00000000000E+00 0.  1.
</event>
<event>
 7    1  0.1161807E-013  0.5052886E+02  0.7816164E-02  0.1300439E+00
        -11   -1    0    0    0    0  0.00000000000E+00  0.00000000000E+00  0.45593999997E+02  0.45594000000E+02  0.51100000000E-03 0. -1.
         11   -1    0    0    0    0 -0.00000000000E+00 -0.00000000000E+00 -0.45593999997E+02  0.45594000000E+02  0.51100000000E-03 0.  1.
    9900012    2    1    2    0    0 -0.64526316958E+01 -0.13385395038E+02 -0.37846539762E+02  0.50528858001E+02  0.29999994379E+02 0.  0.
         12    1    1    2    0    0  0.64526316958E+01  0.13385395038E+02  0.37846539762E+02  0.40659141999E+02  0.00000000000E+00 0. -1.
         11    1    3    3    0    0 -0.64286841945E+01 -0.57230654232E+00 -0.13205624080E+01  0.65878221428E+01  0.51100000000E-03 0. -1.
        -11    1    3    3    0    0 -0.48232549419E+00  0.38477648409E+01 -0.95660242946E-01  0.38790570113E+01  0.51100000000E-03 0.  1.
        -12    1    3    3    0    0  0.45837799280E+00 -0.16660853337E+02 -0.36430317111E+02  0.40061978847E+02  0.00000000000E+00 0.  1.
</event>
<event>
 7    1  0.1161807E-013  0.5052885E+02  0.7816164E-02  0.1300439E+00
        -11   -1    0    0    0    0  0.00000000000E+00  0.00000000000E+00  0.45593999997E+02  0.45594000000E+02  0.51100000000E-03 0. -1.
         11   -1    0    0    0    0 -0.00000000000E+00 -0.00000000000E+00 -0.45593999997E+02  0.45594000000E+02  0.51100000000E-03 0.  1.
    9900012    2    1    2    0    0 -0.29319847930E+02 -0.10391002433E+02  0.26182815519E+02  0.50528852903E+02  0.29999978883E+02 0.  0.
        -12    1    1    2    0    0  0.29319847930E+02  0.10391002433E+02 -0.26182815519E+02  0.40659147097E+02  0.00000000000E+00 0.  1.
         11    1    3    3    0    0 -0.16407081972E+02  0.20949186675E+01  0.11944459231E+02  0.20402233447E+02  0.51100000000E-03 0. -1.
        -11    1    3    3    0    0 -0.79640111518E+01  0.42982520669E+01  0.47178902006E+01  0.10205828367E+02  0.51100000000E-03 0.  1.
         12    1    3    3    0    0 -0.49487548061E+01 -0.16784173168E+02  0.95204660875E+01  0.19920791088E+02  0.00000000000E+00 0. -1.
</event>
<event>
 7    1  0.1161807E-013  0.5052886E+02  0.7816164E-02  0.1300439E+00
        -11   -1    0    0    0    0  0.00000000000E+00  0.00000000000E+00  0.45593999997E+02  0.45594000000E+02  0.51100000000E-03 0. -1.
         11   -1    0    0    0    0 -0.00000000000E+00 -0.00000000000E+00 -0.45593999997E+02  0.45594000000E+02  0.51100000000E-03 0.  1.
    9900012    2    1    2    0    0  0.38169347930E+02  0.78021954899E+01  0.11635816678E+02  0.50528860737E+02  0.30000002695E+02 0.  0.
         12    1    1    2    0    0 -0.38169347930E+02 -0.78021954899E+01 -0.11635816678E+02  0.40659139263E+02  0.00000000000E+00 0. -1.
         11    1    3    3    0    0  0.25072159912E+02  0.28668545594E+01  0.64998149123E+01  0.26059156776E+02  0.51100000000E-03 0. -1.
        -11    1    3    3    0    0  0.15246024872E+02  0.63911484223E+01 -0.22101396293E+01  0.16678512224E+02  0.51100000000E-03 0.  1.
         12    1    3    3    0    0 -0.21488368543E+01 -0.14558074918E+01  0.73461413953E+01  0.77911917367E+01  0.00000000000E+00 0. -1.
</event>
<event>
 7    1  0.1161807E-013  0.5052886E+02  0.7816164E-02  0.1300439E+00
        -11   -1    0    0    0    0  0.00000000000E+00  0.00000000000E+00  0.45593999997E+02  0.45594000000E+02  0.51100000000E-03 0. -1.
         11   -1    0    0    0    0 -0.00000000000E+00 -0.00000000000E+00 -0.45593999997E+02  0.45594000000E+02  0.51100000000E-03 0.  1.
    9900012    2    1    2    0    0 -0.31896967878E+02  0.64741917916E+01  0.24368713027E+02  0.50528857194E+02  0.29999991926E+02 0.  0.
        -12    1    1    2    0    0  0.31896967878E+02 -0.64741917916E+01 -0.24368713027E+02  0.40659142806E+02  0.00000000000E+00 0.  1.
         11    1    3    3    0    0  0.30008041328E+01  0.23929872720E+00  0.27866586190E+00  0.30232009936E+01  0.51100000000E-03 0. -1.
        -11    1    3    3    0    0 -0.12655791420E+02  0.63951387383E+01  0.20573679066E+02  0.24986859077E+02  0.51100000000E-03 0.  1.
         12    1    3    3    0    0 -0.22241980590E+02 -0.16024567397E+00  0.35163680989E+01  0.22518797123E+02  0.00000000000E+00 0. -1.
</event>
<event>
 7    1  0.1161807E-013  0.5052887E+02  0.7816164E-02  0.1300439E+00
        -11   -1    0    0    0    0  0.00000000000E+00  0.00000000000E+00  0.45593999997E+02  0.45594000000E+02  0.51100000000E-03 0. -1.
         11   -1    0    0    0    0 -0.00000000000E+00 -0.00000000000E+00 -0.45593999997E+02  0.45594000000E+02  0.51100000000E-03 0.  1.
    9900012    2    1    2    0    0  0.32460982919E+02 -0.48859359543E+01  0.23991190867E+02  0.50528867921E+02  0.30000024531E+02 0.  0.
        -12    1    1    2    0    0 -0.32460982919E+02  0.48859359543E+01 -0.23991190867E+02  0.40659132079E+02  0.00000000000E+00 0.  1.
         11    1    3    3    0    0  0.18281652203E+02  0.36670604669E+01  0.13222789399E+02  0.22858440443E+02  0.51100000000E-03 0. -1.
        -11    1    3    3    0    0  0.58470462214E+01  0.10262550250E+01  0.13443285096E+02  0.14695681792E+02  0.51100000000E-03 0.  1.
        -12    1    3    3    0    0  0.83322844952E+01 -0.95792514461E+01 -0.26748836285E+01  0.12974745685E+02  0.00000000000E+00 0.  1.
</event>
<event>
 7    1  0.1161807E-013  0.5052886E+02  0.7816164E-02  0.1300439E+00
        -11   -1    0    0    0    0  0.00000000000E+00  0.00000000000E+00  0.45593999997E+02  0.45594000000E+02  0.51100000000E-03 0. -1.
         11   -1    0    0    0    0 -0.00000000000E+00 -0.00000000000E+00 -0.45593999997E+02  0.45594000000E+02  0.51100000000E-03 0.  1.
    9900012    2    1    2    0    0 -0.54269853492E+01 -0.11542771223E+02 -0.38606706758E+02  0.50528861492E+02  0.30000004992E+02 0.  0.
         12    1    1    2    0    0  0.54269853492E+01  0.11542771223E+02  0.38606706758E+02  0.40659138508E+02  0.00000000000E+00 0. -1.
         11    1    3    3    0    0 -0.41396357688E+01 -0.11570676171E+02 -0.26462368805E+02  0.29176601830E+02  0.51100000000E-03 0. -1.
        -11    1    3    3    0    0 -0.20572362141E+01 -0.33530820534E+01 -0.15818433717E+02  0.16300252317E+02  0.51100000000E-03 0.  1.
         12    1    3    3    0    0  0.76988663374E+00  0.33809870010E+01  0.36740957635E+01  0.50520073445E+01  0.00000000000E+00 0. -1.
</event>
<event>
 7    1  0.1161807E-013  0.5052889E+02  0.7816164E-02  0.1300439E+00
        -11   -1    0    0    0    0  0.00000000000E+00  0.00000000000E+00  0.45593999997E+02  0.45594000000E+02  0.51100000000E-03 0. -1.
         11   -1    0    0    0    0 -0.00000000000E+00 -0.00000000000E+00 -0.45593999997E+02  0.45594000000E+02  0.51100000000E-03 0.  1.
    9900012    2    1    2    0    0  0.17142240078E+02  0.38940594906E+01 -0.36662562129E+02  0.50528885941E+02  0.30000079306E+02 0.  0.
         12    1    1    2    0    0 -0.17142240078E+02 -0.38940594906E+01  0.36662562129E+02  0.40659114059E+02  0.00000000000E+00 0. -1.
         11    1    3    3    0    0  0.53530612556E-01 -0.38820538498E+01 -0.19894541968E+02  0.20269829995E+02  0.51100000000E-03 0. -1.
        -11    1    3    3    0    0  0.14753232631E+00 -0.15543144064E+01 -0.94533550005E+01  0.95814184799E+01  0.51100000000E-03 0.  1.
         12    1    3    3    0    0  0.16941177139E+02  0.93304277467E+01 -0.73146651603E+01  0.20677637466E+02  0.00000000000E+00 0. -1.
</event>
<event>
 7    1  0.1161807E-013  0.5052887E+02  0.7816164E-02  0.1300439E+00
        -11   -1    0    0    0    0  0.00000000000E+00  0.00000000000E+00  0.45593999997E+02  0.45594000000E+02  0.51100000000E-03 0. -1.
         11   -1    0    0    0    0 -0.00000000000E+00 -0.00000000000E+00 -0.45593999997E+02  0.45594000000E+02  0.51100000000E-03 0.  1.
    9900012    2    1    2    0    0 -0.27772749668E+01 -0.11642031956E+02  0.38857616711E+02  0.50528873832E+02  0.30000042500E+02 0.  0.
        -12    1    1    2    0    0  0.27772749668E+01  0.11642031956E+02 -0.38857616711E+02  0.40659126168E+02  0.00000000000E+00 0.  1.
         11    1    3    3    0    0  0.29570976837E+01 -0.15416537641E+02  0.15777763622E+02  0.22256502078E+02  0.51100000000E-03 0. -1.
        -11    1    3    3    0    0  0.37749572205E+01  0.45726098224E+01  0.13527997411E+02  0.14770435904E+02  0.51100000000E-03 0.  1.
        -12    1    3    3    0    0 -0.95093298709E+01 -0.79810413715E+00  0.95518556779E+01  0.13501935850E+02  0.00000000000E+00 0.  1.
</event>
<event>
 7    1  0.1161807E-013  0.5052886E+02  0.7816164E-02  0.1300439E+00
        -11   -1    0    0    0    0  0.00000000000E+00  0.00000000000E+00  0.45593999997E+02  0.45594000000E+02  0.51100000000E-03 0. -1.
         11   -1    0    0    0    0 -0.00000000000E+00 -0.00000000000E+00 -0.45593999997E+02  0.45594000000E+02  0.51100000000E-03 0.  1.
    9900012    2    1    2    0    0 -0.10978461811E+02  0.10775668239E+02  0.37636742032E+02  0.50528855881E+02  0.29999987935E+02 0.  0.
        -12    1    1    2    0    0  0.10978461811E+02 -0.10775668239E+02 -0.37636742032E+02  0.40659144119E+02  0.00000000000E+00 0.  1.
         11    1    3    3    0    0 -0.10877086271E+01 -0.60781440453E+01  0.16822716026E+02  0.17920120531E+02  0.51100000000E-03 0. -1.
        -11    1    3    3    0    0 -0.39147639007E+01 -0.25045476193E+01  0.23971969028E+01  0.52292148959E+01  0.51100000000E-03 0.  1.
         12    1    3    3    0    0 -0.59759892833E+01  0.19358359904E+02  0.18416829103E+02  0.27379520454E+02  0.00000000000E+00 0. -1.
</event>
<event>
 7    1  0.1161807E-013  0.5052890E+02  0.7816164E-02  0.1300439E+00
        -11   -1    0    0    0    0  0.00000000000E+00  0.00000000000E+00  0.45593999997E+02  0.45594000000E+02  0.51100000000E-03 0. -1.
         11   -1    0    0    0    0 -0.00000000000E+00 -0.00000000000E+00 -0.45593999997E+02  0.45594000000E+02  0.51100000000E-03 0.  1.
    9900012    2    1    2    0    0  0.11361342514E+02 -0.77047160365E+00 -0.39031894466E+02  0.50528898734E+02  0.30000118191E+02 0.  0.
         12    1    1    2    0    0 -0.11361342514E+02  0.77047160365E+00  0.39031894466E+02  0.40659101266E+02  0.00000000000E+00 0. -1.
         11    1    3    3    0    0  0.37297806977E+00 -0.62304111404E+01 -0.14031541648E+01  0.63973414392E+01  0.51100000000E-03 0. -1.
        -11    1    3    3    0    0  0.30294925546E+01 -0.72794600656E+01 -0.15436117603E+02  0.17333265443E+02  0.51100000000E-03 0.  1.
         12    1    3    3    0    0  0.79588718895E+01  0.12739399602E+02 -0.22192622698E+02  0.26798291852E+02  0.00000000000E+00 0. -1.
</event>
<event>
 7    1  0.1161807E-013  0.5052886E+02  0.7816164E-02  0.1300439E+00
        -11   -1    0    0    0    0  0.00000000000E+00  0.00000000000E+00  0.45593999997E+02  0.45594000000E+02  0.51100000000E-03 0. -1.
         11   -1    0    0    0    0 -0.00000000000E+00 -0.00000000000E+00 -0.45593999997E+02  0.45594000000E+02  0.51100000000E-03 0.  1.
    9900012    2    1    2    0    0 -0.48355529202E+01  0.31063849833E+02  0.25784115890E+02  0.50528856247E+02  0.29999989048E+02 0.  0.
        -12    1    1    2    0    0  0.48355529202E+01 -0.31063849833E+02 -0.25784115890E+02  0.40659143753E+02  0.00000000000E+00 0.  1.
         11    1    3    3    0    0 -0.52559089354E+01  0.50090622381E+01 -0.29836250802E+01  0.78496689180E+01  0.51100000000E-03 0. -1.
        -11    1    3    3    0    0  0.78378272374E+01  0.21342454230E+02  0.20494540191E+02  0.30609770764E+02  0.51100000000E-03 0.  1.
         12    1    3    3    0    0 -0.74174712221E+01  0.47123333655E+01  0.82732007789E+01  0.12069416565E+02  0.00000000000E+00 0. -1.
</event>
<event>
 7    1  0.1161807E-013  0.5052885E+02  0.7816164E-02  0.1300439E+00
        -11   -1    0    0    0    0  0.00000000000E+00  0.00000000000E+00  0.45593999997E+02  0.45594000000E+02  0.51100000000E-03 0. -1.
         11   -1    0    0    0    0 -0.00000000000E+00 -0.00000000000E+00 -0.45593999997E+02  0.45594000000E+02  0.51100000000E-03 0.  1.
    9900012    2    1    2    0    0  0.19406230011E+02  0.89892777739E+01  0.34579722932E+02  0.50528854458E+02  0.29999983611E+02 0.  0.
        -12    1    1    2    0    0 -0.19406230011E+02 -0.89892777739E+01 -0.34579722932E+02  0.40659145542E+02  0.00000000000E+00 0.  1.
         11    1    3    3    0    0 -0.16230119757E+01 -0.30390491405E+01  0.34163825229E+01  0.48519745832E+01  0.51100000000E-03 0. -1.
        -11    1    3    3    0    0 -0.41100320075E+01 -0.80669919857E+00  0.88210448825E+00  0.42803312125E+01  0.51100000000E-03 0.  1.
         12    1    3    3    0    0  0.25139273994E+02  0.12835026113E+02  0.30281235921E+02  0.41396548663E+02  0.00000000000E+00 0. -1.
</event>
<event>
 7    1  0.1161807E-013  0.5052894E+02  0.7816164E-02  0.1300438E+00
        -11   -1    0    0    0    0  0.00000000000E+00  0.00000000000E+00  0.45593999997E+02  0.45594000000E+02  0.51100000000E-03 0.  1.
         11   -1    0    0    0    0 -0.00000000000E+00 -0.00000000000E+00 -0.45593999997E+02  0.45594000000E+02  0.51100000000E-03 0. -1.
    9900012    2    1    2    0    0  0.33232532635E+02 -0.45455183951E+01 -0.22980338315E+02  0.50528943052E+02  0.30000252899E+02 0.  0.
         12    1    1    2    0    0 -0.33232532635E+02  0.45455183951E+01  0.22980338315E+02  0.40659056948E+02  0.00000000000E+00 0. -1.
         11    1    3    3    0    0 -0.36850348179E+01  0.27629709217E+01 -0.15213352297E+01  0.48505619330E+01  0.51100000000E-03 0. -1.
        -11    1    3    3    0    0  0.84120073687E+01 -0.80864709035E+01 -0.79858772002E+01  0.14139558500E+02  0.51100000000E-03 0.  1.
         12    1    3    3    0    0  0.28505560085E+02  0.77798158679E+00 -0.13473125885E+02  0.31538822619E+02  0.00000000000E+00 0. -1.
</event>
<event>
 7    1  0.1161807E-013  0.5052888E+02  0.7816164E-02  0.1300439E+00
        -11   -1    0    0    0    0  0.00000000000E+00  0.00000000000E+00  0.45593999997E+02  0.45594000000E+02  0.51100000000E-03 0. -1.
         11   -1    0    0    0    0 -0.00000000000E+00 -0.00000000000E+00 -0.45593999997E+02  0.45594000000E+02  0.51100000000E-03 0.  1.
    9900012    2    1    2    0    0  0.12779872731E+01  0.10316061706E+02  0.39307881130E+02  0.50528881717E+02  0.30000066467E+02 0.  0.
        -12    1    1    2    0    0 -0.12779872731E+01 -0.10316061706E+02 -0.39307881130E+02  0.40659118283E+02  0.00000000000E+00 0.  1.
         11    1    3    3    0    0  0.94561779358E+01 -0.24218296825E+01  0.19316008738E+01  0.99506603983E+01  0.51100000000E-03 0.  1.
        -11    1    3    3    0    0 -0.19278586669E+00  0.19019320560E-02  0.36315044554E+01  0.36366186050E+01  0.51100000000E-03 0. -1.
        -12    1    3    3    0    0 -0.79854047960E+01  0.12735989456E+02  0.33744775801E+02  0.36941602714E+02  0.00000000000E+00 0.  1.
</event>
<event>
 7    1  0.1161807E-013  0.5052886E+02  0.7816164E-02  0.1300439E+00
        -11   -1    0    0    0    0  0.00000000000E+00  0.00000000000E+00  0.45593999997E+02  0.45594000000E+02  0.51100000000E-03 0. -1.
         11   -1    0    0    0    0 -0.00000000000E+00 -0.00000000000E+00 -0.45593999997E+02  0.45594000000E+02  0.51100000000E-03 0.  1.
    9900012    2    1    2    0    0  0.96287040045E+01 -0.59696148428E+01  0.39048905766E+02  0.50528864696E+02  0.30000014730E+02 0.  0.
        -12    1    1    2    0    0 -0.96287040045E+01  0.59696148428E+01 -0.39048905766E+02  0.40659135304E+02  0.00000000000E+00 0.  1.
         11    1    3    3    0    0  0.15627670986E+02  0.41068224758E+00  0.17320941363E+02  0.23332547446E+02  0.51100000000E-03 0. -1.
        -11    1    3    3    0    0  0.13028722833E+01 -0.35024480085E+01 -0.36112086591E+00  0.37543343990E+01  0.51100000000E-03 0.  1.
         12    1    3    3    0    0 -0.73018392649E+01 -0.28778490819E+01  0.22089085269E+02  0.23441982851E+02  0.00000000000E+00 0. -1.
</event>
<event>
 7    1  0.1161807E-013  0.5052886E+02  0.7816164E-02  0.1300439E+00
        -11   -1    0    0    0    0  0.00000000000E+00  0.00000000000E+00  0.45593999997E+02  0.45594000000E+02  0.51100000000E-03 0. -1.
         11   -1    0    0    0    0 -0.00000000000E+00 -0.00000000000E+00 -0.45593999997E+02  0.45594000000E+02  0.51100000000E-03 0.  1.
    9900012    2    1    2    0    0  0.10919478122E+02  0.26348283352E+02 -0.28977558076E+02  0.50528856992E+02  0.29999991314E+02 0.  0.
         12    1    1    2    0    0 -0.10919478122E+02 -0.26348283352E+02  0.28977558076E+02  0.40659143008E+02  0.00000000000E+00 0. -1.
         11    1    3    3    0    0 -0.14520332196E+00 -0.43865138393E+00 -0.13421930884E+02  0.13429881904E+02  0.51100000000E-03 0. -1.
        -11    1    3    3    0    0 -0.35900855294E+01  0.55660022711E+01  0.62675461384E+00  0.66529630239E+01  0.51100000000E-03 0.  1.
        -12    1    3    3    0    0  0.14654766974E+02  0.21220932464E+02 -0.16182381807E+02  0.30446012065E+02  0.00000000000E+00 0.  1.
</event>
<event>
 7    1  0.1161807E-013  0.5052886E+02  0.7816164E-02  0.1300439E+00
        -11   -1    0    0    0    0  0.00000000000E+00  0.00000000000E+00  0.45593999997E+02  0.45594000000E+02  0.51100000000E-03 0. -1.
         11   -1    0    0    0    0 -0.00000000000E+00 -0.00000000000E+00 -0.45593999997E+02  0.45594000000E+02  0.51100000000E-03 0.  1.
    9900012    2    1    2    0    0  0.32101393627E+02 -0.87244945665E+00  0.24938017548E+02  0.50528863756E+02  0.30000011872E+02 0.  0.
        -12    1    1    2    0    0 -0.32101393627E+02  0.87244945665E+00 -0.24938017548E+02  0.40659136244E+02  0.00000000000E+00 0.  1.
         11    1    3    3    0    0  0.20276124841E+01  0.27111736745E+01  0.98087253156E+01  0.10376548928E+02  0.51100000000E-03 0. -1.
        -11    1    3    3    0    0 -0.24951253266E+01 -0.34616881354E+01  0.36628984439E+01  0.56236785482E+01  0.51100000000E-03 0.  1.
         12    1    3    3    0    0  0.32568906470E+02 -0.12193499577E+00  0.11466393789E+02  0.34528636279E+02  0.00000000000E+00 0. -1.
</event>
<event>
 7    1  0.1161807E-013  0.5052886E+02  0.7816164E-02  0.1300439E+00
        -11   -1    0    0    0    0  0.00000000000E+00  0.00000000000E+00  0.45593999997E+02  0.45594000000E+02  0.51100000000E-03 0. -1.
         11   -1    0    0    0    0 -0.00000000000E+00 -0.00000000000E+00 -0.45593999997E+02  0.45594000000E+02  0.51100000000E-03 0.  1.
    9900012    2    1    2    0    0  0.19769882864E+02  0.83285735871E+01  0.34539140174E+02  0.50528860678E+02  0.30000002517E+02 0.  0.
        -12    1    1    2    0    0 -0.19769882864E+02 -0.83285735871E+01 -0.34539140174E+02  0.40659139322E+02  0.00000000000E+00 0.  1.
         11    1    3    3    0    0  0.49333529647E+01  0.39781805560E+01  0.65476232663E+01  0.91123686662E+01  0.51100000000E-03 0.  1.
        -11    1    3    3    0    0  0.42786406590E+01  0.14251473181E+02  0.84935559661E+01  0.17133351889E+02  0.51100000000E-03 0. -1.
         12    1    3    3    0    0  0.10557889240E+02 -0.99010801503E+01  0.19497960942E+02  0.24283140123E+02  0.00000000000E+00 0. -1.
</event>
<event>
 7    1  0.1161807E-013  0.5052886E+02  0.7816164E-02  0.1300439E+00
        -11   -1    0    0    0    0  0.00000000000E+00  0.00000000000E+00  0.45593999997E+02  0.45594000000E+02  0.51100000000E-03 0. -1.
         11   -1    0    0    0    0 -0.00000000000E+00 -0.00000000000E+00 -0.45593999997E+02  0.45594000000E+02  0.51100000000E-03 0.  1.
    9900012    2    1    2    0    0 -0.19691730847E+02 -0.28353165967E+02  0.21482536002E+02  0.50528860348E+02  0.30000001515E+02 0.  0.
        -12    1    1    2    0    0  0.19691730847E+02  0.28353165967E+02 -0.21482536002E+02  0.40659139652E+02  0.00000000000E+00 0.  1.
         11    1    3    3    0    0 -0.24789975120E+01 -0.10298361700E+02  0.17334188520E+02  0.20314422814E+02  0.51100000000E-03 0. -1.
        -11    1    3    3    0    0 -0.66840647301E+01 -0.10215254202E+01  0.72920419433E+01  0.99445518483E+01  0.51100000000E-03 0.  1.
        -12    1    3    3    0    0 -0.10528668605E+02 -0.17033278847E+02 -0.31436944606E+01  0.20269885686E+02  0.00000000000E+00 0.  1.
</event>
<event>
 7    1  0.1161807E-013  0.5052885E+02  0.7816164E-02  0.1300439E+00
        -11   -1    0    0    0    0  0.00000000000E+00  0.00000000000E+00  0.45593999997E+02  0.45594000000E+02  0.51100000000E-03 0. -1.
         11   -1    0    0    0    0 -0.00000000000E+00 -0.00000000000E+00 -0.45593999997E+02  0.45594000000E+02  0.51100000000E-03 0.  1.
    9900012    2    1    2    0    0 -0.23859694533E+02  0.14915762683E+02 -0.29349645692E+02  0.50528847256E+02  0.29999961718E+02 0.  0.
         12    1    1    2    0    0  0.23859694533E+02 -0.14915762683E+02  0.29349645692E+02  0.40659152744E+02  0.00000000000E+00 0. -1.
         11    1    3    3    0    0  0.41484071370E+01  0.28620922538E+01 -0.23378358033E+01  0.55557475058E+01  0.51100000000E-03 0. -1.
        -11    1    3    3    0    0  0.91448200792E-03  0.26741619908E+01 -0.11109185876E+02  0.11426511028E+02  0.51100000000E-03 0.  1.
        -12    1    3    3    0    0 -0.28009016152E+02  0.93795084384E+01 -0.15902624013E+02  0.33546588721E+02  0.00000000000E+00 0.  1.
</event>
<event>
 7    1  0.1161807E-013  0.5052885E+02  0.7816164E-02  0.1300439E+00
        -11   -1    0    0    0    0  0.00000000000E+00  0.00000000000E+00  0.45593999997E+02  0.45594000000E+02  0.51100000000E-03 0. -1.
         11   -1    0    0    0    0 -0.00000000000E+00 -0.00000000000E+00 -0.45593999997E+02  0.45594000000E+02  0.51100000000E-03 0.  1.
    9900012    2    1    2    0    0  0.26416276087E+02 -0.21036371877E+02 -0.22645478655E+02  0.50528852351E+02  0.29999977205E+02 0.  0.
         12    1    1    2    0    0 -0.26416276087E+02  0.21036371877E+02  0.22645478655E+02  0.40659147649E+02  0.00000000000E+00 0. -1.
         11    1    3    3    0    0  0.44556278340E+01 -0.13163020226E+02 -0.10748791063E+02  0.17568558006E+02  0.51100000000E-03 0. -1.
        -11    1    3    3    0    0  0.23363908513E+02 -0.74086871672E+01 -0.15544748121E+02  0.29024128944E+02  0.51100000000E-03 0.  1.
         12    1    3    3    0    0 -0.14032602603E+01 -0.46466448436E+00  0.36480605281E+01  0.39361654003E+01  0.00000000000E+00 0. -1.
</event>
<event>
 7    1  0.1161807E-013  0.5052886E+02  0.7816164E-02  0.1300439E+00
        -11   -1    0    0    0    0  0.00000000000E+00  0.00000000000E+00  0.45593999997E+02  0.45594000000E+02  0.51100000000E-03 0. -1.
         11   -1    0    0    0    0 -0.00000000000E+00 -0.00000000000E+00 -0.45593999997E+02  0.45594000000E+02  0.51100000000E-03 0.  1.
    9900012    2    1    2    0    0 -0.65904424394E+01 -0.19442506457E+02  0.35095879836E+02  0.50528858711E+02  0.29999996537E+02 0.  0.
        -12    1    1    2    0    0  0.65904424394E+01  0.19442506457E+02 -0.35095879836E+02  0.40659141289E+02  0.00000000000E+00 0.  1.
         11    1    3    3    0    0 -0.22870425213E+01 -0.12078209664E+02  0.21076625709E+01  0.12472207260E+02  0.51100000000E-03 0. -1.
        -11    1    3    3    0    0 -0.10416391208E+02 -0.45705297158E+01  0.14799913765E+02  0.18666236776E+02  0.51100000000E-03 0.  1.
         12    1    3    3    0    0  0.61129912901E+01 -0.27937670781E+01  0.18188303501E+02  0.19390414674E+02  0.00000000000E+00 0. -1.
</event>
<event>
 7    1  0.1161807E-013  0.5052886E+02  0.7816164E-02  0.1300439E+00
        -11   -1    0    0    0    0  0.00000000000E+00  0.00000000000E+00  0.45593999997E+02  0.45594000000E+02  0.51100000000E-03 0.  1.
         11   -1    0    0    0    0 -0.00000000000E+00 -0.00000000000E+00 -0.45593999997E+02  0.45594000000E+02  0.51100000000E-03 0. -1.
    9900012    2    1    2    0    0  0.92949023823E-01 -0.40658929507E+02 -0.91021045343E-01  0.50528862368E+02  0.30000007653E+02 0.  0.
         12    1    1    2    0    0 -0.92949023823E-01  0.40658929507E+02  0.91021045343E-01  0.40659137632E+02  0.00000000000E+00 0. -1.
         11    1    3    3    0    0  0.40712175725E+01 -0.66074103722E+01  0.11994003633E+01  0.78531042170E+01  0.51100000000E-03 0. -1.
        -11    1    3    3    0    0 -0.19569881730E+01 -0.31062903471E+02  0.84811976829E+01  0.32259331815E+02  0.51100000000E-03 0.  1.
         12    1    3    3    0    0 -0.20212803757E+01 -0.29886156637E+01 -0.97716190915E+01  0.10416426336E+02  0.00000000000E+00 0. -1.
</event>
<event>
 7    1  0.1161807E-013  0.5052886E+02  0.7816164E-02  0.1300439E+00
        -11   -1    0    0    0    0  0.00000000000E+00  0.00000000000E+00  0.45593999997E+02  0.45594000000E+02  0.51100000000E-03 0. -1.
         11   -1    0    0    0    0 -0.00000000000E+00 -0.00000000000E+00 -0.45593999997E+02  0.45594000000E+02  0.51100000000E-03 0.  1.
    9900012    2    1    2    0    0 -0.19772608449E+02  0.28664381229E+02 -0.20989594694E+02  0.50528857344E+02  0.29999992382E+02 0.  0.
         12    1    1    2    0    0  0.19772608449E+02 -0.28664381229E+02  0.20989594694E+02  0.40659142656E+02  0.00000000000E+00 0. -1.
         11    1    3    3    0    0 -0.81753186745E+01  0.55456437170E+01 -0.46556297192E+01  0.10920846488E+02  0.51100000000E-03 0. -1.
        -11    1    3    3    0    0 -0.10352682820E+02  0.26265812566E+02 -0.61745604037E+01  0.28899760341E+02  0.51100000000E-03 0.  1.
         12    1    3    3    0    0 -0.12446069543E+01 -0.31470750536E+01 -0.10159404571E+02  0.10708250515E+02  0.00000000000E+00 0. -1.
</event>
<event>
 7    1  0.1161807E-013  0.5052886E+02  0.7816164E-02  0.1300439E+00
        -11   -1    0    0    0    0  0.00000000000E+00  0.00000000000E+00  0.45593999997E+02  0.45594000000E+02  0.51100000000E-03 0. -1.
         11   -1    0    0    0    0 -0.00000000000E+00 -0.00000000000E+00 -0.45593999997E+02  0.45594000000E+02  0.51100000000E-03 0.  1.
    9900012    2    1    2    0    0  0.21831321430E+02 -0.17594344505E+02 -0.29444826229E+02  0.50528863934E+02  0.30000012414E+02 0.  0.
         12    1    1    2    0    0 -0.21831321430E+02  0.17594344505E+02  0.29444826229E+02  0.40659136066E+02  0.00000000000E+00 0. -1.
         11    1    3    3    0    0 -0.70192878529E+00 -0.12976850127E+02 -0.16974693400E+01  0.13106210195E+02  0.51100000000E-03 0. -1.
        -11    1    3    3    0    0  0.41757087245E+01 -0.99146171164E+00 -0.12716184763E+02  0.13420912594E+02  0.51100000000E-03 0.  1.
        -12    1    3    3    0    0  0.18357541491E+02 -0.36260326659E+01 -0.15031172127E+02  0.24001741145E+02  0.00000000000E+00 0.  1.
</event>
<event>
 7    1  0.1161807E-013  0.5052885E+02  0.7816164E-02  0.1300439E+00
        -11   -1    0    0    0    0  0.00000000000E+00  0.00000000000E+00  0.45593999997E+02  0.45594000000E+02  0.51100000000E-03 0. -1.
         11   -1    0    0    0    0 -0.00000000000E+00 -0.00000000000E+00 -0.45593999997E+02  0.45594000000E+02  0.51100000000E-03 0.  1.
    9900012    2    1    2    0    0 -0.27701008541E+02 -0.94343137096E+01  0.28227894663E+02  0.50528853594E+02  0.29999980984E+02 0.  0.
        -12    1    1    2    0    0  0.27701008541E+02  0.94343137096E+01 -0.28227894663E+02  0.40659146406E+02  0.00000000000E+00 0.  1.
         11    1    3    3    0    0 -0.23653014414E+02 -0.98695604078E+01  0.22963658534E+02  0.34412249665E+02  0.51100000000E-03 0. -1.
        -11    1    3    3    0    0 -0.31146587866E+01  0.72141722725E+01  0.49075942374E+01  0.92644407491E+01  0.51100000000E-03 0.  1.
        -12    1    3    3    0    0 -0.93333534063E+00 -0.67789255743E+01  0.35664189213E+00  0.68521631796E+01  0.00000000000E+00 0.  1.
</event>
<event>
 7    1  0.1161807E-013  0.5052886E+02  0.7816164E-02  0.1300439E+00
        -11   -1    0    0    0    0  0.00000000000E+00  0.00000000000E+00  0.45593999997E+02  0.45594000000E+02  0.51100000000E-03 0. -1.
         11   -1    0    0    0    0 -0.00000000000E+00 -0.00000000000E+00 -0.45593999997E+02  0.45594000000E+02  0.51100000000E-03 0.  1.
    9900012    2    1    2    0    0 -0.21542197498E+02 -0.12353425455E+02  0.32194599944E+02  0.50528860080E+02  0.30000000698E+02 0.  0.
        -12    1    1    2    0    0  0.21542197498E+02  0.12353425455E+02 -0.32194599944E+02  0.40659139920E+02  0.00000000000E+00 0.  1.
         11    1    3    3    0    0 -0.16958974132E+02 -0.18607232086E+02  0.24926782220E+02  0.35428524689E+02  0.51100000000E-03 0. -1.
        -11    1    3    3    0    0 -0.45439320124E+01 -0.72083389055E+00  0.66661802164E+01  0.80996838561E+01  0.51100000000E-03 0.  1.
        -12    1    3    3    0    0 -0.39291353375E-01  0.69746405220E+01  0.60163750765E+00  0.70006515348E+01  0.00000000000E+00 0.  1.
</event>
<event>
 7    1  0.1161807E-013  0.5052886E+02  0.7816164E-02  0.1300439E+00
        -11   -1    0    0    0    0  0.00000000000E+00  0.00000000000E+00  0.45593999997E+02  0.45594000000E+02  0.51100000000E-03 0. -1.
         11   -1    0    0    0    0 -0.00000000000E+00 -0.00000000000E+00 -0.45593999997E+02  0.45594000000E+02  0.51100000000E-03 0.  1.
    9900012    2    1    2    0    0  0.89728372344E+01 -0.26586102460E+02  0.29425038420E+02  0.50528861568E+02  0.30000005221E+02 0.  0.
        -12    1    1    2    0    0 -0.89728372344E+01  0.26586102460E+02 -0.29425038420E+02  0.40659138432E+02  0.00000000000E+00 0.  1.
         11    1    3    3    0    0 -0.18480078249E+00 -0.24173376124E+02  0.15432172928E+02  0.28679927233E+02  0.51100000000E-03 0. -1.
        -11    1    3    3    0    0  0.44831427800E+00 -0.65370854972E+01  0.29304459747E+01  0.71778817461E+01  0.51100000000E-03 0.  1.
        -12    1    3    3    0    0  0.87093237389E+01  0.41243591612E+01  0.11062419517E+02  0.14671052588E+02  0.00000000000E+00 0.  1.
</event>
<event>
 7    1  0.1161807E-013  0.5052890E+02  0.7816164E-02  0.1300439E+00
        -11   -1    0    0    0    0  0.00000000000E+00  0.00000000000E+00  0.45593999997E+02  0.45594000000E+02  0.51100000000E-03 0. -1.
         11   -1    0    0    0    0 -0.00000000000E+00 -0.00000000000E+00 -0.45593999997E+02  0.45594000000E+02  0.51100000000E-03 0.  1.
    9900012    2    1    2    0    0  0.13932325095E+02  0.26505639012E+02 -0.27504607809E+02  0.50528904674E+02  0.30000136246E+02 0.  0.
         12    1    1    2    0    0 -0.13932325095E+02 -0.26505639012E+02  0.27504607809E+02  0.40659095326E+02  0.00000000000E+00 0. -1.
         11    1    3    3    0    0 -0.13582583977E+01  0.11122081398E+02 -0.52909434705E+01  0.12391111474E+02  0.51100000000E-03 0. -1.
        -11    1    3    3    0    0 -0.22530357592E+01  0.12815437116E+02 -0.70032166029E+01  0.14776895535E+02  0.51100000000E-03 0.  1.
        -12    1    3    3    0    0  0.17543619252E+02  0.25681204978E+01 -0.15210447736E+02  0.23360897664E+02  0.00000000000E+00 0.  1.
</event>
<event>
 7    1  0.1161807E-013  0.5052886E+02  0.7816164E-02  0.1300439E+00
        -11   -1    0    0    0    0  0.00000000000E+00  0.00000000000E+00  0.45593999997E+02  0.45594000000E+02  0.51100000000E-03 0.  1.
         11   -1    0    0    0    0 -0.00000000000E+00 -0.00000000000E+00 -0.45593999997E+02  0.45594000000E+02  0.51100000000E-03 0. -1.
    9900012    2    1    2    0    0  0.36128152796E+02 -0.14751233494E+02 -0.11415917922E+02  0.50528862084E+02  0.30000006791E+02 0.  0.
         12    1    1    2    0    0 -0.36128152796E+02  0.14751233494E+02  0.11415917922E+02  0.40659137916E+02  0.00000000000E+00 0. -1.
         11    1    3    3    0    0  0.33301261249E+01  0.14104191964E+01  0.12970972073E+01  0.38420676391E+01  0.51100000000E-03 0. -1.
        -11    1    3    3    0    0  0.27939998551E+02 -0.70939025412E+01  0.18171308351E+01  0.28883714045E+02  0.51100000000E-03 0.  1.
         12    1    3    3    0    0  0.48580281199E+01 -0.90677501491E+01 -0.14530145964E+02  0.17803080400E+02  0.00000000000E+00 0. -1.
</event>
<event>
 7    1  0.1161807E-013  0.5052887E+02  0.7816164E-02  0.1300439E+00
        -11   -1    0    0    0    0  0.00000000000E+00  0.00000000000E+00  0.45593999997E+02  0.45594000000E+02  0.51100000000E-03 0. -1.
         11   -1    0    0    0    0 -0.00000000000E+00 -0.00000000000E+00 -0.45593999997E+02  0.45594000000E+02  0.51100000000E-03 0.  1.
    9900012    2    1    2    0    0  0.12401667909E+02  0.38025242719E+02 -0.73105941965E+01  0.50528865254E+02  0.30000016427E+02 0.  0.
        -12    1    1    2    0    0 -0.12401667909E+02 -0.38025242719E+02  0.73105941965E+01  0.40659134746E+02  0.00000000000E+00 0.  1.
         11    1    3    3    0    0  0.83654526611E+01  0.62432104648E+01 -0.24337900761E+01  0.10718293219E+02  0.51100000000E-03 0. -1.
        -11    1    3    3    0    0  0.73832113308E+01  0.67164246166E+01  0.66765698937E+01  0.12008278602E+02  0.51100000000E-03 0.  1.
         12    1    3    3    0    0 -0.33469960824E+01  0.25065607637E+02 -0.11553374014E+02  0.27802293433E+02  0.00000000000E+00 0. -1.
</event>
<event>
 7    1  0.1161807E-013  0.5052888E+02  0.7816164E-02  0.1300439E+00
        -11   -1    0    0    0    0  0.00000000000E+00  0.00000000000E+00  0.45593999997E+02  0.45594000000E+02  0.51100000000E-03 0. -1.
         11   -1    0    0    0    0 -0.00000000000E+00 -0.00000000000E+00 -0.45593999997E+02  0.45594000000E+02  0.51100000000E-03 0.  1.
    9900012    2    1    2    0    0  0.23715119917E+02  0.73384689486E+01 -0.32200988969E+02  0.50528883805E+02  0.30000072814E+02 0.  0.
         12    1    1    2    0    0 -0.23715119917E+02 -0.73384689486E+01  0.32200988969E+02  0.40659116195E+02  0.00000000000E+00 0. -1.
         11    1    3    3    0    0  0.18761885956E+02  0.13447777990E+02 -0.22010391312E+02  0.31895272745E+02  0.51100000000E-03 0. -1.
        -11    1    3    3    0    0  0.66034548954E+01  0.71775081766E+00 -0.94780892487E+01  0.11573891258E+02  0.51100000000E-03 0.  1.
         12    1    3    3    0    0 -0.16502209339E+01 -0.68270598594E+01 -0.71250840779E+00  0.70597198022E+01  0.00000000000E+00 0. -1.
</event>
<event>
 7    1  0.1161807E-013  0.5052886E+02  0.7816164E-02  0.1300439E+00
        -11   -1    0    0    0    0  0.00000000000E+00  0.00000000000E+00  0.45593999997E+02  0.45594000000E+02  0.51100000000E-03 0. -1.
         11   -1    0    0    0    0 -0.00000000000E+00 -0.00000000000E+00 -0.45593999997E+02  0.45594000000E+02  0.51100000000E-03 0.  1.
    9900012    2    1    2    0    0 -0.25679761348E+01  0.13918233942E+02 -0.38116318801E+02  0.50528862080E+02  0.30000006779E+02 0.  0.
         12    1    1    2    0    0  0.25679761348E+01 -0.13918233942E+02  0.38116318801E+02  0.40659137920E+02  0.00000000000E+00 0. -1.
         11    1    3    3    0    0 -0.59597519623E+00 -0.33759744649E+01 -0.92883921232E+01  0.99008392835E+01  0.51100000000E-03 0. -1.
        -11    1    3    3    0    0 -0.11948094145E+02  0.11234969191E+02 -0.20676925323E+02  0.26391603352E+02  0.51100000000E-03 0.  1.
         12    1    3    3    0    0  0.99760932061E+01  0.60592392152E+01 -0.81510013546E+01  0.14236419445E+02  0.00000000000E+00 0. -1.
</event>
<event>
 7    1  0.1161807E-013  0.5052886E+02  0.7816164E-02  0.1300439E+00
        -11   -1    0    0    0    0  0.00000000000E+00  0.00000000000E+00  0.45593999997E+02  0.45594000000E+02  0.51100000000E-03 0. -1.
         11   -1    0    0    0    0 -0.00000000000E+00 -0.00000000000E+00 -0.45593999997E+02  0.45594000000E+02  0.51100000000E-03 0.  1.
    9900012    2    1    2    0    0 -0.16305137994E+02 -0.16139194413E+02  0.33568354060E+02  0.50528861844E+02  0.30000006061E+02 0.  0.
        -12    1    1    2    0    0  0.16305137994E+02  0.16139194413E+02 -0.33568354060E+02  0.40659138156E+02  0.00000000000E+00 0.  1.
         11    1    3    3    0    0 -0.24662594109E+01 -0.11878753026E+02  0.29540129780E+02  0.31934408975E+02  0.51100000000E-03 0. -1.
        -11    1    3    3    0    0 -0.45408679443E+01 -0.17403502886E+01  0.69906957212E+01  0.85157576141E+01  0.51100000000E-03 0.  1.
        -12    1    3    3    0    0 -0.92980106392E+01 -0.25200910980E+01 -0.29624714413E+01  0.10078695254E+02  0.00000000000E+00 0.  1.
</event>
<event>
 7    1  0.1161807E-013  0.5052886E+02  0.7816164E-02  0.1300439E+00
        -11   -1    0    0    0    0  0.00000000000E+00  0.00000000000E+00  0.45593999997E+02  0.45594000000E+02  0.51100000000E-03 0. -1.
         11   -1    0    0    0    0 -0.00000000000E+00 -0.00000000000E+00 -0.45593999997E+02  0.45594000000E+02  0.51100000000E-03 0.  1.
    9900012    2    1    2    0    0 -0.28930176077E+01 -0.33922062878E+02  0.22228122050E+02  0.50528864364E+02  0.30000013721E+02 0.  0.
        -12    1    1    2    0    0  0.28930176077E+01  0.33922062878E+02 -0.22228122050E+02  0.40659135636E+02  0.00000000000E+00 0.  1.
         11    1    3    3    0    0  0.14682063955E+00 -0.83101682079E+01  0.66750395800E+01  0.10660047167E+02  0.51100000000E-03 0. -1.
        -11    1    3    3    0    0 -0.61361814412E+01 -0.18326593518E+02  0.22270238767E+02  0.29486951142E+02  0.51100000000E-03 0.  1.
        -12    1    3    3    0    0  0.30963431939E+01 -0.72853011523E+01 -0.67171562974E+01  0.10381866055E+02  0.00000000000E+00 0.  1.
</event>
<event>
 7    1  0.1161807E-013  0.5052888E+02  0.7816164E-02  0.1300439E+00
        -11   -1    0    0    0    0  0.00000000000E+00  0.00000000000E+00  0.45593999997E+02  0.45594000000E+02  0.51100000000E-03 0. -1.
         11   -1    0    0    0    0 -0.00000000000E+00 -0.00000000000E+00 -0.45593999997E+02  0.45594000000E+02  0.51100000000E-03 0.  1.
    9900012    2    1    2    0    0  0.13428422501E+02  0.13294299252E+02 -0.36001434061E+02  0.50528878294E+02  0.30000056061E+02 0.  0.
         12    1    1    2    0    0 -0.13428422501E+02 -0.13294299252E+02  0.36001434061E+02  0.40659121706E+02  0.00000000000E+00 0. -1.
         11    1    3    3    0    0  0.30529106697E+01  0.97059431753E+01 -0.63457417868E+01  0.11991415078E+02  0.51100000000E-03 0. -1.
        -11    1    3    3    0    0 -0.23860401577E+01  0.39936035958E+01 -0.24216332076E+02  0.24659132117E+02  0.51100000000E-03 0.  1.
         12    1    3    3    0    0  0.12761551989E+02 -0.40524751932E+00 -0.54393601991E+01  0.13878331099E+02  0.00000000000E+00 0. -1.
</event>
<event>
 7    1  0.1161807E-013  0.5052886E+02  0.7816164E-02  0.1300439E+00
        -11   -1    0    0    0    0  0.00000000000E+00  0.00000000000E+00  0.45593999997E+02  0.45594000000E+02  0.51100000000E-03 0. -1.
         11   -1    0    0    0    0 -0.00000000000E+00 -0.00000000000E+00 -0.45593999997E+02  0.45594000000E+02  0.51100000000E-03 0.  1.
    9900012    2    1    2    0    0 -0.10503195810E+02  0.25538847286E+02 -0.29843184931E+02  0.50528861670E+02  0.30000005533E+02 0.  0.
         12    1    1    2    0    0  0.10503195810E+02 -0.25538847286E+02  0.29843184931E+02  0.40659138330E+02  0.00000000000E+00 0. -1.
         11    1    3    3    0    0 -0.31752264751E+01  0.12404435676E+02 -0.17671683308E+02  0.21822934697E+02  0.51100000000E-03 0. -1.
        -11    1    3    3    0    0 -0.85847233794E+01  0.18291456776E+02 -0.11767363248E+02  0.23382594051E+02  0.51100000000E-03 0.  1.
         12    1    3    3    0    0  0.12567540449E+01 -0.51570451659E+01 -0.40413837519E+00  0.53233329221E+01  0.00000000000E+00 0. -1.
</event>
<event>
 7    1  0.1161807E-013  0.5052886E+02  0.7816164E-02  0.1300439E+00
        -11   -1    0    0    0    0  0.00000000000E+00  0.00000000000E+00  0.45593999997E+02  0.45594000000E+02  0.51100000000E-03 0.  1.
         11   -1    0    0    0    0 -0.00000000000E+00 -0.00000000000E+00 -0.45593999997E+02  0.45594000000E+02  0.51100000000E-03 0. -1.
    9900012    2    1    2    0    0 -0.14050604053E+01  0.40320302909E+02  0.50462186838E+01  0.50528863949E+02  0.30000012459E+02 0.  0.
         12    1    1    2    0    0  0.14050604053E+01 -0.40320302909E+02 -0.50462186838E+01  0.40659136051E+02  0.00000000000E+00 0. -1.
         11    1    3    3    0    0 -0.10306259895E+02  0.17281223794E+02  0.11601905924E+02  0.23226362397E+02  0.51100000000E-03 0. -1.
        -11    1    3    3    0    0  0.17022734368E+01  0.36764286225E+01  0.24854402007E+01  0.47530280372E+01  0.51100000000E-03 0.  1.
         12    1    3    3    0    0  0.71989260529E+01  0.19362650492E+02 -0.90411274412E+01  0.22549473515E+02  0.00000000000E+00 0. -1.
</event>
<event>
 7    1  0.1161807E-013  0.5052888E+02  0.7816164E-02  0.1300439E+00
        -11   -1    0    0    0    0  0.00000000000E+00  0.00000000000E+00  0.45593999997E+02  0.45594000000E+02  0.51100000000E-03 0. -1.
         11   -1    0    0    0    0 -0.00000000000E+00 -0.00000000000E+00 -0.45593999997E+02  0.45594000000E+02  0.51100000000E-03 0.  1.
    9900012    2    1    2    0    0  0.29390239740E+02  0.15127654182E+02 -0.23675559181E+02  0.50528877831E+02  0.30000054654E+02 0.  0.
         12    1    1    2    0    0 -0.29390239740E+02 -0.15127654182E+02  0.23675559181E+02  0.40659122169E+02  0.00000000000E+00 0. -1.
         11    1    3    3    0    0  0.37156300055E+01  0.11249905370E+02 -0.16902591441E+02  0.20641314756E+02  0.51100000000E-03 0.  1.
        -11    1    3    3    0    0  0.62287923331E+01  0.69700705794E+01 -0.31691824010E+01  0.98703320695E+01  0.51100000000E-03 0. -1.
        -12    1    3    3    0    0  0.19445817402E+02 -0.30923217672E+01 -0.36037853390E+01  0.20017231005E+02  0.00000000000E+00 0.  1.
</event>
<event>
 7    1  0.1161807E-013  0.5052886E+02  0.7816164E-02  0.1300439E+00
        -11   -1    0    0    0    0  0.00000000000E+00  0.00000000000E+00  0.45593999997E+02  0.45594000000E+02  0.51100000000E-03 0. -1.
         11   -1    0    0    0    0 -0.00000000000E+00 -0.00000000000E+00 -0.45593999997E+02  0.45594000000E+02  0.51100000000E-03 0.  1.
    9900012    2    1    2    0    0  0.15774466567E+02 -0.25390165959E+02  0.27562131299E+02  0.50528863208E+02  0.30000010206E+02 0.  0.
        -12    1    1    2    0    0 -0.15774466567E+02  0.25390165959E+02 -0.27562131299E+02  0.40659136792E+02  0.00000000000E+00 0.  1.
         11    1    3    3    0    0  0.85027291006E+01 -0.35662885899E+01  0.18393472819E+02  0.20575098033E+02  0.51100000000E-03 0. -1.
        -11    1    3    3    0    0 -0.29570980248E+01  0.13491312466E+00 -0.16882593386E+01  0.34077632158E+01  0.51100000000E-03 0.  1.
        -12    1    3    3    0    0  0.10228835491E+02 -0.21958790494E+02  0.10856917819E+02  0.26546001959E+02  0.00000000000E+00 0.  1.
</event>
<event>
 7    1  0.1161807E-013  0.5052885E+02  0.7816164E-02  0.1300439E+00
        -11   -1    0    0    0    0  0.00000000000E+00  0.00000000000E+00  0.45593999997E+02  0.45594000000E+02  0.51100000000E-03 0. -1.
         11   -1    0    0    0    0 -0.00000000000E+00 -0.00000000000E+00 -0.45593999997E+02  0.45594000000E+02  0.51100000000E-03 0.  1.
    9900012    2    1    2    0    0 -0.29752048898E+02  0.31539999183E+01 -0.27532422317E+02  0.50528850872E+02  0.29999972711E+02 0.  0.
         12    1    1    2    0    0  0.29752048898E+02 -0.31539999183E+01  0.27532422317E+02  0.40659149128E+02  0.00000000000E+00 0. -1.
         11    1    3    3    0    0  0.44611425985E+01  0.20706991642E+01 -0.33629873921E+01  0.59581266161E+01  0.51100000000E-03 0. -1.
        -11    1    3    3    0    0 -0.19626439285E+01  0.36893567960E+01 -0.64370422543E+01  0.76745578376E+01  0.51100000000E-03 0.  1.
         12    1    3    3    0    0 -0.32250547568E+02 -0.26060560418E+01 -0.17732392671E+02  0.36896166419E+02  0.00000000000E+00 0. -1.
</event>
<event>
 7    1  0.1161807E-013  0.5052887E+02  0.7816164E-02  0.1300439E+00
        -11   -1    0    0    0    0  0.00000000000E+00  0.00000000000E+00  0.45593999997E+02  0.45594000000E+02  0.51100000000E-03 0. -1.
         11   -1    0    0    0    0 -0.00000000000E+00 -0.00000000000E+00 -0.45593999997E+02  0.45594000000E+02  0.51100000000E-03 0.  1.
    9900012    2    1    2    0    0 -0.61915216575E+01 -0.16398152227E+02  0.36686920882E+02  0.50528874324E+02  0.30000043996E+02 0.  0.
        -12    1    1    2    0    0  0.61915216575E+01  0.16398152227E+02 -0.36686920882E+02  0.40659125676E+02  0.00000000000E+00 0.  1.
         11    1    3    3    0    0 -0.28822162573E+01 -0.16275675096E+02  0.12946691191E+02  0.20995751557E+02  0.51100000000E-03 0. -1.
        -11    1    3    3    0    0 -0.54461425656E+01 -0.77327095165E+01  0.10669332372E+02  0.14257977376E+02  0.51100000000E-03 0.  1.
        -12    1    3    3    0    0  0.21368371654E+01  0.76102323848E+01  0.13070897319E+02  0.15275145392E+02  0.00000000000E+00 0.  1.
</event>
<event>
 7    1  0.1161807E-013  0.5052886E+02  0.7816164E-02  0.1300439E+00
        -11   -1    0    0    0    0  0.00000000000E+00  0.00000000000E+00  0.45593999997E+02  0.45594000000E+02  0.51100000000E-03 0. -1.
         11   -1    0    0    0    0 -0.00000000000E+00 -0.00000000000E+00 -0.45593999997E+02  0.45594000000E+02  0.51100000000E-03 0.  1.
    9900012    2    1    2    0    0  0.73181317086E+01  0.28470723959E+02 -0.28089651634E+02  0.50528859535E+02  0.29999999043E+02 0.  0.
         12    1    1    2    0    0 -0.73181317086E+01 -0.28470723959E+02  0.28089651634E+02  0.40659140465E+02  0.00000000000E+00 0. -1.
         11    1    3    3    0    0 -0.88692165887E-01 -0.42293162990E+01 -0.75956866019E+01  0.86942186465E+01  0.51100000000E-03 0. -1.
        -11    1    3    3    0    0  0.10491034440E+02  0.14528974119E+02 -0.11794554851E+02  0.21453773956E+02  0.51100000000E-03 0.  1.
        -12    1    3    3    0    0 -0.30842105656E+01  0.18171066139E+02 -0.86994101812E+01  0.20380866933E+02  0.00000000000E+00 0.  1.
</event>
<event>
 7    1  0.1161807E-013  0.5052885E+02  0.7816164E-02  0.1300439E+00
        -11   -1    0    0    0    0  0.00000000000E+00  0.00000000000E+00  0.45593999997E+02  0.45594000000E+02  0.51100000000E-03 0. -1.
         11   -1    0    0    0    0 -0.00000000000E+00 -0.00000000000E+00 -0.45593999997E+02  0.45594000000E+02  0.51100000000E-03 0.  1.
    9900012    2    1    2    0    0  0.96125208532E+01 -0.22508024517E+02  0.32467750596E+02  0.50528849079E+02  0.29999967261E+02 0.  0.
        -12    1    1    2    0    0 -0.96125208532E+01  0.22508024517E+02 -0.32467750596E+02  0.40659150921E+02  0.00000000000E+00 0.  1.
         11    1    3    3    0    0  0.17659677417E+02 -0.10522385517E+02  0.14616875549E+02  0.25223755757E+02  0.51100000000E-03 0. -1.
        -11    1    3    3    0    0  0.77967105281E+00 -0.46364134527E+01  0.83435900356E+00  0.47749734934E+01  0.51100000000E-03 0.  1.
         12    1    3    3    0    0 -0.88268276161E+01 -0.73492255471E+01  0.17016516044E+02  0.20530119829E+02  0.00000000000E+00 0. -1.
</event>
<event>
 7    1  0.1161807E-013  0.5052886E+02  0.7816164E-02  0.1300439E+00
        -11   -1    0    0    0    0  0.00000000000E+00  0.00000000000E+00  0.45593999997E+02  0.45594000000E+02  0.51100000000E-03 0. -1.
         11   -1    0    0    0    0 -0.00000000000E+00 -0.00000000000E+00 -0.45593999997E+02  0.45594000000E+02  0.51100000000E-03 0.  1.
    9900012    2    1    2    0    0  0.67158838702E+01 -0.49423738748E+00 -0.40097611030E+02  0.50528858628E+02  0.29999996287E+02 0.  0.
         12    1    1    2    0    0 -0.67158838702E+01  0.49423738748E+00  0.40097611030E+02  0.40659141372E+02  0.00000000000E+00 0. -1.
         11    1    3    3    0    0 -0.50271079668E+01 -0.88515263157E+01 -0.16196084443E+02  0.19129414109E+02  0.51100000000E-03 0. -1.
        -11    1    3    3    0    0  0.32538834036E+01 -0.37679757146E+01 -0.30843447819E+01  0.58564990553E+01  0.51100000000E-03 0.  1.
         12    1    3    3    0    0  0.84891084333E+01  0.12125264643E+02 -0.20817181805E+02  0.25542945464E+02  0.00000000000E+00 0. -1.
</event>
<event>
 7    1  0.1161807E-013  0.5052886E+02  0.7816164E-02  0.1300439E+00
        -11   -1    0    0    0    0  0.00000000000E+00  0.00000000000E+00  0.45593999997E+02  0.45594000000E+02  0.51100000000E-03 0. -1.
         11   -1    0    0    0    0 -0.00000000000E+00 -0.00000000000E+00 -0.45593999997E+02  0.45594000000E+02  0.51100000000E-03 0.  1.
    9900012    2    1    2    0    0 -0.72146463444E+01 -0.17500595707E+02 -0.35983933726E+02  0.50528862547E+02  0.30000008198E+02 0.  0.
         12    1    1    2    0    0  0.72146463444E+01  0.17500595707E+02  0.35983933726E+02  0.40659137453E+02  0.00000000000E+00 0. -1.
         11    1    3    3    0    0  0.34538161554E+01 -0.35739671014E+01  0.13948526327E+01  0.51621411260E+01  0.51100000000E-03 0. -1.
        -11    1    3    3    0    0 -0.18305562257E+01 -0.15279221381E+02 -0.16027602286E+02  0.22219126388E+02  0.51100000000E-03 0.  1.
         12    1    3    3    0    0 -0.88379062742E+01  0.13525927756E+01 -0.21351184073E+02  0.23147595034E+02  0.00000000000E+00 0. -1.
</event>
<event>
 7    1  0.1161807E-013  0.5052886E+02  0.7816164E-02  0.1300439E+00
        -11   -1    0    0    0    0  0.00000000000E+00  0.00000000000E+00  0.45593999997E+02  0.45594000000E+02  0.51100000000E-03 0. -1.
         11   -1    0    0    0    0 -0.00000000000E+00 -0.00000000000E+00 -0.45593999997E+02  0.45594000000E+02  0.51100000000E-03 0.  1.
    9900012    2    1    2    0    0 -0.68860558978E+01 -0.35144739305E+02 -0.19250856822E+02  0.50528856441E+02  0.29999989637E+02 0.  0.
         12    1    1    2    0    0  0.68860558978E+01  0.35144739305E+02  0.19250856822E+02  0.40659143559E+02  0.00000000000E+00 0. -1.
         11    1    3    3    0    0  0.54564160772E+00 -0.11326607851E+02 -0.43745568356E+01  0.12154279820E+02  0.51100000000E-03 0. -1.
        -11    1    3    3    0    0 -0.90712374723E+01 -0.24328049782E+02 -0.20126053398E+02  0.32851170164E+02  0.51100000000E-03 0.  1.
         12    1    3    3    0    0  0.16395399667E+01  0.50991832844E+00  0.52497534118E+01  0.55234064569E+01  0.00000000000E+00 0. -1.
</event>
<event>
 7    1  0.1161807E-013  0.5052887E+02  0.7816164E-02  0.1300439E+00
        -11   -1    0    0    0    0  0.00000000000E+00  0.00000000000E+00  0.45593999997E+02  0.45594000000E+02  0.51100000000E-03 0. -1.
         11   -1    0    0    0    0 -0.00000000000E+00 -0.00000000000E+00 -0.45593999997E+02  0.45594000000E+02  0.51100000000E-03 0.  1.
    9900012    2    1    2    0    0  0.18496885786E+02  0.33941991022E+01  0.36048710728E+02  0.50528869212E+02  0.30000028456E+02 0.  0.
        -12    1    1    2    0    0 -0.18496885786E+02 -0.33941991022E+01 -0.36048710728E+02  0.40659130788E+02  0.00000000000E+00 0.  1.
         11    1    3    3    0    0  0.89825233230E+01  0.90296820624E+01  0.34469183551E+01  0.13194776611E+02  0.51100000000E-03 0.  1.
        -11    1    3    3    0    0  0.10443203029E+02  0.16518682679E+01  0.22318857876E+02  0.24696570115E+02  0.51100000000E-03 0. -1.
        -12    1    3    3    0    0 -0.92884056643E+00 -0.72873512282E+01  0.10282934497E+02  0.12637522486E+02  0.00000000000E+00 0.  1.
</event>
<event>
 7    1  0.1161807E-013  0.5052886E+02  0.7816164E-02  0.1300439E+00
        -11   -1    0    0    0    0  0.00000000000E+00  0.00000000000E+00  0.45593999997E+02  0.45594000000E+02  0.51100000000E-03 0. -1.
         11   -1    0    0    0    0 -0.00000000000E+00 -0.00000000000E+00 -0.45593999997E+02  0.45594000000E+02  0.51100000000E-03 0.  1.
    9900012    2    1    2    0    0 -0.54526075707E+01  0.28844624803E+02 -0.28132232689E+02  0.50528858034E+02  0.29999994480E+02 0.  0.
         12    1    1    2    0    0  0.54526075707E+01 -0.28844624803E+02  0.28132232689E+02  0.40659141966E+02  0.00000000000E+00 0. -1.
         11    1    3    3    0    0  0.34815179633E+01  0.27044814190E+01 -0.12683594688E+02  0.13427909798E+02  0.51100000000E-03 0. -1.
        -11    1    3    3    0    0  0.27463137181E+01 -0.14012641792E+01 -0.40432064749E+01  0.50846139674E+01  0.51100000000E-03 0.  1.
         12    1    3    3    0    0 -0.11680439252E+02  0.27541407563E+02 -0.11405431525E+02  0.32016334268E+02  0.00000000000E+00 0. -1.
</event>
<event>
 7    1  0.1161807E-013  0.5052886E+02  0.7816164E-02  0.1300439E+00
        -11   -1    0    0    0    0  0.00000000000E+00  0.00000000000E+00  0.45593999997E+02  0.45594000000E+02  0.51100000000E-03 0. -1.
         11   -1    0    0    0    0 -0.00000000000E+00 -0.00000000000E+00 -0.45593999997E+02  0.45594000000E+02  0.51100000000E-03 0.  1.
    9900012    2    1    2    0    0  0.32085987340E+02 -0.18271018387E+02 -0.17024240711E+02  0.50528862426E+02  0.30000007830E+02 0.  0.
         12    1    1    2    0    0 -0.32085987340E+02  0.18271018387E+02  0.17024240711E+02  0.40659137574E+02  0.00000000000E+00 0. -1.
         11    1    3    3    0    0  0.10554608986E+02  0.18777266150E+01 -0.43255248688E+01  0.11560094885E+02  0.51100000000E-03 0. -1.
        -11    1    3    3    0    0  0.18406858127E+02 -0.26784696002E+01 -0.96718981278E+01  0.20965024187E+02  0.51100000000E-03 0.  1.
         12    1    3    3    0    0  0.31245202263E+01 -0.17470275402E+02 -0.30268177143E+01  0.18003743354E+02  0.00000000000E+00 0. -1.
</event>
<event>
 7    1  0.1161807E-013  0.5052887E+02  0.7816164E-02  0.1300439E+00
        -11   -1    0    0    0    0  0.00000000000E+00  0.00000000000E+00  0.45593999997E+02  0.45594000000E+02  0.51100000000E-03 0. -1.
         11   -1    0    0    0    0 -0.00000000000E+00 -0.00000000000E+00 -0.45593999997E+02  0.45594000000E+02  0.51100000000E-03 0.  1.
    9900012    2    1    2    0    0  0.31772103050E+02  0.15837956269E+02 -0.19820631046E+02  0.50528870569E+02  0.30000032583E+02 0.  0.
         12    1    1    2    0    0 -0.31772103050E+02 -0.15837956269E+02  0.19820631046E+02  0.40659129431E+02  0.00000000000E+00 0. -1.
         11    1    3    3    0    0  0.58635543852E+01 -0.42279974693E+01 -0.26846655711E-01  0.72289662908E+01  0.51100000000E-03 0. -1.
        -11    1    3    3    0    0  0.23502643764E+02  0.86325839053E+01 -0.19287047473E+02  0.31605157320E+02  0.51100000000E-03 0.  1.
         12    1    3    3    0    0  0.24059049013E+01  0.11433369833E+02 -0.50673691769E+00  0.11694746959E+02  0.00000000000E+00 0. -1.
</event>
<event>
 7    1  0.1161807E-013  0.5052886E+02  0.7816164E-02  0.1300439E+00
        -11   -1    0    0    0    0  0.00000000000E+00  0.00000000000E+00  0.45593999997E+02  0.45594000000E+02  0.51100000000E-03 0. -1.
         11   -1    0    0    0    0 -0.00000000000E+00 -0.00000000000E+00 -0.45593999997E+02  0.45594000000E+02  0.51100000000E-03 0.  1.
    9900012    2    1    2    0    0  0.95352742986E+00  0.98987913824E+01  0.39424234885E+02  0.50528861031E+02  0.30000003591E+02 0.  0.
        -12    1    1    2    0    0 -0.95352742986E+00 -0.98987913824E+01 -0.39424234885E+02  0.40659138969E+02  0.00000000000E+00 0.  1.
         11    1    3    3    0    0  0.23523522261E+01  0.16375874633E+01  0.23601959190E+02  0.23775359757E+02  0.51100000000E-03 0. -1.
        -11    1    3    3    0    0  0.58498018567E+01  0.11886439425E+02  0.11631445822E+02  0.17629468402E+02  0.51100000000E-03 0.  1.
         12    1    3    3    0    0 -0.72486266530E+01 -0.36252355060E+01  0.41908298729E+01  0.91240328722E+01  0.00000000000E+00 0. -1.
</event>
<event>
 7    1  0.1161807E-013  0.5052888E+02  0.7816164E-02  0.1300439E+00
        -11   -1    0    0    0    0  0.00000000000E+00  0.00000000000E+00  0.45593999997E+02  0.45594000000E+02  0.51100000000E-03 0.  1.
         11   -1    0    0    0    0 -0.00000000000E+00 -0.00000000000E+00 -0.45593999997E+02  0.45594000000E+02  0.51100000000E-03 0. -1.
    9900012    2    1    2    0    0 -0.37268609888E+02  0.48971731352E+01  0.15499426567E+02  0.50528882798E+02  0.30000069754E+02 0.  0.
        -12    1    1    2    0    0  0.37268609888E+02 -0.48971731352E+01 -0.15499426567E+02  0.40659117202E+02  0.00000000000E+00 0.  1.
         11    1    3    3    0    0 -0.57244365735E+01  0.15616818665E+01 -0.62249708985E+01  0.85999004229E+01  0.51100000000E-03 0. -1.
        -11    1    3    3    0    0 -0.17876613149E+00  0.26893084145E+01 -0.13215891133E+01  0.30018219673E+01  0.51100000000E-03 0.  1.
         12    1    3    3    0    0 -0.31365407183E+02  0.64618285422E+00  0.23045986578E+02  0.38927160408E+02  0.00000000000E+00 0. -1.
</event>
<event>
 7    1  0.1161807E-013  0.5052885E+02  0.7816164E-02  0.1300439E+00
        -11   -1    0    0    0    0  0.00000000000E+00  0.00000000000E+00  0.45593999997E+02  0.45594000000E+02  0.51100000000E-03 0. -1.
         11   -1    0    0    0    0 -0.00000000000E+00 -0.00000000000E+00 -0.45593999997E+02  0.45594000000E+02  0.51100000000E-03 0.  1.
    9900012    2    1    2    0    0  0.21299641584E+02 -0.27856925804E+02 -0.20578711358E+02  0.50528850869E+02  0.29999972703E+02 0.  0.
         12    1    1    2    0    0 -0.21299641584E+02  0.27856925804E+02  0.20578711358E+02  0.40659149131E+02  0.00000000000E+00 0. -1.
         11    1    3    3    0    0 -0.47653322522E+01 -0.65817285085E+00 -0.10125521459E+02  0.11210163606E+02  0.51100000000E-03 0. -1.
        -11    1    3    3    0    0  0.63982129871E+01 -0.77771794545E+01 -0.10619775295E+01  0.10126670046E+02  0.51100000000E-03 0.  1.
        -12    1    3    3    0    0  0.19666760849E+02 -0.19421573499E+02 -0.93912123695E+01  0.29192017217E+02  0.00000000000E+00 0.  1.
</event>
<event>
 7    1  0.1161807E-013  0.5052886E+02  0.7816164E-02  0.1300439E+00
        -11   -1    0    0    0    0  0.00000000000E+00  0.00000000000E+00  0.45593999997E+02  0.45594000000E+02  0.51100000000E-03 0. -1.
         11   -1    0    0    0    0 -0.00000000000E+00 -0.00000000000E+00 -0.45593999997E+02  0.45594000000E+02  0.51100000000E-03 0.  1.
    9900012    2    1    2    0    0 -0.27223063044E+01  0.23412724305E+02  0.33130035657E+02  0.50528857441E+02  0.29999992678E+02 0.  0.
        -12    1    1    2    0    0  0.27223063044E+01 -0.23412724305E+02 -0.33130035657E+02  0.40659142559E+02  0.00000000000E+00 0.  1.
         11    1    3    3    0    0 -0.53916399865E+01  0.11970652870E+02  0.21211638383E+02  0.24945939851E+02  0.51100000000E-03 0. -1.
        -11    1    3    3    0    0 -0.55472501176E+01  0.38588716151E+00  0.10310444595E+02  0.11714357036E+02  0.51100000000E-03 0.  1.
         12    1    3    3    0    0  0.82165837997E+01  0.11056184273E+02  0.16079526793E+01  0.13868560554E+02  0.00000000000E+00 0. -1.
</event>
<event>
 7    1  0.1161807E-013  0.5052887E+02  0.7816164E-02  0.1300439E+00
        -11   -1    0    0    0    0  0.00000000000E+00  0.00000000000E+00  0.45593999997E+02  0.45594000000E+02  0.51100000000E-03 0.  1.
         11   -1    0    0    0    0 -0.00000000000E+00 -0.00000000000E+00 -0.45593999997E+02  0.45594000000E+02  0.51100000000E-03 0. -1.
    9900012    2    1    2    0    0 -0.10632307897E+02 -0.34787367274E+02  0.18164733998E+02  0.50528874895E+02  0.30000045731E+02 0.  0.
         12    1    1    2    0    0  0.10632307897E+02  0.34787367274E+02 -0.18164733998E+02  0.40659125105E+02  0.00000000000E+00 0. -1.
         11    1    3    3    0    0 -0.74815517804E+01 -0.18712251166E+02  0.11092093616E+02  0.23003401961E+02  0.51100000000E-03 0. -1.
        -11    1    3    3    0    0 -0.93014681506E+01 -0.15910421202E+02  0.37926440029E+00  0.18433736852E+02  0.51100000000E-03 0.  1.
         12    1    3    3    0    0  0.61507120343E+01 -0.16469490530E+00  0.66933759816E+01  0.90917360813E+01  0.00000000000E+00 0. -1.
</event>
<event>
 7    1  0.1514527E-013  0.5052887E+02  0.7816164E-02  0.1300439E+00
        -11   -1    0    0    0    0  0.00000000000E+00  0.00000000000E+00  0.45593999997E+02  0.45594000000E+02  0.51100000000E-03 0. -1.
         11   -1    0    0    0    0 -0.00000000000E+00 -0.00000000000E+00 -0.45593999997E+02  0.45594000000E+02  0.51100000000E-03 0.  1.
    9900012    2    1    2    0    0  0.21762039878E+02  0.29357588538E+02 -0.17824432927E+02  0.50528870723E+02  0.30000033049E+02 0.  0.
         12    1    1    2    0    0 -0.21762039878E+02 -0.29357588538E+02  0.17824432927E+02  0.40659129277E+02  0.00000000000E+00 0. -1.
         11    1    3    3    0    0  0.66779507958E+01 -0.12089509086E+00  0.38499300777E+01  0.77091896020E+01  0.51100000000E-03 0. -1.
        -11    1    3    3    0    0  0.42128800786E+01  0.17879706569E+02 -0.35460462797E+01  0.18708466266E+02  0.51100000000E-03 0.  1.
        -12    1    3    3    0    0  0.10871209003E+02  0.11598777059E+02 -0.18128316725E+02  0.24111214854E+02  0.00000000000E+00 0.  1.
</event>
<event>
 7    1  0.1161807E-013  0.5052887E+02  0.7816164E-02  0.1300439E+00
        -11   -1    0    0    0    0  0.00000000000E+00  0.00000000000E+00  0.45593999997E+02  0.45594000000E+02  0.51100000000E-03 0. -1.
         11   -1    0    0    0    0 -0.00000000000E+00 -0.00000000000E+00 -0.45593999997E+02  0.45594000000E+02  0.51100000000E-03 0.  1.
    9900012    2    1    2    0    0 -0.24909678930E+02  0.43483513478E+00  0.32132278222E+02  0.50528874459E+02  0.30000044406E+02 0.  0.
        -12    1    1    2    0    0  0.24909678930E+02 -0.43483513478E+00 -0.32132278222E+02  0.40659125541E+02  0.00000000000E+00 0.  1.
         11    1    3    3    0    0 -0.32275891873E+01  0.47075998839E+01  0.81768385364E+01  0.99719364889E+01  0.51100000000E-03 0. -1.
        -11    1    3    3    0    0 -0.10614455544E+02 -0.41126824347E-01  0.26403901265E+02  0.28457588798E+02  0.51100000000E-03 0.  1.
        -12    1    3    3    0    0 -0.11067634199E+02 -0.42316379247E+01 -0.24484615790E+01  0.12099349172E+02  0.00000000000E+00 0.  1.
</event>
<event>
 7    1  0.1161807E-013  0.5052883E+02  0.7816164E-02  0.1300439E+00
        -11   -1    0    0    0    0  0.00000000000E+00  0.00000000000E+00  0.45593999997E+02  0.45594000000E+02  0.51100000000E-03 0. -1.
         11   -1    0    0    0    0 -0.00000000000E+00 -0.00000000000E+00 -0.45593999997E+02  0.45594000000E+02  0.51100000000E-03 0.  1.
    9900012    2    1    2    0    0 -0.12319143979E+02  0.54774061329E+01 -0.38358890076E+02  0.50528834561E+02  0.29999923132E+02 0.  0.
         12    1    1    2    0    0  0.12319143979E+02 -0.54774061329E+01  0.38358890076E+02  0.40659165439E+02  0.00000000000E+00 0. -1.
         11    1    3    3    0    0 -0.28515058540E+01 -0.45632333615E+01 -0.13478349431E+02  0.14512756044E+02  0.51100000000E-03 0. -1.
        -11    1    3    3    0    0  0.26484589845E+01  0.10470403636E+01 -0.19934510114E+02  0.20136914417E+02  0.51100000000E-03 0.  1.
         12    1    3    3    0    0 -0.12116097110E+02  0.89935991308E+01 -0.49460305310E+01  0.15879164100E+02  0.00000000000E+00 0. -1.
</event>
<event>
 7    1  0.1247277E-013  0.5052886E+02  0.7816164E-02  0.1300439E+00
        -11   -1    0    0    0    0  0.00000000000E+00  0.00000000000E+00  0.45593999997E+02  0.45594000000E+02  0.51100000000E-03 0.  1.
         11   -1    0    0    0    0 -0.00000000000E+00 -0.00000000000E+00 -0.45593999997E+02  0.45594000000E+02  0.51100000000E-03 0. -1.
    9900012    2    1    2    0    0  0.18643368345E+02  0.30795507387E+02 -0.18900455443E+02  0.50528859891E+02  0.30000000124E+02 0.  0.
         12    1    1    2    0    0 -0.18643368345E+02 -0.30795507387E+02  0.18900455443E+02  0.40659140109E+02  0.00000000000E+00 0. -1.
         11    1    3    3    0    0 -0.32959623613E+01  0.54526379003E+01  0.70072442442E+00  0.64098083387E+01  0.51100000000E-03 0. -1.
        -11    1    3    3    0    0 -0.27893808765E+01 -0.10601890684E+01 -0.19267705594E-01  0.29841276850E+01  0.51100000000E-03 0.  1.
        -12    1    3    3    0    0  0.24728711583E+02  0.26403058555E+02 -0.19581912162E+02  0.41134923867E+02  0.00000000000E+00 0.  1.
</event>
<event>
 7    1  0.1161807E-013  0.5052886E+02  0.7816164E-02  0.1300439E+00
        -11   -1    0    0    0    0  0.00000000000E+00  0.00000000000E+00  0.45593999997E+02  0.45594000000E+02  0.51100000000E-03 0. -1.
         11   -1    0    0    0    0 -0.00000000000E+00 -0.00000000000E+00 -0.45593999997E+02  0.45594000000E+02  0.51100000000E-03 0.  1.
    9900012    2    1    2    0    0  0.74323437358E+01  0.20762026813E+02  0.34159399266E+02  0.50528855284E+02  0.29999986121E+02 0.  0.
        -12    1    1    2    0    0 -0.74323437358E+01 -0.20762026813E+02 -0.34159399266E+02  0.40659144716E+02  0.00000000000E+00 0.  1.
         11    1    3    3    0    0 -0.33003855476E+01  0.73604233980E+01  0.13457316535E+02  0.15689733776E+02  0.51100000000E-03 0. -1.
        -11    1    3    3    0    0 -0.45857751287E+01 -0.18728665089E+01  0.89276750676E+01  0.10209816103E+02  0.51100000000E-03 0.  1.
         12    1    3    3    0    0  0.15318504412E+02  0.15274469924E+02  0.11774407664E+02  0.24629305405E+02  0.00000000000E+00 0. -1.
</event>
<event>
 7    1  0.1161807E-013  0.5052886E+02  0.7816164E-02  0.1300439E+00
        -11   -1    0    0    0    0  0.00000000000E+00  0.00000000000E+00  0.45593999997E+02  0.45594000000E+02  0.51100000000E-03 0. -1.
         11   -1    0    0    0    0 -0.00000000000E+00 -0.00000000000E+00 -0.45593999997E+02  0.45594000000E+02  0.51100000000E-03 0.  1.
    9900012    2    1    2    0    0  0.13255346872E+02  0.35698846222E+02 -0.14249682514E+02  0.50528864568E+02  0.30000014342E+02 0.  0.
         12    1    1    2    0    0 -0.13255346872E+02 -0.35698846222E+02  0.14249682514E+02  0.40659135432E+02  0.00000000000E+00 0. -1.
         11    1    3    3    0    0 -0.33356311764E+01  0.10715772265E+02 -0.62858648137E+01  0.12863370759E+02  0.51100000000E-03 0. -1.
        -11    1    3    3    0    0  0.11606240291E+02  0.76648765935E+00 -0.53515918170E+01  0.12803587476E+02  0.51100000000E-03 0.  1.
         12    1    3    3    0    0  0.49847377577E+01  0.24216586298E+02 -0.26122258831E+01  0.24861906333E+02  0.00000000000E+00 0. -1.
</event>
<event>
 7    1  0.1161807E-013  0.5052886E+02  0.7816164E-02  0.1300439E+00
        -11   -1    0    0    0    0  0.00000000000E+00  0.00000000000E+00  0.45593999997E+02  0.45594000000E+02  0.51100000000E-03 0. -1.
         11   -1    0    0    0    0 -0.00000000000E+00 -0.00000000000E+00 -0.45593999997E+02  0.45594000000E+02  0.51100000000E-03 0.  1.
    9900012    2    1    2    0    0  0.11066975930E+02  0.13451803357E+02  0.36738762642E+02  0.50528860188E+02  0.30000001026E+02 0.  0.
        -12    1    1    2    0    0 -0.11066975930E+02 -0.13451803357E+02 -0.36738762642E+02  0.40659139812E+02  0.00000000000E+00 0.  1.
         11    1    3    3    0    0  0.32410673627E+01 -0.28622467704E+01  0.16200290048E+02  0.16767419961E+02  0.51100000000E-03 0. -1.
        -11    1    3    3    0    0 -0.47219349747E+01 -0.24337899705E+00  0.26801747291E+00  0.47357931615E+01  0.51100000000E-03 0.  1.
         12    1    3    3    0    0  0.12547843542E+02  0.16557429124E+02  0.20270455121E+02  0.29025647066E+02  0.00000000000E+00 0. -1.
</event>
<event>
 7    1  0.1161807E-013  0.5052884E+02  0.7816164E-02  0.1300439E+00
        -11   -1    0    0    0    0  0.00000000000E+00  0.00000000000E+00  0.45593999997E+02  0.45594000000E+02  0.51100000000E-03 0. -1.
         11   -1    0    0    0    0 -0.00000000000E+00 -0.00000000000E+00 -0.45593999997E+02  0.45594000000E+02  0.51100000000E-03 0.  1.
    9900012    2    1    2    0    0  0.18922824521E+02  0.70760406573E+01 -0.35284888175E+02  0.50528843925E+02  0.29999951593E+02 0.  0.
         12    1    1    2    0    0 -0.18922824521E+02 -0.70760406573E+01  0.35284888175E+02  0.40659156075E+02  0.00000000000E+00 0. -1.
         11    1    3    3    0    0 -0.41227369644E+01  0.21240241939E+00 -0.39027716320E+01  0.56809947666E+01  0.51100000000E-03 0. -1.
        -11    1    3    3    0    0  0.26775592545E+00  0.87396835421E+01 -0.12200815912E+02  0.15010452053E+02  0.51100000000E-03 0.  1.
        -12    1    3    3    0    0  0.22777805560E+02 -0.18760453042E+01 -0.19181300631E+02  0.29837397105E+02  0.00000000000E+00 0.  1.
</event>
<event>
 7    1  0.1161807E-013  0.5052887E+02  0.7816164E-02  0.1300439E+00
        -11   -1    0    0    0    0  0.00000000000E+00  0.00000000000E+00  0.45593999997E+02  0.45594000000E+02  0.51100000000E-03 0. -1.
         11   -1    0    0    0    0 -0.00000000000E+00 -0.00000000000E+00 -0.45593999997E+02  0.45594000000E+02  0.51100000000E-03 0.  1.
    9900012    2    1    2    0    0 -0.20602328316E+02 -0.71542308248E+01 -0.34315096951E+02  0.50528870281E+02  0.30000031705E+02 0.  0.
         12    1    1    2    0    0  0.20602328316E+02  0.71542308248E+01  0.34315096951E+02  0.40659129719E+02  0.00000000000E+00 0. -1.
         11    1    3    3    0    0 -0.88703110632E+01  0.32444347119E+01 -0.43522952921E+01  0.10399579296E+02  0.51100000000E-03 0. -1.
        -11    1    3    3    0    0 -0.15177926250E+02 -0.10200095671E+02 -0.31442672970E+02  0.36373796623E+02  0.51100000000E-03 0.  1.
         12    1    3    3    0    0  0.34459089972E+01 -0.19856986570E+00  0.14798713112E+01  0.37554943624E+01  0.00000000000E+00 0. -1.
</event>
<event>
 7    1  0.1161807E-013  0.5052886E+02  0.7816164E-02  0.1300439E+00
        -11   -1    0    0    0    0  0.00000000000E+00  0.00000000000E+00  0.45593999997E+02  0.45594000000E+02  0.51100000000E-03 0. -1.
         11   -1    0    0    0    0 -0.00000000000E+00 -0.00000000000E+00 -0.45593999997E+02  0.45594000000E+02  0.51100000000E-03 0.  1.
    9900012    2    1    2    0    0 -0.15927960995E+02 -0.30276505220E+01  0.37286714880E+02  0.50528859383E+02  0.29999998582E+02 0.  0.
        -12    1    1    2    0    0  0.15927960995E+02  0.30276505220E+01 -0.37286714880E+02  0.40659140617E+02  0.00000000000E+00 0.  1.
         11    1    3    3    0    0 -0.71608041440E+00  0.38693134559E+01 -0.49218772647E-01  0.39353247043E+01  0.51100000000E-03 0. -1.
        -11    1    3    3    0    0 -0.18799786840E+01  0.13152033421E+01 -0.27361821882E+01  0.35708224419E+01  0.51100000000E-03 0.  1.
        -12    1    3    3    0    0 -0.13331901896E+02 -0.82121673200E+01  0.40072115841E+02  0.43022712237E+02  0.00000000000E+00 0.  1.
</event>
<event>
 7    1  0.1161807E-013  0.5052886E+02  0.7816164E-02  0.1300439E+00
        -11   -1    0    0    0    0  0.00000000000E+00  0.00000000000E+00  0.45593999997E+02  0.45594000000E+02  0.51100000000E-03 0. -1.
         11   -1    0    0    0    0 -0.00000000000E+00 -0.00000000000E+00 -0.45593999997E+02  0.45594000000E+02  0.51100000000E-03 0.  1.
    9900012    2    1    2    0    0  0.16140473325E+02  0.17188129174E+02 -0.33124294924E+02  0.50528861078E+02  0.30000003732E+02 0.  0.
         12    1    1    2    0    0 -0.16140473325E+02 -0.17188129174E+02  0.33124294924E+02  0.40659138922E+02  0.00000000000E+00 0. -1.
         11    1    3    3    0    0  0.86189302250E+01 -0.42246960425E+01 -0.10565082137E+02  0.14274276714E+02  0.51100000000E-03 0.  1.
        -11    1    3    3    0    0  0.24629768819E+01 -0.79296851645E+00  0.16084935940E+01  0.30466877247E+01  0.51100000000E-03 0. -1.
        -12    1    3    3    0    0  0.50585662184E+01  0.22205793733E+02 -0.24167706381E+02  0.33207896640E+02  0.00000000000E+00 0.  1.
</event>
<event>
 7    1  0.1161807E-013  0.5052886E+02  0.7816164E-02  0.1300439E+00
        -11   -1    0    0    0    0  0.00000000000E+00  0.00000000000E+00  0.45593999997E+02  0.45594000000E+02  0.51100000000E-03 0.  1.
         11   -1    0    0    0    0 -0.00000000000E+00 -0.00000000000E+00 -0.45593999997E+02  0.45594000000E+02  0.51100000000E-03 0. -1.
    9900012    2    1    2    0    0 -0.31109746963E+02 -0.25091568457E+02 -0.74674260843E+01  0.50528860609E+02  0.30000002306E+02 0.  0.
         12    1    1    2    0    0  0.31109746963E+02  0.25091568457E+02  0.74674260843E+01  0.40659139391E+02  0.00000000000E+00 0. -1.
         11    1    3    3    0    0 -0.75910267305E+01 -0.67873793077E+01 -0.27127623290E+01  0.10538087322E+02  0.51100000000E-03 0. -1.
        -11    1    3    3    0    0 -0.22440879650E+02 -0.17501985037E+02  0.60566284397E+01  0.29096310901E+02  0.51100000000E-03 0.  1.
         12    1    3    3    0    0 -0.10778405822E+01 -0.80220411225E+00 -0.10811292195E+02  0.10894462386E+02  0.00000000000E+00 0. -1.
</event>
<event>
 7    1  0.1161807E-013  0.5052886E+02  0.7816164E-02  0.1300439E+00
        -11   -1    0    0    0    0  0.00000000000E+00  0.00000000000E+00  0.45593999997E+02  0.45594000000E+02  0.51100000000E-03 0. -1.
         11   -1    0    0    0    0 -0.00000000000E+00 -0.00000000000E+00 -0.45593999997E+02  0.45594000000E+02  0.51100000000E-03 0.  1.
    9900012    2    1    2    0    0  0.19252104483E+02  0.13055957027E+02 -0.33347628019E+02  0.50528857911E+02  0.29999994107E+02 0.  0.
         12    1    1    2    0    0 -0.19252104483E+02 -0.13055957027E+02  0.33347628019E+02  0.40659142089E+02  0.00000000000E+00 0. -1.
         11    1    3    3    0    0  0.34216272701E+01  0.40921025544E+01 -0.17375974102E+02  0.18176284349E+02  0.51100000000E-03 0. -1.
        -11    1    3    3    0    0  0.20584528546E+02  0.38256486210E+01 -0.10248994325E+02  0.23310947809E+02  0.51100000000E-03 0.  1.
         12    1    3    3    0    0 -0.47540513329E+01  0.51382058521E+01 -0.57226595918E+01  0.90416257530E+01  0.00000000000E+00 0. -1.
</event>
<event>
 7    1  0.1161807E-013  0.5052887E+02  0.7816164E-02  0.1300439E+00
        -11   -1    0    0    0    0  0.00000000000E+00  0.00000000000E+00  0.45593999997E+02  0.45594000000E+02  0.51100000000E-03 0. -1.
         11   -1    0    0    0    0 -0.00000000000E+00 -0.00000000000E+00 -0.45593999997E+02  0.45594000000E+02  0.51100000000E-03 0.  1.
    9900012    2    1    2    0    0  0.38825090332E+02  0.63490588293E+00  0.12057115696E+02  0.50528870845E+02  0.30000033420E+02 0.  0.
        -12    1    1    2    0    0 -0.38825090332E+02 -0.63490588293E+00 -0.12057115696E+02  0.40659129155E+02  0.00000000000E+00 0.  1.
         11    1    3    3    0    0  0.82614687482E+01 -0.14732031744E+01  0.56191616400E+01  0.10099364894E+02  0.51100000000E-03 0. -1.
        -11    1    3    3    0    0  0.70124238758E+01 -0.85006338401E+01  0.93284722450E+01  0.14437979740E+02  0.51100000000E-03 0.  1.
        -12    1    3    3    0    0  0.23551197708E+02  0.10608742897E+02 -0.28905181886E+01  0.25991526210E+02  0.00000000000E+00 0.  1.
</event>
<event>
 7    1  0.1161807E-013  0.5052886E+02  0.7816164E-02  0.1300439E+00
        -11   -1    0    0    0    0  0.00000000000E+00  0.00000000000E+00  0.45593999997E+02  0.45594000000E+02  0.51100000000E-03 0. -1.
         11   -1    0    0    0    0 -0.00000000000E+00 -0.00000000000E+00 -0.45593999997E+02  0.45594000000E+02  0.51100000000E-03 0.  1.
    9900012    2    1    2    0    0  0.13715314156E+02  0.15755901477E+01  0.38243610266E+02  0.50528855236E+02  0.29999985977E+02 0.  0.
        -12    1    1    2    0    0 -0.13715314156E+02 -0.15755901477E+01 -0.38243610266E+02  0.40659144764E+02  0.00000000000E+00 0.  1.
         11    1    3    3    0    0 -0.24929286245E+01  0.50066357068E+01  0.13206104608E+02  0.14341627990E+02  0.51100000000E-03 0. -1.
        -11    1    3    3    0    0 -0.32880163939E+01 -0.50114869056E+01  0.93827217738E+01  0.11133800832E+02  0.51100000000E-03 0.  1.
        -12    1    3    3    0    0  0.19496259175E+02  0.15804413465E+01  0.15654783884E+02  0.25053426415E+02  0.00000000000E+00 0.  1.
</event>
<event>
 7    1  0.1161807E-013  0.5052887E+02  0.7816164E-02  0.1300439E+00
        -11   -1    0    0    0    0  0.00000000000E+00  0.00000000000E+00  0.45593999997E+02  0.45594000000E+02  0.51100000000E-03 0. -1.
         11   -1    0    0    0    0 -0.00000000000E+00 -0.00000000000E+00 -0.45593999997E+02  0.45594000000E+02  0.51100000000E-03 0.  1.
    9900012    2    1    2    0    0  0.10730180856E+02  0.24966059959E+02  0.30244407165E+02  0.50528867006E+02  0.30000021751E+02 0.  0.
        -12    1    1    2    0    0 -0.10730180856E+02 -0.24966059959E+02 -0.30244407165E+02  0.40659132994E+02  0.00000000000E+00 0.  1.
         11    1    3    3    0    0  0.55540358062E+01  0.71529908594E+01  0.44677113957E+01  0.10098170000E+02  0.51100000000E-03 0. -1.
        -11    1    3    3    0    0  0.12702961779E+02  0.76083605690E+01  0.41787365871E+01  0.15385520083E+02  0.51100000000E-03 0.  1.
         12    1    3    3    0    0 -0.75268167288E+01  0.10204708530E+02  0.21597959182E+02  0.25045176923E+02  0.00000000000E+00 0. -1.
</event>
<event>
 7    1  0.1161807E-013  0.5052887E+02  0.7816164E-02  0.1300439E+00
        -11   -1    0    0    0    0  0.00000000000E+00  0.00000000000E+00  0.45593999997E+02  0.45594000000E+02  0.51100000000E-03 0. -1.
         11   -1    0    0    0    0 -0.00000000000E+00 -0.00000000000E+00 -0.45593999997E+02  0.45594000000E+02  0.51100000000E-03 0.  1.
    9900012    2    1    2    0    0 -0.13380041051E+02 -0.97734050215E+01  0.37129775495E+02  0.50528866063E+02  0.30000018885E+02 0.  0.
        -12    1    1    2    0    0  0.13380041051E+02  0.97734050215E+01 -0.37129775495E+02  0.40659133937E+02  0.00000000000E+00 0.  1.
         11    1    3    3    0    0 -0.75720564099E+01  0.51893816181E+01  0.12045600450E+02  0.15144708988E+02  0.51100000000E-03 0. -1.
        -11    1    3    3    0    0 -0.78502874606E+00  0.33442404826E+01  0.11602684370E+02  0.12100516493E+02  0.51100000000E-03 0.  1.
        -12    1    3    3    0    0 -0.50229558952E+01 -0.18307027122E+02  0.13481490674E+02  0.23283640582E+02  0.00000000000E+00 0.  1.
</event>
<event>
 7    1  0.1161807E-013  0.5052886E+02  0.7816164E-02  0.1300439E+00
        -11   -1    0    0    0    0  0.00000000000E+00  0.00000000000E+00  0.45593999997E+02  0.45594000000E+02  0.51100000000E-03 0. -1.
         11   -1    0    0    0    0 -0.00000000000E+00 -0.00000000000E+00 -0.45593999997E+02  0.45594000000E+02  0.51100000000E-03 0.  1.
    9900012    2    1    2    0    0 -0.21425599915E+02 -0.18036908447E+02 -0.29475057594E+02  0.50528863042E+02  0.30000009702E+02 0.  0.
         12    1    1    2    0    0  0.21425599915E+02  0.18036908447E+02  0.29475057594E+02  0.40659136958E+02  0.00000000000E+00 0. -1.
         11    1    3    3    0    0 -0.13714784249E+02 -0.22684314302E+02 -0.29945479403E+02  0.39992563800E+02  0.51100000000E-03 0. -1.
        -11    1    3    3    0    0  0.43393768218E+00 -0.63090924911E+00  0.31913182667E+00  0.82957445509E+00  0.51100000000E-03 0.  1.
         12    1    3    3    0    0 -0.81447533476E+01  0.52783151046E+01  0.15128998203E+00  0.97067247873E+01  0.00000000000E+00 0. -1.
</event>
<event>
 7    1  0.1161807E-013  0.5052886E+02  0.7816164E-02  0.1300439E+00
        -11   -1    0    0    0    0  0.00000000000E+00  0.00000000000E+00  0.45593999997E+02  0.45594000000E+02  0.51100000000E-03 0. -1.
         11   -1    0    0    0    0 -0.00000000000E+00 -0.00000000000E+00 -0.45593999997E+02  0.45594000000E+02  0.51100000000E-03 0.  1.
    9900012    2    1    2    0    0 -0.49840226626E+01 -0.43437624730E+01  0.40118033435E+02  0.50528863745E+02  0.30000011839E+02 0.  0.
        -12    1    1    2    0    0  0.49840226626E+01  0.43437624730E+01 -0.40118033435E+02  0.40659136255E+02  0.00000000000E+00 0.  1.
         11    1    3    3    0    0 -0.11072829067E+02 -0.49801960677E+01  0.76751696852E+01  0.14363778276E+02  0.51100000000E-03 0. -1.
        -11    1    3    3    0    0  0.35794274022E+01  0.18100671879E+01  0.43164939331E+00  0.40342242392E+01  0.51100000000E-03 0.  1.
         12    1    3    3    0    0  0.25093790018E+01 -0.11736335931E+01  0.32011214356E+02  0.32130861230E+02  0.00000000000E+00 0. -1.
</event>
<event>
 7    1  0.1161807E-013  0.5052889E+02  0.7816164E-02  0.1300439E+00
        -11   -1    0    0    0    0  0.00000000000E+00  0.00000000000E+00  0.45593999997E+02  0.45594000000E+02  0.51100000000E-03 0.  1.
         11   -1    0    0    0    0 -0.00000000000E+00 -0.00000000000E+00 -0.45593999997E+02  0.45594000000E+02  0.51100000000E-03 0. -1.
    9900012    2    1    2    0    0  0.18783266778E+02 -0.26245813468E+02 -0.24728715764E+02  0.50528890088E+02  0.30000091912E+02 0.  0.
         12    1    1    2    0    0 -0.18783266778E+02  0.26245813468E+02  0.24728715764E+02  0.40659109912E+02  0.00000000000E+00 0. -1.
         11    1    3    3    0    0  0.58571227660E+01  0.51742959546E+01 -0.80343853499E+01  0.11208504536E+02  0.51100000000E-03 0. -1.
        -11    1    3    3    0    0  0.21081128436E+01 -0.19911697791E+01  0.12907240821E+01  0.31740929047E+01  0.51100000000E-03 0.  1.
         12    1    3    3    0    0  0.10818031168E+02 -0.29428939644E+02 -0.17985054496E+02  0.36146292648E+02  0.00000000000E+00 0. -1.
</event>
<event>
 7    1  0.1161807E-013  0.5052885E+02  0.7816164E-02  0.1300439E+00
        -11   -1    0    0    0    0  0.00000000000E+00  0.00000000000E+00  0.45593999997E+02  0.45594000000E+02  0.51100000000E-03 0. -1.
         11   -1    0    0    0    0 -0.00000000000E+00 -0.00000000000E+00 -0.45593999997E+02  0.45594000000E+02  0.51100000000E-03 0.  1.
    9900012    2    1    2    0    0  0.33641821451E+01 -0.17055140135E+02  0.36755558992E+02  0.50528847975E+02  0.29999963906E+02 0.  0.
        -12    1    1    2    0    0 -0.33641821451E+01  0.17055140135E+02 -0.36755558992E+02  0.40659152025E+02  0.00000000000E+00 0.  1.
         11    1    3    3    0    0  0.22419834560E+01  0.37971286891E+01  0.10563597278E+02  0.11447019866E+02  0.51100000000E-03 0. -1.
        -11    1    3    3    0    0 -0.30002522625E+01  0.40383483962E+00  0.13812886526E+02  0.14140736567E+02  0.51100000000E-03 0.  1.
        -12    1    3    3    0    0  0.41224509515E+01 -0.21256103664E+02  0.12379075188E+02  0.24941091543E+02  0.00000000000E+00 0.  1.
</event>
<event>
 7    1  0.1161807E-013  0.5052885E+02  0.7816164E-02  0.1300439E+00
        -11   -1    0    0    0    0  0.00000000000E+00  0.00000000000E+00  0.45593999997E+02  0.45594000000E+02  0.51100000000E-03 0. -1.
         11   -1    0    0    0    0 -0.00000000000E+00 -0.00000000000E+00 -0.45593999997E+02  0.45594000000E+02  0.51100000000E-03 0.  1.
    9900012    2    1    2    0    0 -0.64629368603E+01 -0.27567932741E+02  0.29178869281E+02  0.50528845053E+02  0.29999955023E+02 0.  0.
        -12    1    1    2    0    0  0.64629368603E+01  0.27567932741E+02 -0.29178869281E+02  0.40659154947E+02  0.00000000000E+00 0.  1.
         11    1    3    3    0    0 -0.11326345968E+01 -0.95916727304E+01 -0.61454154182E+00  0.96778462720E+01  0.51100000000E-03 0. -1.
        -11    1    3    3    0    0  0.26423582401E+01 -0.19002371295E+02  0.16443457758E+02  0.25267755642E+02  0.51100000000E-03 0.  1.
        -12    1    3    3    0    0 -0.79726605036E+01  0.10261112841E+01  0.13349953065E+02  0.15583243138E+02  0.00000000000E+00 0.  1.
</event>
<event>
 7    1  0.1161807E-013  0.5052886E+02  0.7816164E-02  0.1300439E+00
        -11   -1    0    0    0    0  0.00000000000E+00  0.00000000000E+00  0.45593999997E+02  0.45594000000E+02  0.51100000000E-03 0. -1.
         11   -1    0    0    0    0 -0.00000000000E+00 -0.00000000000E+00 -0.45593999997E+02  0.45594000000E+02  0.51100000000E-03 0.  1.
    9900012    2    1    2    0    0  0.34344143931E+02  0.95407474079E+00 -0.21742477951E+02  0.50528857997E+02  0.29999994367E+02 0.  0.
         12    1    1    2    0    0 -0.34344143931E+02 -0.95407474079E+00  0.21742477951E+02  0.40659142003E+02  0.00000000000E+00 0. -1.
         11    1    3    3    0    0  0.13754165862E+02 -0.94607514300E+01 -0.12136957140E+02  0.20639491880E+02  0.51100000000E-03 0. -1.
        -11    1    3    3    0    0  0.11902261614E+02 -0.10518066906E+01 -0.98743620744E+01  0.15500746933E+02  0.51100000000E-03 0.  1.
        -12    1    3    3    0    0  0.86877164547E+01  0.11466632861E+02  0.26884126322E+00  0.14388619183E+02  0.00000000000E+00 0.  1.
</event>
<event>
 7    1  0.1161807E-013  0.5052886E+02  0.7816164E-02  0.1300439E+00
        -11   -1    0    0    0    0  0.00000000000E+00  0.00000000000E+00  0.45593999997E+02  0.45594000000E+02  0.51100000000E-03 0. -1.
         11   -1    0    0    0    0 -0.00000000000E+00 -0.00000000000E+00 -0.45593999997E+02  0.45594000000E+02  0.51100000000E-03 0.  1.
    9900012    2    1    2    0    0  0.34334753851E+02 -0.14954730138E+02 -0.15831821384E+02  0.50528857807E+02  0.29999993789E+02 0.  0.
         12    1    1    2    0    0 -0.34334753851E+02  0.14954730138E+02  0.15831821384E+02  0.40659142193E+02  0.00000000000E+00 0. -1.
         11    1    3    3    0    0  0.16746411203E+00  0.27453286184E+00 -0.20397200279E+01  0.20649141809E+01  0.51100000000E-03 0.  1.
        -11    1    3    3    0    0  0.13421683908E+02 -0.15593406786E+02 -0.17948618201E+02  0.27302908814E+02  0.51100000000E-03 0. -1.
         12    1    3    3    0    0  0.20745605831E+02  0.36414378658E+00  0.41565168447E+01  0.21161034811E+02  0.00000000000E+00 0. -1.
</event>
<event>
 7    1  0.1161807E-013  0.5052886E+02  0.7816164E-02  0.1300439E+00
        -11   -1    0    0    0    0  0.00000000000E+00  0.00000000000E+00  0.45593999997E+02  0.45594000000E+02  0.51100000000E-03 0.  1.
         11   -1    0    0    0    0 -0.00000000000E+00 -0.00000000000E+00 -0.45593999997E+02  0.45594000000E+02  0.51100000000E-03 0. -1.
    9900012    2    1    2    0    0  0.17832499310E+02  0.36237778524E+02 -0.46894857934E+01  0.50528857104E+02  0.29999991654E+02 0.  0.
         12    1    1    2    0    0 -0.17832499310E+02 -0.36237778524E+02  0.46894857934E+01  0.40659142896E+02  0.00000000000E+00 0. -1.
         11    1    3    3    0    0 -0.12114124116E+01 -0.53568324053E+00 -0.17289462668E+01  0.21780110238E+01  0.51100000000E-03 0. -1.
        -11    1    3    3    0    0 -0.32642350417E+01  0.65987989233E+01  0.63111375479E+01  0.96968982178E+01  0.51100000000E-03 0.  1.
        -12    1    3    3    0    0  0.22308146763E+02  0.30174662842E+02 -0.92716770744E+01  0.38653947863E+02  0.00000000000E+00 0.  1.
</event>
<event>
 7    1  0.1161807E-013  0.5052887E+02  0.7816164E-02  0.1300439E+00
        -11   -1    0    0    0    0  0.00000000000E+00  0.00000000000E+00  0.45593999997E+02  0.45594000000E+02  0.51100000000E-03 0. -1.
         11   -1    0    0    0    0 -0.00000000000E+00 -0.00000000000E+00 -0.45593999997E+02  0.45594000000E+02  0.51100000000E-03 0.  1.
    9900012    2    1    2    0    0 -0.16637130376E+02  0.22049149544E+02 -0.29836313626E+02  0.50528871707E+02  0.30000036040E+02 0.  0.
         12    1    1    2    0    0  0.16637130376E+02 -0.22049149544E+02  0.29836313626E+02  0.40659128293E+02  0.00000000000E+00 0. -1.
         11    1    3    3    0    0 -0.48925270994E+01  0.39016151135E+01 -0.25076345978E+02  0.25845358379E+02  0.51100000000E-03 0. -1.
        -11    1    3    3    0    0 -0.51500553617E+01  0.66943099851E+00  0.65303544474E+00  0.52342777576E+01  0.51100000000E-03 0.  1.
        -12    1    3    3    0    0 -0.65945479146E+01  0.17478103432E+02 -0.54130030937E+01  0.19449235570E+02  0.00000000000E+00 0.  1.
</event>
<event>
 7    1  0.1161807E-013  0.5052889E+02  0.7816164E-02  0.1300439E+00
        -11   -1    0    0    0    0  0.00000000000E+00  0.00000000000E+00  0.45593999997E+02  0.45594000000E+02  0.51100000000E-03 0. -1.
         11   -1    0    0    0    0 -0.00000000000E+00 -0.00000000000E+00 -0.45593999997E+02  0.45594000000E+02  0.51100000000E-03 0.  1.
    9900012    2    1    2    0    0  0.19132543338E+02 -0.15116974343E+02 -0.32535919319E+02  0.50528890642E+02  0.30000093595E+02 0.  0.
         12    1    1    2    0    0 -0.19132543338E+02  0.15116974343E+02  0.32535919319E+02  0.40659109358E+02  0.00000000000E+00 0. -1.
         11    1    3    3    0    0  0.15121605104E+02 -0.60019602478E+01 -0.32815484535E+00  0.16272496846E+02  0.51100000000E-03 0. -1.
        -11    1    3    3    0    0  0.16216359546E+01 -0.33521988414E+01 -0.44324054214E+01  0.57890550458E+01  0.51100000000E-03 0.  1.
        -12    1    3    3    0    0  0.23893022795E+01 -0.57628152540E+01 -0.27775359052E+02  0.28467338750E+02  0.00000000000E+00 0.  1.
</event>
<event>
 7    1  0.1161807E-013  0.5052886E+02  0.7816164E-02  0.1300439E+00
        -11   -1    0    0    0    0  0.00000000000E+00  0.00000000000E+00  0.45593999997E+02  0.45594000000E+02  0.51100000000E-03 0. -1.
         11   -1    0    0    0    0 -0.00000000000E+00 -0.00000000000E+00 -0.45593999997E+02  0.45594000000E+02  0.51100000000E-03 0.  1.
    9900012    2    1    2    0    0  0.13873817774E+02 -0.45056714346E+01  0.37952360992E+02  0.50528860811E+02  0.30000002922E+02 0.  0.
        -12    1    1    2    0    0 -0.13873817774E+02  0.45056714346E+01 -0.37952360992E+02  0.40659139189E+02  0.00000000000E+00 0.  1.
         11    1    3    3    0    0  0.71836969997E+01 -0.45190178597E+01  0.12607997479E+02  0.15198309962E+02  0.51100000000E-03 0. -1.
        -11    1    3    3    0    0  0.15226432877E+02  0.22207493904E+00  0.20421882483E+02  0.25474435418E+02  0.51100000000E-03 0.  1.
        -12    1    3    3    0    0 -0.85363121028E+01 -0.20872851386E+00  0.49224810295E+01  0.98561154313E+01  0.00000000000E+00 0.  1.
</event>
<event>
 7    1  0.1161807E-013  0.5052887E+02  0.7816164E-02  0.1300439E+00
        -11   -1    0    0    0    0  0.00000000000E+00  0.00000000000E+00  0.45593999997E+02  0.45594000000E+02  0.51100000000E-03 0.  1.
         11   -1    0    0    0    0 -0.00000000000E+00 -0.00000000000E+00 -0.45593999997E+02  0.45594000000E+02  0.51100000000E-03 0. -1.
    9900012    2    1    2    0    0 -0.18315104444E+02 -0.32322921493E+02  0.16521225193E+02  0.50528865891E+02  0.30000018363E+02 0.  0.
        -12    1    1    2    0    0  0.18315104444E+02  0.32322921493E+02 -0.16521225193E+02  0.40659134109E+02  0.00000000000E+00 0.  1.
         11    1    3    3    0    0 -0.20278034035E+02 -0.24594036113E+02  0.16076951271E+02  0.35700611186E+02  0.51100000000E-03 0. -1.
        -11    1    3    3    0    0 -0.43529031333E+01 -0.49076126361E+01  0.33017450212E+01  0.73439735784E+01  0.51100000000E-03 0.  1.
        -12    1    3    3    0    0  0.63158327245E+01 -0.28212727433E+01 -0.28574710989E+01  0.74842811262E+01  0.00000000000E+00 0.  1.
</event>
<event>
 7    1  0.1161807E-013  0.5052885E+02  0.7816164E-02  0.1300439E+00
        -11   -1    0    0    0    0  0.00000000000E+00  0.00000000000E+00  0.45593999997E+02  0.45594000000E+02  0.51100000000E-03 0. -1.
         11   -1    0    0    0    0 -0.00000000000E+00 -0.00000000000E+00 -0.45593999997E+02  0.45594000000E+02  0.51100000000E-03 0.  1.
    9900012    2    1    2    0    0 -0.39084489078E+02  0.40954398946E+01 -0.10430547421E+02  0.50528853010E+02  0.29999979209E+02 0.  0.
         12    1    1    2    0    0  0.39084489078E+02 -0.40954398946E+01  0.10430547421E+02  0.40659146990E+02  0.00000000000E+00 0. -1.
         11    1    3    3    0    0 -0.19577160280E+02 -0.56596159289E+01 -0.31717350498E+00  0.20381291823E+02  0.51100000000E-03 0.  1.
        -11    1    3    3    0    0 -0.18398864291E+02  0.37761527421E+01 -0.52026041117E+00  0.18789577108E+02  0.51100000000E-03 0. -1.
         12    1    3    3    0    0 -0.11084645078E+01  0.59789030814E+01 -0.95931135052E+01  0.11357984079E+02  0.00000000000E+00 0. -1.
</event>
<event>
 7    1  0.1161807E-013  0.5052885E+02  0.7816164E-02  0.1300439E+00
        -11   -1    0    0    0    0  0.00000000000E+00  0.00000000000E+00  0.45593999997E+02  0.45594000000E+02  0.51100000000E-03 0. -1.
         11   -1    0    0    0    0 -0.00000000000E+00 -0.00000000000E+00 -0.45593999997E+02  0.45594000000E+02  0.51100000000E-03 0.  1.
    9900012    2    1    2    0    0 -0.50702293205E+01 -0.23589617288E+02  0.32725967953E+02  0.50528852842E+02  0.29999978697E+02 0.  0.
        -12    1    1    2    0    0  0.50702293205E+01  0.23589617288E+02 -0.32725967953E+02  0.40659147158E+02  0.00000000000E+00 0.  1.
         11    1    3    3    0    0 -0.11106008514E+02 -0.13796864037E+02  0.10395283716E+02  0.20536767179E+02  0.51100000000E-03 0. -1.
        -11    1    3    3    0    0  0.10301791570E+02 -0.10606440440E+02  0.20507418496E+02  0.25281963966E+02  0.51100000000E-03 0.  1.
         12    1    3    3    0    0 -0.42660123765E+01  0.81368718811E+00  0.18232657421E+01  0.47101216972E+01  0.00000000000E+00 0. -1.
</event>
<event>
 7    1  0.1161807E-013  0.5052891E+02  0.7816164E-02  0.1300439E+00
        -11   -1    0    0    0    0  0.00000000000E+00  0.00000000000E+00  0.45593999997E+02  0.45594000000E+02  0.51100000000E-03 0.  1.
         11   -1    0    0    0    0 -0.00000000000E+00 -0.00000000000E+00 -0.45593999997E+02  0.45594000000E+02  0.51100000000E-03 0. -1.
    9900012    2    1    2    0    0  0.17595308561E+02 -0.27552012081E+02 -0.24175463590E+02  0.50528913773E+02  0.30000163903E+02 0.  0.
         12    1    1    2    0    0 -0.17595308561E+02  0.27552012081E+02  0.24175463590E+02  0.40659086227E+02  0.00000000000E+00 0. -1.
         11    1    3    3    0    0 -0.36662372835E+01 -0.35674178032E+01  0.47253908553E+00  0.51372228928E+01  0.51100000000E-03 0. -1.
        -11    1    3    3    0    0 -0.26782629094E+01 -0.93593801104E+01 -0.38470259362E+01  0.10467602260E+02  0.51100000000E-03 0.  1.
         12    1    3    3    0    0  0.23939808754E+02 -0.14625214167E+02 -0.20800976739E+02  0.34924088620E+02  0.00000000000E+00 0. -1.
</event>
<event>
 7    1  0.1161807E-013  0.5052885E+02  0.7816164E-02  0.1300439E+00
        -11   -1    0    0    0    0  0.00000000000E+00  0.00000000000E+00  0.45593999997E+02  0.45594000000E+02  0.51100000000E-03 0. -1.
         11   -1    0    0    0    0 -0.00000000000E+00 -0.00000000000E+00 -0.45593999997E+02  0.45594000000E+02  0.51100000000E-03 0.  1.
    9900012    2    1    2    0    0  0.22512394302E+02  0.28770966329E+02  0.17849089557E+02  0.50528850984E+02  0.29999973050E+02 0.  0.
        -12    1    1    2    0    0 -0.22512394302E+02 -0.28770966329E+02 -0.17849089557E+02  0.40659149016E+02  0.00000000000E+00 0.  1.
         11    1    3    3    0    0  0.13632892788E+02  0.74999764492E+01  0.21557052236E+02  0.26585934512E+02  0.51100000000E-03 0. -1.
        -11    1    3    3    0    0  0.39661160069E+00  0.51872956193E+01  0.65409228330E+00  0.52433933268E+01  0.51100000000E-03 0.  1.
        -12    1    3    3    0    0  0.84828899128E+01  0.16083694261E+02 -0.43620549619E+01  0.18699523145E+02  0.00000000000E+00 0.  1.
</event>
<event>
 7    1  0.1161807E-013  0.5052887E+02  0.7816164E-02  0.1300439E+00
        -11   -1    0    0    0    0  0.00000000000E+00  0.00000000000E+00  0.45593999997E+02  0.45594000000E+02  0.51100000000E-03 0. -1.
         11   -1    0    0    0    0 -0.00000000000E+00 -0.00000000000E+00 -0.45593999997E+02  0.45594000000E+02  0.51100000000E-03 0.  1.
    9900012    2    1    2    0    0  0.13428821547E+02  0.22433666000E+01  0.38311867216E+02  0.50528866814E+02  0.30000021169E+02 0.  0.
        -12    1    1    2    0    0 -0.13428821547E+02 -0.22433666000E+01 -0.38311867216E+02  0.40659133186E+02  0.00000000000E+00 0.  1.
         11    1    3    3    0    0  0.78736368618E+00 -0.27831801070E+01  0.90238238505E+01  0.94760450731E+01  0.51100000000E-03 0. -1.
        -11    1    3    3    0    0 -0.62244929540E+01 -0.42215744528E+01  0.55191819013E+01  0.93288462585E+01  0.51100000000E-03 0.  1.
        -12    1    3    3    0    0  0.18865950814E+02  0.92481211597E+01  0.23768861464E+02  0.31723975483E+02  0.00000000000E+00 0.  1.
</event>
<event>
 7    1  0.1161807E-013  0.5052887E+02  0.7816164E-02  0.1300439E+00
        -11   -1    0    0    0    0  0.00000000000E+00  0.00000000000E+00  0.45593999997E+02  0.45594000000E+02  0.51100000000E-03 0. -1.
         11   -1    0    0    0    0 -0.00000000000E+00 -0.00000000000E+00 -0.45593999997E+02  0.45594000000E+02  0.51100000000E-03 0.  1.
    9900012    2    1    2    0    0 -0.24208340035E+02  0.21227980763E+02  0.24829290451E+02  0.50528873610E+02  0.30000041825E+02 0.  0.
        -12    1    1    2    0    0  0.24208340035E+02 -0.21227980763E+02 -0.24829290451E+02  0.40659126390E+02  0.00000000000E+00 0.  1.
         11    1    3    3    0    0 -0.94293855019E+01  0.17610864804E+02  0.70437640108E+01  0.21181843210E+02  0.51100000000E-03 0. -1.
        -11    1    3    3    0    0 -0.98900867717E+01  0.58753419454E+01  0.80357119712E+00  0.11531660169E+02  0.51100000000E-03 0.  1.
        -12    1    3    3    0    0 -0.48888677613E+01 -0.22582259859E+01  0.16981955243E+02  0.17815370231E+02  0.00000000000E+00 0.  1.
</event>
<event>
 7    1  0.1161807E-013  0.5052885E+02  0.7816164E-02  0.1300439E+00
        -11   -1    0    0    0    0  0.00000000000E+00  0.00000000000E+00  0.45593999997E+02  0.45594000000E+02  0.51100000000E-03 0. -1.
         11   -1    0    0    0    0 -0.00000000000E+00 -0.00000000000E+00 -0.45593999997E+02  0.45594000000E+02  0.51100000000E-03 0.  1.
    9900012    2    1    2    0    0  0.17548875856E+02  0.35567443405E+02 -0.89532245328E+01  0.50528852152E+02  0.29999976602E+02 0.  0.
         12    1    1    2    0    0 -0.17548875856E+02 -0.35567443405E+02  0.89532245328E+01  0.40659147848E+02  0.00000000000E+00 0. -1.
         11    1    3    3    0    0  0.33926209113E+00  0.16674101537E+02 -0.26736475780E+01  0.16890504802E+02  0.51100000000E-03 0. -1.
        -11    1    3    3    0    0  0.36702645169E+01  0.17305193391E+02 -0.88271706436E+01  0.19770166963E+02  0.51100000000E-03 0.  1.
         12    1    3    3    0    0  0.13539349248E+02  0.15881484771E+01  0.25475936888E+01  0.13868180387E+02  0.00000000000E+00 0. -1.
</event>
<event>
 7    1  0.1161807E-013  0.5052885E+02  0.7816164E-02  0.1300439E+00
        -11   -1    0    0    0    0  0.00000000000E+00  0.00000000000E+00  0.45593999997E+02  0.45594000000E+02  0.51100000000E-03 0.  1.
         11   -1    0    0    0    0 -0.00000000000E+00 -0.00000000000E+00 -0.45593999997E+02  0.45594000000E+02  0.51100000000E-03 0. -1.
    9900012    2    1    2    0    0 -0.24194753568E+02 -0.32675598240E+02 -0.29222799402E+00  0.50528853209E+02  0.29999979814E+02 0.  0.
        -12    1    1    2    0    0  0.24194753568E+02  0.32675598240E+02  0.29222799402E+00  0.40659146791E+02  0.00000000000E+00 0.  1.
         11    1    3    3    0    0 -0.25931429388E+02 -0.29094506260E+02 -0.30319501577E+00  0.38974623181E+02  0.51100000000E-03 0. -1.
        -11    1    3    3    0    0 -0.39664408588E+01 -0.15946750379E+01 -0.25684965289E+01  0.49872654073E+01  0.51100000000E-03 0.  1.
         12    1    3    3    0    0  0.57031166785E+01 -0.19864169422E+01  0.25794635507E+01  0.65669646205E+01  0.00000000000E+00 0. -1.
</event>
<event>
 7    1  0.1161807E-013  0.5052887E+02  0.7816164E-02  0.1300439E+00
        -11   -1    0    0    0    0  0.00000000000E+00  0.00000000000E+00  0.45593999997E+02  0.45594000000E+02  0.51100000000E-03 0. -1.
         11   -1    0    0    0    0 -0.00000000000E+00 -0.00000000000E+00 -0.45593999997E+02  0.45594000000E+02  0.51100000000E-03 0.  1.
    9900012    2    1    2    0    0  0.23283777012E+01  0.22971495300E+02 -0.33467207012E+02  0.50528869608E+02  0.30000029660E+02 0.  0.
         12    1    1    2    0    0 -0.23283777012E+01 -0.22971495300E+02  0.33467207012E+02  0.40659130392E+02  0.00000000000E+00 0. -1.
         11    1    3    3    0    0  0.23622301115E+01  0.86634430251E+01 -0.32455913562E+01  0.95482584622E+01  0.51100000000E-03 0. -1.
        -11    1    3    3    0    0  0.34158564393E+01  0.20291247603E+02 -0.24631000381E+02  0.32094999370E+02  0.51100000000E-03 0.  1.
        -12    1    3    3    0    0 -0.34497088495E+01 -0.59831953278E+01 -0.55906152746E+01  0.88856117756E+01  0.00000000000E+00 0.  1.
</event>
<event>
 7    1  0.1161807E-013  0.5052885E+02  0.7816164E-02  0.1300439E+00
        -11   -1    0    0    0    0  0.00000000000E+00  0.00000000000E+00  0.45593999997E+02  0.45594000000E+02  0.51100000000E-03 0. -1.
         11   -1    0    0    0    0 -0.00000000000E+00 -0.00000000000E+00 -0.45593999997E+02  0.45594000000E+02  0.51100000000E-03 0.  1.
    9900012    2    1    2    0    0 -0.16670598574E+02 -0.12060116028E+02  0.35068663502E+02  0.50528850781E+02  0.29999972434E+02 0.  0.
        -12    1    1    2    0    0  0.16670598574E+02  0.12060116028E+02 -0.35068663502E+02  0.40659149219E+02  0.00000000000E+00 0.  1.
         11    1    3    3    0    0 -0.74413061860E+01  0.99115530206E+00  0.81903854778E+01  0.11110258373E+02  0.51100000000E-03 0. -1.
        -11    1    3    3    0    0 -0.17077233162E+02 -0.11806904539E+02  0.21037222940E+02  0.29556718975E+02  0.51100000000E-03 0.  1.
        -12    1    3    3    0    0  0.78479407743E+01 -0.12443667906E+01  0.58410550841E+01  0.98618734327E+01  0.00000000000E+00 0.  1.
</event>
<event>
 7    1  0.1161807E-013  0.5052890E+02  0.7816164E-02  0.1300439E+00
        -11   -1    0    0    0    0  0.00000000000E+00  0.00000000000E+00  0.45593999997E+02  0.45594000000E+02  0.51100000000E-03 0. -1.
         11   -1    0    0    0    0 -0.00000000000E+00 -0.00000000000E+00 -0.45593999997E+02  0.45594000000E+02  0.51100000000E-03 0.  1.
    9900012    2    1    2    0    0 -0.21583493735E+02  0.63940005477E+01 -0.33859003367E+02  0.50528898266E+02  0.30000116769E+02 0.  0.
         12    1    1    2    0    0  0.21583493735E+02 -0.63940005477E+01  0.33859003367E+02  0.40659101734E+02  0.00000000000E+00 0. -1.
         11    1    3    3    0    0 -0.77610370247E+01  0.29439234045E+01 -0.28998036327E+01  0.87925674340E+01  0.51100000000E-03 0. -1.
        -11    1    3    3    0    0 -0.19117965460E+02  0.80290704465E+01 -0.20562827135E+02  0.29202610083E+02  0.51100000000E-03 0.  1.
         12    1    3    3    0    0  0.52955087504E+01 -0.45789933033E+01 -0.10396372599E+02  0.12533720749E+02  0.00000000000E+00 0. -1.
</event>
<event>
 7    1  0.1161807E-013  0.5052886E+02  0.7816164E-02  0.1300439E+00
        -11   -1    0    0    0    0  0.00000000000E+00  0.00000000000E+00  0.45593999997E+02  0.45594000000E+02  0.51100000000E-03 0.  1.
         11   -1    0    0    0    0 -0.00000000000E+00 -0.00000000000E+00 -0.45593999997E+02  0.45594000000E+02  0.51100000000E-03 0. -1.
    9900012    2    1    2    0    0  0.40194586909E+02  0.61184156058E+01  0.35469023466E+00  0.50528860419E+02  0.30000001728E+02 0.  0.
         12    1    1    2    0    0 -0.40194586909E+02 -0.61184156058E+01 -0.35469023466E+00  0.40659139581E+02  0.00000000000E+00 0. -1.
         11    1    3    3    0    0  0.13105335309E+02  0.46568224500E+01 -0.26916252344E+01  0.14166179992E+02  0.51100000000E-03 0. -1.
        -11    1    3    3    0    0  0.31332703070E+02  0.27402629102E+01  0.96683117517E+00  0.31467158837E+02  0.51100000000E-03 0.  1.
         12    1    3    3    0    0 -0.42434514692E+01 -0.12786697544E+01  0.20794842938E+01  0.48955215903E+01  0.00000000000E+00 0. -1.
</event>
<event>
 7    1  0.1161807E-013  0.5052886E+02  0.7816164E-02  0.1300439E+00
        -11   -1    0    0    0    0  0.00000000000E+00  0.00000000000E+00  0.45593999997E+02  0.45594000000E+02  0.51100000000E-03 0.  1.
         11   -1    0    0    0    0 -0.00000000000E+00 -0.00000000000E+00 -0.45593999997E+02  0.45594000000E+02  0.51100000000E-03 0. -1.
    9900012    2    1    2    0    0  0.17674731715E+02  0.36220881645E+02 -0.53681662441E+01  0.50528860595E+02  0.30000002264E+02 0.  0.
        -12    1    1    2    0    0 -0.17674731715E+02 -0.36220881645E+02  0.53681662441E+01  0.40659139405E+02  0.00000000000E+00 0.  1.
         11    1    3    3    0    0 -0.99371131872E+00  0.10228929547E+02  0.16751208037E+01  0.10412708189E+02  0.51100000000E-03 0. -1.
        -11    1    3    3    0    0  0.54337200208E+01  0.18179428897E+02  0.60616051716E+01  0.19918835453E+02  0.51100000000E-03 0.  1.
         12    1    3    3    0    0  0.13234723013E+02  0.78125232012E+01 -0.13104892220E+02  0.20197316953E+02  0.00000000000E+00 0. -1.
</event>
<event>
 7    1  0.1161807E-013  0.5052886E+02  0.7816164E-02  0.1300439E+00
        -11   -1    0    0    0    0  0.00000000000E+00  0.00000000000E+00  0.45593999997E+02  0.45594000000E+02  0.51100000000E-03 0. -1.
         11   -1    0    0    0    0 -0.00000000000E+00 -0.00000000000E+00 -0.45593999997E+02  0.45594000000E+02  0.51100000000E-03 0.  1.
    9900012    2    1    2    0    0 -0.65234093386E+01 -0.12130989614E+02  0.38255063207E+02  0.50528860322E+02  0.30000001435E+02 0.  0.
        -12    1    1    2    0    0  0.65234093386E+01  0.12130989614E+02 -0.38255063207E+02  0.40659139678E+02  0.00000000000E+00 0.  1.
         11    1    3    3    0    0 -0.90831730579E+01 -0.42868717615E+01  0.23817500557E+02  0.25848687304E+02  0.51100000000E-03 0. -1.
        -11    1    3    3    0    0  0.74957066593E+01 -0.63201744997E+01  0.16438464207E+02  0.19140358663E+02  0.51100000000E-03 0.  1.
        -12    1    3    3    0    0 -0.49359429399E+01 -0.15239433528E+01 -0.20009015567E+01  0.55398143550E+01  0.00000000000E+00 0.  1.
</event>
<event>
 7    1  0.1161807E-013  0.5052886E+02  0.7816164E-02  0.1300439E+00
        -11   -1    0    0    0    0  0.00000000000E+00  0.00000000000E+00  0.45593999997E+02  0.45594000000E+02  0.51100000000E-03 0.  1.
         11   -1    0    0    0    0 -0.00000000000E+00 -0.00000000000E+00 -0.45593999997E+02  0.45594000000E+02  0.51100000000E-03 0. -1.
    9900012    2    1    2    0    0  0.15932084253E+02 -0.23654187284E+02  0.28979536586E+02  0.50528862953E+02  0.30000009431E+02 0.  0.
        -12    1    1    2    0    0 -0.15932084253E+02  0.23654187284E+02 -0.28979536586E+02  0.40659137047E+02  0.00000000000E+00 0.  1.
         11    1    3    3    0    0  0.18896745738E+01  0.38319451498E+01  0.22481769044E+01  0.48279367519E+01  0.51100000000E-03 0. -1.
        -11    1    3    3    0    0  0.11390607290E+02 -0.12736558637E+02  0.25458285277E+02  0.30660889580E+02  0.51100000000E-03 0.  1.
         12    1    3    3    0    0  0.26518023890E+01 -0.14749573797E+02  0.12730744043E+01  0.15040036620E+02  0.00000000000E+00 0. -1.
</event>
<event>
 7    1  0.1161807E-013  0.5052886E+02  0.7816164E-02  0.1300439E+00
        -11   -1    0    0    0    0  0.00000000000E+00  0.00000000000E+00  0.45593999997E+02  0.45594000000E+02  0.51100000000E-03 0. -1.
         11   -1    0    0    0    0 -0.00000000000E+00 -0.00000000000E+00 -0.45593999997E+02  0.45594000000E+02  0.51100000000E-03 0.  1.
    9900012    2    1    2    0    0 -0.15731449653E+02 -0.21803721383E+02  0.30500568772E+02  0.50528862408E+02  0.30000007775E+02 0.  0.
        -12    1    1    2    0    0  0.15731449653E+02  0.21803721383E+02 -0.30500568772E+02  0.40659137592E+02  0.00000000000E+00 0.  1.
         11    1    3    3    0    0 -0.32480062727E+01 -0.15532469250E+01  0.15591721301E+02  0.16001996568E+02  0.51100000000E-03 0. -1.
        -11    1    3    3    0    0  0.34289056164E+01  0.17680088718E+01  0.28909102812E+01  0.48208517517E+01  0.51100000000E-03 0.  1.
         12    1    3    3    0    0 -0.15912348997E+02 -0.22018483330E+02  0.12017937189E+02  0.29706014088E+02  0.00000000000E+00 0. -1.
</event>
<event>
 7    1  0.1161807E-013  0.5052886E+02  0.7816164E-02  0.1300439E+00
        -11   -1    0    0    0    0  0.00000000000E+00  0.00000000000E+00  0.45593999997E+02  0.45594000000E+02  0.51100000000E-03 0. -1.
         11   -1    0    0    0    0 -0.00000000000E+00 -0.00000000000E+00 -0.45593999997E+02  0.45594000000E+02  0.51100000000E-03 0.  1.
    9900012    2    1    2    0    0 -0.29153680193E+02  0.56003605852E+01  0.27782447717E+02  0.50528861929E+02  0.30000006320E+02 0.  0.
        -12    1    1    2    0    0  0.29153680193E+02 -0.56003605852E+01 -0.27782447717E+02  0.40659138071E+02  0.00000000000E+00 0.  1.
         11    1    3    3    0    0 -0.24391230352E+01  0.19159790400E+01 -0.66529036765E+00  0.31722087568E+01  0.51100000000E-03 0.  1.
        -11    1    3    3    0    0 -0.10126536050E+02  0.14521637418E+02  0.10268358252E+02  0.20466163957E+02  0.51100000000E-03 0. -1.
         12    1    3    3    0    0 -0.16588021108E+02 -0.10837255872E+02  0.18179379833E+02  0.26890489215E+02  0.00000000000E+00 0. -1.
</event>
<event>
 7    1  0.1161807E-013  0.5052886E+02  0.7816164E-02  0.1300439E+00
        -11   -1    0    0    0    0  0.00000000000E+00  0.00000000000E+00  0.45593999997E+02  0.45594000000E+02  0.51100000000E-03 0. -1.
         11   -1    0    0    0    0 -0.00000000000E+00 -0.00000000000E+00 -0.45593999997E+02  0.45594000000E+02  0.51100000000E-03 0.  1.
    9900012    2    1    2    0    0  0.35231730551E+01 -0.13237573165E+02 -0.38282106800E+02  0.50528858436E+02  0.29999995703E+02 0.  0.
         12    1    1    2    0    0 -0.35231730551E+01  0.13237573165E+02  0.38282106800E+02  0.40659141564E+02  0.00000000000E+00 0. -1.
         11    1    3    3    0    0 -0.25622256507E+01  0.55880094405E+00 -0.13405935390E+02  0.13660027918E+02  0.51100000000E-03 0. -1.
        -11    1    3    3    0    0 -0.62662598217E+01 -0.19216198815E+01 -0.16587165052E+02  0.17835152925E+02  0.51100000000E-03 0.  1.
         12    1    3    3    0    0  0.12351658527E+02 -0.11874754227E+02 -0.82890063577E+01  0.19033677594E+02  0.00000000000E+00 0. -1.
</event>
<event>
 7    1  0.1161807E-013  0.5052886E+02  0.7816164E-02  0.1300439E+00
        -11   -1    0    0    0    0  0.00000000000E+00  0.00000000000E+00  0.45593999997E+02  0.45594000000E+02  0.51100000000E-03 0. -1.
         11   -1    0    0    0    0 -0.00000000000E+00 -0.00000000000E+00 -0.45593999997E+02  0.45594000000E+02  0.51100000000E-03 0.  1.
    9900012    2    1    2    0    0 -0.34268172798E+01 -0.13481120411E+02  0.38205783876E+02  0.50528860735E+02  0.30000002690E+02 0.  0.
        -12    1    1    2    0    0  0.34268172798E+01  0.13481120411E+02 -0.38205783876E+02  0.40659139265E+02  0.00000000000E+00 0.  1.
         11    1    3    3    0    0 -0.37826891869E+01 -0.97460676110E+01  0.16843979744E+02  0.19824586383E+02  0.51100000000E-03 0. -1.
        -11    1    3    3    0    0  0.96231691741E+01 -0.35772307917E+01  0.18227658463E+02  0.20920074053E+02  0.51100000000E-03 0.  1.
        -12    1    3    3    0    0 -0.92672972670E+01 -0.15782200824E+00  0.31341456686E+01  0.97842002991E+01  0.00000000000E+00 0.  1.
</event>
<event>
 7    1  0.1161807E-013  0.5052885E+02  0.7816164E-02  0.1300439E+00
        -11   -1    0    0    0    0  0.00000000000E+00  0.00000000000E+00  0.45593999997E+02  0.45594000000E+02  0.51100000000E-03 0. -1.
         11   -1    0    0    0    0 -0.00000000000E+00 -0.00000000000E+00 -0.45593999997E+02  0.45594000000E+02  0.51100000000E-03 0.  1.
    9900012    2    1    2    0    0 -0.11432782122E+02 -0.24593078109E+02  0.30292544900E+02  0.50528852512E+02  0.29999977697E+02 0.  0.
        -12    1    1    2    0    0  0.11432782122E+02  0.24593078109E+02 -0.30292544900E+02  0.40659147488E+02  0.00000000000E+00 0.  1.
         11    1    3    3    0    0 -0.15323078731E+02 -0.28382483658E+01  0.12753856768E+02  0.20137359764E+02  0.51100000000E-03 0. -1.
        -11    1    3    3    0    0 -0.20067037837E+01 -0.64592472546E+01  0.55433764971E+00  0.67864589929E+01  0.51100000000E-03 0.  1.
         12    1    3    3    0    0  0.58970003918E+01 -0.15295582488E+02  0.16984350482E+02  0.23605033755E+02  0.00000000000E+00 0. -1.
</event>
<event>
 7    1  0.1161807E-013  0.5052886E+02  0.7816164E-02  0.1300439E+00
        -11   -1    0    0    0    0  0.00000000000E+00  0.00000000000E+00  0.45593999997E+02  0.45594000000E+02  0.51100000000E-03 0. -1.
         11   -1    0    0    0    0 -0.00000000000E+00 -0.00000000000E+00 -0.45593999997E+02  0.45594000000E+02  0.51100000000E-03 0.  1.
    9900012    2    1    2    0    0  0.36614230802E+02  0.69584339717E+01  0.16252517796E+02  0.50528855453E+02  0.29999986636E+02 0.  0.
        -12    1    1    2    0    0 -0.36614230802E+02 -0.69584339717E+01 -0.16252517796E+02  0.40659144547E+02  0.00000000000E+00 0.  1.
         11    1    3    3    0    0  0.13107624128E+02  0.10699434651E+02 -0.45688381004E+01  0.17526037601E+02  0.51100000000E-03 0. -1.
        -11    1    3    3    0    0  0.85425042306E+01  0.17272483791E+01  0.32951310103E+01  0.93174918368E+01  0.51100000000E-03 0.  1.
        -12    1    3    3    0    0  0.14964102443E+02 -0.54682490586E+01  0.17526224887E+02  0.23685326016E+02  0.00000000000E+00 0.  1.
</event>
<event>
 7    1  0.1161807E-013  0.5052888E+02  0.7816164E-02  0.1300439E+00
        -11   -1    0    0    0    0  0.00000000000E+00  0.00000000000E+00  0.45593999997E+02  0.45594000000E+02  0.51100000000E-03 0. -1.
         11   -1    0    0    0    0 -0.00000000000E+00 -0.00000000000E+00 -0.45593999997E+02  0.45594000000E+02  0.51100000000E-03 0.  1.
    9900012    2    1    2    0    0  0.10450000460E+02  0.14708138203E+02 -0.36436692285E+02  0.50528875763E+02  0.30000048370E+02 0.  0.
         12    1    1    2    0    0 -0.10450000460E+02 -0.14708138203E+02  0.36436692285E+02  0.40659124237E+02  0.00000000000E+00 0. -1.
         11    1    3    3    0    0  0.81578963711E+01  0.33299020943E+01 -0.13920077979E+01  0.89206057603E+01  0.51100000000E-03 0. -1.
        -11    1    3    3    0    0  0.10601230936E+02  0.71841783766E+01 -0.23656704170E+02  0.26900523578E+02  0.51100000000E-03 0.  1.
         12    1    3    3    0    0 -0.83091268468E+01  0.41940577324E+01 -0.11387980317E+02  0.14707746426E+02  0.00000000000E+00 0. -1.
</event>
<event>
 7    1  0.1161807E-013  0.5052889E+02  0.7816164E-02  0.1300439E+00
        -11   -1    0    0    0    0  0.00000000000E+00  0.00000000000E+00  0.45593999997E+02  0.45594000000E+02  0.51100000000E-03 0. -1.
         11   -1    0    0    0    0 -0.00000000000E+00 -0.00000000000E+00 -0.45593999997E+02  0.45594000000E+02  0.51100000000E-03 0.  1.
    9900012    2    1    2    0    0  0.22147657218E+02  0.15199800359E+02 -0.30522299332E+02  0.50528887765E+02  0.30000084852E+02 0.  0.
         12    1    1    2    0    0 -0.22147657218E+02 -0.15199800359E+02  0.30522299332E+02  0.40659112235E+02  0.00000000000E+00 0. -1.
         11    1    3    3    0    0 -0.16041541073E+01 -0.26534018712E+01 -0.16529043050E+00  0.31050238449E+01  0.51100000000E-03 0. -1.
        -11    1    3    3    0    0 -0.26276474203E+00 -0.30633292798E+01  0.45914068021E+00  0.31086720656E+01  0.51100000000E-03 0.  1.
        -12    1    3    3    0    0  0.24014576068E+02  0.20916531510E+02 -0.30816149582E+02  0.44315191855E+02  0.00000000000E+00 0.  1.
</event>
<event>
 7    1  0.1161807E-013  0.5052886E+02  0.7816164E-02  0.1300439E+00
        -11   -1    0    0    0    0  0.00000000000E+00  0.00000000000E+00  0.45593999997E+02  0.45594000000E+02  0.51100000000E-03 0. -1.
         11   -1    0    0    0    0 -0.00000000000E+00 -0.00000000000E+00 -0.45593999997E+02  0.45594000000E+02  0.51100000000E-03 0.  1.
    9900012    2    1    2    0    0  0.19338559055E+02 -0.10907887562E+02  0.34061765474E+02  0.50528859028E+02  0.29999997502E+02 0.  0.
        -12    1    1    2    0    0 -0.19338559055E+02  0.10907887562E+02 -0.34061765474E+02  0.40659140972E+02  0.00000000000E+00 0.  1.
         11    1    3    3    0    0  0.59239964722E+01  0.31590229987E+01  0.19596083902E+02  0.20714238220E+02  0.51100000000E-03 0. -1.
        -11    1    3    3    0    0  0.20315927900E+01  0.94661401224E+00  0.10270687038E+02  0.10512395534E+02  0.51100000000E-03 0.  1.
        -12    1    3    3    0    0  0.11382969793E+02 -0.15013524573E+02  0.41949945335E+01  0.19302225274E+02  0.00000000000E+00 0.  1.
</event>
<event>
 7    1  0.1161807E-013  0.5052886E+02  0.7816164E-02  0.1300439E+00
        -11   -1    0    0    0    0  0.00000000000E+00  0.00000000000E+00  0.45593999997E+02  0.45594000000E+02  0.51100000000E-03 0. -1.
         11   -1    0    0    0    0 -0.00000000000E+00 -0.00000000000E+00 -0.45593999997E+02  0.45594000000E+02  0.51100000000E-03 0.  1.
    9900012    2    1    2    0    0  0.39043682806E+02  0.80605303129E+01  0.79865336888E+01  0.50528855440E+02  0.29999986594E+02 0.  0.
        -12    1    1    2    0    0 -0.39043682806E+02 -0.80605303129E+01 -0.79865336888E+01  0.40659144560E+02  0.00000000000E+00 0.  1.
         11    1    3    3    0    0  0.26231579295E+01  0.44376051589E+01  0.52511942365E+00  0.51816066755E+01  0.51100000000E-03 0. -1.
        -11    1    3    3    0    0  0.36251263824E+02  0.10580660762E+02  0.65596612411E+01  0.38329279499E+02  0.51100000000E-03 0.  1.
        -12    1    3    3    0    0  0.16926105273E+00 -0.69577356081E+01  0.90175302401E+00  0.70179692656E+01  0.00000000000E+00 0.  1.
</event>
<event>
 7    1  0.1161807E-013  0.5052886E+02  0.7816164E-02  0.1300439E+00
        -11   -1    0    0    0    0  0.00000000000E+00  0.00000000000E+00  0.45593999997E+02  0.45594000000E+02  0.51100000000E-03 0. -1.
         11   -1    0    0    0    0 -0.00000000000E+00 -0.00000000000E+00 -0.45593999997E+02  0.45594000000E+02  0.51100000000E-03 0.  1.
    9900012    2    1    2    0    0  0.17149982001E+02 -0.14757796279E+01  0.36835656793E+02  0.50528863025E+02  0.30000009652E+02 0.  0.
        -12    1    1    2    0    0 -0.17149982001E+02  0.14757796279E+01 -0.36835656793E+02  0.40659136975E+02  0.00000000000E+00 0.  1.
         11    1    3    3    0    0  0.10698763600E+02 -0.66360639980E+01  0.45258387868E+01  0.13378494121E+02  0.51100000000E-03 0. -1.
        -11    1    3    3    0    0  0.82567087471E+01  0.85556303391E+00  0.55474891378E+01  0.99839803403E+01  0.51100000000E-03 0.  1.
        -12    1    3    3    0    0 -0.18054903464E+01  0.43047213361E+01  0.26762328869E+02  0.27166388565E+02  0.00000000000E+00 0.  1.
</event>
<event>
 7    1  0.1161807E-013  0.5052885E+02  0.7816164E-02  0.1300439E+00
        -11   -1    0    0    0    0  0.00000000000E+00  0.00000000000E+00  0.45593999997E+02  0.45594000000E+02  0.51100000000E-03 0. -1.
         11   -1    0    0    0    0 -0.00000000000E+00 -0.00000000000E+00 -0.45593999997E+02  0.45594000000E+02  0.51100000000E-03 0.  1.
    9900012    2    1    2    0    0 -0.40867173849E+00  0.15679237631E+02 -0.37512139817E+02  0.50528854179E+02  0.29999982762E+02 0.  0.
         12    1    1    2    0    0  0.40867173849E+00 -0.15679237631E+02  0.37512139817E+02  0.40659145821E+02  0.00000000000E+00 0. -1.
         11    1    3    3    0    0  0.12176044568E+01  0.14145761434E+02 -0.23142706934E+02  0.27150874970E+02  0.51100000000E-03 0. -1.
        -11    1    3    3    0    0  0.89450955568E+00  0.35130554302E+01 -0.18100093187E+02  0.18459552525E+02  0.51100000000E-03 0.  1.
        -12    1    3    3    0    0 -0.25207857509E+01 -0.19795792326E+01  0.37306603037E+01  0.49184266836E+01  0.00000000000E+00 0.  1.
</event>
<event>
 7    1  0.1161807E-013  0.5052884E+02  0.7816164E-02  0.1300439E+00
        -11   -1    0    0    0    0  0.00000000000E+00  0.00000000000E+00  0.45593999997E+02  0.45594000000E+02  0.51100000000E-03 0.  1.
         11   -1    0    0    0    0 -0.00000000000E+00 -0.00000000000E+00 -0.45593999997E+02  0.45594000000E+02  0.51100000000E-03 0. -1.
    9900012    2    1    2    0    0  0.36512028528E+02  0.86219966790E+01 -0.15674831343E+02  0.50528838774E+02  0.29999935938E+02 0.  0.
         12    1    1    2    0    0 -0.36512028528E+02 -0.86219966790E+01  0.15674831343E+02  0.40659161226E+02  0.00000000000E+00 0. -1.
         11    1    3    3    0    0  0.66145681465E+01  0.10498599787E+00  0.30000549661E+01  0.72638738897E+01  0.51100000000E-03 0. -1.
        -11    1    3    3    0    0 -0.33063343093E+00 -0.30527874904E+01 -0.89603904781E+01  0.94719284049E+01  0.51100000000E-03 0.  1.
        -12    1    3    3    0    0  0.30228093812E+02  0.11569798171E+02 -0.97144958308E+01  0.33793036480E+02  0.00000000000E+00 0.  1.
</event>
<event>
 7    1  0.1161807E-013  0.5052883E+02  0.7816164E-02  0.1300439E+00
        -11   -1    0    0    0    0  0.00000000000E+00  0.00000000000E+00  0.45593999997E+02  0.45594000000E+02  0.51100000000E-03 0. -1.
         11   -1    0    0    0    0 -0.00000000000E+00 -0.00000000000E+00 -0.45593999997E+02  0.45594000000E+02  0.51100000000E-03 0.  1.
    9900012    2    1    2    0    0 -0.92519906634E+01  0.32156274119E+02  0.23098543634E+02  0.50528831114E+02  0.29999912655E+02 0.  0.
        -12    1    1    2    0    0  0.92519906634E+01 -0.32156274119E+02 -0.23098543634E+02  0.40659168886E+02  0.00000000000E+00 0.  1.
         11    1    3    3    0    0 -0.91211680090E+00  0.26982874594E+01 -0.70534515354E+00  0.29343183738E+01  0.51100000000E-03 0. -1.
        -11    1    3    3    0    0 -0.22699212908E+01 -0.47019024608E+01  0.78003068023E+01  0.93864378700E+01  0.51100000000E-03 0.  1.
         12    1    3    3    0    0 -0.60699525717E+01  0.34159889120E+02  0.16003581986E+02  0.38208074870E+02  0.00000000000E+00 0. -1.
</event>
<event>
 7    1  0.1161807E-013  0.5052887E+02  0.7816164E-02  0.1300439E+00
        -11   -1    0    0    0    0  0.00000000000E+00  0.00000000000E+00  0.45593999997E+02  0.45594000000E+02  0.51100000000E-03 0. -1.
         11   -1    0    0    0    0 -0.00000000000E+00 -0.00000000000E+00 -0.45593999997E+02  0.45594000000E+02  0.51100000000E-03 0.  1.
    9900012    2    1    2    0    0 -0.19859319421E+02 -0.18992194486E+01  0.35428315950E+02  0.50528866052E+02  0.30000018851E+02 0.  0.
        -12    1    1    2    0    0  0.19859319421E+02  0.18992194486E+01 -0.35428315950E+02  0.40659133948E+02  0.00000000000E+00 0.  1.
         11    1    3    3    0    0 -0.13137324626E+02 -0.53411193693E+01  0.27764197816E+02  0.31176393875E+02  0.51100000000E-03 0. -1.
        -11    1    3    3    0    0 -0.10396042863E+02  0.62882369500E+00  0.97592771154E+01  0.14272933003E+02  0.51100000000E-03 0.  1.
         12    1    3    3    0    0  0.36740480677E+01  0.28130762257E+01 -0.20951589812E+01  0.50795391732E+01  0.00000000000E+00 0. -1.
</event>
<event>
 7    1  0.1161807E-013  0.5052885E+02  0.7816164E-02  0.1300439E+00
        -11   -1    0    0    0    0  0.00000000000E+00  0.00000000000E+00  0.45593999997E+02  0.45594000000E+02  0.51100000000E-03 0.  1.
         11   -1    0    0    0    0 -0.00000000000E+00 -0.00000000000E+00 -0.45593999997E+02  0.45594000000E+02  0.51100000000E-03 0. -1.
    9900012    2    1    2    0    0  0.96943454777E+01 -0.39032515072E+02 -0.59706855075E+01  0.50528847862E+02  0.29999963563E+02 0.  0.
        -12    1    1    2    0    0 -0.96943454777E+01  0.39032515072E+02  0.59706855075E+01  0.40659152138E+02  0.00000000000E+00 0.  1.
         11    1    3    3    0    0 -0.14170851111E+01 -0.70765595110E+01 -0.10033675516E+02  0.12359630631E+02  0.51100000000E-03 0. -1.
        -11    1    3    3    0    0  0.87985368336E+01 -0.46597969746E+01  0.41202719919E+01  0.10775184444E+02  0.51100000000E-03 0.  1.
         12    1    3    3    0    0  0.23128937552E+01 -0.27296158587E+02 -0.57281983789E-01  0.27394032787E+02  0.00000000000E+00 0. -1.
</event>
<event>
 7    1  0.1161807E-013  0.5052886E+02  0.7816164E-02  0.1300439E+00
        -11   -1    0    0    0    0  0.00000000000E+00  0.00000000000E+00  0.45593999997E+02  0.45594000000E+02  0.51100000000E-03 0.  1.
         11   -1    0    0    0    0 -0.00000000000E+00 -0.00000000000E+00 -0.45593999997E+02  0.45594000000E+02  0.51100000000E-03 0. -1.
    9900012    2    1    2    0    0 -0.23602478789E+02  0.10056824966E+02  0.31542807148E+02  0.50528863066E+02  0.30000009776E+02 0.  0.
        -12    1    1    2    0    0  0.23602478789E+02 -0.10056824966E+02 -0.31542807148E+02  0.40659136934E+02  0.00000000000E+00 0.  1.
         11    1    3    3    0    0 -0.47122476848E+01  0.95187130764E+01  0.36752389533E+01  0.11239152926E+02  0.51100000000E-03 0. -1.
        -11    1    3    3    0    0 -0.51949775148E+01  0.10780770398E+00 -0.26532331338E+01  0.58343003183E+01  0.51100000000E-03 0.  1.
        -12    1    3    3    0    0 -0.13695253590E+02  0.43030418591E+00  0.30520801329E+02  0.33455409822E+02  0.00000000000E+00 0.  1.
</event>
<event>
 7    1  0.1161807E-013  0.5052886E+02  0.7816164E-02  0.1300439E+00
        -11   -1    0    0    0    0  0.00000000000E+00  0.00000000000E+00  0.45593999997E+02  0.45594000000E+02  0.51100000000E-03 0. -1.
         11   -1    0    0    0    0 -0.00000000000E+00 -0.00000000000E+00 -0.45593999997E+02  0.45594000000E+02  0.51100000000E-03 0.  1.
    9900012    2    1    2    0    0 -0.36434109743E+02  0.10674267657E+02 -0.14552717002E+02  0.50528856934E+02  0.29999991136E+02 0.  0.
         12    1    1    2    0    0  0.36434109743E+02 -0.10674267657E+02  0.14552717002E+02  0.40659143066E+02  0.00000000000E+00 0. -1.
         11    1    3    3    0    0 -0.16377602791E+02  0.49030582493E+01  0.84333088845E+00  0.17116572690E+02  0.51100000000E-03 0. -1.
        -11    1    3    3    0    0 -0.23179673206E+02  0.98836458042E+00 -0.15121242281E+02  0.27693430319E+02  0.51100000000E-03 0.  1.
        -12    1    3    3    0    0  0.31231662546E+01  0.47828448270E+01 -0.27480560950E+00  0.57188539250E+01  0.00000000000E+00 0.  1.
</event>
<event>
 7    1  0.1161807E-013  0.5052885E+02  0.7816164E-02  0.1300439E+00
        -11   -1    0    0    0    0  0.00000000000E+00  0.00000000000E+00  0.45593999997E+02  0.45594000000E+02  0.51100000000E-03 0. -1.
         11   -1    0    0    0    0 -0.00000000000E+00 -0.00000000000E+00 -0.45593999997E+02  0.45594000000E+02  0.51100000000E-03 0.  1.
    9900012    2    1    2    0    0 -0.17877293383E+02  0.17900027109E+02  0.31830136692E+02  0.50528853538E+02  0.29999980815E+02 0.  0.
        -12    1    1    2    0    0  0.17877293383E+02 -0.17900027109E+02 -0.31830136692E+02  0.40659146462E+02  0.00000000000E+00 0.  1.
         11    1    3    3    0    0 -0.61467536954E+00  0.43469261940E+01 -0.96963937342E+00  0.44959753026E+01  0.51100000000E-03 0. -1.
        -11    1    3    3    0    0  0.38509030909E+01 -0.15736866512E+01 -0.44013154778E-01  0.41602742350E+01  0.51100000000E-03 0.  1.
         12    1    3    3    0    0 -0.21113521104E+02  0.15126787566E+02  0.32843789220E+02  0.41872604001E+02  0.00000000000E+00 0. -1.
</event>
<event>
 7    1  0.1161807E-013  0.5052886E+02  0.7816164E-02  0.1300439E+00
        -11   -1    0    0    0    0  0.00000000000E+00  0.00000000000E+00  0.45593999997E+02  0.45594000000E+02  0.51100000000E-03 0. -1.
         11   -1    0    0    0    0 -0.00000000000E+00 -0.00000000000E+00 -0.45593999997E+02  0.45594000000E+02  0.51100000000E-03 0.  1.
    9900012    2    1    2    0    0  0.77380645734E+01  0.22671734583E+02  0.32852404522E+02  0.50528859881E+02  0.30000000094E+02 0.  0.
        -12    1    1    2    0    0 -0.77380645734E+01 -0.22671734583E+02 -0.32852404522E+02  0.40659140119E+02  0.00000000000E+00 0.  1.
         11    1    3    3    0    0  0.11616025981E+02  0.65836961881E+01  0.15048458237E+02  0.20117982271E+02  0.51100000000E-03 0. -1.
        -11    1    3    3    0    0 -0.21518908756E+00 -0.24965693619E-01 -0.34681449036E+01  0.34749041660E+01  0.51100000000E-03 0.  1.
         12    1    3    3    0    0 -0.36627723205E+01  0.16113004088E+02  0.21272091189E+02  0.26935973444E+02  0.00000000000E+00 0. -1.
</event>
<event>
 7    1  0.1161807E-013  0.5052887E+02  0.7816164E-02  0.1300439E+00
        -11   -1    0    0    0    0  0.00000000000E+00  0.00000000000E+00  0.45593999997E+02  0.45594000000E+02  0.51100000000E-03 0. -1.
         11   -1    0    0    0    0 -0.00000000000E+00 -0.00000000000E+00 -0.45593999997E+02  0.45594000000E+02  0.51100000000E-03 0.  1.
    9900012    2    1    2    0    0  0.69668151554E+01 -0.36682250638E+02  0.16094733813E+02  0.50528874557E+02  0.30000044704E+02 0.  0.
        -12    1    1    2    0    0 -0.69668151554E+01  0.36682250638E+02 -0.16094733813E+02  0.40659125443E+02  0.00000000000E+00 0.  1.
         11    1    3    3    0    0  0.88982471452E+01 -0.24511990466E+02  0.16795902486E+02  0.31018040226E+02  0.51100000000E-03 0. -1.
        -11    1    3    3    0    0  0.64368152617E+01 -0.58732605220E+01  0.14109918374E+01  0.88271557196E+01  0.51100000000E-03 0.  1.
         12    1    3    3    0    0 -0.83682472515E+01 -0.62969996499E+01 -0.21121605108E+01  0.10683678612E+02  0.00000000000E+00 0. -1.
</event>
<event>
 7    1  0.1161807E-013  0.5052888E+02  0.7816164E-02  0.1300439E+00
        -11   -1    0    0    0    0  0.00000000000E+00  0.00000000000E+00  0.45593999997E+02  0.45594000000E+02  0.51100000000E-03 0. -1.
         11   -1    0    0    0    0 -0.00000000000E+00 -0.00000000000E+00 -0.45593999997E+02  0.45594000000E+02  0.51100000000E-03 0.  1.
    9900012    2    1    2    0    0  0.28008914841E+02 -0.14181142269E+02  0.25837187357E+02  0.50528876090E+02  0.30000049362E+02 0.  0.
        -12    1    1    2    0    0 -0.28008914841E+02  0.14181142269E+02 -0.25837187357E+02  0.40659123910E+02  0.00000000000E+00 0.  1.
         11    1    3    3    0    0  0.22059022103E+02 -0.31120931279E+01  0.16530412787E+02  0.27740586277E+02  0.51100000000E-03 0. -1.
        -11    1    3    3    0    0  0.65231403493E+01 -0.15211989242E+02  0.81471754228E+01  0.18448101375E+02  0.51100000000E-03 0.  1.
        -12    1    3    3    0    0 -0.57324761161E+00  0.41429401003E+01  0.11595991468E+01  0.43401884383E+01  0.00000000000E+00 0.  1.
</event>
<event>
 7    1  0.1161807E-013  0.5052886E+02  0.7816164E-02  0.1300439E+00
        -11   -1    0    0    0    0  0.00000000000E+00  0.00000000000E+00  0.45593999997E+02  0.45594000000E+02  0.51100000000E-03 0. -1.
         11   -1    0    0    0    0 -0.00000000000E+00 -0.00000000000E+00 -0.45593999997E+02  0.45594000000E+02  0.51100000000E-03 0.  1.
    9900012    2    1    2    0    0  0.31079223322E+02  0.59414196407E+01 -0.25533250787E+02  0.50528862215E+02  0.30000007190E+02 0.  0.
         12    1    1    2    0    0 -0.31079223322E+02 -0.59414196407E+01  0.25533250787E+02  0.40659137785E+02  0.00000000000E+00 0. -1.
         11    1    3    3    0    0  0.58609897282E+01  0.11035554199E+02 -0.15684971661E+02  0.20053752600E+02  0.51100000000E-03 0. -1.
        -11    1    3    3    0    0  0.39026931716E+01 -0.29419055077E+00 -0.75514690042E+01  0.85054245312E+01  0.51100000000E-03 0.  1.
        -12    1    3    3    0    0  0.21315540422E+02 -0.47999440078E+01 -0.22968101214E+01  0.21969685084E+02  0.00000000000E+00 0.  1.
</event>
<event>
 7    1  0.1161807E-013  0.5052886E+02  0.7816164E-02  0.1300439E+00
        -11   -1    0    0    0    0  0.00000000000E+00  0.00000000000E+00  0.45593999997E+02  0.45594000000E+02  0.51100000000E-03 0. -1.
         11   -1    0    0    0    0 -0.00000000000E+00 -0.00000000000E+00 -0.45593999997E+02  0.45594000000E+02  0.51100000000E-03 0.  1.
    9900012    2    1    2    0    0 -0.19028970383E+02 -0.33981017737E+02  0.11677085708E+02  0.50528860672E+02  0.30000002499E+02 0.  0.
        -12    1    1    2    0    0  0.19028970383E+02  0.33981017737E+02 -0.11677085708E+02  0.40659139328E+02  0.00000000000E+00 0.  1.
         11    1    3    3    0    0 -0.19062817667E+02 -0.13026704556E+02  0.12080270804E+02  0.26057992861E+02  0.51100000000E-03 0.  1.
        -11    1    3    3    0    0 -0.47824714481E+01 -0.48330842714E+01  0.27824905997E+01  0.73466312637E+01  0.51100000000E-03 0. -1.
        -12    1    3    3    0    0  0.48163187320E+01 -0.16121228910E+02 -0.31856756964E+01  0.17124236547E+02  0.00000000000E+00 0.  1.
</event>
<event>
 7    1  0.1237627E-013  0.5052887E+02  0.7816164E-02  0.1300439E+00
        -11   -1    0    0    0    0  0.00000000000E+00  0.00000000000E+00  0.45593999997E+02  0.45594000000E+02  0.51100000000E-03 0. -1.
         11   -1    0    0    0    0 -0.00000000000E+00 -0.00000000000E+00 -0.45593999997E+02  0.45594000000E+02  0.51100000000E-03 0.  1.
    9900012    2    1    2    0    0 -0.12314710895E+02  0.34334179141E+01 -0.38596943387E+02  0.50528874310E+02  0.30000043954E+02 0.  0.
         12    1    1    2    0    0  0.12314710895E+02 -0.34334179141E+01  0.38596943387E+02  0.40659125690E+02  0.00000000000E+00 0. -1.
         11    1    3    3    0    0 -0.45701379112E+01 -0.62734076466E+01 -0.31112129035E+01  0.83619046885E+01  0.51100000000E-03 0. -1.
        -11    1    3    3    0    0  0.20421780879E+01 -0.14761971990E+00  0.15789752918E+01  0.25856229729E+01  0.51100000000E-03 0.  1.
        -12    1    3    3    0    0 -0.97867510721E+01  0.98544452806E+01 -0.37064705775E+02  0.39581346649E+02  0.00000000000E+00 0.  1.
</event>
<event>
 7    1  0.1161807E-013  0.5052895E+02  0.7816164E-02  0.1300438E+00
        -11   -1    0    0    0    0  0.00000000000E+00  0.00000000000E+00  0.45593999997E+02  0.45594000000E+02  0.51100000000E-03 0. -1.
         11   -1    0    0    0    0 -0.00000000000E+00 -0.00000000000E+00 -0.45593999997E+02  0.45594000000E+02  0.51100000000E-03 0.  1.
    9900012    2    1    2    0    0  0.16679980877E+02 -0.15118976377E+02 -0.33857837496E+02  0.50528949733E+02  0.30000273206E+02 0.  0.
         12    1    1    2    0    0 -0.16679980877E+02  0.15118976377E+02  0.33857837496E+02  0.40659050267E+02  0.00000000000E+00 0. -1.
         11    1    3    3    0    0  0.59101232748E+00  0.69350987980E-01 -0.12949549170E+01  0.14251363546E+01  0.51100000000E-03 0. -1.
        -11    1    3    3    0    0  0.23698707786E+02 -0.63183305084E+01 -0.17955326066E+02  0.30396443633E+02  0.51100000000E-03 0.  1.
         12    1    3    3    0    0 -0.76097392372E+01 -0.88699968561E+01 -0.14607556513E+02  0.18707369745E+02  0.00000000000E+00 0. -1.
</event>
<event>
 7    1  0.1161807E-013  0.5052885E+02  0.7816164E-02  0.1300439E+00
        -11   -1    0    0    0    0  0.00000000000E+00  0.00000000000E+00  0.45593999997E+02  0.45594000000E+02  0.51100000000E-03 0. -1.
         11   -1    0    0    0    0 -0.00000000000E+00 -0.00000000000E+00 -0.45593999997E+02  0.45594000000E+02  0.51100000000E-03 0.  1.
    9900012    2    1    2    0    0 -0.17584384842E+02  0.86896477769E+01  0.35615243081E+02  0.50528854553E+02  0.29999983900E+02 0.  0.
        -12    1    1    2    0    0  0.17584384842E+02 -0.86896477769E+01 -0.35615243081E+02  0.40659145447E+02  0.00000000000E+00 0.  1.
         11    1    3    3    0    0 -0.41721655461E+01 -0.30377761176E+01  0.21042788795E+01  0.55734225524E+01  0.51100000000E-03 0. -1.
        -11    1    3    3    0    0 -0.39137024675E+01  0.47056916974E+01 -0.28298998000E+01  0.67430656600E+01  0.51100000000E-03 0.  1.
        -12    1    3    3    0    0 -0.94985168281E+01  0.70217321970E+01  0.36340864002E+02  0.38212366341E+02  0.00000000000E+00 0.  1.
</event>
<event>
 7    1  0.1161807E-013  0.5052886E+02  0.7816164E-02  0.1300439E+00
        -11   -1    0    0    0    0  0.00000000000E+00  0.00000000000E+00  0.45593999997E+02  0.45594000000E+02  0.51100000000E-03 0. -1.
         11   -1    0    0    0    0 -0.00000000000E+00 -0.00000000000E+00 -0.45593999997E+02  0.45594000000E+02  0.51100000000E-03 0.  1.
    9900012    2    1    2    0    0  0.17193188792E+02 -0.73756368879E+00 -0.36837700513E+02  0.50528856870E+02  0.29999990941E+02 0.  0.
         12    1    1    2    0    0 -0.17193188792E+02  0.73756368879E+00  0.36837700513E+02  0.40659143130E+02  0.00000000000E+00 0. -1.
         11    1    3    3    0    0  0.53216222226E+01 -0.45652937958E+01 -0.59066706396E+00  0.70363668440E+01  0.51100000000E-03 0. -1.
        -11    1    3    3    0    0  0.15340588869E+02  0.28603551820E+01 -0.14027514260E+02  0.20983003960E+02  0.51100000000E-03 0.  1.
         12    1    3    3    0    0 -0.34690222997E+01  0.96737492504E+00 -0.22219519189E+02  0.22509486066E+02  0.00000000000E+00 0. -1.
</event>
<event>
 7    1  0.1161807E-013  0.5052886E+02  0.7816164E-02  0.1300439E+00
        -11   -1    0    0    0    0  0.00000000000E+00  0.00000000000E+00  0.45593999997E+02  0.45594000000E+02  0.51100000000E-03 0. -1.
         11   -1    0    0    0    0 -0.00000000000E+00 -0.00000000000E+00 -0.45593999997E+02  0.45594000000E+02  0.51100000000E-03 0.  1.
    9900012    2    1    2    0    0  0.76021954734E+01 -0.26521696255E+02  0.29865898627E+02  0.50528860203E+02  0.30000001074E+02 0.  0.
        -12    1    1    2    0    0 -0.76021954734E+01  0.26521696255E+02 -0.29865898627E+02  0.40659139797E+02  0.00000000000E+00 0.  1.
         11    1    3    3    0    0  0.18839269025E+01 -0.98733707520E+01  0.18539621629E+02  0.21089101474E+02  0.51100000000E-03 0. -1.
        -11    1    3    3    0    0  0.93476432881E+01 -0.15658210322E+02  0.15418766038E+02  0.23880877956E+02  0.51100000000E-03 0.  1.
        -12    1    3    3    0    0 -0.36293747172E+01 -0.99011518066E+00 -0.40924890405E+01  0.55588807736E+01  0.00000000000E+00 0.  1.
</event>
<event>
 7    1  0.1161807E-013  0.5052886E+02  0.7816164E-02  0.1300439E+00
        -11   -1    0    0    0    0  0.00000000000E+00  0.00000000000E+00  0.45593999997E+02  0.45594000000E+02  0.51100000000E-03 0. -1.
         11   -1    0    0    0    0 -0.00000000000E+00 -0.00000000000E+00 -0.45593999997E+02  0.45594000000E+02  0.51100000000E-03 0.  1.
    9900012    2    1    2    0    0 -0.68955857298E+01 -0.19524006523E+02  0.34991851640E+02  0.50528860628E+02  0.30000002365E+02 0.  0.
        -12    1    1    2    0    0  0.68955857298E+01  0.19524006523E+02 -0.34991851640E+02  0.40659139372E+02  0.00000000000E+00 0.  1.
         11    1    3    3    0    0 -0.55509705853E+01 -0.24263718837E+01  0.22018554748E+01  0.64458298729E+01  0.51100000000E-03 0. -1.
        -11    1    3    3    0    0  0.18942527977E+01  0.41521595228E+01 -0.35558436713E+00  0.45776700261E+01  0.51100000000E-03 0.  1.
         12    1    3    3    0    0 -0.32388679422E+01 -0.21249794162E+02  0.33145580532E+02  0.39505360729E+02  0.00000000000E+00 0. -1.
</event>
<event>
 7    1  0.1161807E-013  0.5052886E+02  0.7816164E-02  0.1300439E+00
        -11   -1    0    0    0    0  0.00000000000E+00  0.00000000000E+00  0.45593999997E+02  0.45594000000E+02  0.51100000000E-03 0.  1.
         11   -1    0    0    0    0 -0.00000000000E+00 -0.00000000000E+00 -0.45593999997E+02  0.45594000000E+02  0.51100000000E-03 0. -1.
    9900012    2    1    2    0    0  0.37333314094E+02 -0.24672134473E+01 -0.15915464747E+02  0.50528862017E+02  0.30000006587E+02 0.  0.
        -12    1    1    2    0    0 -0.37333314094E+02  0.24672134473E+01  0.15915464747E+02  0.40659137983E+02  0.00000000000E+00 0.  1.
         11    1    3    3    0    0  0.16848534537E+02  0.59662893699E+01 -0.17893594442E+02  0.25291311694E+02  0.51100000000E-03 0. -1.
        -11    1    3    3    0    0  0.21534078443E+01  0.82453995501E+00  0.39840775538E+01  0.46032494715E+01  0.51100000000E-03 0.  1.
        -12    1    3    3    0    0  0.18331371712E+02 -0.92580427723E+01 -0.20059478591E+01  0.20634300851E+02  0.00000000000E+00 0.  1.
</event>
<event>
 7    1  0.1161807E-013  0.5052887E+02  0.7816164E-02  0.1300439E+00
        -11   -1    0    0    0    0  0.00000000000E+00  0.00000000000E+00  0.45593999997E+02  0.45594000000E+02  0.51100000000E-03 0. -1.
         11   -1    0    0    0    0 -0.00000000000E+00 -0.00000000000E+00 -0.45593999997E+02  0.45594000000E+02  0.51100000000E-03 0.  1.
    9900012    2    1    2    0    0  0.27945087825E+02 -0.29585438753E+01  0.29385102196E+02  0.50528866384E+02  0.30000019859E+02 0.  0.
        -12    1    1    2    0    0 -0.27945087825E+02  0.29585438753E+01 -0.29385102196E+02  0.40659133616E+02  0.00000000000E+00 0.  1.
         11    1    3    3    0    0  0.99329660602E+00  0.10317441679E+01  0.15973471095E+01  0.21453792729E+01  0.51100000000E-03 0. -1.
        -11    1    3    3    0    0  0.30517007075E+01  0.94507298203E+01  0.88674168052E+00  0.99707312878E+01  0.51100000000E-03 0.  1.
         12    1    3    3    0    0  0.23900090511E+02 -0.13441017863E+02  0.26901013406E+02  0.38412755823E+02  0.00000000000E+00 0. -1.
</event>
<event>
 7    1  0.1161807E-013  0.5052886E+02  0.7816164E-02  0.1300439E+00
        -11   -1    0    0    0    0  0.00000000000E+00  0.00000000000E+00  0.45593999997E+02  0.45594000000E+02  0.51100000000E-03 0.  1.
         11   -1    0    0    0    0 -0.00000000000E+00 -0.00000000000E+00 -0.45593999997E+02  0.45594000000E+02  0.51100000000E-03 0. -1.
    9900012    2    1    2    0    0 -0.22958466670E+02  0.32685623477E+02  0.75976589876E+01  0.50528860855E+02  0.30000003056E+02 0.  0.
        -12    1    1    2    0    0  0.22958466670E+02 -0.32685623477E+02 -0.75976589876E+01  0.40659139145E+02  0.00000000000E+00 0.  1.
         11    1    3    3    0    0 -0.15644511690E+02  0.61798121433E+01  0.70276715633E+01  0.18229892814E+02  0.51100000000E-03 0.  1.
        -11    1    3    3    0    0 -0.59434534439E+01  0.11181588374E+02  0.82397629805E+01  0.15107820877E+02  0.51100000000E-03 0. -1.
        -12    1    3    3    0    0 -0.13705015360E+01  0.15324222960E+02 -0.76697755562E+01  0.17191147165E+02  0.00000000000E+00 0.  1.
</event>
<event>
 7    1  0.1161807E-013  0.5052886E+02  0.7816164E-02  0.1300439E+00
        -11   -1    0    0    0    0  0.00000000000E+00  0.00000000000E+00  0.45593999997E+02  0.45594000000E+02  0.51100000000E-03 0.  1.
         11   -1    0    0    0    0 -0.00000000000E+00 -0.00000000000E+00 -0.45593999997E+02  0.45594000000E+02  0.51100000000E-03 0. -1.
    9900012    2    1    2    0    0 -0.36962279153E+02  0.16858002200E+02 -0.16622253976E+01  0.50528864352E+02  0.30000013686E+02 0.  0.
         12    1    1    2    0    0  0.36962279153E+02 -0.16858002200E+02  0.16622253976E+01  0.40659135648E+02  0.00000000000E+00 0. -1.
         11    1    3    3    0    0 -0.13812402800E+02  0.43737413878E+01  0.31795682022E+01  0.14833129780E+02  0.51100000000E-03 0.  1.
        -11    1    3    3    0    0 -0.97616067783E+01  0.34179355375E+01 -0.13772870622E+02  0.17223914063E+02  0.51100000000E-03 0. -1.
         12    1    3    3    0    0 -0.13388269574E+02  0.90663252750E+01  0.89310770218E+01  0.18471820510E+02  0.00000000000E+00 0. -1.
</event>
<event>
 7    1  0.1161807E-013  0.5052884E+02  0.7816164E-02  0.1300439E+00
        -11   -1    0    0    0    0  0.00000000000E+00  0.00000000000E+00  0.45593999997E+02  0.45594000000E+02  0.51100000000E-03 0. -1.
         11   -1    0    0    0    0 -0.00000000000E+00 -0.00000000000E+00 -0.45593999997E+02  0.45594000000E+02  0.51100000000E-03 0.  1.
    9900012    2    1    2    0    0  0.32537894588E+02 -0.24315003085E+02 -0.17980708054E+01  0.50528843370E+02  0.29999949907E+02 0.  0.
        -12    1    1    2    0    0 -0.32537894588E+02  0.24315003085E+02  0.17980708054E+01  0.40659156630E+02  0.00000000000E+00 0.  1.
         11    1    3    3    0    0 -0.13662102180E+01 -0.34110388045E+01 -0.25228132099E+01  0.44571630932E+01  0.51100000000E-03 0.  1.
        -11    1    3    3    0    0 -0.61260459404E+00 -0.84370038100E+01 -0.34502932135E+01  0.91357999759E+01  0.51100000000E-03 0. -1.
         12    1    3    3    0    0  0.34516709400E+02 -0.12466960471E+02  0.41750356181E+01  0.36935880301E+02  0.00000000000E+00 0. -1.
</event>
<event>
 7    1  0.1161807E-013  0.5052886E+02  0.7816164E-02  0.1300439E+00
        -11   -1    0    0    0    0  0.00000000000E+00  0.00000000000E+00  0.45593999997E+02  0.45594000000E+02  0.51100000000E-03 0. -1.
         11   -1    0    0    0    0 -0.00000000000E+00 -0.00000000000E+00 -0.45593999997E+02  0.45594000000E+02  0.51100000000E-03 0.  1.
    9900012    2    1    2    0    0  0.21712953272E+02 -0.27442798956E+02  0.20702806056E+02  0.50528859171E+02  0.29999997936E+02 0.  0.
        -12    1    1    2    0    0 -0.21712953272E+02  0.27442798956E+02 -0.20702806056E+02  0.40659140829E+02  0.00000000000E+00 0.  1.
         11    1    3    3    0    0  0.12947916857E+01 -0.34000926661E+01 -0.19951557062E+01  0.41494291415E+01  0.51100000000E-03 0. -1.
        -11    1    3    3    0    0  0.13565176455E+02 -0.31200876052E+00  0.11786698013E+01  0.13619861397E+02  0.51100000000E-03 0.  1.
         12    1    3    3    0    0  0.68529851319E+01 -0.23730697530E+02  0.21519291961E+02  0.32759568632E+02  0.00000000000E+00 0. -1.
</event>
<event>
 7    1  0.1161807E-013  0.5052885E+02  0.7816164E-02  0.1300439E+00
        -11   -1    0    0    0    0  0.00000000000E+00  0.00000000000E+00  0.45593999997E+02  0.45594000000E+02  0.51100000000E-03 0. -1.
         11   -1    0    0    0    0 -0.00000000000E+00 -0.00000000000E+00 -0.45593999997E+02  0.45594000000E+02  0.51100000000E-03 0.  1.
    9900012    2    1    2    0    0  0.10854932636E+02 -0.27228344621E+02  0.28177193787E+02  0.50528848963E+02  0.29999966907E+02 0.  0.
        -12    1    1    2    0    0 -0.10854932636E+02  0.27228344621E+02 -0.28177193787E+02  0.40659151037E+02  0.00000000000E+00 0.  1.
         11    1    3    3    0    0  0.31335016712E+01  0.13020024968E+01  0.16514465827E+01  0.37737672558E+01  0.51100000000E-03 0. -1.
        -11    1    3    3    0    0  0.12061915832E+01  0.34301728321E+01  0.90446532322E+01  0.97481657836E+01  0.51100000000E-03 0.  1.
        -12    1    3    3    0    0  0.65152393821E+01 -0.31960519950E+02  0.17481093972E+02  0.37006915923E+02  0.00000000000E+00 0.  1.
</event>
<event>
 7    1  0.1161807E-013  0.5052885E+02  0.7816164E-02  0.1300439E+00
        -11   -1    0    0    0    0  0.00000000000E+00  0.00000000000E+00  0.45593999997E+02  0.45594000000E+02  0.51100000000E-03 0. -1.
         11   -1    0    0    0    0 -0.00000000000E+00 -0.00000000000E+00 -0.45593999997E+02  0.45594000000E+02  0.51100000000E-03 0.  1.
    9900012    2    1    2    0    0 -0.27020485826E+02  0.93156454737E+01 -0.28918487505E+02  0.50528845749E+02  0.29999957139E+02 0.  0.
         12    1    1    2    0    0  0.27020485826E+02 -0.93156454737E+01  0.28918487505E+02  0.40659154251E+02  0.00000000000E+00 0. -1.
         11    1    3    3    0    0  0.18642303521E+01 -0.51786701385E+00 -0.35072952509E+01  0.40055787706E+01  0.51100000000E-03 0. -1.
        -11    1    3    3    0    0 -0.88928472164E+01  0.34853975245E+00 -0.22510785361E+02  0.24206190725E+02  0.51100000000E-03 0.  1.
         12    1    3    3    0    0 -0.19991868961E+02  0.94849727351E+01 -0.29004068926E+01  0.22317076253E+02  0.00000000000E+00 0. -1.
</event>
<event>
 7    1  0.1197555E-013  0.5052886E+02  0.7816164E-02  0.1300439E+00
        -11   -1    0    0    0    0  0.00000000000E+00  0.00000000000E+00  0.45593999997E+02  0.45594000000E+02  0.51100000000E-03 0. -1.
         11   -1    0    0    0    0 -0.00000000000E+00 -0.00000000000E+00 -0.45593999997E+02  0.45594000000E+02  0.51100000000E-03 0.  1.
    9900012    2    1    2    0    0 -0.16338912784E+02 -0.97188556946E+01 -0.35940917684E+02  0.50528858457E+02  0.29999995767E+02 0.  0.
         12    1    1    2    0    0  0.16338912784E+02  0.97188556946E+01  0.35940917684E+02  0.40659141543E+02  0.00000000000E+00 0. -1.
         11    1    3    3    0    0 -0.40902877196E+01 -0.48955648093E+01  0.21009255726E+01  0.67164646172E+01  0.51100000000E-03 0. -1.
        -11    1    3    3    0    0 -0.41737507091E+01 -0.71489867207E+01 -0.48953098495E+01  0.96172898936E+01  0.51100000000E-03 0.  1.
        -12    1    3    3    0    0 -0.80748743556E+01  0.23256958354E+01 -0.33146533408E+02  0.34195103947E+02  0.00000000000E+00 0.  1.
</event>
<event>
 7    1  0.1161807E-013  0.5052886E+02  0.7816164E-02  0.1300439E+00
        -11   -1    0    0    0    0  0.00000000000E+00  0.00000000000E+00  0.45593999997E+02  0.45594000000E+02  0.51100000000E-03 0. -1.
         11   -1    0    0    0    0 -0.00000000000E+00 -0.00000000000E+00 -0.45593999997E+02  0.45594000000E+02  0.51100000000E-03 0.  1.
    9900012    2    1    2    0    0  0.13639960250E+02 -0.32456816855E+02  0.20338941213E+02  0.50528855817E+02  0.29999987742E+02 0.  0.
        -12    1    1    2    0    0 -0.13639960250E+02  0.32456816855E+02 -0.20338941213E+02  0.40659144183E+02  0.00000000000E+00 0.  1.
         11    1    3    3    0    0  0.80120933633E+00 -0.47838002844E+01 -0.52088850467E+01  0.71175252197E+01  0.51100000000E-03 0. -1.
        -11    1    3    3    0    0  0.54197846905E+01 -0.93611392978E+01 -0.36788947521E+00  0.10823139007E+02  0.51100000000E-03 0.  1.
         12    1    3    3    0    0  0.74189662236E+01 -0.18311877273E+02  0.25915715735E+02  0.32588191590E+02  0.00000000000E+00 0. -1.
</event>
<event>
 7    1  0.1161807E-013  0.5052881E+02  0.7816164E-02  0.1300439E+00
        -11   -1    0    0    0    0  0.00000000000E+00  0.00000000000E+00  0.45593999997E+02  0.45594000000E+02  0.51100000000E-03 0. -1.
         11   -1    0    0    0    0 -0.00000000000E+00 -0.00000000000E+00 -0.45593999997E+02  0.45594000000E+02  0.51100000000E-03 0.  1.
    9900012    2    1    2    0    0  0.32145524370E+02 -0.92223061458E+01 -0.23125400596E+02  0.50528808907E+02  0.29999845152E+02 0.  0.
         12    1    1    2    0    0 -0.32145524370E+02  0.92223061458E+01  0.23125400596E+02  0.40659191093E+02  0.00000000000E+00 0. -1.
         11    1    3    3    0    0  0.26774908564E+02 -0.15423410017E+02 -0.17195571343E+02  0.35361914247E+02  0.51100000000E-03 0. -1.
        -11    1    3    3    0    0  0.56219669389E+01 -0.94952841817E+00  0.25782222612E+00  0.57074152679E+01  0.51100000000E-03 0.  1.
         12    1    3    3    0    0 -0.25135113316E+00  0.71506322895E+01 -0.61876514788E+01  0.94594793914E+01  0.00000000000E+00 0. -1.
</event>
<event>
 7    1  0.1161807E-013  0.5052886E+02  0.7816164E-02  0.1300439E+00
        -11   -1    0    0    0    0  0.00000000000E+00  0.00000000000E+00  0.45593999997E+02  0.45594000000E+02  0.51100000000E-03 0. -1.
         11   -1    0    0    0    0 -0.00000000000E+00 -0.00000000000E+00 -0.45593999997E+02  0.45594000000E+02  0.51100000000E-03 0.  1.
    9900012    2    1    2    0    0 -0.19591644268E+02  0.11349114950E+02  0.33771738750E+02  0.50528864822E+02  0.30000015113E+02 0.  0.
        -12    1    1    2    0    0  0.19591644268E+02 -0.11349114950E+02 -0.33771738750E+02  0.40659135178E+02  0.00000000000E+00 0.  1.
         11    1    3    3    0    0 -0.55054631057E+01  0.14077369463E+02  0.16292629351E+02  0.22224586080E+02  0.51100000000E-03 0. -1.
        -11    1    3    3    0    0 -0.19722340743E+01  0.66498930721E+01  0.57620884769E+01  0.90173415701E+01  0.51100000000E-03 0.  1.
        -12    1    3    3    0    0 -0.12113947088E+02 -0.93781475856E+01  0.11717020922E+02  0.19286937172E+02  0.00000000000E+00 0.  1.
</event>
<event>
 7    1  0.1161807E-013  0.5052889E+02  0.7816164E-02  0.1300439E+00
        -11   -1    0    0    0    0  0.00000000000E+00  0.00000000000E+00  0.45593999997E+02  0.45594000000E+02  0.51100000000E-03 0. -1.
         11   -1    0    0    0    0 -0.00000000000E+00 -0.00000000000E+00 -0.45593999997E+02  0.45594000000E+02  0.51100000000E-03 0.  1.
    9900012    2    1    2    0    0 -0.19039264638E+01 -0.16777323162E+02  0.36987290732E+02  0.50528890515E+02  0.30000093208E+02 0.  0.
        -12    1    1    2    0    0  0.19039264638E+01  0.16777323162E+02 -0.36987290732E+02  0.40659109485E+02  0.00000000000E+00 0.  1.
         11    1    3    3    0    0 -0.89806906855E+01 -0.78304750459E+01  0.48821626992E+01  0.12876515737E+02  0.51100000000E-03 0. -1.
        -11    1    3    3    0    0 -0.18475121683E+01  0.10754669242E+01 -0.66675029090E+00  0.22393049208E+01  0.51100000000E-03 0.  1.
        -12    1    3    3    0    0  0.89242763900E+01 -0.10022315040E+02  0.32771878324E+02  0.35413069857E+02  0.00000000000E+00 0.  1.
</event>
<event>
 7    1  0.1161807E-013  0.5052886E+02  0.7816164E-02  0.1300439E+00
        -11   -1    0    0    0    0  0.00000000000E+00  0.00000000000E+00  0.45593999997E+02  0.45594000000E+02  0.51100000000E-03 0.  1.
         11   -1    0    0    0    0 -0.00000000000E+00 -0.00000000000E+00 -0.45593999997E+02  0.45594000000E+02  0.51100000000E-03 0. -1.
    9900012    2    1    2    0    0  0.39105736964E+02 -0.10999026532E+02 -0.17112779157E+01  0.50528859327E+02  0.29999998411E+02 0.  0.
         12    1    1    2    0    0 -0.39105736964E+02  0.10999026532E+02  0.17112779157E+01  0.40659140673E+02  0.00000000000E+00 0. -1.
         11    1    3    3    0    0 -0.26419912191E+01  0.59810216292E+00  0.15465629416E+00  0.27132568307E+01  0.51100000000E-03 0. -1.
        -11    1    3    3    0    0  0.18603861588E+02  0.41540051476E+01  0.33060584812E+01  0.19346561650E+02  0.51100000000E-03 0.  1.
         12    1    3    3    0    0  0.23143866595E+02 -0.15751133843E+02 -0.51719926911E+01  0.28469040846E+02  0.00000000000E+00 0. -1.
</event>
<event>
 7    1  0.1161807E-013  0.5052884E+02  0.7816164E-02  0.1300439E+00
        -11   -1    0    0    0    0  0.00000000000E+00  0.00000000000E+00  0.45593999997E+02  0.45594000000E+02  0.51100000000E-03 0. -1.
         11   -1    0    0    0    0 -0.00000000000E+00 -0.00000000000E+00 -0.45593999997E+02  0.45594000000E+02  0.51100000000E-03 0.  1.
    9900012    2    1    2    0    0 -0.28306020494E+02 -0.10517940791E+00 -0.29187756051E+02  0.50528844054E+02  0.29999951988E+02 0.  0.
         12    1    1    2    0    0  0.28306020494E+02  0.10517940791E+00  0.29187756051E+02  0.40659155946E+02  0.00000000000E+00 0. -1.
         11    1    3    3    0    0 -0.83118598041E+01  0.84549762753E+01 -0.90706815944E+01  0.14928191520E+02  0.51100000000E-03 0. -1.
        -11    1    3    3    0    0 -0.13897929726E+02  0.13767856272E+01 -0.19422055028E+02  0.23922044459E+02  0.51100000000E-03 0.  1.
         12    1    3    3    0    0 -0.60962309636E+01 -0.99369413104E+01 -0.69501942924E+00  0.11678608075E+02  0.00000000000E+00 0. -1.
</event>
<event>
 7    1  0.1161807E-013  0.5052886E+02  0.7816164E-02  0.1300439E+00
        -11   -1    0    0    0    0  0.00000000000E+00  0.00000000000E+00  0.45593999997E+02  0.45594000000E+02  0.51100000000E-03 0. -1.
         11   -1    0    0    0    0 -0.00000000000E+00 -0.00000000000E+00 -0.45593999997E+02  0.45594000000E+02  0.51100000000E-03 0.  1.
    9900012    2    1    2    0    0 -0.21200178455E+02 -0.28114782113E+02 -0.20329221032E+02  0.50528858745E+02  0.29999996643E+02 0.  0.
         12    1    1    2    0    0  0.21200178455E+02  0.28114782113E+02  0.20329221032E+02  0.40659141255E+02  0.00000000000E+00 0. -1.
         11    1    3    3    0    0 -0.64256280573E+01 -0.46225379134E+01  0.62354044401E+01  0.10076548094E+02  0.51100000000E-03 0. -1.
        -11    1    3    3    0    0 -0.71931976904E+01 -0.16631236649E+01 -0.70080958670E+01  0.10179463703E+02  0.51100000000E-03 0.  1.
        -12    1    3    3    0    0 -0.75813527076E+01 -0.21829120535E+02 -0.19556529605E+02  0.30272846949E+02  0.00000000000E+00 0.  1.
</event>
<event>
 7    1  0.1161807E-013  0.5052886E+02  0.7816164E-02  0.1300439E+00
        -11   -1    0    0    0    0  0.00000000000E+00  0.00000000000E+00  0.45593999997E+02  0.45594000000E+02  0.51100000000E-03 0. -1.
         11   -1    0    0    0    0 -0.00000000000E+00 -0.00000000000E+00 -0.45593999997E+02  0.45594000000E+02  0.51100000000E-03 0.  1.
    9900012    2    1    2    0    0 -0.13652816786E+02 -0.16867948660E+02  0.34383699708E+02  0.50528857070E+02  0.29999991550E+02 0.  0.
        -12    1    1    2    0    0  0.13652816786E+02  0.16867948660E+02 -0.34383699708E+02  0.40659142930E+02  0.00000000000E+00 0.  1.
         11    1    3    3    0    0 -0.84021266329E+01 -0.78493217316E+01  0.30687452170E+02  0.32770830086E+02  0.51100000000E-03 0. -1.
        -11    1    3    3    0    0 -0.66789679381E+01 -0.38887483908E+01  0.78413390954E+01  0.11009885369E+02  0.51100000000E-03 0.  1.
        -12    1    3    3    0    0  0.14282777851E+01 -0.51298785372E+01 -0.41450915571E+01  0.67481416149E+01  0.00000000000E+00 0.  1.
</event>
<event>
 7    1  0.1161807E-013  0.5052886E+02  0.7816164E-02  0.1300439E+00
        -11   -1    0    0    0    0  0.00000000000E+00  0.00000000000E+00  0.45593999997E+02  0.45594000000E+02  0.51100000000E-03 0.  1.
         11   -1    0    0    0    0 -0.00000000000E+00 -0.00000000000E+00 -0.45593999997E+02  0.45594000000E+02  0.51100000000E-03 0. -1.
    9900012    2    1    2    0    0  0.17858311562E+01  0.36454432863E+02 -0.17917888588E+02  0.50528860809E+02  0.30000002916E+02 0.  0.
         12    1    1    2    0    0 -0.17858311562E+01 -0.36454432863E+02  0.17917888588E+02  0.40659139191E+02  0.00000000000E+00 0. -1.
         11    1    3    3    0    0 -0.53498739635E+01  0.18308574725E+02  0.16595799715E+01  0.19146259839E+02  0.51100000000E-03 0. -1.
        -11    1    3    3    0    0 -0.37100419597E+01  0.99668330650E+01 -0.61643494230E+01  0.12292329997E+02  0.51100000000E-03 0.  1.
        -12    1    3    3    0    0  0.10845747079E+02  0.81790250734E+01 -0.13413119136E+02  0.19090270973E+02  0.00000000000E+00 0.  1.
</event>
<event>
 7    1  0.1161807E-013  0.5052884E+02  0.7816164E-02  0.1300439E+00
        -11   -1    0    0    0    0  0.00000000000E+00  0.00000000000E+00  0.45593999997E+02  0.45594000000E+02  0.51100000000E-03 0. -1.
         11   -1    0    0    0    0 -0.00000000000E+00 -0.00000000000E+00 -0.45593999997E+02  0.45594000000E+02  0.51100000000E-03 0.  1.
    9900012    2    1    2    0    0  0.26169179276E+02  0.26647029679E+01  0.31003875826E+02  0.50528844793E+02  0.29999954233E+02 0.  0.
        -12    1    1    2    0    0 -0.26169179276E+02 -0.26647029679E+01 -0.31003875826E+02  0.40659155207E+02  0.00000000000E+00 0.  1.
         11    1    3    3    0    0 -0.27375156400E+00  0.37457239818E+01 -0.19348899688E+01  0.42248298805E+01  0.51100000000E-03 0. -1.
        -11    1    3    3    0    0  0.52588930053E+01  0.53809623563E+01  0.12263501829E+01  0.76232963050E+01  0.51100000000E-03 0.  1.
         12    1    3    3    0    0  0.21184037835E+02 -0.64619833702E+01  0.31712415612E+02  0.38680718608E+02  0.00000000000E+00 0. -1.
</event>
<event>
 7    1  0.1161807E-013  0.5052886E+02  0.7816164E-02  0.1300439E+00
        -11   -1    0    0    0    0  0.00000000000E+00  0.00000000000E+00  0.45593999997E+02  0.45594000000E+02  0.51100000000E-03 0. -1.
         11   -1    0    0    0    0 -0.00000000000E+00 -0.00000000000E+00 -0.45593999997E+02  0.45594000000E+02  0.51100000000E-03 0.  1.
    9900012    2    1    2    0    0 -0.13915607417E+02 -0.63153849403E+01  0.37678075390E+02  0.50528861029E+02  0.30000003584E+02 0.  0.
        -12    1    1    2    0    0  0.13915607417E+02  0.63153849403E+01 -0.37678075390E+02  0.40659138971E+02  0.00000000000E+00 0.  1.
         11    1    3    3    0    0 -0.94682233111E+01  0.61361035284E+01  0.12075751165E+02  0.16526426887E+02  0.51100000000E-03 0.  1.
        -11    1    3    3    0    0 -0.73556854574E+01  0.10831716560E+01  0.14353300464E+02  0.16164671474E+02  0.51100000000E-03 0. -1.
        -12    1    3    3    0    0  0.29083013515E+01 -0.13534660125E+02  0.11249023761E+02  0.17837762668E+02  0.00000000000E+00 0.  1.
</event>
<event>
 7    1  0.1161807E-013  0.5052885E+02  0.7816164E-02  0.1300439E+00
        -11   -1    0    0    0    0  0.00000000000E+00  0.00000000000E+00  0.45593999997E+02  0.45594000000E+02  0.51100000000E-03 0. -1.
         11   -1    0    0    0    0 -0.00000000000E+00 -0.00000000000E+00 -0.45593999997E+02  0.45594000000E+02  0.51100000000E-03 0.  1.
    9900012    2    1    2    0    0  0.26573183246E+02  0.12714082514E+01  0.30747614174E+02  0.50528851901E+02  0.29999975837E+02 0.  0.
        -12    1    1    2    0    0 -0.26573183246E+02 -0.12714082514E+01 -0.30747614174E+02  0.40659148099E+02  0.00000000000E+00 0.  1.
         11    1    3    3    0    0  0.29909825975E+02  0.28017453227E+01  0.28295545497E+02  0.41268454805E+02  0.51100000000E-03 0. -1.
        -11    1    3    3    0    0 -0.27711665430E+01  0.16712220354E+01  0.44064276200E+01  0.54670789030E+01  0.51100000000E-03 0.  1.
        -12    1    3    3    0    0 -0.56547618582E+00 -0.32015591067E+01 -0.19543589436E+01  0.37933181927E+01  0.00000000000E+00 0.  1.
</event>
<event>
 7    1  0.1161807E-013  0.5052886E+02  0.7816164E-02  0.1300439E+00
        -11   -1    0    0    0    0  0.00000000000E+00  0.00000000000E+00  0.45593999997E+02  0.45594000000E+02  0.51100000000E-03 0. -1.
         11   -1    0    0    0    0 -0.00000000000E+00 -0.00000000000E+00 -0.45593999997E+02  0.45594000000E+02  0.51100000000E-03 0.  1.
    9900012    2    1    2    0    0 -0.28859240032E+02  0.11350654244E+02 -0.26295861203E+02  0.50528863224E+02  0.30000010256E+02 0.  0.
         12    1    1    2    0    0  0.28859240032E+02 -0.11350654244E+02  0.26295861203E+02  0.40659136776E+02  0.00000000000E+00 0. -1.
         11    1    3    3    0    0 -0.34627273419E+01  0.73134412148E+01  0.39932418190E+00  0.81016271890E+01  0.51100000000E-03 0. -1.
        -11    1    3    3    0    0  0.27739156855E+00 -0.33675379602E+01  0.13973650276E+01  0.36564856457E+01  0.51100000000E-03 0.  1.
        -12    1    3    3    0    0 -0.25673904258E+02  0.74047509893E+01 -0.28092550412E+02  0.38770750389E+02  0.00000000000E+00 0.  1.
</event>
<event>
 7    1  0.1161807E-013  0.5052886E+02  0.7816164E-02  0.1300439E+00
        -11   -1    0    0    0    0  0.00000000000E+00  0.00000000000E+00  0.45593999997E+02  0.45594000000E+02  0.51100000000E-03 0. -1.
         11   -1    0    0    0    0 -0.00000000000E+00 -0.00000000000E+00 -0.45593999997E+02  0.45594000000E+02  0.51100000000E-03 0.  1.
    9900012    2    1    2    0    0 -0.98359054047E+01 -0.20594327136E+02  0.33649575586E+02  0.50528864711E+02  0.30000014777E+02 0.  0.
        -12    1    1    2    0    0  0.98359054047E+01  0.20594327136E+02 -0.33649575586E+02  0.40659135289E+02  0.00000000000E+00 0.  1.
         11    1    3    3    0    0  0.27194989586E+01  0.75897303821E+00  0.71053649300E+00  0.29114561696E+01  0.51100000000E-03 0.  1.
        -11    1    3    3    0    0 -0.18762029643E+02 -0.11502859560E+02  0.26000265734E+02  0.34063812953E+02  0.51100000000E-03 0. -1.
         12    1    3    3    0    0  0.62066252800E+01 -0.98504406144E+01  0.69387733589E+01  0.13553595589E+02  0.00000000000E+00 0. -1.
</event>
<event>
 7    1  0.1161807E-013  0.5052892E+02  0.7816164E-02  0.1300439E+00
        -11   -1    0    0    0    0  0.00000000000E+00  0.00000000000E+00  0.45593999997E+02  0.45594000000E+02  0.51100000000E-03 0.  1.
         11   -1    0    0    0    0 -0.00000000000E+00 -0.00000000000E+00 -0.45593999997E+02  0.45594000000E+02  0.51100000000E-03 0. -1.
    9900012    2    1    2    0    0 -0.37573440632E+02  0.21248829814E+01 -0.15390987441E+02  0.50528916599E+02  0.30000172493E+02 0.  0.
         12    1    1    2    0    0  0.37573440632E+02 -0.21248829814E+01  0.15390987441E+02  0.40659083401E+02  0.00000000000E+00 0. -1.
         11    1    3    3    0    0 -0.87809443627E+01 -0.35537944903E+01 -0.54879489271E+01  0.10947694866E+02  0.51100000000E-03 0. -1.
        -11    1    3    3    0    0 -0.25311321025E+02 -0.49567309338E+01 -0.11567842826E+02  0.28267421911E+02  0.51100000000E-03 0.  1.
         12    1    3    3    0    0 -0.34811752443E+01  0.10635408406E+02  0.16648043112E+01  0.11313799823E+02  0.00000000000E+00 0. -1.
</event>
<event>
 7    1  0.1161807E-013  0.5052885E+02  0.7816164E-02  0.1300439E+00
        -11   -1    0    0    0    0  0.00000000000E+00  0.00000000000E+00  0.45593999997E+02  0.45594000000E+02  0.51100000000E-03 0. -1.
         11   -1    0    0    0    0 -0.00000000000E+00 -0.00000000000E+00 -0.45593999997E+02  0.45594000000E+02  0.51100000000E-03 0.  1.
    9900012    2    1    2    0    0 -0.59327133770E+01 -0.22380690590E+02  0.33422658454E+02  0.50528849770E+02  0.29999969360E+02 0.  0.
        -12    1    1    2    0    0  0.59327133770E+01  0.22380690590E+02 -0.33422658454E+02  0.40659150230E+02  0.00000000000E+00 0.  1.
         11    1    3    3    0    0  0.46867495430E+00 -0.32661040854E+00 -0.13086968601E+01  0.14279419822E+01  0.51100000000E-03 0. -1.
        -11    1    3    3    0    0  0.13911937937E+01  0.39009282744E+01 -0.99499423196E+00  0.42594219509E+01  0.51100000000E-03 0.  1.
         12    1    3    3    0    0 -0.77925821250E+01 -0.25955008456E+02  0.35726349546E+02  0.44841485837E+02  0.00000000000E+00 0. -1.
</event>
<event>
 7    1  0.1161807E-013  0.5052886E+02  0.7816164E-02  0.1300439E+00
        -11   -1    0    0    0    0  0.00000000000E+00  0.00000000000E+00  0.45593999997E+02  0.45594000000E+02  0.51100000000E-03 0.  1.
         11   -1    0    0    0    0 -0.00000000000E+00 -0.00000000000E+00 -0.45593999997E+02  0.45594000000E+02  0.51100000000E-03 0. -1.
    9900012    2    1    2    0    0  0.23340746056E+02 -0.33039232118E+02 -0.40968584440E+01  0.50528861611E+02  0.30000005354E+02 0.  0.
         12    1    1    2    0    0 -0.23340746056E+02  0.33039232118E+02  0.40968584440E+01  0.40659138389E+02  0.00000000000E+00 0. -1.
         11    1    3    3    0    0  0.20297044704E+01 -0.10163109585E+02 -0.80579149696E+01  0.13127775539E+02  0.51100000000E-03 0. -1.
        -11    1    3    3    0    0  0.51406224289E+01 -0.10297547447E+02 -0.76814958226E+01  0.13837299618E+02  0.51100000000E-03 0.  1.
        -12    1    3    3    0    0  0.16170419157E+02 -0.12578575085E+02  0.11642552348E+02  0.23563786454E+02  0.00000000000E+00 0.  1.
</event>
<event>
 7    1  0.1161807E-013  0.5052886E+02  0.7816164E-02  0.1300439E+00
        -11   -1    0    0    0    0  0.00000000000E+00  0.00000000000E+00  0.45593999997E+02  0.45594000000E+02  0.51100000000E-03 0. -1.
         11   -1    0    0    0    0 -0.00000000000E+00 -0.00000000000E+00 -0.45593999997E+02  0.45594000000E+02  0.51100000000E-03 0.  1.
    9900012    2    1    2    0    0  0.11308224707E+01 -0.84162018427E+01  0.39762475612E+02  0.50528859825E+02  0.29999999925E+02 0.  0.
        -12    1    1    2    0    0 -0.11308224707E+01  0.84162018427E+01 -0.39762475612E+02  0.40659140175E+02  0.00000000000E+00 0.  1.
         11    1    3    3    0    0 -0.54647456986E+01 -0.60734160661E+01  0.14206597398E+02  0.16388326277E+02  0.51100000000E-03 0. -1.
        -11    1    3    3    0    0  0.88157618853E+01 -0.10772797958E+02  0.15790288814E+02  0.21050036925E+02  0.51100000000E-03 0.  1.
        -12    1    3    3    0    0 -0.22201937160E+01  0.84300121812E+01  0.97655894007E+01  0.13090496624E+02  0.00000000000E+00 0.  1.
</event>
<event>
 7    1  0.1161807E-013  0.5052884E+02  0.7816164E-02  0.1300439E+00
        -11   -1    0    0    0    0  0.00000000000E+00  0.00000000000E+00  0.45593999997E+02  0.45594000000E+02  0.51100000000E-03 0. -1.
         11   -1    0    0    0    0 -0.00000000000E+00 -0.00000000000E+00 -0.45593999997E+02  0.45594000000E+02  0.51100000000E-03 0.  1.
    9900012    2    1    2    0    0  0.24403923192E+02  0.14938531064E+02 -0.28886948069E+02  0.50528844251E+02  0.29999952584E+02 0.  0.
         12    1    1    2    0    0 -0.24403923192E+02 -0.14938531064E+02  0.28886948069E+02  0.40659155749E+02  0.00000000000E+00 0. -1.
         11    1    3    3    0    0  0.74912787476E+01 -0.22142312576E+01 -0.15780991734E+02  0.17608571143E+02  0.51100000000E-03 0. -1.
        -11    1    3    3    0    0  0.28585741805E+01  0.10709490840E+02 -0.13483753121E+02  0.17454977482E+02  0.51100000000E-03 0.  1.
         12    1    3    3    0    0  0.14054070264E+02  0.64432714813E+01  0.37779678617E+00  0.15465295625E+02  0.00000000000E+00 0. -1.
</event>
<event>
 7    1  0.1161807E-013  0.5052886E+02  0.7816164E-02  0.1300439E+00
        -11   -1    0    0    0    0  0.00000000000E+00  0.00000000000E+00  0.45593999997E+02  0.45594000000E+02  0.51100000000E-03 0. -1.
         11   -1    0    0    0    0 -0.00000000000E+00 -0.00000000000E+00 -0.45593999997E+02  0.45594000000E+02  0.51100000000E-03 0.  1.
    9900012    2    1    2    0    0  0.13610095025E+02 -0.57520712812E+01 -0.37879339141E+02  0.50528863950E+02  0.30000012462E+02 0.  0.
         12    1    1    2    0    0 -0.13610095025E+02  0.57520712812E+01  0.37879339141E+02  0.40659136050E+02  0.00000000000E+00 0. -1.
         11    1    3    3    0    0  0.71713481106E+01 -0.44657103160E+01 -0.24037395554E+02  0.25478759539E+02  0.51100000000E-03 0. -1.
        -11    1    3    3    0    0  0.76889388165E+01 -0.34344162390E+01 -0.18188373671E+02  0.20043251535E+02  0.51100000000E-03 0.  1.
         12    1    3    3    0    0 -0.12501919021E+01  0.21480552738E+01  0.43464300842E+01  0.50068528766E+01  0.00000000000E+00 0. -1.
</event>
<event>
 7    1  0.1161807E-013  0.5052886E+02  0.7816164E-02  0.1300439E+00
        -11   -1    0    0    0    0  0.00000000000E+00  0.00000000000E+00  0.45593999997E+02  0.45594000000E+02  0.51100000000E-03 0. -1.
         11   -1    0    0    0    0 -0.00000000000E+00 -0.00000000000E+00 -0.45593999997E+02  0.45594000000E+02  0.51100000000E-03 0.  1.
    9900012    2    1    2    0    0  0.11624627817E+02 -0.11515552189E+02 -0.37221307373E+02  0.50528860355E+02  0.30000001535E+02 0.  0.
         12    1    1    2    0    0 -0.11624627817E+02  0.11515552189E+02  0.37221307373E+02  0.40659139645E+02  0.00000000000E+00 0. -1.
         11    1    3    3    0    0  0.15638765117E+02 -0.25861973428E+01 -0.13589352707E+02  0.20878934319E+02  0.51100000000E-03 0. -1.
        -11    1    3    3    0    0  0.56418755508E+01 -0.18642177495E+01 -0.78087826514E+01  0.98123979896E+01  0.51100000000E-03 0.  1.
         12    1    3    3    0    0 -0.96560128503E+01 -0.70651370972E+01 -0.15823172015E+02  0.19837528046E+02  0.00000000000E+00 0. -1.
</event>
<event>
 7    1  0.1161807E-013  0.5052886E+02  0.7816164E-02  0.1300439E+00
        -11   -1    0    0    0    0  0.00000000000E+00  0.00000000000E+00  0.45593999997E+02  0.45594000000E+02  0.51100000000E-03 0. -1.
         11   -1    0    0    0    0 -0.00000000000E+00 -0.00000000000E+00 -0.45593999997E+02  0.45594000000E+02  0.51100000000E-03 0.  1.
    9900012    2    1    2    0    0 -0.28539822316E+02 -0.15773527711E+02 -0.24286630028E+02  0.50528855488E+02  0.29999986742E+02 0.  0.
         12    1    1    2    0    0  0.28539822316E+02  0.15773527711E+02  0.24286630028E+02  0.40659144512E+02  0.00000000000E+00 0. -1.
         11    1    3    3    0    0 -0.17297951104E+02 -0.30747573153E+01  0.29736508543E+01  0.17818974286E+02  0.51100000000E-03 0. -1.
        -11    1    3    3    0    0 -0.18580932121E+01 -0.60637911407E+01 -0.72354612446E+01  0.96215369389E+01  0.51100000000E-03 0.  1.
        -12    1    3    3    0    0 -0.93837780001E+01 -0.66349792551E+01 -0.20024819638E+02  0.23088344263E+02  0.00000000000E+00 0.  1.
</event>
<event>
 7    1  0.1161807E-013  0.5052877E+02  0.7816164E-02  0.1300439E+00
        -11   -1    0    0    0    0  0.00000000000E+00  0.00000000000E+00  0.45593999997E+02  0.45594000000E+02  0.51100000000E-03 0. -1.
         11   -1    0    0    0    0 -0.00000000000E+00 -0.00000000000E+00 -0.45593999997E+02  0.45594000000E+02  0.51100000000E-03 0.  1.
    9900012    2    1    2    0    0  0.22605748186E+02  0.25149091869E+02 -0.22576011033E+02  0.50528770457E+02  0.29999728279E+02 0.  0.
         12    1    1    2    0    0 -0.22605748186E+02 -0.25149091869E+02  0.22576011033E+02  0.40659229543E+02  0.00000000000E+00 0. -1.
         11    1    3    3    0    0  0.39010400322E+00 -0.12453318480E+01 -0.65319280934E+01  0.66610147443E+01  0.51100000000E-03 0. -1.
        -11    1    3    3    0    0 -0.19396164057E+01 -0.24965225447E+01 -0.10052545656E+01  0.33174197232E+01  0.51100000000E-03 0.  1.
        -12    1    3    3    0    0  0.24155260588E+02  0.28890946262E+02 -0.15038828374E+02  0.40550335989E+02  0.00000000000E+00 0.  1.
</event>
<event>
 7    1  0.1161807E-013  0.5052885E+02  0.7816164E-02  0.1300439E+00
        -11   -1    0    0    0    0  0.00000000000E+00  0.00000000000E+00  0.45593999997E+02  0.45594000000E+02  0.51100000000E-03 0. -1.
         11   -1    0    0    0    0 -0.00000000000E+00 -0.00000000000E+00 -0.45593999997E+02  0.45594000000E+02  0.51100000000E-03 0.  1.
    9900012    2    1    2    0    0  0.37771577012E+02  0.11473724031E+02 -0.97379678892E+01  0.50528851070E+02  0.29999973312E+02 0.  0.
         12    1    1    2    0    0 -0.37771577012E+02 -0.11473724031E+02  0.97379678892E+01  0.40659148930E+02  0.00000000000E+00 0. -1.
         11    1    3    3    0    0  0.72443061761E+01  0.17614454663E+00 -0.40733501531E+01  0.83128322854E+01  0.51100000000E-03 0. -1.
        -11    1    3    3    0    0  0.14728151029E+02 -0.80096950780E+01 -0.70413157177E+00  0.16780031272E+02  0.51100000000E-03 0.  1.
        -12    1    3    3    0    0  0.15799119807E+02  0.19307274563E+02 -0.49604861643E+01  0.25435987512E+02  0.00000000000E+00 0.  1.
</event>
<event>
 7    1  0.1161807E-013  0.5052885E+02  0.7816164E-02  0.1300439E+00
        -11   -1    0    0    0    0  0.00000000000E+00  0.00000000000E+00  0.45593999997E+02  0.45594000000E+02  0.51100000000E-03 0. -1.
         11   -1    0    0    0    0 -0.00000000000E+00 -0.00000000000E+00 -0.45593999997E+02  0.45594000000E+02  0.51100000000E-03 0.  1.
    9900012    2    1    2    0    0 -0.28157789045E+02  0.40223769326E+01 -0.29053848702E+02  0.50528846978E+02  0.29999960874E+02 0.  0.
         12    1    1    2    0    0  0.28157789045E+02 -0.40223769326E+01  0.29053848702E+02  0.40659153022E+02  0.00000000000E+00 0. -1.
         11    1    3    3    0    0 -0.12661996389E+02 -0.78365504481E+01 -0.18724730031E+02  0.23923904164E+02  0.51100000000E-03 0. -1.
        -11    1    3    3    0    0 -0.69084293990E+01 -0.21092394562E+01 -0.66111772235E+01  0.97919840883E+01  0.51100000000E-03 0.  1.
        -12    1    3    3    0    0 -0.85873632570E+01  0.13968166837E+02 -0.37179414481E+01  0.16812958725E+02  0.00000000000E+00 0.  1.
</event>
<event>
 7    1  0.1161807E-013  0.5052887E+02  0.7816164E-02  0.1300439E+00
        -11   -1    0    0    0    0  0.00000000000E+00  0.00000000000E+00  0.45593999997E+02  0.45594000000E+02  0.51100000000E-03 0.  1.
         11   -1    0    0    0    0 -0.00000000000E+00 -0.00000000000E+00 -0.45593999997E+02  0.45594000000E+02  0.51100000000E-03 0. -1.
    9900012    2    1    2    0    0  0.23206037235E+02 -0.32702514218E+02 -0.67223802881E+01  0.50528868221E+02  0.30000025445E+02 0.  0.
         12    1    1    2    0    0 -0.23206037235E+02  0.32702514218E+02  0.67223802881E+01  0.40659131779E+02  0.00000000000E+00 0. -1.
         11    1    3    3    0    0  0.51908529815E+01 -0.23790017313E+01 -0.46864967017E+01  0.73870058555E+01  0.51100000000E-03 0. -1.
        -11    1    3    3    0    0  0.17735379915E+02 -0.60138716608E+01  0.19688091498E+00  0.18728297185E+02  0.51100000000E-03 0.  1.
         12    1    3    3    0    0  0.27980433832E+00 -0.24309640825E+02 -0.22327645014E+01  0.24413565181E+02  0.00000000000E+00 0. -1.
</event>
<event>
 7    1  0.1161807E-013  0.5052886E+02  0.7816164E-02  0.1300439E+00
        -11   -1    0    0    0    0  0.00000000000E+00  0.00000000000E+00  0.45593999997E+02  0.45594000000E+02  0.51100000000E-03 0. -1.
         11   -1    0    0    0    0 -0.00000000000E+00 -0.00000000000E+00 -0.45593999997E+02  0.45594000000E+02  0.51100000000E-03 0.  1.
    9900012    2    1    2    0    0  0.62278249719E+01  0.74300253507E+01  0.39486385046E+02  0.50528859766E+02  0.29999999744E+02 0.  0.
        -12    1    1    2    0    0 -0.62278249719E+01 -0.74300253507E+01 -0.39486385046E+02  0.40659140234E+02  0.00000000000E+00 0.  1.
         11    1    3    3    0    0 -0.14996623994E+01 -0.32221334118E+01  0.11569502207E+02  0.12103078642E+02  0.51100000000E-03 0. -1.
        -11    1    3    3    0    0 -0.79514191930E+01  0.10745683429E+01  0.80578012608E+01  0.11371364286E+02  0.51100000000E-03 0.  1.
         12    1    3    3    0    0  0.15678906564E+02  0.95775904196E+01  0.19859081579E+02  0.27054416838E+02  0.00000000000E+00 0. -1.
</event>
<event>
 7    1  0.1161807E-013  0.5052887E+02  0.7816164E-02  0.1300439E+00
        -11   -1    0    0    0    0  0.00000000000E+00  0.00000000000E+00  0.45593999997E+02  0.45594000000E+02  0.51100000000E-03 0. -1.
         11   -1    0    0    0    0 -0.00000000000E+00 -0.00000000000E+00 -0.45593999997E+02  0.45594000000E+02  0.51100000000E-03 0.  1.
    9900012    2    1    2    0    0 -0.40094887235E+02 -0.55770537080E+01 -0.38028401482E+01  0.50528866910E+02  0.30000021461E+02 0.  0.
         12    1    1    2    0    0  0.40094887235E+02  0.55770537080E+01  0.38028401482E+01  0.40659133090E+02  0.00000000000E+00 0. -1.
         11    1    3    3    0    0 -0.49142304709E+01 -0.31135033164E+00 -0.63905739065E+01  0.80675916645E+01  0.51100000000E-03 0.  1.
        -11    1    3    3    0    0 -0.25112541717E+00 -0.57943786220E+01 -0.38201752940E+01  0.69448993606E+01  0.51100000000E-03 0. -1.
        -12    1    3    3    0    0 -0.34929531346E+02  0.52867524563E+00  0.64079090523E+01  0.35516375885E+02  0.00000000000E+00 0.  1.
</event>
<event>
 7    1  0.1161807E-013  0.5052886E+02  0.7816164E-02  0.1300439E+00
        -11   -1    0    0    0    0  0.00000000000E+00  0.00000000000E+00  0.45593999997E+02  0.45594000000E+02  0.51100000000E-03 0. -1.
         11   -1    0    0    0    0 -0.00000000000E+00 -0.00000000000E+00 -0.45593999997E+02  0.45594000000E+02  0.51100000000E-03 0.  1.
    9900012    2    1    2    0    0  0.55708184004E+01  0.30471628639E+02  0.26336509760E+02  0.50528856922E+02  0.29999991099E+02 0.  0.
        -12    1    1    2    0    0 -0.55708184004E+01 -0.30471628639E+02 -0.26336509760E+02  0.40659143078E+02  0.00000000000E+00 0.  1.
         11    1    3    3    0    0  0.35486365824E+01 -0.28939407654E+01 -0.17529308025E+01  0.49031093611E+01  0.51100000000E-03 0. -1.
        -11    1    3    3    0    0  0.48604730700E+01  0.36847819000E+01  0.55834986931E+01  0.82690552079E+01  0.51100000000E-03 0.  1.
        -12    1    3    3    0    0 -0.28382912520E+01  0.29680787504E+02  0.22505941869E+02  0.37356692352E+02  0.00000000000E+00 0.  1.
</event>
<event>
 7    1  0.1161807E-013  0.5052886E+02  0.7816164E-02  0.1300439E+00
        -11   -1    0    0    0    0  0.00000000000E+00  0.00000000000E+00  0.45593999997E+02  0.45594000000E+02  0.51100000000E-03 0. -1.
         11   -1    0    0    0    0 -0.00000000000E+00 -0.00000000000E+00 -0.45593999997E+02  0.45594000000E+02  0.51100000000E-03 0.  1.
    9900012    2    1    2    0    0 -0.19508527593E+02  0.12279643742E+02 -0.33493183793E+02  0.50528860070E+02  0.30000000669E+02 0.  0.
         12    1    1    2    0    0  0.19508527593E+02 -0.12279643742E+02  0.33493183793E+02  0.40659139930E+02  0.00000000000E+00 0. -1.
         11    1    3    3    0    0 -0.72903145176E+01 -0.31168156618E+01 -0.48651649235E+01  0.93023145308E+01  0.51100000000E-03 0. -1.
        -11    1    3    3    0    0 -0.14611269266E+02  0.10590313782E+01 -0.10673012140E+02  0.18125228976E+02  0.51100000000E-03 0.  1.
         12    1    3    3    0    0  0.23930561909E+01  0.14337428025E+02 -0.17955006730E+02  0.23101316564E+02  0.00000000000E+00 0. -1.
</event>
<event>
 7    1  0.1161807E-013  0.5052886E+02  0.7816164E-02  0.1300439E+00
        -11   -1    0    0    0    0  0.00000000000E+00  0.00000000000E+00  0.45593999997E+02  0.45594000000E+02  0.51100000000E-03 0.  1.
         11   -1    0    0    0    0 -0.00000000000E+00 -0.00000000000E+00 -0.45593999997E+02  0.45594000000E+02  0.51100000000E-03 0. -1.
    9900012    2    1    2    0    0 -0.36193070791E+02 -0.17971173881E+02  0.45015887793E+01  0.50528858771E+02  0.29999996721E+02 0.  0.
        -12    1    1    2    0    0  0.36193070791E+02  0.17971173881E+02 -0.45015887793E+01  0.40659141229E+02  0.00000000000E+00 0.  1.
         11    1    3    3    0    0 -0.13647622013E+02 -0.62103243512E+01  0.16439894708E+02  0.22250749503E+02  0.51100000000E-03 0.  1.
        -11    1    3    3    0    0 -0.80323475612E+01 -0.59728747237E+01 -0.47076795673E+01  0.11061468572E+02  0.51100000000E-03 0. -1.
        -12    1    3    3    0    0 -0.14513101216E+02 -0.57879748062E+01 -0.72306263614E+01  0.17216640696E+02  0.00000000000E+00 0.  1.
</event>
<event>
 7    1  0.1161807E-013  0.5052884E+02  0.7816164E-02  0.1300439E+00
        -11   -1    0    0    0    0  0.00000000000E+00  0.00000000000E+00  0.45593999997E+02  0.45594000000E+02  0.51100000000E-03 0. -1.
         11   -1    0    0    0    0 -0.00000000000E+00 -0.00000000000E+00 -0.45593999997E+02  0.45594000000E+02  0.51100000000E-03 0.  1.
    9900012    2    1    2    0    0  0.76112578347E+01 -0.21002981105E+02 -0.33972206624E+02  0.50528840097E+02  0.29999939959E+02 0.  0.
         12    1    1    2    0    0 -0.76112578347E+01  0.21002981105E+02  0.33972206624E+02  0.40659159903E+02  0.00000000000E+00 0. -1.
         11    1    3    3    0    0 -0.47925831257E+01 -0.25396680100E+00 -0.92570603852E+01  0.10427200937E+02  0.51100000000E-03 0. -1.
        -11    1    3    3    0    0  0.22772058407E+01 -0.19946544900E+02 -0.21570742753E+02  0.29467732574E+02  0.51100000000E-03 0.  1.
        -12    1    3    3    0    0  0.10126635120E+02 -0.80246940406E+00 -0.31444034855E+01  0.10633906586E+02  0.00000000000E+00 0.  1.
</event>
<event>
 7    1  0.1161807E-013  0.5052885E+02  0.7816164E-02  0.1300439E+00
        -11   -1    0    0    0    0  0.00000000000E+00  0.00000000000E+00  0.45593999997E+02  0.45594000000E+02  0.51100000000E-03 0. -1.
         11   -1    0    0    0    0 -0.00000000000E+00 -0.00000000000E+00 -0.45593999997E+02  0.45594000000E+02  0.51100000000E-03 0.  1.
    9900012    2    1    2    0    0  0.84501263096E+01  0.31562104596E+02 -0.24199081804E+02  0.50528848000E+02  0.29999963982E+02 0.  0.
         12    1    1    2    0    0 -0.84501263096E+01 -0.31562104596E+02  0.24199081804E+02  0.40659152000E+02  0.00000000000E+00 0. -1.
         11    1    3    3    0    0  0.48006549699E+01  0.18630744485E+02 -0.10378530822E+02  0.21860119636E+02  0.51100000000E-03 0. -1.
        -11    1    3    3    0    0  0.85534149275E+01  0.16492524265E+02 -0.78749104990E+01  0.20178663960E+02  0.51100000000E-03 0.  1.
         12    1    3    3    0    0 -0.49039435879E+01 -0.35611641543E+01 -0.59456404831E+01  0.84900644050E+01  0.00000000000E+00 0. -1.
</event>
<event>
 7    1  0.1161807E-013  0.5052885E+02  0.7816164E-02  0.1300439E+00
        -11   -1    0    0    0    0  0.00000000000E+00  0.00000000000E+00  0.45593999997E+02  0.45594000000E+02  0.51100000000E-03 0. -1.
         11   -1    0    0    0    0 -0.00000000000E+00 -0.00000000000E+00 -0.45593999997E+02  0.45594000000E+02  0.51100000000E-03 0.  1.
    9900012    2    1    2    0    0  0.29440370070E+02  0.14662084512E+02  0.23905112153E+02  0.50528849749E+02  0.29999969296E+02 0.  0.
        -12    1    1    2    0    0 -0.29440370070E+02 -0.14662084512E+02 -0.23905112153E+02  0.40659150251E+02  0.00000000000E+00 0.  1.
         11    1    3    3    0    0  0.23347697391E+02  0.56531782057E-01  0.16494920442E+02  0.28586720168E+02  0.51100000000E-03 0. -1.
        -11    1    3    3    0    0 -0.27506400075E+01 -0.27264553873E+00  0.30038585562E+01  0.40820978096E+01  0.51100000000E-03 0.  1.
        -12    1    3    3    0    0  0.88433126862E+01  0.14878198269E+02  0.44063331551E+01  0.17860031771E+02  0.00000000000E+00 0.  1.
</event>
<event>
 7    1  0.1161807E-013  0.5052886E+02  0.7816164E-02  0.1300439E+00
        -11   -1    0    0    0    0  0.00000000000E+00  0.00000000000E+00  0.45593999997E+02  0.45594000000E+02  0.51100000000E-03 0. -1.
         11   -1    0    0    0    0 -0.00000000000E+00 -0.00000000000E+00 -0.45593999997E+02  0.45594000000E+02  0.51100000000E-03 0.  1.
    9900012    2    1    2    0    0 -0.68771297159E+01  0.28471824581E+02 -0.28199748947E+02  0.50528861436E+02  0.30000004820E+02 0.  0.
         12    1    1    2    0    0  0.68771297159E+01 -0.28471824581E+02  0.28199748947E+02  0.40659138564E+02  0.00000000000E+00 0. -1.
         11    1    3    3    0    0  0.98736607703E+00  0.25311232902E+02 -0.22547886399E+02  0.33912248290E+02  0.51100000000E-03 0. -1.
        -11    1    3    3    0    0  0.63664651486E+00  0.51448531447E+01 -0.59376488893E+01  0.78822907368E+01  0.51100000000E-03 0.  1.
         12    1    3    3    0    0 -0.85011423078E+01 -0.19842614655E+01  0.28578634114E+00  0.87343224084E+01  0.00000000000E+00 0. -1.
</event>
<event>
 7    1  0.1161807E-013  0.5052886E+02  0.7816164E-02  0.1300439E+00
        -11   -1    0    0    0    0  0.00000000000E+00  0.00000000000E+00  0.45593999997E+02  0.45594000000E+02  0.51100000000E-03 0. -1.
         11   -1    0    0    0    0 -0.00000000000E+00 -0.00000000000E+00 -0.45593999997E+02  0.45594000000E+02  0.51100000000E-03 0.  1.
    9900012    2    1    2    0    0  0.24015280732E+02  0.32767505073E+02 -0.16500304878E+01  0.50528859601E+02  0.29999999244E+02 0.  0.
        -12    1    1    2    0    0 -0.24015280732E+02 -0.32767505073E+02  0.16500304878E+01  0.40659140399E+02  0.00000000000E+00 0.  1.
         11    1    3    3    0    0  0.88108970749E+01  0.16798740015E+02  0.10204171762E+02  0.21539607586E+02  0.51100000000E-03 0. -1.
        -11    1    3    3    0    0  0.91153985859E+01  0.78926685180E+01  0.15936025706E+01  0.12162412472E+02  0.51100000000E-03 0.  1.
        -12    1    3    3    0    0  0.60889850714E+01  0.80760965397E+01 -0.13447804821E+02  0.16826839543E+02  0.00000000000E+00 0.  1.
</event>
<event>
 7    1  0.1161807E-013  0.5052889E+02  0.7816164E-02  0.1300439E+00
        -11   -1    0    0    0    0  0.00000000000E+00  0.00000000000E+00  0.45593999997E+02  0.45594000000E+02  0.51100000000E-03 0. -1.
         11   -1    0    0    0    0 -0.00000000000E+00 -0.00000000000E+00 -0.45593999997E+02  0.45594000000E+02  0.51100000000E-03 0.  1.
    9900012    2    1    2    0    0  0.29351025213E+02  0.21432894662E+02  0.18229414568E+02  0.50528890194E+02  0.30000092235E+02 0.  0.
        -12    1    1    2    0    0 -0.29351025213E+02 -0.21432894662E+02 -0.18229414568E+02  0.40659109806E+02  0.00000000000E+00 0.  1.
         11    1    3    3    0    0 -0.24968331850E+00  0.81625382409E+01  0.26361637177E+01  0.85813012826E+01  0.51100000000E-03 0. -1.
        -11    1    3    3    0    0  0.43473438175E+00  0.30834141858E+01 -0.42212521934E+01  0.52455130698E+01  0.51100000000E-03 0.  1.
         12    1    3    3    0    0  0.29165974150E+02  0.10186942236E+02  0.19814503044E+02  0.36702075842E+02  0.00000000000E+00 0. -1.
</event>
<event>
 7    1  0.1161807E-013  0.5052886E+02  0.7816164E-02  0.1300439E+00
        -11   -1    0    0    0    0  0.00000000000E+00  0.00000000000E+00  0.45593999997E+02  0.45594000000E+02  0.51100000000E-03 0. -1.
         11   -1    0    0    0    0 -0.00000000000E+00 -0.00000000000E+00 -0.45593999997E+02  0.45594000000E+02  0.51100000000E-03 0.  1.
    9900012    2    1    2    0    0  0.83659289032E+01 -0.31578731741E+02 -0.24206623063E+02  0.50528860008E+02  0.30000000480E+02 0.  0.
         12    1    1    2    0    0 -0.83659289032E+01  0.31578731741E+02  0.24206623063E+02  0.40659139992E+02  0.00000000000E+00 0. -1.
         11    1    3    3    0    0  0.30175409178E+01 -0.22237361939E+01 -0.14964871372E+02  0.15427181573E+02  0.51100000000E-03 0. -1.
        -11    1    3    3    0    0 -0.37615245525E+01 -0.12308036098E+01 -0.27919616948E+01  0.48434486526E+01  0.51100000000E-03 0.  1.
        -12    1    3    3    0    0  0.91099125379E+01 -0.28124191937E+02 -0.64497899969E+01  0.30258229782E+02  0.00000000000E+00 0.  1.
</event>
<event>
 7    1  0.1161807E-013  0.5052888E+02  0.7816164E-02  0.1300439E+00
        -11   -1    0    0    0    0  0.00000000000E+00  0.00000000000E+00  0.45593999997E+02  0.45594000000E+02  0.51100000000E-03 0. -1.
         11   -1    0    0    0    0 -0.00000000000E+00 -0.00000000000E+00 -0.45593999997E+02  0.45594000000E+02  0.51100000000E-03 0.  1.
    9900012    2    1    2    0    0 -0.10940187059E+02  0.34624789056E+02 -0.18292091926E+02  0.50528876337E+02  0.30000050113E+02 0.  0.
         12    1    1    2    0    0  0.10940187059E+02 -0.34624789056E+02  0.18292091926E+02  0.40659123663E+02  0.00000000000E+00 0. -1.
         11    1    3    3    0    0 -0.50683081466E+01 -0.15367874666E+01  0.32463225770E+01  0.62119299514E+01  0.51100000000E-03 0. -1.
        -11    1    3    3    0    0 -0.25155523671E+00  0.71143878404E+01  0.91248235997E+00  0.71770759156E+01  0.51100000000E-03 0.  1.
        -12    1    3    3    0    0 -0.56203236753E+01  0.29047188682E+02 -0.22450896863E+02  0.37139870470E+02  0.00000000000E+00 0.  1.
</event>
<event>
 7    1  0.1161807E-013  0.5052886E+02  0.7816164E-02  0.1300439E+00
        -11   -1    0    0    0    0  0.00000000000E+00  0.00000000000E+00  0.45593999997E+02  0.45594000000E+02  0.51100000000E-03 0. -1.
         11   -1    0    0    0    0 -0.00000000000E+00 -0.00000000000E+00 -0.45593999997E+02  0.45594000000E+02  0.51100000000E-03 0.  1.
    9900012    2    1    2    0    0  0.10439997664E+02 -0.30966179421E+02  0.24192306487E+02  0.50528861885E+02  0.30000006185E+02 0.  0.
        -12    1    1    2    0    0 -0.10439997664E+02  0.30966179421E+02 -0.24192306487E+02  0.40659138115E+02  0.00000000000E+00 0.  1.
         11    1    3    3    0    0  0.19691002115E+01 -0.59005568740E+01 -0.56426896207E+01  0.83984447062E+01  0.51100000000E-03 0.  1.
        -11    1    3    3    0    0  0.12822688602E+01  0.14175693000E+01  0.53136375442E+00  0.19839515747E+01  0.51100000000E-03 0. -1.
        -12    1    3    3    0    0  0.71886285919E+01 -0.26483191847E+02  0.29303632353E+02  0.40146465604E+02  0.00000000000E+00 0.  1.
</event>
<event>
 7    1  0.1161807E-013  0.5052888E+02  0.7816164E-02  0.1300439E+00
        -11   -1    0    0    0    0  0.00000000000E+00  0.00000000000E+00  0.45593999997E+02  0.45594000000E+02  0.51100000000E-03 0. -1.
         11   -1    0    0    0    0 -0.00000000000E+00 -0.00000000000E+00 -0.45593999997E+02  0.45594000000E+02  0.51100000000E-03 0.  1.
    9900012    2    1    2    0    0 -0.36184438614E+02  0.12557616928E+02 -0.13643935177E+02  0.50528876696E+02  0.30000051206E+02 0.  0.
         12    1    1    2    0    0  0.36184438614E+02 -0.12557616928E+02  0.13643935177E+02  0.40659123304E+02  0.00000000000E+00 0. -1.
         11    1    3    3    0    0 -0.13808757674E+02  0.71009146440E+01 -0.20451890125E+01  0.15661659416E+02  0.51100000000E-03 0. -1.
        -11    1    3    3    0    0 -0.23712670752E+02  0.10686026706E+02 -0.13293897009E+02  0.29209752119E+02  0.51100000000E-03 0.  1.
         12    1    3    3    0    0  0.13369898121E+01 -0.52293244220E+01  0.16951508445E+01  0.56574651615E+01  0.00000000000E+00 0. -1.
</event>
<event>
 7    1  0.1161807E-013  0.5052888E+02  0.7816164E-02  0.1300439E+00
        -11   -1    0    0    0    0  0.00000000000E+00  0.00000000000E+00  0.45593999997E+02  0.45594000000E+02  0.51100000000E-03 0. -1.
         11   -1    0    0    0    0 -0.00000000000E+00 -0.00000000000E+00 -0.45593999997E+02  0.45594000000E+02  0.51100000000E-03 0.  1.
    9900012    2    1    2    0    0 -0.18985154706E+02  0.13430220646E+02  0.33352023718E+02  0.50528875417E+02  0.30000047317E+02 0.  0.
        -12    1    1    2    0    0  0.18985154706E+02 -0.13430220646E+02 -0.33352023718E+02  0.40659124583E+02  0.00000000000E+00 0.  1.
         11    1    3    3    0    0 -0.16660629266E+02  0.10095213464E+02  0.18461278460E+02  0.26838567493E+02  0.51100000000E-03 0.  1.
        -11    1    3    3    0    0 -0.60046697176E+01 -0.38399006556E+01  0.13828123416E+02  0.15556924276E+02  0.51100000000E-03 0. -1.
        -12    1    3    3    0    0  0.36801442780E+01  0.71749078379E+01  0.10626218419E+01  0.81333836482E+01  0.00000000000E+00 0.  1.
</event>
<event>
 7    1  0.1161807E-013  0.5052887E+02  0.7816164E-02  0.1300439E+00
        -11   -1    0    0    0    0  0.00000000000E+00  0.00000000000E+00  0.45593999997E+02  0.45594000000E+02  0.51100000000E-03 0. -1.
         11   -1    0    0    0    0 -0.00000000000E+00 -0.00000000000E+00 -0.45593999997E+02  0.45594000000E+02  0.51100000000E-03 0.  1.
    9900012    2    1    2    0    0 -0.11244243410E+02  0.10779259601E+02  0.37557143837E+02  0.50528874325E+02  0.30000043999E+02 0.  0.
        -12    1    1    2    0    0  0.11244243410E+02 -0.10779259601E+02 -0.37557143837E+02  0.40659125675E+02  0.00000000000E+00 0.  1.
         11    1    3    3    0    0 -0.83863067308E+01  0.16482516645E+02  0.34957467006E+02  0.39547793810E+02  0.51100000000E-03 0. -1.
        -11    1    3    3    0    0  0.28828151820E+01 -0.34317309149E+01  0.82437535581E+00  0.45570818990E+01  0.51100000000E-03 0.  1.
        -12    1    3    3    0    0 -0.57407518617E+01 -0.22715261293E+01  0.17753014759E+01  0.64239986164E+01  0.00000000000E+00 0.  1.
</event>
<event>
 7    1  0.1161807E-013  0.5052886E+02  0.7816164E-02  0.1300439E+00
        -11   -1    0    0    0    0  0.00000000000E+00  0.00000000000E+00  0.45593999997E+02  0.45594000000E+02  0.51100000000E-03 0.  1.
         11   -1    0    0    0    0 -0.00000000000E+00 -0.00000000000E+00 -0.45593999997E+02  0.45594000000E+02  0.51100000000E-03 0. -1.
    9900012    2    1    2    0    0 -0.35773225960E+02  0.18606697466E+02  0.52184899192E+01  0.50528861750E+02  0.30000005775E+02 0.  0.
        -12    1    1    2    0    0  0.35773225960E+02 -0.18606697466E+02 -0.52184899192E+01  0.40659138250E+02  0.00000000000E+00 0.  1.
         11    1    3    3    0    0 -0.69332290607E+01  0.56953816806E+01  0.32935010079E+01  0.95579384203E+01  0.51100000000E-03 0. -1.
        -11    1    3    3    0    0 -0.22064817660E+02  0.43770430960E+01  0.12543903903E+02  0.25755857780E+02  0.51100000000E-03 0.  1.
         12    1    3    3    0    0 -0.67751792399E+01  0.85342726897E+01 -0.10618914991E+02  0.15215065549E+02  0.00000000000E+00 0. -1.
</event>
<event>
 7    1  0.1161807E-013  0.5052885E+02  0.7816164E-02  0.1300439E+00
        -11   -1    0    0    0    0  0.00000000000E+00  0.00000000000E+00  0.45593999997E+02  0.45594000000E+02  0.51100000000E-03 0. -1.
         11   -1    0    0    0    0 -0.00000000000E+00 -0.00000000000E+00 -0.45593999997E+02  0.45594000000E+02  0.51100000000E-03 0.  1.
    9900012    2    1    2    0    0 -0.14618520577E+02  0.44599261469E+00  0.37937664027E+02  0.50528850906E+02  0.29999972813E+02 0.  0.
        -12    1    1    2    0    0  0.14618520577E+02 -0.44599261469E+00 -0.37937664027E+02  0.40659149094E+02  0.00000000000E+00 0.  1.
         11    1    3    3    0    0 -0.18331874846E+02  0.17408269338E+01  0.11791068101E+02  0.21865895843E+02  0.51100000000E-03 0. -1.
        -11    1    3    3    0    0 -0.24358073294E+01 -0.30478268263E+01  0.39034429280E+01  0.55189919969E+01  0.51100000000E-03 0.  1.
        -12    1    3    3    0    0  0.61491615993E+01  0.17529925072E+01  0.22243152998E+02  0.23143963066E+02  0.00000000000E+00 0.  1.
</event>
<event>
 7    1  0.1161807E-013  0.5052886E+02  0.7816164E-02  0.1300439E+00
        -11   -1    0    0    0    0  0.00000000000E+00  0.00000000000E+00  0.45593999997E+02  0.45594000000E+02  0.51100000000E-03 0. -1.
         11   -1    0    0    0    0 -0.00000000000E+00 -0.00000000000E+00 -0.45593999997E+02  0.45594000000E+02  0.51100000000E-03 0.  1.
    9900012    2    1    2    0    0  0.63631310074E+01  0.21452767754E+02  0.33947827678E+02  0.50528859766E+02  0.29999999745E+02 0.  0.
        -12    1    1    2    0    0 -0.63631310074E+01 -0.21452767754E+02 -0.33947827678E+02  0.40659140234E+02  0.00000000000E+00 0.  1.
         11    1    3    3    0    0  0.42392799606E+01  0.16997052568E+02  0.21429136301E+02  0.27678135296E+02  0.51100000000E-03 0. -1.
        -11    1    3    3    0    0  0.72759832796E+01  0.62655214067E+01  0.45967262059E+00  0.96129074874E+01  0.51100000000E-03 0.  1.
        -12    1    3    3    0    0 -0.51521322329E+01 -0.18098062212E+01  0.12059018756E+02  0.13237816983E+02  0.00000000000E+00 0.  1.
</event>
<event>
 7    1  0.1161807E-013  0.5052881E+02  0.7816164E-02  0.1300439E+00
        -11   -1    0    0    0    0  0.00000000000E+00  0.00000000000E+00  0.45593999997E+02  0.45594000000E+02  0.51100000000E-03 0. -1.
         11   -1    0    0    0    0 -0.00000000000E+00 -0.00000000000E+00 -0.45593999997E+02  0.45594000000E+02  0.51100000000E-03 0.  1.
    9900012    2    1    2    0    0  0.23322714847E+02 -0.16731567531E+02  0.28797142811E+02  0.50528808985E+02  0.29999845391E+02 0.  0.
        -12    1    1    2    0    0 -0.23322714847E+02  0.16731567531E+02 -0.28797142811E+02  0.40659191015E+02  0.00000000000E+00 0.  1.
         11    1    3    3    0    0 -0.19825511803E+01 -0.60785269729E+01  0.10861860955E+02  0.12603928872E+02  0.51100000000E-03 0. -1.
        -11    1    3    3    0    0  0.31360422605E+01 -0.10610841560E+02  0.41393685724E+01  0.11813513115E+02  0.51100000000E-03 0.  1.
        -12    1    3    3    0    0  0.22169223767E+02 -0.42198997547E-01  0.13795913284E+02  0.26111366998E+02  0.00000000000E+00 0.  1.
</event>
<event>
 7    1  0.1161807E-013  0.5052887E+02  0.7816164E-02  0.1300439E+00
        -11   -1    0    0    0    0  0.00000000000E+00  0.00000000000E+00  0.45593999997E+02  0.45594000000E+02  0.51100000000E-03 0.  1.
         11   -1    0    0    0    0 -0.00000000000E+00 -0.00000000000E+00 -0.45593999997E+02  0.45594000000E+02  0.51100000000E-03 0. -1.
    9900012    2    1    2    0    0  0.48159496467E+01 -0.11594644109E+02  0.38672157582E+02  0.50528869229E+02  0.30000028508E+02 0.  0.
        -12    1    1    2    0    0 -0.48159496467E+01  0.11594644109E+02 -0.38672157582E+02  0.40659130771E+02  0.00000000000E+00 0.  1.
         11    1    3    3    0    0 -0.12611020884E+01  0.40729663158E+01 -0.12175619800E+01  0.44341730371E+01  0.51100000000E-03 0. -1.
        -11    1    3    3    0    0  0.52026360795E+01 -0.50255867924E+01  0.32488029393E+01  0.79296068997E+01  0.51100000000E-03 0.  1.
        -12    1    3    3    0    0  0.87441565561E+00 -0.10642023632E+02  0.36640916623E+02  0.38165089292E+02  0.00000000000E+00 0.  1.
</event>
<event>
 7    1  0.1161807E-013  0.5052886E+02  0.7816164E-02  0.1300439E+00
        -11   -1    0    0    0    0  0.00000000000E+00  0.00000000000E+00  0.45593999997E+02  0.45594000000E+02  0.51100000000E-03 0.  1.
         11   -1    0    0    0    0 -0.00000000000E+00 -0.00000000000E+00 -0.45593999997E+02  0.45594000000E+02  0.51100000000E-03 0. -1.
    9900012    2    1    2    0    0  0.30953837895E+02 -0.22581823088E+02 -0.13604676028E+02  0.50528855589E+02  0.29999987048E+02 0.  0.
         12    1    1    2    0    0 -0.30953837895E+02  0.22581823088E+02  0.13604676028E+02  0.40659144411E+02  0.00000000000E+00 0. -1.
         11    1    3    3    0    0  0.80526944376E+01  0.78302815550E+00  0.50404041129E+01  0.95322974503E+01  0.51100000000E-03 0. -1.
        -11    1    3    3    0    0  0.62209824620E+01 -0.83205878158E+01  0.18931164501E+01  0.10560146521E+02  0.51100000000E-03 0.  1.
         12    1    3    3    0    0  0.16680160996E+02 -0.15044263427E+02 -0.20538196591E+02  0.30436411617E+02  0.00000000000E+00 0. -1.
</event>
<event>
 7    1  0.1161807E-013  0.5052887E+02  0.7816164E-02  0.1300439E+00
        -11   -1    0    0    0    0  0.00000000000E+00  0.00000000000E+00  0.45593999997E+02  0.45594000000E+02  0.51100000000E-03 0. -1.
         11   -1    0    0    0    0 -0.00000000000E+00 -0.00000000000E+00 -0.45593999997E+02  0.45594000000E+02  0.51100000000E-03 0.  1.
    9900012    2    1    2    0    0 -0.18195971801E+02 -0.18069212835E+01 -0.36315378701E+02  0.50528867146E+02  0.30000022176E+02 0.  0.
         12    1    1    2    0    0  0.18195971801E+02  0.18069212835E+01  0.36315378701E+02  0.40659132854E+02  0.00000000000E+00 0. -1.
         11    1    3    3    0    0  0.74107894762E+00 -0.25535701882E+01 -0.75853225665E+01  0.80378502979E+01  0.51100000000E-03 0.  1.
        -11    1    3    3    0    0 -0.17317942858E+02 -0.72478055166E+01 -0.83641370489E+01  0.20552387172E+02  0.51100000000E-03 0. -1.
         12    1    3    3    0    0 -0.16191078903E+01  0.79944544214E+01 -0.20365919085E+02  0.21938629676E+02  0.00000000000E+00 0. -1.
</event>
<event>
 7    1  0.1161807E-013  0.5052876E+02  0.7816164E-02  0.1300439E+00
        -11   -1    0    0    0    0  0.00000000000E+00  0.00000000000E+00  0.45593999997E+02  0.45594000000E+02  0.51100000000E-03 0.  1.
         11   -1    0    0    0    0 -0.00000000000E+00 -0.00000000000E+00 -0.45593999997E+02  0.45594000000E+02  0.51100000000E-03 0. -1.
    9900012    2    1    2    0    0 -0.24883896872E+02  0.31448012038E+02 -0.67073368034E+01  0.50528755643E+02  0.29999683250E+02 0.  0.
         12    1    1    2    0    0  0.24883896872E+02 -0.31448012038E+02  0.67073368034E+01  0.40659244357E+02  0.00000000000E+00 0. -1.
         11    1    3    3    0    0 -0.20265311886E+02  0.22114210115E+02 -0.69837008552E+01  0.30797617323E+02  0.51100000000E-03 0. -1.
        -11    1    3    3    0    0 -0.77655944720E+01  0.42617472517E+00  0.49215559367E+01  0.92036838005E+01  0.51100000000E-03 0.  1.
        -12    1    3    3    0    0  0.31470094862E+01  0.89076271983E+01 -0.46451918850E+01  0.10527454519E+02  0.00000000000E+00 0.  1.
</event>
<event>
 7    1  0.1161807E-013  0.5052887E+02  0.7816164E-02  0.1300439E+00
        -11   -1    0    0    0    0  0.00000000000E+00  0.00000000000E+00  0.45593999997E+02  0.45594000000E+02  0.51100000000E-03 0. -1.
         11   -1    0    0    0    0 -0.00000000000E+00 -0.00000000000E+00 -0.45593999997E+02  0.45594000000E+02  0.51100000000E-03 0.  1.
    9900012    2    1    2    0    0 -0.16173456863E+02  0.20396464452E+02 -0.31234091241E+02  0.50528869111E+02  0.30000028148E+02 0.  0.
         12    1    1    2    0    0  0.16173456863E+02 -0.20396464452E+02  0.31234091241E+02  0.40659130889E+02  0.00000000000E+00 0. -1.
         11    1    3    3    0    0 -0.27827706583E+01 -0.41559962094E+01 -0.80158170083E+01  0.94482506106E+01  0.51100000000E-03 0. -1.
        -11    1    3    3    0    0 -0.65419849427E+01 -0.16691904039E+01 -0.38776233872E+01  0.77858671315E+01  0.51100000000E-03 0.  1.
        -12    1    3    3    0    0 -0.68487012620E+01  0.26221651065E+02 -0.19340650846E+02  0.33294751368E+02  0.00000000000E+00 0.  1.
</event>
<event>
 7    1  0.1161807E-013  0.5052885E+02  0.7816164E-02  0.1300439E+00
        -11   -1    0    0    0    0  0.00000000000E+00  0.00000000000E+00  0.45593999997E+02  0.45594000000E+02  0.51100000000E-03 0. -1.
         11   -1    0    0    0    0 -0.00000000000E+00 -0.00000000000E+00 -0.45593999997E+02  0.45594000000E+02  0.51100000000E-03 0.  1.
    9900012    2    1    2    0    0  0.16552491629E+02 -0.35062728299E+02 -0.12238729316E+02  0.50528851089E+02  0.29999973370E+02 0.  0.
         12    1    1    2    0    0 -0.16552491629E+02  0.35062728299E+02  0.12238729316E+02  0.40659148911E+02  0.00000000000E+00 0. -1.
         11    1    3    3    0    0  0.44165881017E+01 -0.81523873617E+01  0.67652150454E+01  0.11477621924E+02  0.51100000000E-03 0. -1.
        -11    1    3    3    0    0  0.15381074079E+02 -0.23426396663E+02 -0.11780704572E+02  0.30399975344E+02  0.51100000000E-03 0.  1.
        -12    1    3    3    0    0 -0.32451705518E+01 -0.34839442744E+01 -0.72232397898E+01  0.86512538212E+01  0.00000000000E+00 0.  1.
</event>
<event>
 7    1  0.2429431E-013  0.5052887E+02  0.7816164E-02  0.1300439E+00
        -11   -1    0    0    0    0  0.00000000000E+00  0.00000000000E+00  0.45593999997E+02  0.45594000000E+02  0.51100000000E-03 0. -1.
         11   -1    0    0    0    0 -0.00000000000E+00 -0.00000000000E+00 -0.45593999997E+02  0.45594000000E+02  0.51100000000E-03 0.  1.
    9900012    2    1    2    0    0 -0.72749506418E+01 -0.71491841057E+01 -0.39358973521E+02  0.50528873880E+02  0.30000042645E+02 0.  0.
         12    1    1    2    0    0  0.72749506418E+01  0.71491841057E+01  0.39358973521E+02  0.40659126120E+02  0.00000000000E+00 0. -1.
         11    1    3    3    0    0  0.28204548701E+01  0.36446641084E+00  0.21560172461E+01  0.35687829950E+01  0.51100000000E-03 0. -1.
        -11    1    3    3    0    0 -0.12517430131E+02 -0.18929931005E+01 -0.14447847790E+02  0.19209627430E+02  0.51100000000E-03 0.  1.
        -12    1    3    3    0    0  0.24220246189E+01 -0.56206574160E+01 -0.27067142977E+02  0.27750463455E+02  0.00000000000E+00 0.  1.
</event>
<event>
 7    1  0.1161807E-013  0.5052886E+02  0.7816164E-02  0.1300439E+00
        -11   -1    0    0    0    0  0.00000000000E+00  0.00000000000E+00  0.45593999997E+02  0.45594000000E+02  0.51100000000E-03 0. -1.
         11   -1    0    0    0    0 -0.00000000000E+00 -0.00000000000E+00 -0.45593999997E+02  0.45594000000E+02  0.51100000000E-03 0.  1.
    9900012    2    1    2    0    0 -0.11782493802E+02  0.30280418233E+02  0.24442475232E+02  0.50528862232E+02  0.30000007242E+02 0.  0.
        -12    1    1    2    0    0  0.11782493802E+02 -0.30280418233E+02 -0.24442475232E+02  0.40659137768E+02  0.00000000000E+00 0.  1.
         11    1    3    3    0    0  0.26963242838E+01 -0.25000222285E+01  0.91990726900E+00  0.37903173259E+01  0.51100000000E-03 0.  1.
        -11    1    3    3    0    0 -0.96703181557E-01  0.34393919605E-01 -0.25038427201E+01  0.25059455451E+01  0.51100000000E-03 0. -1.
         12    1    3    3    0    0 -0.14382114904E+02  0.32746046541E+02  0.26026410683E+02  0.44232599361E+02  0.00000000000E+00 0. -1.
</event>
<event>
 7    1  0.1161807E-013  0.5052886E+02  0.7816164E-02  0.1300439E+00
        -11   -1    0    0    0    0  0.00000000000E+00  0.00000000000E+00  0.45593999997E+02  0.45594000000E+02  0.51100000000E-03 0.  1.
         11   -1    0    0    0    0 -0.00000000000E+00 -0.00000000000E+00 -0.45593999997E+02  0.45594000000E+02  0.51100000000E-03 0. -1.
    9900012    2    1    2    0    0 -0.40631050826E+02 -0.13397573844E+01 -0.69883837423E+00  0.50528860607E+02  0.30000002302E+02 0.  0.
        -12    1    1    2    0    0  0.40631050826E+02  0.13397573844E+01  0.69883837423E+00  0.40659139393E+02  0.00000000000E+00 0.  1.
         11    1    3    3    0    0 -0.77026169838E+01 -0.39005238323E+01 -0.22645636099E+01  0.89259533479E+01  0.51100000000E-03 0. -1.
        -11    1    3    3    0    0 -0.29683451647E+02 -0.66429583670E+01  0.57985607008E+01  0.30965456626E+02  0.51100000000E-03 0.  1.
         12    1    3    3    0    0 -0.32449821949E+01  0.92037248149E+01 -0.42328354651E+01  0.10637450634E+02  0.00000000000E+00 0. -1.
</event>
<event>
 7    1  0.1161807E-013  0.5052882E+02  0.7816164E-02  0.1300439E+00
        -11   -1    0    0    0    0  0.00000000000E+00  0.00000000000E+00  0.45593999997E+02  0.45594000000E+02  0.51100000000E-03 0. -1.
         11   -1    0    0    0    0 -0.00000000000E+00 -0.00000000000E+00 -0.45593999997E+02  0.45594000000E+02  0.51100000000E-03 0.  1.
    9900012    2    1    2    0    0 -0.20861437584E+02  0.70877386164E+01  0.34172116552E+02  0.50528816948E+02  0.29999869595E+02 0.  0.
        -12    1    1    2    0    0  0.20861437584E+02 -0.70877386164E+01 -0.34172116552E+02  0.40659183052E+02  0.00000000000E+00 0.  1.
         11    1    3    3    0    0 -0.76956802477E+01  0.34933719530E+01  0.20464118624E+01  0.86956853582E+01  0.51100000000E-03 0.  1.
        -11    1    3    3    0    0 -0.18320469703E+02 -0.19593674270E+01  0.17756733906E+02  0.25588675818E+02  0.51100000000E-03 0. -1.
         12    1    3    3    0    0  0.51547123668E+01  0.55537340903E+01  0.14368970784E+02  0.16244455772E+02  0.00000000000E+00 0. -1.
</event>
<event>
 7    1  0.1161807E-013  0.5052887E+02  0.7816164E-02  0.1300439E+00
        -11   -1    0    0    0    0  0.00000000000E+00  0.00000000000E+00  0.45593999997E+02  0.45594000000E+02  0.51100000000E-03 0.  1.
         11   -1    0    0    0    0 -0.00000000000E+00 -0.00000000000E+00 -0.45593999997E+02  0.45594000000E+02  0.51100000000E-03 0. -1.
    9900012    2    1    2    0    0 -0.23730646155E+02  0.32999475361E+02  0.10277731922E+01  0.50528865002E+02  0.30000015660E+02 0.  0.
         12    1    1    2    0    0  0.23730646155E+02 -0.32999475361E+02 -0.10277731922E+01  0.40659134998E+02  0.00000000000E+00 0. -1.
         11    1    3    3    0    0 -0.61852473380E+01  0.12643600629E+02  0.11996473277E+02  0.18494142123E+02  0.51100000000E-03 0. -1.
        -11    1    3    3    0    0 -0.31786972830E+01  0.10361639653E+02  0.92042197588E+00  0.10877263883E+02  0.51100000000E-03 0.  1.
         12    1    3    3    0    0 -0.14366701534E+02  0.99942350789E+01 -0.11889122061E+02  0.21157458996E+02  0.00000000000E+00 0. -1.
</event>
<event>
 7    1  0.1161807E-013  0.5052886E+02  0.7816164E-02  0.1300439E+00
        -11   -1    0    0    0    0  0.00000000000E+00  0.00000000000E+00  0.45593999997E+02  0.45594000000E+02  0.51100000000E-03 0. -1.
         11   -1    0    0    0    0 -0.00000000000E+00 -0.00000000000E+00 -0.45593999997E+02  0.45594000000E+02  0.51100000000E-03 0.  1.
    9900012    2    1    2    0    0 -0.28840389808E+02 -0.24268436903E+02 -0.15246009168E+02  0.50528857000E+02  0.29999991336E+02 0.  0.
         12    1    1    2    0    0  0.28840389808E+02  0.24268436903E+02  0.15246009168E+02  0.40659143000E+02  0.00000000000E+00 0. -1.
         11    1    3    3    0    0 -0.14589026530E+02 -0.16274699857E+02 -0.61078226612E+01  0.22693854861E+02  0.51100000000E-03 0. -1.
        -11    1    3    3    0    0 -0.20713183617E+01 -0.31673352398E+01 -0.13504795685E+02  0.14025044707E+02  0.51100000000E-03 0.  1.
         12    1    3    3    0    0 -0.12180044916E+02 -0.48264018056E+01  0.43666091778E+01  0.13809957431E+02  0.00000000000E+00 0. -1.
</event>
<event>
 7    1  0.1161807E-013  0.5052882E+02  0.7816164E-02  0.1300439E+00
        -11   -1    0    0    0    0  0.00000000000E+00  0.00000000000E+00  0.45593999997E+02  0.45594000000E+02  0.51100000000E-03 0. -1.
         11   -1    0    0    0    0 -0.00000000000E+00 -0.00000000000E+00 -0.45593999997E+02  0.45594000000E+02  0.51100000000E-03 0.  1.
    9900012    2    1    2    0    0  0.18262315775E+02  0.25028995019E+01  0.36240754267E+02  0.50528819570E+02  0.29999877565E+02 0.  0.
        -12    1    1    2    0    0 -0.18262315775E+02 -0.25028995019E+01 -0.36240754267E+02  0.40659180430E+02  0.00000000000E+00 0.  1.
         11    1    3    3    0    0  0.13529294707E+02 -0.35344563028E+01  0.34199697911E+02  0.36947984168E+02  0.51100000000E-03 0. -1.
        -11    1    3    3    0    0  0.20515546164E+01 -0.73086185879E+00  0.52055463588E+01  0.56427607211E+01  0.51100000000E-03 0.  1.
        -12    1    3    3    0    0  0.26814664518E+01  0.67682176634E+01 -0.31644900025E+01  0.79380746814E+01  0.00000000000E+00 0.  1.
</event>
<event>
 7    1  0.1161807E-013  0.5052885E+02  0.7816164E-02  0.1300439E+00
        -11   -1    0    0    0    0  0.00000000000E+00  0.00000000000E+00  0.45593999997E+02  0.45594000000E+02  0.51100000000E-03 0. -1.
         11   -1    0    0    0    0 -0.00000000000E+00 -0.00000000000E+00 -0.45593999997E+02  0.45594000000E+02  0.51100000000E-03 0.  1.
    9900012    2    1    2    0    0 -0.26976276907E+02  0.62031020002E+01  0.29782020907E+02  0.50528846547E+02  0.29999959563E+02 0.  0.
        -12    1    1    2    0    0  0.26976276907E+02 -0.62031020002E+01 -0.29782020907E+02  0.40659153453E+02  0.00000000000E+00 0.  1.
         11    1    3    3    0    0 -0.60470901487E+01  0.31496135397E+01  0.55452201126E+01  0.87884487297E+01  0.51100000000E-03 0. -1.
        -11    1    3    3    0    0 -0.69507429191E+01  0.13708565450E+02  0.62511266337E+01  0.16592594079E+02  0.51100000000E-03 0.  1.
         12    1    3    3    0    0 -0.13978443840E+02 -0.10655076989E+02  0.17985674161E+02  0.25147803738E+02  0.00000000000E+00 0. -1.
</event>
<event>
 7    1  0.1161807E-013  0.5052886E+02  0.7816164E-02  0.1300439E+00
        -11   -1    0    0    0    0  0.00000000000E+00  0.00000000000E+00  0.45593999997E+02  0.45594000000E+02  0.51100000000E-03 0. -1.
         11   -1    0    0    0    0 -0.00000000000E+00 -0.00000000000E+00 -0.45593999997E+02  0.45594000000E+02  0.51100000000E-03 0.  1.
    9900012    2    1    2    0    0 -0.36752952384E+02  0.81845954253E+00  0.17369974595E+02  0.50528863236E+02  0.30000010291E+02 0.  0.
        -12    1    1    2    0    0  0.36752952384E+02 -0.81845954253E+00 -0.17369974595E+02  0.40659136764E+02  0.00000000000E+00 0.  1.
         11    1    3    3    0    0  0.30854532681E+00  0.47012796689E+01  0.16035344262E+01  0.49768015493E+01  0.51100000000E-03 0. -1.
        -11    1    3    3    0    0 -0.98053260176E+01 -0.36274126693E+01 -0.47036009326E+01  0.11464135509E+02  0.51100000000E-03 0.  1.
         12    1    3    3    0    0 -0.27256171694E+02 -0.25540745703E+00  0.20470041101E+02  0.34087926177E+02  0.00000000000E+00 0. -1.
</event>
<event>
 7    1  0.1161807E-013  0.5052884E+02  0.7816164E-02  0.1300439E+00
        -11   -1    0    0    0    0  0.00000000000E+00  0.00000000000E+00  0.45593999997E+02  0.45594000000E+02  0.51100000000E-03 0. -1.
         11   -1    0    0    0    0 -0.00000000000E+00 -0.00000000000E+00 -0.45593999997E+02  0.45594000000E+02  0.51100000000E-03 0.  1.
    9900012    2    1    2    0    0 -0.30645456526E+02  0.37297421496E+01  0.26459627815E+02  0.50528844988E+02  0.29999954824E+02 0.  0.
        -12    1    1    2    0    0  0.30645456526E+02 -0.37297421496E+01 -0.26459627815E+02  0.40659155012E+02  0.00000000000E+00 0.  1.
         11    1    3    3    0    0 -0.21183144657E+02 -0.11520634023E+01  0.22695783911E+02  0.31066887118E+02  0.51100000000E-03 0. -1.
        -11    1    3    3    0    0  0.20130211207E+00  0.72800380933E+01  0.57865706194E+01  0.93018211644E+01  0.51100000000E-03 0.  1.
        -12    1    3    3    0    0 -0.96636139810E+01 -0.23982325413E+01 -0.20227267147E+01  0.10160136705E+02  0.00000000000E+00 0.  1.
</event>
<event>
 7    1  0.1161807E-013  0.5052887E+02  0.7816164E-02  0.1300439E+00
        -11   -1    0    0    0    0  0.00000000000E+00  0.00000000000E+00  0.45593999997E+02  0.45594000000E+02  0.51100000000E-03 0. -1.
         11   -1    0    0    0    0 -0.00000000000E+00 -0.00000000000E+00 -0.45593999997E+02  0.45594000000E+02  0.51100000000E-03 0.  1.
    9900012    2    1    2    0    0  0.46788591394E+01  0.25737523329E+02 -0.31126408356E+02  0.50528866621E+02  0.30000020581E+02 0.  0.
         12    1    1    2    0    0 -0.46788591394E+01 -0.25737523329E+02  0.31126408356E+02  0.40659133379E+02  0.00000000000E+00 0. -1.
         11    1    3    3    0    0  0.16628618280E+01  0.64049600535E+01 -0.17533154167E+02  0.18740333990E+02  0.51100000000E-03 0. -1.
        -11    1    3    3    0    0  0.12090901982E+02  0.96954624321E+01 -0.73751315040E+01  0.17163463155E+02  0.51100000000E-03 0.  1.
         12    1    3    3    0    0 -0.90749046702E+01  0.96371008439E+01 -0.62181226850E+01  0.14625069476E+02  0.00000000000E+00 0. -1.
</event>
<event>
 7    1  0.1161807E-013  0.5052882E+02  0.7816164E-02  0.1300439E+00
        -11   -1    0    0    0    0  0.00000000000E+00  0.00000000000E+00  0.45593999997E+02  0.45594000000E+02  0.51100000000E-03 0. -1.
         11   -1    0    0    0    0 -0.00000000000E+00 -0.00000000000E+00 -0.45593999997E+02  0.45594000000E+02  0.51100000000E-03 0.  1.
    9900012    2    1    2    0    0 -0.90890977457E+01 -0.20269622984E+02  0.34054364973E+02  0.50528817919E+02  0.29999872547E+02 0.  0.
        -12    1    1    2    0    0  0.90890977457E+01  0.20269622984E+02 -0.34054364973E+02  0.40659182081E+02  0.00000000000E+00 0.  1.
         11    1    3    3    0    0 -0.22921319977E+01 -0.73619364215E+01  0.88519080407E+01  0.11739176001E+02  0.51100000000E-03 0. -1.
        -11    1    3    3    0    0 -0.15757412966E+02 -0.92189010554E+01  0.10150224220E+02  0.20888064823E+02  0.51100000000E-03 0.  1.
         12    1    3    3    0    0  0.89604472180E+01 -0.36887855071E+01  0.15052232713E+02  0.17901577095E+02  0.00000000000E+00 0. -1.
</event>
<event>
 7    1  0.1161807E-013  0.5052885E+02  0.7816164E-02  0.1300439E+00
        -11   -1    0    0    0    0  0.00000000000E+00  0.00000000000E+00  0.45593999997E+02  0.45594000000E+02  0.51100000000E-03 0. -1.
         11   -1    0    0    0    0 -0.00000000000E+00 -0.00000000000E+00 -0.45593999997E+02  0.45594000000E+02  0.51100000000E-03 0.  1.
    9900012    2    1    2    0    0  0.14403059514E+02 -0.11480737254E+02  0.36247909787E+02  0.50528850782E+02  0.29999972436E+02 0.  0.
        -12    1    1    2    0    0 -0.14403059514E+02  0.11480737254E+02 -0.36247909787E+02  0.40659149218E+02  0.00000000000E+00 0.  1.
         11    1    3    3    0    0  0.29101585999E+01  0.63162958901E+00  0.95296813227E+01  0.99841276728E+01  0.51100000000E-03 0. -1.
        -11    1    3    3    0    0  0.36011972967E+01  0.69939584968E+01  0.16242136383E+01  0.80325679349E+01  0.51100000000E-03 0.  1.
        -12    1    3    3    0    0  0.78917036174E+01 -0.19106325340E+02  0.25094014826E+02  0.32512155174E+02  0.00000000000E+00 0.  1.
</event>
<event>
 7    1  0.1161807E-013  0.5052883E+02  0.7816164E-02  0.1300439E+00
        -11   -1    0    0    0    0  0.00000000000E+00  0.00000000000E+00  0.45593999997E+02  0.45594000000E+02  0.51100000000E-03 0. -1.
         11   -1    0    0    0    0 -0.00000000000E+00 -0.00000000000E+00 -0.45593999997E+02  0.45594000000E+02  0.51100000000E-03 0.  1.
    9900012    2    1    2    0    0 -0.11527087536E+02  0.37356760136E+02  0.11169899212E+02  0.50528832235E+02  0.29999916061E+02 0.  0.
        -12    1    1    2    0    0  0.11527087536E+02 -0.37356760136E+02 -0.11169899212E+02  0.40659167765E+02  0.00000000000E+00 0.  1.
         11    1    3    3    0    0 -0.34302290000E+01  0.21377058005E+02 -0.86573362230E+00  0.21667823493E+02  0.51100000000E-03 0. -1.
        -11    1    3    3    0    0 -0.90652063264E+01  0.14907080597E+02  0.72884511319E+00  0.17462251662E+02  0.51100000000E-03 0.  1.
        -12    1    3    3    0    0  0.96834779031E+00  0.10726215341E+01  0.11306787721E+02  0.11398757080E+02  0.00000000000E+00 0.  1.
</event>
<event>
 7    1  0.1161807E-013  0.5052886E+02  0.7816164E-02  0.1300439E+00
        -11   -1    0    0    0    0  0.00000000000E+00  0.00000000000E+00  0.45593999997E+02  0.45594000000E+02  0.51100000000E-03 0. -1.
         11   -1    0    0    0    0 -0.00000000000E+00 -0.00000000000E+00 -0.45593999997E+02  0.45594000000E+02  0.51100000000E-03 0.  1.
    9900012    2    1    2    0    0 -0.13395696252E+02  0.45242821998E+01  0.38121541894E+02  0.50528858791E+02  0.29999996782E+02 0.  0.
        -12    1    1    2    0    0  0.13395696252E+02 -0.45242821998E+01 -0.38121541894E+02  0.40659141209E+02  0.00000000000E+00 0.  1.
         11    1    3    3    0    0 -0.11083998676E+02  0.45568409554E+01  0.27094198871E+02  0.29626262654E+02  0.51100000000E-03 0. -1.
        -11    1    3    3    0    0 -0.24542651289E+01  0.69772949258E+01  0.11718335824E+02  0.13857325014E+02  0.51100000000E-03 0.  1.
        -12    1    3    3    0    0  0.14256755325E+00 -0.70098536814E+01 -0.69099280108E+00  0.70452711228E+01  0.00000000000E+00 0.  1.
</event>
<event>
 7    1  0.1161807E-013  0.5052875E+02  0.7816164E-02  0.1300439E+00
        -11   -1    0    0    0    0  0.00000000000E+00  0.00000000000E+00  0.45593999997E+02  0.45594000000E+02  0.51100000000E-03 0. -1.
         11   -1    0    0    0    0 -0.00000000000E+00 -0.00000000000E+00 -0.45593999997E+02  0.45594000000E+02  0.51100000000E-03 0.  1.
    9900012    2    1    2    0    0 -0.19929522029E+02 -0.97296419696E+01 -0.34078187131E+02  0.50528749893E+02  0.29999665773E+02 0.  0.
         12    1    1    2    0    0  0.19929522029E+02  0.97296419696E+01  0.34078187131E+02  0.40659250107E+02  0.00000000000E+00 0. -1.
         11    1    3    3    0    0 -0.25610718916E+01  0.18812866647E+01 -0.19702726459E+01  0.37390243793E+01  0.51100000000E-03 0. -1.
        -11    1    3    3    0    0 -0.23034061548E+02 -0.23535973861E+01 -0.22724130357E+02  0.32442156414E+02  0.51100000000E-03 0.  1.
         12    1    3    3    0    0  0.56656114112E+01 -0.92573312483E+01 -0.93837841283E+01  0.14347569100E+02  0.00000000000E+00 0. -1.
</event>
<event>
 7    1  0.1161807E-013  0.5052887E+02  0.7816164E-02  0.1300439E+00
        -11   -1    0    0    0    0  0.00000000000E+00  0.00000000000E+00  0.45593999997E+02  0.45594000000E+02  0.51100000000E-03 0. -1.
         11   -1    0    0    0    0 -0.00000000000E+00 -0.00000000000E+00 -0.45593999997E+02  0.45594000000E+02  0.51100000000E-03 0.  1.
    9900012    2    1    2    0    0 -0.10848965623E+02  0.11188260472E+02 -0.37553794464E+02  0.50528871799E+02  0.30000036319E+02 0.  0.
         12    1    1    2    0    0  0.10848965623E+02 -0.11188260472E+02  0.37553794464E+02  0.40659128201E+02  0.00000000000E+00 0. -1.
         11    1    3    3    0    0  0.11260572912E+01  0.22165722266E+01 -0.10837357907E+02  0.11118881424E+02  0.51100000000E-03 0. -1.
        -11    1    3    3    0    0 -0.77432036528E+01  0.15968192116E+02 -0.25611236146E+02  0.31158879625E+02  0.51100000000E-03 0.  1.
         12    1    3    3    0    0 -0.42318192613E+01 -0.69965038700E+01 -0.11052004104E+01  0.82511107501E+01  0.00000000000E+00 0. -1.
</event>
<event>
 7    1  0.1161807E-013  0.5052886E+02  0.7816164E-02  0.1300439E+00
        -11   -1    0    0    0    0  0.00000000000E+00  0.00000000000E+00  0.45593999997E+02  0.45594000000E+02  0.51100000000E-03 0. -1.
         11   -1    0    0    0    0 -0.00000000000E+00 -0.00000000000E+00 -0.45593999997E+02  0.45594000000E+02  0.51100000000E-03 0.  1.
    9900012    2    1    2    0    0 -0.10168126737E+02  0.36533214597E+02  0.14666244716E+02  0.50528864443E+02  0.30000013962E+02 0.  0.
        -12    1    1    2    0    0  0.10168126737E+02 -0.36533214597E+02 -0.14666244716E+02  0.40659135557E+02  0.00000000000E+00 0.  1.
         11    1    3    3    0    0 -0.93214343513E+01  0.19073212044E+02 -0.66664647238E+00  0.21239608608E+02  0.51100000000E-03 0. -1.
        -11    1    3    3    0    0 -0.38729848604E+01  0.18297445706E+02  0.63148136278E+01  0.19740146973E+02  0.51100000000E-03 0.  1.
        -12    1    3    3    0    0  0.30262924743E+01 -0.83744315288E+00  0.90180775606E+01  0.95491088623E+01  0.00000000000E+00 0.  1.
</event>
<event>
 7    1  0.1161807E-013  0.5052887E+02  0.7816164E-02  0.1300439E+00
        -11   -1    0    0    0    0  0.00000000000E+00  0.00000000000E+00  0.45593999997E+02  0.45594000000E+02  0.51100000000E-03 0. -1.
         11   -1    0    0    0    0 -0.00000000000E+00 -0.00000000000E+00 -0.45593999997E+02  0.45594000000E+02  0.51100000000E-03 0.  1.
    9900012    2    1    2    0    0  0.10256068976E+02  0.20257299595E+02  0.33728616023E+02  0.50528872162E+02  0.30000037424E+02 0.  0.
        -12    1    1    2    0    0 -0.10256068976E+02 -0.20257299595E+02 -0.33728616023E+02  0.40659127838E+02  0.00000000000E+00 0.  1.
         11    1    3    3    0    0  0.11597655337E+02  0.97680993415E+01  0.71281890982E+01  0.16755072490E+02  0.51100000000E-03 0. -1.
        -11    1    3    3    0    0  0.75500498635E+01  0.62418660178E+01  0.77046702864E+01  0.12462988759E+02  0.51100000000E-03 0.  1.
         12    1    3    3    0    0 -0.88916362242E+01  0.42473342355E+01  0.18895756638E+02  0.21310810913E+02  0.00000000000E+00 0. -1.
</event>
<event>
 7    1  0.1161807E-013  0.5052894E+02  0.7816164E-02  0.1300439E+00
        -11   -1    0    0    0    0  0.00000000000E+00  0.00000000000E+00  0.45593999997E+02  0.45594000000E+02  0.51100000000E-03 0. -1.
         11   -1    0    0    0    0 -0.00000000000E+00 -0.00000000000E+00 -0.45593999997E+02  0.45594000000E+02  0.51100000000E-03 0.  1.
    9900012    2    1    2    0    0 -0.80108988445E+01 -0.18847018588E+02  0.35125125385E+02  0.50528941437E+02  0.30000247990E+02 0.  0.
        -12    1    1    2    0    0  0.80108988445E+01  0.18847018588E+02 -0.35125125385E+02  0.40659058563E+02  0.00000000000E+00 0.  1.
         11    1    3    3    0    0 -0.26740526551E+01 -0.69795839645E+01 -0.32177601658E+01  0.81375137889E+01  0.51100000000E-03 0. -1.
        -11    1    3    3    0    0  0.39728627885E+01 -0.18112091779E+01  0.87029886091E+01  0.97368438631E+01  0.51100000000E-03 0.  1.
        -12    1    3    3    0    0 -0.93097089780E+01 -0.10056225446E+02  0.29639896941E+02  0.32654583785E+02  0.00000000000E+00 0.  1.
</event>
<event>
 7    1  0.1161807E-013  0.5052885E+02  0.7816164E-02  0.1300439E+00
        -11   -1    0    0    0    0  0.00000000000E+00  0.00000000000E+00  0.45593999997E+02  0.45594000000E+02  0.51100000000E-03 0. -1.
         11   -1    0    0    0    0 -0.00000000000E+00 -0.00000000000E+00 -0.45593999997E+02  0.45594000000E+02  0.51100000000E-03 0.  1.
    9900012    2    1    2    0    0  0.25691660342E+02 -0.20442428766E+02 -0.23983580428E+02  0.50528850536E+02  0.29999971690E+02 0.  0.
         12    1    1    2    0    0 -0.25691660342E+02  0.20442428766E+02  0.23983580428E+02  0.40659149464E+02  0.00000000000E+00 0. -1.
         11    1    3    3    0    0  0.11412541148E+02  0.24184038506E+01 -0.44403966647E+01  0.12482463516E+02  0.51100000000E-03 0. -1.
        -11    1    3    3    0    0  0.52634104900E+01  0.12151447527E+00 -0.10515908993E+02  0.11760212497E+02  0.51100000000E-03 0.  1.
         12    1    3    3    0    0  0.90157087040E+01 -0.22982347091E+02 -0.90272747703E+01  0.26286174523E+02  0.00000000000E+00 0. -1.
</event>
<event>
 7    1  0.1161807E-013  0.5052886E+02  0.7816164E-02  0.1300439E+00
        -11   -1    0    0    0    0  0.00000000000E+00  0.00000000000E+00  0.45593999997E+02  0.45594000000E+02  0.51100000000E-03 0. -1.
         11   -1    0    0    0    0 -0.00000000000E+00 -0.00000000000E+00 -0.45593999997E+02  0.45594000000E+02  0.51100000000E-03 0.  1.
    9900012    2    1    2    0    0 -0.13706252109E+02 -0.22451886226E+02 -0.31003501169E+02  0.50528860478E+02  0.30000001908E+02 0.  0.
         12    1    1    2    0    0  0.13706252109E+02  0.22451886226E+02  0.31003501169E+02  0.40659139522E+02  0.00000000000E+00 0. -1.
         11    1    3    3    0    0  0.87529168219E-01 -0.13753113615E+02 -0.72501614407E+01  0.15547367515E+02  0.51100000000E-03 0. -1.
        -11    1    3    3    0    0 -0.24051431103E+01 -0.63713530541E+01  0.16829212052E+01  0.70150607385E+01  0.51100000000E-03 0.  1.
        -12    1    3    3    0    0 -0.11388638167E+02 -0.23274195568E+01 -0.25436260933E+02  0.27966432224E+02  0.00000000000E+00 0.  1.
</event>
<event>
 7    1  0.1161807E-013  0.5052886E+02  0.7816164E-02  0.1300439E+00
        -11   -1    0    0    0    0  0.00000000000E+00  0.00000000000E+00  0.45593999997E+02  0.45594000000E+02  0.51100000000E-03 0. -1.
         11   -1    0    0    0    0 -0.00000000000E+00 -0.00000000000E+00 -0.45593999997E+02  0.45594000000E+02  0.51100000000E-03 0.  1.
    9900012    2    1    2    0    0  0.21514237551E+02 -0.19859618784E+02  0.28211681631E+02  0.50528857656E+02  0.29999993331E+02 0.  0.
        -12    1    1    2    0    0 -0.21514237551E+02  0.19859618784E+02 -0.28211681631E+02  0.40659142344E+02  0.00000000000E+00 0.  1.
         11    1    3    3    0    0  0.61777602926E+01 -0.39470800523E+01  0.77968766371E+01  0.10702123562E+02  0.51100000000E-03 0. -1.
        -11    1    3    3    0    0  0.57800464432E+01 -0.21683759072E+02  0.16997468173E+02  0.28151523386E+02  0.51100000000E-03 0.  1.
        -12    1    3    3    0    0  0.95564308156E+01  0.57712203400E+01  0.34173368215E+01  0.11675210709E+02  0.00000000000E+00 0.  1.
</event>
<event>
 7    1  0.1161807E-013  0.5052886E+02  0.7816164E-02  0.1300439E+00
        -11   -1    0    0    0    0  0.00000000000E+00  0.00000000000E+00  0.45593999997E+02  0.45594000000E+02  0.51100000000E-03 0. -1.
         11   -1    0    0    0    0 -0.00000000000E+00 -0.00000000000E+00 -0.45593999997E+02  0.45594000000E+02  0.51100000000E-03 0.  1.
    9900012    2    1    2    0    0 -0.23483960896E+02 -0.33078098677E+02 -0.27402118568E+01  0.50528858439E+02  0.29999995711E+02 0.  0.
         12    1    1    2    0    0  0.23483960896E+02  0.33078098677E+02  0.27402118568E+01  0.40659141561E+02  0.00000000000E+00 0. -1.
         11    1    3    3    0    0 -0.84026871446E+01 -0.87322926143E+01  0.55000185981E+01  0.13308203876E+02  0.51100000000E-03 0.  1.
        -11    1    3    3    0    0 -0.28201956191E+01  0.16513815795E+01  0.46789401685E+01  0.57072800713E+01  0.51100000000E-03 0. -1.
        -12    1    3    3    0    0 -0.12261078133E+02 -0.25997187642E+02 -0.12919170623E+02  0.31513374492E+02  0.00000000000E+00 0.  1.
</event>
<event>
 7    1  0.1161807E-013  0.5052886E+02  0.7816164E-02  0.1300439E+00
        -11   -1    0    0    0    0  0.00000000000E+00  0.00000000000E+00  0.45593999997E+02  0.45594000000E+02  0.51100000000E-03 0. -1.
         11   -1    0    0    0    0 -0.00000000000E+00 -0.00000000000E+00 -0.45593999997E+02  0.45594000000E+02  0.51100000000E-03 0.  1.
    9900012    2    1    2    0    0 -0.14740786027E+02 -0.20276999333E+02  0.32011219158E+02  0.50528860478E+02  0.30000001910E+02 0.  0.
        -12    1    1    2    0    0  0.14740786027E+02  0.20276999333E+02 -0.32011219158E+02  0.40659139522E+02  0.00000000000E+00 0.  1.
         11    1    3    3    0    0 -0.83108258914E+00  0.66817338864E+01  0.86902005367E+01  0.10993445849E+02  0.51100000000E-03 0. -1.
        -11    1    3    3    0    0 -0.21801364022E+01 -0.93378089944E+01  0.26491334016E+01  0.99481445299E+01  0.51100000000E-03 0.  1.
        -12    1    3    3    0    0 -0.11729567036E+02 -0.17620924225E+02  0.20671885220E+02  0.29587270100E+02  0.00000000000E+00 0.  1.
</event>
<event>
 7    1  0.1161807E-013  0.5052886E+02  0.7816164E-02  0.1300439E+00
        -11   -1    0    0    0    0  0.00000000000E+00  0.00000000000E+00  0.45593999997E+02  0.45594000000E+02  0.51100000000E-03 0. -1.
         11   -1    0    0    0    0 -0.00000000000E+00 -0.00000000000E+00 -0.45593999997E+02  0.45594000000E+02  0.51100000000E-03 0.  1.
    9900012    2    1    2    0    0 -0.10607831490E+02 -0.13553184141E+02  0.36836812846E+02  0.50528859946E+02  0.30000000293E+02 0.  0.
        -12    1    1    2    0    0  0.10607831490E+02  0.13553184141E+02 -0.36836812846E+02  0.40659140054E+02  0.00000000000E+00 0.  1.
         11    1    3    3    0    0  0.26382645500E+01  0.29615915748E+00  0.38067971476E+00  0.26819894460E+01  0.51100000000E-03 0. -1.
        -11    1    3    3    0    0  0.45748461621E+01 -0.54167016098E+01  0.84213395510E+00  0.71399624366E+01  0.51100000000E-03 0.  1.
        -12    1    3    3    0    0 -0.17820942202E+02 -0.84326416883E+01  0.35613999176E+02  0.40706908064E+02  0.00000000000E+00 0.  1.
</event>
<event>
 7    1  0.1161807E-013  0.5052886E+02  0.7816164E-02  0.1300439E+00
        -11   -1    0    0    0    0  0.00000000000E+00  0.00000000000E+00  0.45593999997E+02  0.45594000000E+02  0.51100000000E-03 0. -1.
         11   -1    0    0    0    0 -0.00000000000E+00 -0.00000000000E+00 -0.45593999997E+02  0.45594000000E+02  0.51100000000E-03 0.  1.
    9900012    2    1    2    0    0 -0.13028321685E+02  0.17531783784E+02 -0.34293803809E+02  0.50528860950E+02  0.30000003345E+02 0.  0.
         12    1    1    2    0    0  0.13028321685E+02 -0.17531783784E+02  0.34293803809E+02  0.40659139050E+02  0.00000000000E+00 0. -1.
         11    1    3    3    0    0 -0.55789917862E+01  0.44800071632E+00 -0.15440184844E+02  0.16423311550E+02  0.51100000000E-03 0. -1.
        -11    1    3    3    0    0 -0.15017986649E+02  0.10821714975E+02 -0.11034146035E+02  0.21549984152E+02  0.51100000000E-03 0.  1.
         12    1    3    3    0    0  0.75686567499E+01  0.62620680926E+01 -0.78194729294E+01  0.12555565248E+02  0.00000000000E+00 0. -1.
</event>
<event>
 7    1  0.1161807E-013  0.5052885E+02  0.7816164E-02  0.1300439E+00
        -11   -1    0    0    0    0  0.00000000000E+00  0.00000000000E+00  0.45593999997E+02  0.45594000000E+02  0.51100000000E-03 0. -1.
         11   -1    0    0    0    0 -0.00000000000E+00 -0.00000000000E+00 -0.45593999997E+02  0.45594000000E+02  0.51100000000E-03 0.  1.
    9900012    2    1    2    0    0 -0.34352100380E+02  0.13226691517E+02 -0.17267133662E+02  0.50528854978E+02  0.29999985192E+02 0.  0.
         12    1    1    2    0    0  0.34352100380E+02 -0.13226691517E+02  0.17267133662E+02  0.40659145022E+02  0.00000000000E+00 0. -1.
         11    1    3    3    0    0 -0.27248926525E+02  0.36245733225E+01 -0.11512900908E+02  0.29802490099E+02  0.51100000000E-03 0. -1.
        -11    1    3    3    0    0 -0.94638164840E+01 -0.75852971776E-01 -0.50813277519E+01  0.10741948990E+02  0.51100000000E-03 0.  1.
         12    1    3    3    0    0  0.23606426290E+01  0.96779711665E+01 -0.67290500261E+00  0.99844158900E+01  0.00000000000E+00 0. -1.
</event>
<event>
 7    1  0.1161807E-013  0.5052886E+02  0.7816164E-02  0.1300439E+00
        -11   -1    0    0    0    0  0.00000000000E+00  0.00000000000E+00  0.45593999997E+02  0.45594000000E+02  0.51100000000E-03 0. -1.
         11   -1    0    0    0    0 -0.00000000000E+00 -0.00000000000E+00 -0.45593999997E+02  0.45594000000E+02  0.51100000000E-03 0.  1.
    9900012    2    1    2    0    0 -0.16237690001E+02 -0.18539825591E+02 -0.32338487529E+02  0.50528862218E+02  0.30000007197E+02 0.  0.
         12    1    1    2    0    0  0.16237690001E+02  0.18539825591E+02  0.32338487529E+02  0.40659137782E+02  0.00000000000E+00 0. -1.
         11    1    3    3    0    0 -0.75371265098E+01 -0.12166757775E+02 -0.13565180143E+02  0.19719340338E+02  0.51100000000E-03 0. -1.
        -11    1    3    3    0    0  0.18964766494E+01 -0.10487919331E+02 -0.15800930273E+02  0.19059445777E+02  0.51100000000E-03 0.  1.
         12    1    3    3    0    0 -0.10597040141E+02  0.41148515148E+01 -0.29723771136E+01  0.11750076103E+02  0.00000000000E+00 0. -1.
</event>
<event>
 7    1  0.1161807E-013  0.5052887E+02  0.7816164E-02  0.1300439E+00
        -11   -1    0    0    0    0  0.00000000000E+00  0.00000000000E+00  0.45593999997E+02  0.45594000000E+02  0.51100000000E-03 0. -1.
         11   -1    0    0    0    0 -0.00000000000E+00 -0.00000000000E+00 -0.45593999997E+02  0.45594000000E+02  0.51100000000E-03 0.  1.
    9900012    2    1    2    0    0  0.20764029403E+02  0.14456091767E+02  0.31828310979E+02  0.50528869586E+02  0.30000029593E+02 0.  0.
        -12    1    1    2    0    0 -0.20764029403E+02 -0.14456091767E+02 -0.31828310979E+02  0.40659130414E+02  0.00000000000E+00 0.  1.
         11    1    3    3    0    0  0.42441194224E+01  0.88910018630E+01  0.15281538537E+02  0.18182075902E+02  0.51100000000E-03 0. -1.
        -11    1    3    3    0    0  0.78758219334E+01  0.99272764898E+01  0.18544366168E+02  0.22460474315E+02  0.51100000000E-03 0.  1.
        -12    1    3    3    0    0  0.86440880472E+01 -0.43621865854E+01 -0.19975937251E+01  0.98863193689E+01  0.00000000000E+00 0.  1.
</event>
<event>
 7    1  0.1161807E-013  0.5052882E+02  0.7816164E-02  0.1300439E+00
        -11   -1    0    0    0    0  0.00000000000E+00  0.00000000000E+00  0.45593999997E+02  0.45594000000E+02  0.51100000000E-03 0. -1.
         11   -1    0    0    0    0 -0.00000000000E+00 -0.00000000000E+00 -0.45593999997E+02  0.45594000000E+02  0.51100000000E-03 0.  1.
    9900012    2    1    2    0    0 -0.62373223779E+01  0.31045065905E+02  0.25504285451E+02  0.50528820423E+02  0.29999880157E+02 0.  0.
        -12    1    1    2    0    0  0.62373223779E+01 -0.31045065905E+02 -0.25504285451E+02  0.40659179577E+02  0.00000000000E+00 0.  1.
         11    1    3    3    0    0  0.23046920197E+00 -0.14849359991E+01  0.72156667522E+01  0.73704815252E+01  0.51100000000E-03 0. -1.
        -11    1    3    3    0    0 -0.85782299747E+01  0.24930446301E+01  0.33013126199E+01  0.95236529914E+01  0.51100000000E-03 0.  1.
        -12    1    3    3    0    0  0.21104383948E+01  0.30036957274E+02  0.14987306079E+02  0.33634685906E+02  0.00000000000E+00 0.  1.
</event>
<event>
 7    1  0.1161807E-013  0.5052886E+02  0.7816164E-02  0.1300439E+00
        -11   -1    0    0    0    0  0.00000000000E+00  0.00000000000E+00  0.45593999997E+02  0.45594000000E+02  0.51100000000E-03 0. -1.
         11   -1    0    0    0    0 -0.00000000000E+00 -0.00000000000E+00 -0.45593999997E+02  0.45594000000E+02  0.51100000000E-03 0.  1.
    9900012    2    1    2    0    0 -0.77051448948E+01 -0.71495657152E+01  0.39276962670E+02  0.50528863950E+02  0.30000012462E+02 0.  0.
        -12    1    1    2    0    0  0.77051448948E+01  0.71495657152E+01 -0.39276962670E+02  0.40659136050E+02  0.00000000000E+00 0.  1.
         11    1    3    3    0    0 -0.10249900535E+02 -0.60650873743E+01  0.28689862687E+02  0.31063708199E+02  0.51100000000E-03 0. -1.
        -11    1    3    3    0    0 -0.37386937272E+01 -0.47782967444E+01  0.10557137373E+02  0.12176333616E+02  0.51100000000E-03 0.  1.
        -12    1    3    3    0    0  0.62834493673E+01  0.36938184035E+01  0.29962610435E-01  0.72888221344E+01  0.00000000000E+00 0.  1.
</event>
<event>
 7    1  0.1161807E-013  0.5052887E+02  0.7816164E-02  0.1300439E+00
        -11   -1    0    0    0    0  0.00000000000E+00  0.00000000000E+00  0.45593999997E+02  0.45594000000E+02  0.51100000000E-03 0. -1.
         11   -1    0    0    0    0 -0.00000000000E+00 -0.00000000000E+00 -0.45593999997E+02  0.45594000000E+02  0.51100000000E-03 0.  1.
    9900012    2    1    2    0    0 -0.18528303502E+02 -0.25415611373E+02 -0.25766524016E+02  0.50528867053E+02  0.30000021894E+02 0.  0.
         12    1    1    2    0    0  0.18528303502E+02  0.25415611373E+02  0.25766524016E+02  0.40659132947E+02  0.00000000000E+00 0. -1.
         11    1    3    3    0    0 -0.93080760654E+01 -0.11428795592E+02 -0.21760426578E+02  0.26282576241E+02  0.51100000000E-03 0. -1.
        -11    1    3    3    0    0 -0.32600228689E+01 -0.16278598190E+02 -0.58457475907E+01  0.17600945239E+02  0.51100000000E-03 0.  1.
         12    1    3    3    0    0 -0.59602045680E+01  0.22917824095E+01  0.18396501528E+01  0.66453455734E+01  0.00000000000E+00 0. -1.
</event>
<event>
 7    1  0.1161807E-013  0.5052886E+02  0.7816164E-02  0.1300439E+00
        -11   -1    0    0    0    0  0.00000000000E+00  0.00000000000E+00  0.45593999997E+02  0.45594000000E+02  0.51100000000E-03 0. -1.
         11   -1    0    0    0    0 -0.00000000000E+00 -0.00000000000E+00 -0.45593999997E+02  0.45594000000E+02  0.51100000000E-03 0.  1.
    9900012    2    1    2    0    0 -0.14139503252E+02  0.17132140528E+02 -0.34054812758E+02  0.50528855109E+02  0.29999985588E+02 0.  0.
         12    1    1    2    0    0  0.14139503252E+02 -0.17132140528E+02  0.34054812758E+02  0.40659144891E+02  0.00000000000E+00 0. -1.
         11    1    3    3    0    0 -0.13022418368E+02  0.90881416413E+01 -0.36627363456E+01  0.16297034591E+02  0.51100000000E-03 0. -1.
        -11    1    3    3    0    0 -0.51160111377E+01  0.60556766755E+01 -0.75165791005E+01  0.10924456581E+02  0.51100000000E-03 0.  1.
         12    1    3    3    0    0  0.39989262537E+01  0.19883222112E+01 -0.22875497312E+02  0.23307363937E+02  0.00000000000E+00 0. -1.
</event>
<event>
 7    1  0.1161807E-013  0.5052887E+02  0.7816164E-02  0.1300439E+00
        -11   -1    0    0    0    0  0.00000000000E+00  0.00000000000E+00  0.45593999997E+02  0.45594000000E+02  0.51100000000E-03 0. -1.
         11   -1    0    0    0    0 -0.00000000000E+00 -0.00000000000E+00 -0.45593999997E+02  0.45594000000E+02  0.51100000000E-03 0.  1.
    9900012    2    1    2    0    0 -0.31628654070E+02 -0.20022858755E+01  0.25471244811E+02  0.50528865488E+02  0.30000017137E+02 0.  0.
        -12    1    1    2    0    0  0.31628654070E+02  0.20022858755E+01 -0.25471244811E+02  0.40659134512E+02  0.00000000000E+00 0.  1.
         11    1    3    3    0    0 -0.51684057637E+01  0.63191825163E+01  0.13445153851E+02  0.15729483404E+02  0.51100000000E-03 0. -1.
        -11    1    3    3    0    0  0.18259917432E+01 -0.80770537133E+00 -0.15587553273E+01  0.25330519625E+01  0.51100000000E-03 0.  1.
         12    1    3    3    0    0 -0.28286240050E+02 -0.75137630204E+01  0.13584846288E+02  0.32266330122E+02  0.00000000000E+00 0. -1.
</event>
<event>
 7    1  0.1161807E-013  0.5052885E+02  0.7816164E-02  0.1300439E+00
        -11   -1    0    0    0    0  0.00000000000E+00  0.00000000000E+00  0.45593999997E+02  0.45594000000E+02  0.51100000000E-03 0. -1.
         11   -1    0    0    0    0 -0.00000000000E+00 -0.00000000000E+00 -0.45593999997E+02  0.45594000000E+02  0.51100000000E-03 0.  1.
    9900012    2    1    2    0    0  0.73912279158E+01  0.19624430305E+02 -0.34834148562E+02  0.50528850710E+02  0.29999972219E+02 0.  0.
         12    1    1    2    0    0 -0.73912279158E+01 -0.19624430305E+02  0.34834148562E+02  0.40659149290E+02  0.00000000000E+00 0. -1.
         11    1    3    3    0    0 -0.46077848865E+01  0.20759303642E+02 -0.29627551041E+02  0.36468783229E+02  0.51100000000E-03 0. -1.
        -11    1    3    3    0    0  0.10288634132E+01 -0.13407249416E+00 -0.25145279219E+01  0.27201812968E+01  0.51100000000E-03 0.  1.
         12    1    3    3    0    0  0.10970149389E+02 -0.10008008426E+01 -0.26920695992E+01  0.11339886184E+02  0.00000000000E+00 0. -1.
</event>
<event>
 7    1  0.1161807E-013  0.5052886E+02  0.7816164E-02  0.1300439E+00
        -11   -1    0    0    0    0  0.00000000000E+00  0.00000000000E+00  0.45593999997E+02  0.45594000000E+02  0.51100000000E-03 0. -1.
         11   -1    0    0    0    0 -0.00000000000E+00 -0.00000000000E+00 -0.45593999997E+02  0.45594000000E+02  0.51100000000E-03 0.  1.
    9900012    2    1    2    0    0 -0.29399826336E+02 -0.97911609240E+00  0.28068795717E+02  0.50528858962E+02  0.29999997300E+02 0.  0.
        -12    1    1    2    0    0  0.29399826336E+02  0.97911609240E+00 -0.28068795717E+02  0.40659141038E+02  0.00000000000E+00 0.  1.
         11    1    3    3    0    0 -0.11031655033E+02 -0.24143588785E+01  0.19877972817E+02  0.22861766011E+02  0.51100000000E-03 0. -1.
        -11    1    3    3    0    0 -0.89699319819E+01 -0.62837459815E+01  0.10630729539E+02  0.15262947098E+02  0.51100000000E-03 0.  1.
         12    1    3    3    0    0 -0.93982393219E+01  0.77189887676E+01 -0.24399066384E+01  0.12404145853E+02  0.00000000000E+00 0. -1.
</event>
<event>
 7    1  0.1161807E-013  0.5052887E+02  0.7816164E-02  0.1300439E+00
        -11   -1    0    0    0    0  0.00000000000E+00  0.00000000000E+00  0.45593999997E+02  0.45594000000E+02  0.51100000000E-03 0. -1.
         11   -1    0    0    0    0 -0.00000000000E+00 -0.00000000000E+00 -0.45593999997E+02  0.45594000000E+02  0.51100000000E-03 0.  1.
    9900012    2    1    2    0    0 -0.83236026311E+01 -0.15827257525E+02  0.36515486577E+02  0.50528865707E+02  0.30000017804E+02 0.  0.
        -12    1    1    2    0    0  0.83236026311E+01  0.15827257525E+02 -0.36515486577E+02  0.40659134293E+02  0.00000000000E+00 0.  1.
         11    1    3    3    0    0 -0.48021256289E+00 -0.78866253559E+01  0.18985718216E+01  0.81261330799E+01  0.51100000000E-03 0. -1.
        -11    1    3    3    0    0 -0.46832133868E+01 -0.14397215539E+01 -0.18418874896E+01  0.52342941802E+01  0.51100000000E-03 0.  1.
        -12    1    3    3    0    0 -0.31601766813E+01 -0.65009106152E+01  0.36458802245E+02  0.37168438447E+02  0.00000000000E+00 0.  1.
</event>
<event>
 7    1  0.1161807E-013  0.5052885E+02  0.7816164E-02  0.1300439E+00
        -11   -1    0    0    0    0  0.00000000000E+00  0.00000000000E+00  0.45593999997E+02  0.45594000000E+02  0.51100000000E-03 0. -1.
         11   -1    0    0    0    0 -0.00000000000E+00 -0.00000000000E+00 -0.45593999997E+02  0.45594000000E+02  0.51100000000E-03 0.  1.
    9900012    2    1    2    0    0 -0.17264229003E+02  0.43746249874E+01 -0.36550994417E+02  0.50528854169E+02  0.29999982732E+02 0.  0.
         12    1    1    2    0    0  0.17264229003E+02 -0.43746249874E+01  0.36550994417E+02  0.40659145831E+02  0.00000000000E+00 0. -1.
         11    1    3    3    0    0 -0.36704770917E+01 -0.54920429050E+01 -0.11563185357E+01  0.67061173691E+01  0.51100000000E-03 0. -1.
        -11    1    3    3    0    0 -0.52983795117E+01 -0.42826267824E+01 -0.20731399722E+02  0.21822113837E+02  0.51100000000E-03 0.  1.
        -12    1    3    3    0    0 -0.82953723995E+01  0.14149294675E+02 -0.14663276159E+02  0.22000622963E+02  0.00000000000E+00 0.  1.
</event>
<event>
 7    1  0.1161807E-013  0.5052885E+02  0.7816164E-02  0.1300439E+00
        -11   -1    0    0    0    0  0.00000000000E+00  0.00000000000E+00  0.45593999997E+02  0.45594000000E+02  0.51100000000E-03 0. -1.
         11   -1    0    0    0    0 -0.00000000000E+00 -0.00000000000E+00 -0.45593999997E+02  0.45594000000E+02  0.51100000000E-03 0.  1.
    9900012    2    1    2    0    0  0.16899790567E+02  0.16429297706E+02 -0.33130680216E+02  0.50528847084E+02  0.29999961195E+02 0.  0.
         12    1    1    2    0    0 -0.16899790567E+02 -0.16429297706E+02  0.33130680216E+02  0.40659152916E+02  0.00000000000E+00 0. -1.
         11    1    3    3    0    0  0.11421750050E+01  0.14091245393E+02 -0.14895247070E+02  0.20536215474E+02  0.51100000000E-03 0.  1.
        -11    1    3    3    0    0 -0.23443384077E+01  0.24488915547E+01 -0.91099534692E+01  0.97203006583E+01  0.51100000000E-03 0. -1.
        -12    1    3    3    0    0  0.18101953970E+02 -0.11083924147E+00 -0.91254796763E+01  0.20272330951E+02  0.00000000000E+00 0.  1.
</event>
<event>
 7    1  0.1161807E-013  0.5052886E+02  0.7816164E-02  0.1300439E+00
        -11   -1    0    0    0    0  0.00000000000E+00  0.00000000000E+00  0.45593999997E+02  0.45594000000E+02  0.51100000000E-03 0. -1.
         11   -1    0    0    0    0 -0.00000000000E+00 -0.00000000000E+00 -0.45593999997E+02  0.45594000000E+02  0.51100000000E-03 0.  1.
    9900012    2    1    2    0    0 -0.98449984724E+00 -0.16540842654E+02  0.37129466969E+02  0.50528855480E+02  0.29999986718E+02 0.  0.
        -12    1    1    2    0    0  0.98449984724E+00  0.16540842654E+02 -0.37129466969E+02  0.40659144520E+02  0.00000000000E+00 0.  1.
         11    1    3    3    0    0 -0.36102959623E+01 -0.42749383881E+01  0.15410015284E+02  0.16394447428E+02  0.51100000000E-03 0. -1.
        -11    1    3    3    0    0 -0.71931593859E+01  0.23428172306E+01  0.22605574322E+01  0.78955971714E+01  0.51100000000E-03 0.  1.
        -12    1    3    3    0    0  0.98189555010E+01 -0.14608721496E+02  0.19458894253E+02  0.26238810881E+02  0.00000000000E+00 0.  1.
</event>
<event>
 7    1  0.1161807E-013  0.5052886E+02  0.7816164E-02  0.1300439E+00
        -11   -1    0    0    0    0  0.00000000000E+00  0.00000000000E+00  0.45593999997E+02  0.45594000000E+02  0.51100000000E-03 0. -1.
         11   -1    0    0    0    0 -0.00000000000E+00 -0.00000000000E+00 -0.45593999997E+02  0.45594000000E+02  0.51100000000E-03 0.  1.
    9900012    2    1    2    0    0 -0.58464624693E+01 -0.23046966098E+02  0.32982149476E+02  0.50528856456E+02  0.29999989682E+02 0.  0.
        -12    1    1    2    0    0  0.58464624693E+01  0.23046966098E+02 -0.32982149476E+02  0.40659143544E+02  0.00000000000E+00 0.  1.
         11    1    3    3    0    0 -0.12940103026E+02 -0.61999688812E+01  0.14065585822E+02  0.20092948644E+02  0.51100000000E-03 0. -1.
        -11    1    3    3    0    0 -0.46437471300E+00 -0.16163175773E+02  0.11654587339E+02  0.19932217670E+02  0.51100000000E-03 0.  1.
        -12    1    3    3    0    0  0.75580152700E+01 -0.68382144451E+00  0.72619763152E+01  0.10503690142E+02  0.00000000000E+00 0.  1.
</event>
<event>
 7    1  0.1161807E-013  0.5052886E+02  0.7816164E-02  0.1300439E+00
        -11   -1    0    0    0    0  0.00000000000E+00  0.00000000000E+00  0.45593999997E+02  0.45594000000E+02  0.51100000000E-03 0. -1.
         11   -1    0    0    0    0 -0.00000000000E+00 -0.00000000000E+00 -0.45593999997E+02  0.45594000000E+02  0.51100000000E-03 0.  1.
    9900012    2    1    2    0    0  0.14894028180E+02  0.14015380237E+01 -0.37807004607E+02  0.50528856113E+02  0.29999988641E+02 0.  0.
         12    1    1    2    0    0 -0.14894028180E+02 -0.14015380237E+01  0.37807004607E+02  0.40659143887E+02  0.00000000000E+00 0. -1.
         11    1    3    3    0    0  0.47461292384E+01 -0.83577000724E+01 -0.26030165503E+02  0.27747908203E+02  0.51100000000E-03 0. -1.
        -11    1    3    3    0    0 -0.20287525962E+01 -0.17787646862E+01 -0.12237174022E+01  0.29626551347E+01  0.51100000000E-03 0.  1.
        -12    1    3    3    0    0  0.12176651538E+02  0.11538002782E+02 -0.10553121702E+02  0.19818292775E+02  0.00000000000E+00 0.  1.
</event>
<event>
 7    1  0.1161807E-013  0.5052885E+02  0.7816164E-02  0.1300439E+00
        -11   -1    0    0    0    0  0.00000000000E+00  0.00000000000E+00  0.45593999997E+02  0.45594000000E+02  0.51100000000E-03 0. -1.
         11   -1    0    0    0    0 -0.00000000000E+00 -0.00000000000E+00 -0.45593999997E+02  0.45594000000E+02  0.51100000000E-03 0.  1.
    9900012    2    1    2    0    0 -0.69544965181E+01 -0.39718866153E+02  0.52166338070E+01  0.50528848280E+02  0.29999964831E+02 0.  0.
        -12    1    1    2    0    0  0.69544965181E+01  0.39718866153E+02 -0.52166338070E+01  0.40659151720E+02  0.00000000000E+00 0.  1.
         11    1    3    3    0    0  0.34883913601E+01 -0.67358539834E+01 -0.38639701141E+01  0.85129823488E+01  0.51100000000E-03 0. -1.
        -11    1    3    3    0    0 -0.60411874413E+01 -0.50053920474E+01 -0.60487010751E+01  0.99063959242E+01  0.51100000000E-03 0.  1.
         12    1    3    3    0    0 -0.44017004369E+01 -0.27977620123E+02  0.15129304996E+02  0.32109470007E+02  0.00000000000E+00 0. -1.
</event>
<event>
 7    1  0.1161807E-013  0.5052885E+02  0.7816164E-02  0.1300439E+00
        -11   -1    0    0    0    0  0.00000000000E+00  0.00000000000E+00  0.45593999997E+02  0.45594000000E+02  0.51100000000E-03 0.  1.
         11   -1    0    0    0    0 -0.00000000000E+00 -0.00000000000E+00 -0.45593999997E+02  0.45594000000E+02  0.51100000000E-03 0. -1.
    9900012    2    1    2    0    0 -0.56805219515E+01  0.19024417711E+02 -0.35481961237E+02  0.50528851311E+02  0.29999974045E+02 0.  0.
         12    1    1    2    0    0  0.56805219515E+01 -0.19024417711E+02  0.35481961237E+02  0.40659148689E+02  0.00000000000E+00 0. -1.
         11    1    3    3    0    0  0.12414669807E+01 -0.43328624322E+01 -0.22334790631E+01  0.50302451339E+01  0.51100000000E-03 0. -1.
        -11    1    3    3    0    0 -0.38274878176E+01 -0.17867831260E+01 -0.10996651654E+02  0.11780008693E+02  0.51100000000E-03 0.  1.
        -12    1    3    3    0    0 -0.30945011146E+01  0.25144063269E+02 -0.22251830520E+02  0.33718597484E+02  0.00000000000E+00 0.  1.
</event>
<event>
 7    1  0.1161807E-013  0.5052872E+02  0.7816164E-02  0.1300439E+00
        -11   -1    0    0    0    0  0.00000000000E+00  0.00000000000E+00  0.45593999997E+02  0.45594000000E+02  0.51100000000E-03 0. -1.
         11   -1    0    0    0    0 -0.00000000000E+00 -0.00000000000E+00 -0.45593999997E+02  0.45594000000E+02  0.51100000000E-03 0.  1.
    9900012    2    1    2    0    0 -0.95794098500E+00 -0.55943113418E+01  0.40261184587E+02  0.50528721174E+02  0.29999578478E+02 0.  0.
        -12    1    1    2    0    0  0.95794098500E+00  0.55943113418E+01 -0.40261184587E+02  0.40659278826E+02  0.00000000000E+00 0.  1.
         11    1    3    3    0    0 -0.33688214439E+01  0.38148227305E+01  0.44758977661E+01  0.67775726820E+01  0.51100000000E-03 0. -1.
        -11    1    3    3    0    0  0.30019986673E+01  0.22887870347E+01 -0.19436065519E+01  0.42459567566E+01  0.51100000000E-03 0.  1.
         12    1    3    3    0    0 -0.59111820841E+00 -0.11697921107E+02  0.37728893372E+02  0.39505191736E+02  0.00000000000E+00 0. -1.
</event>
<event>
 7    1  0.1161807E-013  0.5052886E+02  0.7816164E-02  0.1300439E+00
        -11   -1    0    0    0    0  0.00000000000E+00  0.00000000000E+00  0.45593999997E+02  0.45594000000E+02  0.51100000000E-03 0. -1.
         11   -1    0    0    0    0 -0.00000000000E+00 -0.00000000000E+00 -0.45593999997E+02  0.45594000000E+02  0.51100000000E-03 0.  1.
    9900012    2    1    2    0    0  0.15053567304E+02  0.12588113285E+02  0.35610327035E+02  0.50528857409E+02  0.29999992582E+02 0.  0.
        -12    1    1    2    0    0 -0.15053567304E+02 -0.12588113285E+02 -0.35610327035E+02  0.40659142591E+02  0.00000000000E+00 0.  1.
         11    1    3    3    0    0  0.86517405237E+01  0.13087246976E+02  0.11392123632E+02  0.19388376121E+02  0.51100000000E-03 0. -1.
        -11    1    3    3    0    0  0.23052783452E+01  0.28362983148E+01 -0.21552826713E+01  0.42431285667E+01  0.51100000000E-03 0.  1.
        -12    1    3    3    0    0  0.40965484355E+01 -0.33354320052E+01  0.26373486074E+02  0.26897352722E+02  0.00000000000E+00 0.  1.
</event>
<event>
 7    1  0.1161807E-013  0.5052887E+02  0.7816164E-02  0.1300439E+00
        -11   -1    0    0    0    0  0.00000000000E+00  0.00000000000E+00  0.45593999997E+02  0.45594000000E+02  0.51100000000E-03 0.  1.
         11   -1    0    0    0    0 -0.00000000000E+00 -0.00000000000E+00 -0.45593999997E+02  0.45594000000E+02  0.51100000000E-03 0. -1.
    9900012    2    1    2    0    0  0.29065245229E+02  0.27148323829E+02 -0.84466127262E+01  0.50528865313E+02  0.30000016605E+02 0.  0.
         12    1    1    2    0    0 -0.29065245229E+02 -0.27148323829E+02  0.84466127262E+01  0.40659134687E+02  0.00000000000E+00 0. -1.
         11    1    3    3    0    0  0.53137768575E+00 -0.27855225503E+01 -0.51963485613E+01  0.59197581669E+01  0.51100000000E-03 0. -1.
        -11    1    3    3    0    0  0.18979137311E+00  0.72264777479E+01 -0.40420545102E+01  0.82822826763E+01  0.51100000000E-03 0.  1.
        -12    1    3    3    0    0  0.28344076170E+02  0.22707368631E+02  0.79179034540E+00  0.36326824470E+02  0.00000000000E+00 0.  1.
</event>
<event>
 7    1  0.1161807E-013  0.5052887E+02  0.7816164E-02  0.1300439E+00
        -11   -1    0    0    0    0  0.00000000000E+00  0.00000000000E+00  0.45593999997E+02  0.45594000000E+02  0.51100000000E-03 0. -1.
         11   -1    0    0    0    0 -0.00000000000E+00 -0.00000000000E+00 -0.45593999997E+02  0.45594000000E+02  0.51100000000E-03 0.  1.
    9900012    2    1    2    0    0 -0.12415873568E+02  0.29411224915E+02 -0.25179178257E+02  0.50528867137E+02  0.30000022150E+02 0.  0.
         12    1    1    2    0    0  0.12415873568E+02 -0.29411224915E+02  0.25179178257E+02  0.40659132863E+02  0.00000000000E+00 0. -1.
         11    1    3    3    0    0  0.55206743173E+01  0.10675753172E+02  0.98019397377E+00  0.12058620617E+02  0.51100000000E-03 0. -1.
        -11    1    3    3    0    0 -0.54997190717E+01  0.10314967565E+02 -0.17760204592E+02  0.21261945657E+02  0.51100000000E-03 0.  1.
        -12    1    3    3    0    0 -0.12436828814E+02  0.84205041783E+01 -0.83991676391E+01  0.17208300863E+02  0.00000000000E+00 0.  1.
</event>
<event>
 7    1  0.1161807E-013  0.5052886E+02  0.7816164E-02  0.1300439E+00
        -11   -1    0    0    0    0  0.00000000000E+00  0.00000000000E+00  0.45593999997E+02  0.45594000000E+02  0.51100000000E-03 0. -1.
         11   -1    0    0    0    0 -0.00000000000E+00 -0.00000000000E+00 -0.45593999997E+02  0.45594000000E+02  0.51100000000E-03 0.  1.
    9900012    2    1    2    0    0  0.30137206613E+02  0.91732190400E+01  0.25705377925E+02  0.50528860507E+02  0.30000001998E+02 0.  0.
        -12    1    1    2    0    0 -0.30137206613E+02 -0.91732190400E+01 -0.25705377925E+02  0.40659139493E+02  0.00000000000E+00 0.  1.
         11    1    3    3    0    0  0.23699652926E+00 -0.29953746211E+01  0.19996481701E+01  0.36092976520E+01  0.51100000000E-03 0.  1.
        -11    1    3    3    0    0  0.32440816251E+01 -0.21947997486E+01  0.14869875942E+02  0.15377074569E+02  0.51100000000E-03 0. -1.
        -12    1    3    3    0    0  0.26656128459E+02  0.14363393410E+02  0.88358538134E+01  0.31542488286E+02  0.00000000000E+00 0.  1.
</event>
<event>
 7    1  0.1161807E-013  0.5052888E+02  0.7816164E-02  0.1300439E+00
        -11   -1    0    0    0    0  0.00000000000E+00  0.00000000000E+00  0.45593999997E+02  0.45594000000E+02  0.51100000000E-03 0. -1.
         11   -1    0    0    0    0 -0.00000000000E+00 -0.00000000000E+00 -0.45593999997E+02  0.45594000000E+02  0.51100000000E-03 0.  1.
    9900012    2    1    2    0    0 -0.29678078866E+02  0.25030555399E+02 -0.12076706673E+02  0.50528881553E+02  0.30000065970E+02 0.  0.
         12    1    1    2    0    0  0.29678078866E+02 -0.25030555399E+02  0.12076706673E+02  0.40659118447E+02  0.00000000000E+00 0. -1.
         11    1    3    3    0    0 -0.29023019696E+01  0.33526352830E+01  0.29024975746E+01  0.52998124962E+01  0.51100000000E-03 0. -1.
        -11    1    3    3    0    0 -0.94346976585E+01  0.23293394683E+02 -0.71123809071E+01  0.26118608657E+02  0.51100000000E-03 0.  1.
        -12    1    3    3    0    0 -0.17341079238E+02 -0.16154745670E+01 -0.78668233409E+01  0.19110460400E+02  0.00000000000E+00 0.  1.
</event>
<event>
 7    1  0.1161807E-013  0.5052886E+02  0.7816164E-02  0.1300439E+00
        -11   -1    0    0    0    0  0.00000000000E+00  0.00000000000E+00  0.45593999997E+02  0.45594000000E+02  0.51100000000E-03 0. -1.
         11   -1    0    0    0    0 -0.00000000000E+00 -0.00000000000E+00 -0.45593999997E+02  0.45594000000E+02  0.51100000000E-03 0.  1.
    9900012    2    1    2    0    0  0.15808655075E+02  0.99176217259E+01 -0.36123302223E+02  0.50528858845E+02  0.29999996946E+02 0.  0.
         12    1    1    2    0    0 -0.15808655075E+02 -0.99176217259E+01  0.36123302223E+02  0.40659141155E+02  0.00000000000E+00 0. -1.
         11    1    3    3    0    0  0.42493720693E+01  0.12123099981E+02 -0.12013736082E+02  0.17588535216E+02  0.51100000000E-03 0. -1.
        -11    1    3    3    0    0  0.35301506258E+01 -0.83481772521E-02 -0.24357817677E+02  0.24612300083E+02  0.51100000000E-03 0.  1.
        -12    1    3    3    0    0  0.80291323798E+01 -0.21971300779E+01  0.24825153694E+00  0.83280235457E+01  0.00000000000E+00 0.  1.
</event>
<event>
 7    1  0.1161807E-013  0.5052885E+02  0.7816164E-02  0.1300439E+00
        -11   -1    0    0    0    0  0.00000000000E+00  0.00000000000E+00  0.45593999997E+02  0.45594000000E+02  0.51100000000E-03 0. -1.
         11   -1    0    0    0    0 -0.00000000000E+00 -0.00000000000E+00 -0.45593999997E+02  0.45594000000E+02  0.51100000000E-03 0.  1.
    9900012    2    1    2    0    0  0.71499868815E+01  0.27710037284E+01 -0.39929507264E+02  0.50528851898E+02  0.29999975829E+02 0.  0.
         12    1    1    2    0    0 -0.71499868815E+01 -0.27710037284E+01  0.39929507264E+02  0.40659148102E+02  0.00000000000E+00 0. -1.
         11    1    3    3    0    0  0.45964700686E+01  0.98282458428E+01 -0.10469281704E+02  0.15077394108E+02  0.51100000000E-03 0. -1.
        -11    1    3    3    0    0  0.45565603638E+01  0.37055790042E+01 -0.20438116507E+02  0.21265233709E+02  0.51100000000E-03 0.  1.
        -12    1    3    3    0    0 -0.20030435509E+01 -0.10762821119E+02 -0.90221090530E+01  0.14186224080E+02  0.00000000000E+00 0.  1.
</event>
<event>
 7    1  0.1161807E-013  0.5052886E+02  0.7816164E-02  0.1300439E+00
        -11   -1    0    0    0    0  0.00000000000E+00  0.00000000000E+00  0.45593999997E+02  0.45594000000E+02  0.51100000000E-03 0. -1.
         11   -1    0    0    0    0 -0.00000000000E+00 -0.00000000000E+00 -0.45593999997E+02  0.45594000000E+02  0.51100000000E-03 0.  1.
    9900012    2    1    2    0    0 -0.11018632526E+02 -0.36394305243E+02  0.14394789563E+02  0.50528859779E+02  0.29999999786E+02 0.  0.
        -12    1    1    2    0    0  0.11018632526E+02  0.36394305243E+02 -0.14394789563E+02  0.40659140221E+02  0.00000000000E+00 0.  1.
         11    1    3    3    0    0 -0.82147228900E+01 -0.51660404666E+01  0.90430215414E+01  0.13264459473E+02  0.51100000000E-03 0. -1.
        -11    1    3    3    0    0  0.78420162946E+01 -0.86254445418E+01  0.36782583415E+01  0.12223955898E+02  0.51100000000E-03 0.  1.
        -12    1    3    3    0    0 -0.10645925931E+02 -0.22602820235E+02  0.16735096806E+01  0.25040444408E+02  0.00000000000E+00 0.  1.
</event>
<event>
 7    1  0.1161807E-013  0.5052886E+02  0.7816164E-02  0.1300439E+00
        -11   -1    0    0    0    0  0.00000000000E+00  0.00000000000E+00  0.45593999997E+02  0.45594000000E+02  0.51100000000E-03 0. -1.
         11   -1    0    0    0    0 -0.00000000000E+00 -0.00000000000E+00 -0.45593999997E+02  0.45594000000E+02  0.51100000000E-03 0.  1.
    9900012    2    1    2    0    0  0.25933737566E+02  0.10680296190E+02 -0.29437025278E+02  0.50528856772E+02  0.29999990644E+02 0.  0.
         12    1    1    2    0    0 -0.25933737566E+02 -0.10680296190E+02  0.29437025278E+02  0.40659143228E+02  0.00000000000E+00 0. -1.
         11    1    3    3    0    0  0.18874415281E+02  0.75279135929E+01 -0.27758689822E+01  0.20508985449E+02  0.51100000000E-03 0.  1.
        -11    1    3    3    0    0  0.16589703974E+01  0.12376317967E+00  0.81657698437E+00  0.18531859962E+01  0.51100000000E-03 0. -1.
        -12    1    3    3    0    0  0.54003518871E+01  0.30286194172E+01 -0.27477733280E+02  0.28166685327E+02  0.00000000000E+00 0.  1.
</event>
<event>
 7    1  0.1161807E-013  0.5052886E+02  0.7816164E-02  0.1300439E+00
        -11   -1    0    0    0    0  0.00000000000E+00  0.00000000000E+00  0.45593999997E+02  0.45594000000E+02  0.51100000000E-03 0.  1.
         11   -1    0    0    0    0 -0.00000000000E+00 -0.00000000000E+00 -0.45593999997E+02  0.45594000000E+02  0.51100000000E-03 0. -1.
    9900012    2    1    2    0    0  0.22978362399E+02 -0.27423851674E+02 -0.19315620874E+02  0.50528856023E+02  0.29999988369E+02 0.  0.
         12    1    1    2    0    0 -0.22978362399E+02  0.27423851674E+02  0.19315620874E+02  0.40659143977E+02  0.00000000000E+00 0. -1.
         11    1    3    3    0    0 -0.13959224687E+00  0.11249403536E+01  0.21175224660E+00  0.11531765128E+01  0.51100000000E-03 0. -1.
        -11    1    3    3    0    0  0.18753350404E+02 -0.46382488286E+01 -0.15436323222E+02  0.24728153560E+02  0.51100000000E-03 0.  1.
         12    1    3    3    0    0  0.43646042416E+01 -0.23910543199E+02 -0.40910498982E+01  0.24647525951E+02  0.00000000000E+00 0. -1.
</event>
<event>
 7    1  0.1161807E-013  0.5052881E+02  0.7816164E-02  0.1300439E+00
        -11   -1    0    0    0    0  0.00000000000E+00  0.00000000000E+00  0.45593999997E+02  0.45594000000E+02  0.51100000000E-03 0. -1.
         11   -1    0    0    0    0 -0.00000000000E+00 -0.00000000000E+00 -0.45593999997E+02  0.45594000000E+02  0.51100000000E-03 0.  1.
    9900012    2    1    2    0    0  0.15770631712E+01 -0.29916446696E+02  0.27489791947E+02  0.50528811955E+02  0.29999854418E+02 0.  0.
        -12    1    1    2    0    0 -0.15770631712E+01  0.29916446696E+02 -0.27489791947E+02  0.40659188045E+02  0.00000000000E+00 0.  1.
         11    1    3    3    0    0  0.39919806197E+01 -0.53258356418E+00  0.56887802296E+01  0.69700627890E+01  0.51100000000E-03 0. -1.
        -11    1    3    3    0    0  0.50563968009E+01 -0.27652017449E+02  0.10725758048E+02  0.30087258160E+02  0.51100000000E-03 0.  1.
         12    1    3    3    0    0 -0.74713142494E+01 -0.17318456828E+01  0.11075253670E+02  0.13471491006E+02  0.00000000000E+00 0. -1.
</event>
<event>
 7    1  0.1161807E-013  0.5052883E+02  0.7816164E-02  0.1300439E+00
        -11   -1    0    0    0    0  0.00000000000E+00  0.00000000000E+00  0.45593999997E+02  0.45594000000E+02  0.51100000000E-03 0. -1.
         11   -1    0    0    0    0 -0.00000000000E+00 -0.00000000000E+00 -0.45593999997E+02  0.45594000000E+02  0.51100000000E-03 0.  1.
    9900012    2    1    2    0    0 -0.23790988590E+02 -0.73154467171E+01 -0.32150286993E+02  0.50528833106E+02  0.29999918710E+02 0.  0.
         12    1    1    2    0    0  0.23790988590E+02  0.73154467171E+01  0.32150286993E+02  0.40659166894E+02  0.00000000000E+00 0. -1.
         11    1    3    3    0    0  0.13828203400E+01 -0.57406579277E+01 -0.75104194293E+01  0.95537294184E+01  0.51100000000E-03 0. -1.
        -11    1    3    3    0    0 -0.53281633950E+01 -0.84850937840E+01 -0.14544810646E+02  0.17661756953E+02  0.51100000000E-03 0.  1.
        -12    1    3    3    0    0 -0.19845645534E+02  0.69103049946E+01 -0.10095056918E+02  0.23313346735E+02  0.00000000000E+00 0.  1.
</event>
<event>
 7    1  0.1161807E-013  0.5052887E+02  0.7816164E-02  0.1300439E+00
        -11   -1    0    0    0    0  0.00000000000E+00  0.00000000000E+00  0.45593999997E+02  0.45594000000E+02  0.51100000000E-03 0.  1.
         11   -1    0    0    0    0 -0.00000000000E+00 -0.00000000000E+00 -0.45593999997E+02  0.45594000000E+02  0.51100000000E-03 0. -1.
    9900012    2    1    2    0    0 -0.61947731498E+01  0.38897819680E+02  0.10087064617E+02  0.50528874790E+02  0.30000045412E+02 0.  0.
         12    1    1    2    0    0  0.61947731498E+01 -0.38897819680E+02 -0.10087064617E+02  0.40659125210E+02  0.00000000000E+00 0. -1.
         11    1    3    3    0    0 -0.58211053896E+01 -0.15603998768E+01  0.38809018164E+01  0.71680900456E+01  0.51100000000E-03 0. -1.
        -11    1    3    3    0    0  0.10190362584E+01  0.57330714397E+01  0.63389216983E+01  0.86074660375E+01  0.51100000000E-03 0.  1.
        -12    1    3    3    0    0 -0.13927040186E+01  0.34725148117E+02 -0.13275889711E+00  0.34753318707E+02  0.00000000000E+00 0.  1.
</event>
<event>
 7    1  0.1161807E-013  0.5052886E+02  0.7816164E-02  0.1300439E+00
        -11   -1    0    0    0    0  0.00000000000E+00  0.00000000000E+00  0.45593999997E+02  0.45594000000E+02  0.51100000000E-03 0. -1.
         11   -1    0    0    0    0 -0.00000000000E+00 -0.00000000000E+00 -0.45593999997E+02  0.45594000000E+02  0.51100000000E-03 0.  1.
    9900012    2    1    2    0    0  0.31412594662E+02  0.20462816508E+02 -0.15738097454E+02  0.50528859892E+02  0.30000000128E+02 0.  0.
         12    1    1    2    0    0 -0.31412594662E+02 -0.20462816508E+02  0.15738097454E+02  0.40659140108E+02  0.00000000000E+00 0. -1.
         11    1    3    3    0    0  0.13006043294E+02 -0.23152711819E+01 -0.69631103242E+01  0.14933269851E+02  0.51100000000E-03 0. -1.
        -11    1    3    3    0    0  0.80939158500E+01  0.66635204453E+01 -0.12278599316E+02  0.16145525075E+02  0.51100000000E-03 0.  1.
         12    1    3    3    0    0  0.10312635519E+02  0.16114567245E+02  0.35036121865E+01  0.19450064966E+02  0.00000000000E+00 0. -1.
</event>
<event>
 7    1  0.1161807E-013  0.5052886E+02  0.7816164E-02  0.1300439E+00
        -11   -1    0    0    0    0  0.00000000000E+00  0.00000000000E+00  0.45593999997E+02  0.45594000000E+02  0.51100000000E-03 0. -1.
         11   -1    0    0    0    0 -0.00000000000E+00 -0.00000000000E+00 -0.45593999997E+02  0.45594000000E+02  0.51100000000E-03 0.  1.
    9900012    2    1    2    0    0  0.93116048155E+01 -0.24212765457E+02  0.31308168373E+02  0.50528863238E+02  0.30000010300E+02 0.  0.
        -12    1    1    2    0    0 -0.93116048155E+01  0.24212765457E+02 -0.31308168373E+02  0.40659136762E+02  0.00000000000E+00 0.  1.
         11    1    3    3    0    0 -0.49539301952E+01 -0.64989751035E+01  0.13941682614E+02  0.16160093321E+02  0.51100000000E-03 0. -1.
        -11    1    3    3    0    0  0.66418374595E+00 -0.93160452680E+01 -0.16946166818E+01  0.94921844400E+01  0.51100000000E-03 0.  1.
        -12    1    3    3    0    0  0.13601351265E+02 -0.83977450851E+01  0.19061102441E+02  0.24876585478E+02  0.00000000000E+00 0.  1.
</event>
<event>
 7    1  0.1161807E-013  0.5052886E+02  0.7816164E-02  0.1300439E+00
        -11   -1    0    0    0    0  0.00000000000E+00  0.00000000000E+00  0.45593999997E+02  0.45594000000E+02  0.51100000000E-03 0. -1.
         11   -1    0    0    0    0 -0.00000000000E+00 -0.00000000000E+00 -0.45593999997E+02  0.45594000000E+02  0.51100000000E-03 0.  1.
    9900012    2    1    2    0    0  0.20086386221E+02 -0.31461880564E+02 -0.16119939644E+02  0.50528864567E+02  0.30000014338E+02 0.  0.
         12    1    1    2    0    0 -0.20086386221E+02  0.31461880564E+02  0.16119939644E+02  0.40659135433E+02  0.00000000000E+00 0. -1.
         11    1    3    3    0    0  0.37581461790E+01  0.10901962535E+01 -0.37116197503E+01  0.53933581381E+01  0.51100000000E-03 0. -1.
        -11    1    3    3    0    0 -0.35303735677E+01 -0.45651442666E+00 -0.58200572901E+01  0.68223903488E+01  0.51100000000E-03 0.  1.
        -12    1    3    3    0    0  0.19858613609E+02 -0.32095562390E+02 -0.65882626040E+01  0.38313116080E+02  0.00000000000E+00 0.  1.
</event>
<event>
 7    1  0.1161807E-013  0.5052887E+02  0.7816164E-02  0.1300439E+00
        -11   -1    0    0    0    0  0.00000000000E+00  0.00000000000E+00  0.45593999997E+02  0.45594000000E+02  0.51100000000E-03 0. -1.
         11   -1    0    0    0    0 -0.00000000000E+00 -0.00000000000E+00 -0.45593999997E+02  0.45594000000E+02  0.51100000000E-03 0.  1.
    9900012    2    1    2    0    0  0.28908373574E+02  0.16721667600E+01 -0.28542507091E+02  0.50528869224E+02  0.30000028494E+02 0.  0.
         12    1    1    2    0    0 -0.28908373574E+02 -0.16721667600E+01  0.28542507091E+02  0.40659130776E+02  0.00000000000E+00 0. -1.
         11    1    3    3    0    0  0.21217384780E+02  0.16415694777E+01 -0.25772973268E+02  0.33423319981E+02  0.51100000000E-03 0. -1.
        -11    1    3    3    0    0  0.10656567286E+02  0.21235629272E+01 -0.58536274719E+01  0.12342483570E+02  0.51100000000E-03 0.  1.
         12    1    3    3    0    0 -0.29655784914E+01 -0.20929656448E+01  0.30840936484E+01  0.47630656737E+01  0.00000000000E+00 0. -1.
</event>
<event>
 7    1  0.1161807E-013  0.5052886E+02  0.7816164E-02  0.1300439E+00
        -11   -1    0    0    0    0  0.00000000000E+00  0.00000000000E+00  0.45593999997E+02  0.45594000000E+02  0.51100000000E-03 0. -1.
         11   -1    0    0    0    0 -0.00000000000E+00 -0.00000000000E+00 -0.45593999997E+02  0.45594000000E+02  0.51100000000E-03 0.  1.
    9900012    2    1    2    0    0  0.18567173323E+02  0.14656705240E+02 -0.33069724712E+02  0.50528860483E+02  0.30000001925E+02 0.  0.
         12    1    1    2    0    0 -0.18567173323E+02 -0.14656705240E+02  0.33069724712E+02  0.40659139517E+02  0.00000000000E+00 0. -1.
         11    1    3    3    0    0 -0.22814823160E+01  0.16990795655E+01  0.22729646764E+01  0.36412088115E+01  0.51100000000E-03 0. -1.
        -11    1    3    3    0    0  0.14312270455E+02 -0.14215934450E+01 -0.12152906356E+02  0.18829634799E+02  0.51100000000E-03 0.  1.
        -12    1    3    3    0    0  0.65363851843E+01  0.14379219119E+02 -0.23189783032E+02  0.28058016873E+02  0.00000000000E+00 0.  1.
</event>
<event>
 7    1  0.1161807E-013  0.5052886E+02  0.7816164E-02  0.1300439E+00
        -11   -1    0    0    0    0  0.00000000000E+00  0.00000000000E+00  0.45593999997E+02  0.45594000000E+02  0.51100000000E-03 0. -1.
         11   -1    0    0    0    0 -0.00000000000E+00 -0.00000000000E+00 -0.45593999997E+02  0.45594000000E+02  0.51100000000E-03 0.  1.
    9900012    2    1    2    0    0 -0.31330192948E+01 -0.14881051800E+02  0.37708146872E+02  0.50528857693E+02  0.29999993445E+02 0.  0.
        -12    1    1    2    0    0  0.31330192948E+01  0.14881051800E+02 -0.37708146872E+02  0.40659142307E+02  0.00000000000E+00 0.  1.
         11    1    3    3    0    0  0.86112571377E+00 -0.71350902046E-01  0.90403146420E+01  0.90815151563E+01  0.51100000000E-03 0. -1.
        -11    1    3    3    0    0  0.10918217855E+01  0.71084690606E+01  0.93202353010E+01  0.11772391156E+02  0.51100000000E-03 0.  1.
        -12    1    3    3    0    0 -0.50859667941E+01 -0.21918169958E+02  0.19347596929E+02  0.29674951381E+02  0.00000000000E+00 0.  1.
</event>
<event>
 7    1  0.1161807E-013  0.5052891E+02  0.7816164E-02  0.1300439E+00
        -11   -1    0    0    0    0  0.00000000000E+00  0.00000000000E+00  0.45593999997E+02  0.45594000000E+02  0.51100000000E-03 0. -1.
         11   -1    0    0    0    0 -0.00000000000E+00 -0.00000000000E+00 -0.45593999997E+02  0.45594000000E+02  0.51100000000E-03 0.  1.
    9900012    2    1    2    0    0 -0.13674442825E+02 -0.26263029850E+01  0.38200446608E+02  0.50528905384E+02  0.30000138404E+02 0.  0.
        -12    1    1    2    0    0  0.13674442825E+02  0.26263029850E+01 -0.38200446608E+02  0.40659094616E+02  0.00000000000E+00 0.  1.
         11    1    3    3    0    0 -0.70105769814E+01  0.83756025634E+01  0.44011421388E+01  0.11775778543E+02  0.51100000000E-03 0. -1.
        -11    1    3    3    0    0  0.90888210539E+00 -0.13737646307E+01 -0.95450054037E+00  0.19037771626E+01  0.51100000000E-03 0.  1.
         12    1    3    3    0    0 -0.75727479486E+01 -0.96281409177E+01  0.34753805010E+02  0.36849349678E+02  0.00000000000E+00 0. -1.
</event>
<event>
 7    1  0.1161807E-013  0.5052888E+02  0.7816164E-02  0.1300439E+00
        -11   -1    0    0    0    0  0.00000000000E+00  0.00000000000E+00  0.45593999997E+02  0.45594000000E+02  0.51100000000E-03 0. -1.
         11   -1    0    0    0    0 -0.00000000000E+00 -0.00000000000E+00 -0.45593999997E+02  0.45594000000E+02  0.51100000000E-03 0.  1.
    9900012    2    1    2    0    0  0.36224509636E+02  0.33517120592E+01  0.18158058170E+02  0.50528878654E+02  0.30000057157E+02 0.  0.
        -12    1    1    2    0    0 -0.36224509636E+02 -0.33517120592E+01 -0.18158058170E+02  0.40659121346E+02  0.00000000000E+00 0.  1.
         11    1    3    3    0    0  0.27024929064E+01  0.20879515817E+00  0.46736142867E+01  0.54027524549E+01  0.51100000000E-03 0. -1.
        -11    1    3    3    0    0  0.23333176709E+02  0.13231969962E+02  0.14956637422E+02  0.30711938520E+02  0.51100000000E-03 0.  1.
        -12    1    3    3    0    0  0.10188840021E+02 -0.10089053061E+02 -0.14721935393E+01  0.14414187679E+02  0.00000000000E+00 0.  1.
</event>
<event>
 7    1  0.1161807E-013  0.5052886E+02  0.7816164E-02  0.1300439E+00
        -11   -1    0    0    0    0  0.00000000000E+00  0.00000000000E+00  0.45593999997E+02  0.45594000000E+02  0.51100000000E-03 0. -1.
         11   -1    0    0    0    0 -0.00000000000E+00 -0.00000000000E+00 -0.45593999997E+02  0.45594000000E+02  0.51100000000E-03 0.  1.
    9900012    2    1    2    0    0  0.19301320620E+02 -0.92957869581E+01  0.34557386080E+02  0.50528861230E+02  0.30000004195E+02 0.  0.
        -12    1    1    2    0    0 -0.19301320620E+02  0.92957869581E+01 -0.34557386080E+02  0.40659138770E+02  0.00000000000E+00 0.  1.
         11    1    3    3    0    0 -0.34680977121E+01 -0.25203527296E+01  0.49587575479E+01  0.65550862925E+01  0.51100000000E-03 0. -1.
        -11    1    3    3    0    0  0.84910105693E+01  0.20947707329E+00 -0.18893529152E+01  0.87011950806E+01  0.51100000000E-03 0.  1.
         12    1    3    3    0    0  0.14278407763E+02 -0.69849113018E+01  0.31487981447E+02  0.35272579857E+02  0.00000000000E+00 0. -1.
</event>
<event>
 7    1  0.1161807E-013  0.5052886E+02  0.7816164E-02  0.1300439E+00
        -11   -1    0    0    0    0  0.00000000000E+00  0.00000000000E+00  0.45593999997E+02  0.45594000000E+02  0.51100000000E-03 0. -1.
         11   -1    0    0    0    0 -0.00000000000E+00 -0.00000000000E+00 -0.45593999997E+02  0.45594000000E+02  0.51100000000E-03 0.  1.
    9900012    2    1    2    0    0  0.16942709155E+02 -0.54369285442E+01 -0.36558859742E+02  0.50528858209E+02  0.29999995013E+02 0.  0.
         12    1    1    2    0    0 -0.16942709155E+02  0.54369285442E+01  0.36558859742E+02  0.40659141791E+02  0.00000000000E+00 0. -1.
         11    1    3    3    0    0 -0.31938540319E+00  0.40626738182E+00  0.23166058169E+01  0.23735465012E+01  0.51100000000E-03 0. -1.
        -11    1    3    3    0    0 -0.25213425501E+01 -0.77602238616E+01 -0.79417268847E+01  0.11386363283E+02  0.51100000000E-03 0.  1.
         12    1    3    3    0    0  0.19783437108E+02  0.19170279356E+01 -0.30933738675E+02  0.36768948425E+02  0.00000000000E+00 0. -1.
</event>
<event>
 7    1  0.1161807E-013  0.5052871E+02  0.7816164E-02  0.1300439E+00
        -11   -1    0    0    0    0  0.00000000000E+00  0.00000000000E+00  0.45593999997E+02  0.45594000000E+02  0.51100000000E-03 0.  1.
         11   -1    0    0    0    0 -0.00000000000E+00 -0.00000000000E+00 -0.45593999997E+02  0.45594000000E+02  0.51100000000E-03 0. -1.
    9900012    2    1    2    0    0 -0.35925460087E+02 -0.68625172291E+01  0.17760763516E+02  0.50528713904E+02  0.29999556379E+02 0.  0.
        -12    1    1    2    0    0  0.35925460087E+02  0.68625172291E+01 -0.17760763516E+02  0.40659286096E+02  0.00000000000E+00 0.  1.
         11    1    3    3    0    0 -0.71226205126E+01 -0.61686708687E+01 -0.26853916866E+01  0.97977319837E+01  0.51100000000E-03 0. -1.
        -11    1    3    3    0    0 -0.11973039388E+02 -0.10002261976E+02  0.61612579389E+01  0.16773789568E+02  0.51100000000E-03 0.  1.
        -12    1    3    3    0    0 -0.16829800186E+02  0.93084156151E+01  0.14284897264E+02  0.23957192352E+02  0.00000000000E+00 0.  1.
</event>
<event>
 7    1  0.1161807E-013  0.5052886E+02  0.7816164E-02  0.1300439E+00
        -11   -1    0    0    0    0  0.00000000000E+00  0.00000000000E+00  0.45593999997E+02  0.45594000000E+02  0.51100000000E-03 0. -1.
         11   -1    0    0    0    0 -0.00000000000E+00 -0.00000000000E+00 -0.45593999997E+02  0.45594000000E+02  0.51100000000E-03 0.  1.
    9900012    2    1    2    0    0  0.15450858772E+01 -0.16056640953E+02  0.37322412402E+02  0.50528862324E+02  0.30000007519E+02 0.  0.
        -12    1    1    2    0    0 -0.15450858772E+01  0.16056640953E+02 -0.37322412402E+02  0.40659137676E+02  0.00000000000E+00 0.  1.
         11    1    3    3    0    0 -0.51350657839E+01 -0.85209360694E+01  0.15360667467E+02  0.18300966024E+02  0.51100000000E-03 0. -1.
        -11    1    3    3    0    0  0.78859105443E+00 -0.78001843256E+01 -0.15466439219E+01  0.79910486826E+01  0.51100000000E-03 0.  1.
         12    1    3    3    0    0  0.58915606066E+01  0.26447944219E+00  0.23508388857E+02  0.24236847617E+02  0.00000000000E+00 0. -1.
</event>
<event>
 7    1  0.1161807E-013  0.5052887E+02  0.7816164E-02  0.1300439E+00
        -11   -1    0    0    0    0  0.00000000000E+00  0.00000000000E+00  0.45593999997E+02  0.45594000000E+02  0.51100000000E-03 0. -1.
         11   -1    0    0    0    0 -0.00000000000E+00 -0.00000000000E+00 -0.45593999997E+02  0.45594000000E+02  0.51100000000E-03 0.  1.
    9900012    2    1    2    0    0 -0.65574755105E+00 -0.14561207318E+02  0.37956631576E+02  0.50528872562E+02  0.30000038639E+02 0.  0.
        -12    1    1    2    0    0  0.65574755105E+00  0.14561207318E+02 -0.37956631576E+02  0.40659127438E+02  0.00000000000E+00 0.  1.
         11    1    3    3    0    0 -0.63409241749E+01 -0.44003167324E+01  0.22710353572E+02  0.23986043158E+02  0.51100000000E-03 0. -1.
        -11    1    3    3    0    0 -0.11795633152E+01  0.38827144367E+01 -0.80572605517E+00  0.41371530971E+01  0.51100000000E-03 0.  1.
         12    1    3    3    0    0  0.68647399391E+01 -0.14043605022E+02  0.16052004059E+02  0.22405676307E+02  0.00000000000E+00 0. -1.
</event>
<event>
 7    1  0.1161807E-013  0.5052887E+02  0.7816164E-02  0.1300439E+00
        -11   -1    0    0    0    0  0.00000000000E+00  0.00000000000E+00  0.45593999997E+02  0.45594000000E+02  0.51100000000E-03 0. -1.
         11   -1    0    0    0    0 -0.00000000000E+00 -0.00000000000E+00 -0.45593999997E+02  0.45594000000E+02  0.51100000000E-03 0.  1.
    9900012    2    1    2    0    0  0.10097407524E+02 -0.20635050874E+02 -0.33547006374E+02  0.50528873104E+02  0.30000040288E+02 0.  0.
         12    1    1    2    0    0 -0.10097407524E+02  0.20635050874E+02  0.33547006374E+02  0.40659126896E+02  0.00000000000E+00 0. -1.
         11    1    3    3    0    0  0.46879848201E+00  0.51067547819E+01 -0.16854362081E+02  0.17617271010E+02  0.51100000000E-03 0. -1.
        -11    1    3    3    0    0 -0.13056359362E+00 -0.88151536327E+01 -0.55886630540E+01  0.10438253466E+02  0.51100000000E-03 0.  1.
        -12    1    3    3    0    0  0.97591726360E+01 -0.16926652023E+02 -0.11103981239E+02  0.22473348629E+02  0.00000000000E+00 0.  1.
</event>
<event>
 7    1  0.1161807E-013  0.5052886E+02  0.7816164E-02  0.1300439E+00
        -11   -1    0    0    0    0  0.00000000000E+00  0.00000000000E+00  0.45593999997E+02  0.45594000000E+02  0.51100000000E-03 0. -1.
         11   -1    0    0    0    0 -0.00000000000E+00 -0.00000000000E+00 -0.45593999997E+02  0.45594000000E+02  0.51100000000E-03 0.  1.
    9900012    2    1    2    0    0 -0.31160150840E+02  0.17332870235E+02 -0.19539248099E+02  0.50528860717E+02  0.30000002637E+02 0.  0.
         12    1    1    2    0    0  0.31160150840E+02 -0.17332870235E+02  0.19539248099E+02  0.40659139283E+02  0.00000000000E+00 0. -1.
         11    1    3    3    0    0 -0.21244945763E+01 -0.35344553096E+01 -0.64999674993E+01  0.76977548216E+01  0.51100000000E-03 0.  1.
        -11    1    3    3    0    0 -0.60042252524E+01  0.43541345603E+01 -0.12442376284E+02  0.14485231669E+02  0.51100000000E-03 0. -1.
         12    1    3    3    0    0 -0.23031431011E+02  0.16513190984E+02 -0.59690431518E+00  0.28345874226E+02  0.00000000000E+00 0. -1.
</event>
<event>
 7    1  0.1161807E-013  0.5052886E+02  0.7816164E-02  0.1300439E+00
        -11   -1    0    0    0    0  0.00000000000E+00  0.00000000000E+00  0.45593999997E+02  0.45594000000E+02  0.51100000000E-03 0. -1.
         11   -1    0    0    0    0 -0.00000000000E+00 -0.00000000000E+00 -0.45593999997E+02  0.45594000000E+02  0.51100000000E-03 0.  1.
    9900012    2    1    2    0    0  0.20115119105E+02  0.13750290896E+02  0.32549609328E+02  0.50528861006E+02  0.30000003514E+02 0.  0.
        -12    1    1    2    0    0 -0.20115119105E+02 -0.13750290896E+02 -0.32549609328E+02  0.40659138994E+02  0.00000000000E+00 0.  1.
         11    1    3    3    0    0  0.98587497606E+01  0.30090141359E+01  0.16922221422E+02  0.19814406149E+02  0.51100000000E-03 0. -1.
        -11    1    3    3    0    0  0.11876550025E+02  0.78366870109E+00  0.16766638352E+02  0.20561778596E+02  0.51100000000E-03 0.  1.
        -12    1    3    3    0    0 -0.16201806805E+01  0.99576080590E+01 -0.11392504465E+01  0.10152676262E+02  0.00000000000E+00 0.  1.
</event>
<event>
 7    1  0.1161807E-013  0.5052886E+02  0.7816164E-02  0.1300439E+00
        -11   -1    0    0    0    0  0.00000000000E+00  0.00000000000E+00  0.45593999997E+02  0.45594000000E+02  0.51100000000E-03 0. -1.
         11   -1    0    0    0    0 -0.00000000000E+00 -0.00000000000E+00 -0.45593999997E+02  0.45594000000E+02  0.51100000000E-03 0.  1.
    9900012    2    1    2    0    0  0.10347725263E+02  0.17760798310E+02 -0.35080543950E+02  0.50528856643E+02  0.29999990252E+02 0.  0.
         12    1    1    2    0    0 -0.10347725263E+02 -0.17760798310E+02  0.35080543950E+02  0.40659143357E+02  0.00000000000E+00 0. -1.
         11    1    3    3    0    0 -0.48451885346E+01  0.43675610497E+01 -0.54273798816E+01  0.84857465257E+01  0.51100000000E-03 0. -1.
        -11    1    3    3    0    0 -0.43214996732E+01  0.81029831427E+01 -0.62127816981E+01  0.11087486276E+02  0.51100000000E-03 0.  1.
        -12    1    3    3    0    0  0.19514413470E+02  0.52902541179E+01 -0.23440382370E+02  0.30955623841E+02  0.00000000000E+00 0.  1.
</event>
<event>
 7    1  0.1161807E-013  0.5052886E+02  0.7816164E-02  0.1300439E+00
        -11   -1    0    0    0    0  0.00000000000E+00  0.00000000000E+00  0.45593999997E+02  0.45594000000E+02  0.51100000000E-03 0. -1.
         11   -1    0    0    0    0 -0.00000000000E+00 -0.00000000000E+00 -0.45593999997E+02  0.45594000000E+02  0.51100000000E-03 0.  1.
    9900012    2    1    2    0    0 -0.23217665635E+02  0.16769487081E+02  0.28859832926E+02  0.50528860178E+02  0.30000000998E+02 0.  0.
        -12    1    1    2    0    0  0.23217665635E+02 -0.16769487081E+02 -0.28859832926E+02  0.40659139822E+02  0.00000000000E+00 0.  1.
         11    1    3    3    0    0  0.18490533545E+01  0.66636121895E+01  0.41022651424E+01  0.80406035395E+01  0.51100000000E-03 0. -1.
        -11    1    3    3    0    0 -0.15061833663E+00  0.89672537348E+01  0.32039825716E+01  0.95236458359E+01  0.51100000000E-03 0.  1.
         12    1    3    3    0    0 -0.24916100653E+02  0.11386211566E+01  0.21553585212E+02  0.32964610803E+02  0.00000000000E+00 0. -1.
</event>
<event>
 7    1  0.1161807E-013  0.5052884E+02  0.7816164E-02  0.1300439E+00
        -11   -1    0    0    0    0  0.00000000000E+00  0.00000000000E+00  0.45593999997E+02  0.45594000000E+02  0.51100000000E-03 0. -1.
         11   -1    0    0    0    0 -0.00000000000E+00 -0.00000000000E+00 -0.45593999997E+02  0.45594000000E+02  0.51100000000E-03 0.  1.
    9900012    2    1    2    0    0 -0.14874681645E+02  0.47736394654E+01 -0.37538293755E+02  0.50528840075E+02  0.29999939891E+02 0.  0.
         12    1    1    2    0    0  0.14874681645E+02 -0.47736394654E+01  0.37538293755E+02  0.40659159925E+02  0.00000000000E+00 0. -1.
         11    1    3    3    0    0  0.97603779022E+00 -0.37658511196E+01 -0.11317709721E+02  0.11967658001E+02  0.51100000000E-03 0. -1.
        -11    1    3    3    0    0 -0.89090413811E+01  0.12966279038E+01 -0.27036273598E+02  0.28495830442E+02  0.51100000000E-03 0.  1.
        -12    1    3    3    0    0 -0.69416780539E+01  0.72428626811E+01  0.81568956392E+00  0.10065351633E+02  0.00000000000E+00 0.  1.
</event>
<event>
 7    1  0.1161807E-013  0.5052886E+02  0.7816164E-02  0.1300439E+00
        -11   -1    0    0    0    0  0.00000000000E+00  0.00000000000E+00  0.45593999997E+02  0.45594000000E+02  0.51100000000E-03 0. -1.
         11   -1    0    0    0    0 -0.00000000000E+00 -0.00000000000E+00 -0.45593999997E+02  0.45594000000E+02  0.51100000000E-03 0.  1.
    9900012    2    1    2    0    0  0.24709874027E+02  0.44112532563E+01  0.31986385470E+02  0.50528857299E+02  0.29999992246E+02 0.  0.
        -12    1    1    2    0    0 -0.24709874027E+02 -0.44112532563E+01 -0.31986385470E+02  0.40659142701E+02  0.00000000000E+00 0.  1.
         11    1    3    3    0    0  0.26850435509E+02  0.30995860406E+01  0.30247307026E+02  0.40564182517E+02  0.51100000000E-03 0. -1.
        -11    1    3    3    0    0 -0.11696336282E+01  0.27326357862E+01  0.52621962182E+01  0.60436785540E+01  0.51100000000E-03 0.  1.
        -12    1    3    3    0    0 -0.97092785363E+00 -0.14209685705E+01 -0.35231177739E+01  0.39209962285E+01  0.00000000000E+00 0.  1.
</event>
<event>
 7    1  0.1161807E-013  0.5052887E+02  0.7816164E-02  0.1300439E+00
        -11   -1    0    0    0    0  0.00000000000E+00  0.00000000000E+00  0.45593999997E+02  0.45594000000E+02  0.51100000000E-03 0. -1.
         11   -1    0    0    0    0 -0.00000000000E+00 -0.00000000000E+00 -0.45593999997E+02  0.45594000000E+02  0.51100000000E-03 0.  1.
    9900012    2    1    2    0    0  0.18466466565E+02 -0.23715589988E+02  0.27381114676E+02  0.50528867733E+02  0.30000023960E+02 0.  0.
        -12    1    1    2    0    0 -0.18466466565E+02  0.23715589988E+02 -0.27381114676E+02  0.40659132267E+02  0.00000000000E+00 0.  1.
         11    1    3    3    0    0  0.31072645437E+01  0.29955493751E+00  0.10322241047E+02  0.10783945780E+02  0.51100000000E-03 0. -1.
        -11    1    3    3    0    0 -0.25284798161E+01  0.23910939794E+01 -0.18960862748E+00  0.34851818161E+01  0.51100000000E-03 0.  1.
        -12    1    3    3    0    0  0.17887681837E+02 -0.26406238905E+02  0.17248482257E+02  0.36259740136E+02  0.00000000000E+00 0.  1.
</event>
<event>
 7    1  0.1161807E-013  0.5052888E+02  0.7816164E-02  0.1300439E+00
        -11   -1    0    0    0    0  0.00000000000E+00  0.00000000000E+00  0.45593999997E+02  0.45594000000E+02  0.51100000000E-03 0.  1.
         11   -1    0    0    0    0 -0.00000000000E+00 -0.00000000000E+00 -0.45593999997E+02  0.45594000000E+02  0.51100000000E-03 0. -1.
    9900012    2    1    2    0    0 -0.38610303811E+02  0.71924749196E+01  0.10520315462E+02  0.50528876875E+02  0.30000051750E+02 0.  0.
        -12    1    1    2    0    0  0.38610303811E+02 -0.71924749196E+01 -0.10520315462E+02  0.40659123125E+02  0.00000000000E+00 0.  1.
         11    1    3    3    0    0 -0.11468824583E+02 -0.24440080408E+01  0.79855975273E+01  0.14187208349E+02  0.51100000000E-03 0.  1.
        -11    1    3    3    0    0 -0.66823027270E+01  0.11810407829E+02 -0.49554830537E+01  0.14446304558E+02  0.51100000000E-03 0. -1.
         12    1    3    3    0    0 -0.20459176501E+02 -0.21739248686E+01  0.74902009885E+01  0.21895363968E+02  0.00000000000E+00 0. -1.
</event>
<event>
 7    1  0.1161807E-013  0.5052885E+02  0.7816164E-02  0.1300439E+00
        -11   -1    0    0    0    0  0.00000000000E+00  0.00000000000E+00  0.45593999997E+02  0.45594000000E+02  0.51100000000E-03 0. -1.
         11   -1    0    0    0    0 -0.00000000000E+00 -0.00000000000E+00 -0.45593999997E+02  0.45594000000E+02  0.51100000000E-03 0.  1.
    9900012    2    1    2    0    0  0.36552812114E+01  0.24405343714E+02  0.32313839896E+02  0.50528854271E+02  0.29999983043E+02 0.  0.
        -12    1    1    2    0    0 -0.36552812114E+01 -0.24405343714E+02 -0.32313839896E+02  0.40659145729E+02  0.00000000000E+00 0.  1.
         11    1    3    3    0    0  0.13003243087E+00  0.51379538462E+00 -0.35885203684E+01  0.36274471500E+01  0.51100000000E-03 0. -1.
        -11    1    3    3    0    0  0.48657007375E+01  0.73905772029E+01  0.18526924169E+01  0.90403619680E+01  0.51100000000E-03 0.  1.
         12    1    3    3    0    0 -0.13404519570E+01  0.16500971126E+02  0.34049667848E+02  0.37861045153E+02  0.00000000000E+00 0. -1.
</event>
<event>
 7    1  0.1161807E-013  0.5052886E+02  0.7816164E-02  0.1300439E+00
        -11   -1    0    0    0    0  0.00000000000E+00  0.00000000000E+00  0.45593999997E+02  0.45594000000E+02  0.51100000000E-03 0. -1.
         11   -1    0    0    0    0 -0.00000000000E+00 -0.00000000000E+00 -0.45593999997E+02  0.45594000000E+02  0.51100000000E-03 0.  1.
    9900012    2    1    2    0    0  0.42936466406E+01  0.28822538117E+02  0.28354742633E+02  0.50528861608E+02  0.30000005344E+02 0.  0.
        -12    1    1    2    0    0 -0.42936466406E+01 -0.28822538117E+02 -0.28354742633E+02  0.40659138392E+02  0.00000000000E+00 0.  1.
         11    1    3    3    0    0 -0.29748683719E+01  0.15318554966E+01  0.13417178876E+01  0.36050839440E+01  0.51100000000E-03 0.  1.
        -11    1    3    3    0    0  0.17038191833E+02  0.17812059163E+02  0.15701036393E+02  0.29224852038E+02  0.51100000000E-03 0. -1.
         12    1    3    3    0    0 -0.97696768206E+01  0.94786234578E+01  0.11311988352E+02  0.17698925626E+02  0.00000000000E+00 0. -1.
</event>
<event>
 7    1  0.1161807E-013  0.5052886E+02  0.7816164E-02  0.1300439E+00
        -11   -1    0    0    0    0  0.00000000000E+00  0.00000000000E+00  0.45593999997E+02  0.45594000000E+02  0.51100000000E-03 0. -1.
         11   -1    0    0    0    0 -0.00000000000E+00 -0.00000000000E+00 -0.45593999997E+02  0.45594000000E+02  0.51100000000E-03 0.  1.
    9900012    2    1    2    0    0 -0.26139584690E+02 -0.76272865053E+01  0.30194575289E+02  0.50528858788E+02  0.29999996772E+02 0.  0.
        -12    1    1    2    0    0  0.26139584690E+02  0.76272865053E+01 -0.30194575289E+02  0.40659141212E+02  0.00000000000E+00 0.  1.
         11    1    3    3    0    0 -0.12928456085E+02  0.54185792150E+01  0.15332579789E+02  0.20774840088E+02  0.51100000000E-03 0. -1.
        -11    1    3    3    0    0 -0.11038816823E+02  0.12814685760E+01  0.47608600609E+01  0.12089806753E+02  0.51100000000E-03 0.  1.
         12    1    3    3    0    0 -0.21723117824E+01 -0.14327334296E+02  0.10101135439E+02  0.17664211946E+02  0.00000000000E+00 0. -1.
</event>
<event>
 7    1  0.1161807E-013  0.5052885E+02  0.7816164E-02  0.1300439E+00
        -11   -1    0    0    0    0  0.00000000000E+00  0.00000000000E+00  0.45593999997E+02  0.45594000000E+02  0.51100000000E-03 0. -1.
         11   -1    0    0    0    0 -0.00000000000E+00 -0.00000000000E+00 -0.45593999997E+02  0.45594000000E+02  0.51100000000E-03 0.  1.
    9900012    2    1    2    0    0 -0.17126462884E+02  0.90836435472E+01  0.35739869111E+02  0.50528849061E+02  0.29999967207E+02 0.  0.
        -12    1    1    2    0    0  0.17126462884E+02 -0.90836435472E+01 -0.35739869111E+02  0.40659150939E+02  0.00000000000E+00 0.  1.
         11    1    3    3    0    0  0.48919544531E+00  0.37146527791E+01  0.10150785932E+02  0.10820185431E+02  0.51100000000E-03 0. -1.
        -11    1    3    3    0    0  0.11834318044E+01 -0.65501739310E+01  0.11731737069E+02  0.13488474497E+02  0.51100000000E-03 0.  1.
        -12    1    3    3    0    0 -0.18799090133E+02  0.11919164699E+02  0.13857346110E+02  0.26220189133E+02  0.00000000000E+00 0.  1.
</event>
<event>
 7    1  0.1161807E-013  0.5052886E+02  0.7816164E-02  0.1300439E+00
        -11   -1    0    0    0    0  0.00000000000E+00  0.00000000000E+00  0.45593999997E+02  0.45594000000E+02  0.51100000000E-03 0. -1.
         11   -1    0    0    0    0 -0.00000000000E+00 -0.00000000000E+00 -0.45593999997E+02  0.45594000000E+02  0.51100000000E-03 0.  1.
    9900012    2    1    2    0    0 -0.64256028965E+01  0.22371661394E+02  0.33337460208E+02  0.50528857618E+02  0.29999993217E+02 0.  0.
        -12    1    1    2    0    0  0.64256028965E+01 -0.22371661394E+02 -0.33337460208E+02  0.40659142382E+02  0.00000000000E+00 0.  1.
         11    1    3    3    0    0  0.26995399871E+01  0.14513340815E+02  0.12108599143E+02  0.19093002677E+02  0.51100000000E-03 0. -1.
        -11    1    3    3    0    0  0.13038748655E+01  0.79497623793E+01  0.19185398379E+02  0.20808131170E+02  0.51100000000E-03 0.  1.
        -12    1    3    3    0    0 -0.10429017749E+02 -0.91441800414E-01  0.20434626855E+01  0.10627723771E+02  0.00000000000E+00 0.  1.
</event>
<event>
 7    1  0.1396414E-013  0.5052887E+02  0.7816164E-02  0.1300439E+00
        -11   -1    0    0    0    0  0.00000000000E+00  0.00000000000E+00  0.45593999997E+02  0.45594000000E+02  0.51100000000E-03 0. -1.
         11   -1    0    0    0    0 -0.00000000000E+00 -0.00000000000E+00 -0.45593999997E+02  0.45594000000E+02  0.51100000000E-03 0.  1.
    9900012    2    1    2    0    0 -0.84534963245E+00 -0.62467541854E+01 -0.40167504035E+02  0.50528868993E+02  0.30000027790E+02 0.  0.
         12    1    1    2    0    0  0.84534963245E+00  0.62467541854E+01  0.40167504035E+02  0.40659131007E+02  0.00000000000E+00 0. -1.
         11    1    3    3    0    0 -0.84776251738E+00  0.24681592342E+01  0.80639272356E-01  0.26109412565E+01  0.51100000000E-03 0. -1.
        -11    1    3    3    0    0 -0.40660231608E+00 -0.93354149483E+01 -0.18662104057E+01  0.95288005143E+01  0.51100000000E-03 0.  1.
        -12    1    3    3    0    0  0.40901520101E+00  0.62050152877E+00 -0.38381932902E+02  0.38389127222E+02  0.00000000000E+00 0.  1.
</event>
<event>
 7    1  0.1161807E-013  0.5052886E+02  0.7816164E-02  0.1300439E+00
        -11   -1    0    0    0    0  0.00000000000E+00  0.00000000000E+00  0.45593999997E+02  0.45594000000E+02  0.51100000000E-03 0. -1.
         11   -1    0    0    0    0 -0.00000000000E+00 -0.00000000000E+00 -0.45593999997E+02  0.45594000000E+02  0.51100000000E-03 0.  1.
    9900012    2    1    2    0    0  0.31834312471E+02  0.21849892979E+02 -0.12740659741E+02  0.50528859769E+02  0.29999999754E+02 0.  0.
         12    1    1    2    0    0 -0.31834312471E+02 -0.21849892979E+02  0.12740659741E+02  0.40659140231E+02  0.00000000000E+00 0. -1.
         11    1    3    3    0    0  0.62701889403E+01  0.45259162989E+01  0.20517260481E+00  0.77357148184E+01  0.51100000000E-03 0. -1.
        -11    1    3    3    0    0  0.25637536197E+02  0.17738328457E+02 -0.19141519655E+02  0.36583183755E+02  0.51100000000E-03 0.  1.
         12    1    3    3    0    0 -0.73412666349E-01 -0.41435177620E+00  0.61956873097E+01  0.62099611958E+01  0.00000000000E+00 0. -1.
</event>
<event>
 7    1  0.1161807E-013  0.5052886E+02  0.7816164E-02  0.1300439E+00
        -11   -1    0    0    0    0  0.00000000000E+00  0.00000000000E+00  0.45593999997E+02  0.45594000000E+02  0.51100000000E-03 0. -1.
         11   -1    0    0    0    0 -0.00000000000E+00 -0.00000000000E+00 -0.45593999997E+02  0.45594000000E+02  0.51100000000E-03 0.  1.
    9900012    2    1    2    0    0 -0.68034833667E+00  0.14343864290E+02  0.38038878201E+02  0.50528861157E+02  0.30000003974E+02 0.  0.
        -12    1    1    2    0    0  0.68034833667E+00 -0.14343864290E+02 -0.38038878201E+02  0.40659138843E+02  0.00000000000E+00 0.  1.
         11    1    3    3    0    0 -0.51013753528E+01  0.15652132593E+02  0.34659749542E+02  0.38370711797E+02  0.51100000000E-03 0. -1.
        -11    1    3    3    0    0  0.34784669467E+01 -0.28932003991E+01  0.68607798046E+01  0.82183113008E+01  0.51100000000E-03 0.  1.
        -12    1    3    3    0    0  0.94256006940E+00  0.15849320968E+01 -0.34816511461E+01  0.39398380600E+01  0.00000000000E+00 0.  1.
</event>
<event>
 7    1  0.1161807E-013  0.5052885E+02  0.7816164E-02  0.1300439E+00
        -11   -1    0    0    0    0  0.00000000000E+00  0.00000000000E+00  0.45593999997E+02  0.45594000000E+02  0.51100000000E-03 0. -1.
         11   -1    0    0    0    0 -0.00000000000E+00 -0.00000000000E+00 -0.45593999997E+02  0.45594000000E+02  0.51100000000E-03 0.  1.
    9900012    2    1    2    0    0  0.27746511959E+02 -0.11780205470E+02 -0.27285967493E+02  0.50528853565E+02  0.29999980896E+02 0.  0.
         12    1    1    2    0    0 -0.27746511959E+02  0.11780205470E+02  0.27285967493E+02  0.40659146435E+02  0.00000000000E+00 0. -1.
         11    1    3    3    0    0  0.91498079052E+01 -0.13663697769E+02 -0.13716460628E+02  0.21413942043E+02  0.51100000000E-03 0. -1.
        -11    1    3    3    0    0  0.89996374209E+01 -0.75347356532E+01 -0.32911918465E+01  0.12190063950E+02  0.51100000000E-03 0.  1.
        -12    1    3    3    0    0  0.95970666326E+01  0.94182279516E+01 -0.10278315019E+02  0.16924847572E+02  0.00000000000E+00 0.  1.
</event>
<event>
 7    1  0.1161807E-013  0.5052887E+02  0.7816164E-02  0.1300439E+00
        -11   -1    0    0    0    0  0.00000000000E+00  0.00000000000E+00  0.45593999997E+02  0.45594000000E+02  0.51100000000E-03 0. -1.
         11   -1    0    0    0    0 -0.00000000000E+00 -0.00000000000E+00 -0.45593999997E+02  0.45594000000E+02  0.51100000000E-03 0.  1.
    9900012    2    1    2    0    0 -0.24260874414E+02  0.19984471199E+02 -0.25791393985E+02  0.50528866707E+02  0.30000020843E+02 0.  0.
         12    1    1    2    0    0  0.24260874414E+02 -0.19984471199E+02  0.25791393985E+02  0.40659133293E+02  0.00000000000E+00 0. -1.
         11    1    3    3    0    0  0.23287162754E+01  0.22091839089E+01 -0.15185262390E+02  0.15520812065E+02  0.51100000000E-03 0. -1.
        -11    1    3    3    0    0  0.34967860611E+00  0.16761437622E+01  0.38651036721E+00  0.17553129534E+01  0.51100000000E-03 0.  1.
        -12    1    3    3    0    0 -0.26939269295E+02  0.16099143528E+02 -0.10992641962E+02  0.33252741689E+02  0.00000000000E+00 0.  1.
</event>
<event>
 7    1  0.1161807E-013  0.5052888E+02  0.7816164E-02  0.1300439E+00
        -11   -1    0    0    0    0  0.00000000000E+00  0.00000000000E+00  0.45593999997E+02  0.45594000000E+02  0.51100000000E-03 0. -1.
         11   -1    0    0    0    0 -0.00000000000E+00 -0.00000000000E+00 -0.45593999997E+02  0.45594000000E+02  0.51100000000E-03 0.  1.
    9900012    2    1    2    0    0  0.34080993576E+01 -0.15230856937E+02  0.37544244355E+02  0.50528875213E+02  0.30000046698E+02 0.  0.
        -12    1    1    2    0    0 -0.34080993576E+01  0.15230856937E+02 -0.37544244355E+02  0.40659124787E+02  0.00000000000E+00 0.  1.
         11    1    3    3    0    0  0.20464425851E+01 -0.28308761853E+01  0.98157435150E+01  0.10418762318E+02  0.51100000000E-03 0. -1.
        -11    1    3    3    0    0  0.44636497873E+01 -0.17125324692E+02  0.29311747578E+02  0.34240027184E+02  0.51100000000E-03 0.  1.
        -12    1    3    3    0    0 -0.31019930147E+01  0.47253439408E+01 -0.15832467378E+01  0.58700857110E+01  0.00000000000E+00 0.  1.
</event>
<event>
 7    1  0.1161807E-013  0.5052885E+02  0.7816164E-02  0.1300439E+00
        -11   -1    0    0    0    0  0.00000000000E+00  0.00000000000E+00  0.45593999997E+02  0.45594000000E+02  0.51100000000E-03 0. -1.
         11   -1    0    0    0    0 -0.00000000000E+00 -0.00000000000E+00 -0.45593999997E+02  0.45594000000E+02  0.51100000000E-03 0.  1.
    9900012    2    1    2    0    0 -0.23972278512E+02  0.24983838771E+01  0.32745294113E+02  0.50528851637E+02  0.29999975036E+02 0.  0.
        -12    1    1    2    0    0  0.23972278512E+02 -0.24983838771E+01 -0.32745294113E+02  0.40659148363E+02  0.00000000000E+00 0.  1.
         11    1    3    3    0    0  0.13776100986E+01 -0.42695120988E+01  0.12154166230E+02  0.12955705313E+02  0.51100000000E-03 0. -1.
        -11    1    3    3    0    0 -0.37243413864E+01 -0.32710448715E+01  0.10639499263E+02  0.11737520954E+02  0.51100000000E-03 0.  1.
        -12    1    3    3    0    0 -0.21625547224E+02  0.10038940847E+02  0.99516286194E+01  0.25835625370E+02  0.00000000000E+00 0.  1.
</event>
<event>
 7    1  0.1161807E-013  0.5052891E+02  0.7816164E-02  0.1300439E+00
        -11   -1    0    0    0    0  0.00000000000E+00  0.00000000000E+00  0.45593999997E+02  0.45594000000E+02  0.51100000000E-03 0. -1.
         11   -1    0    0    0    0 -0.00000000000E+00 -0.00000000000E+00 -0.45593999997E+02  0.45594000000E+02  0.51100000000E-03 0.  1.
    9900012    2    1    2    0    0 -0.36482748506E+00 -0.65846868839E+01  0.40120701592E+02  0.50528906347E+02  0.30000141332E+02 0.  0.
        -12    1    1    2    0    0  0.36482748506E+00  0.65846868839E+01 -0.40120701592E+02  0.40659093653E+02  0.00000000000E+00 0.  1.
         11    1    3    3    0    0  0.64557090990E+01 -0.20518177526E+01  0.32002174168E+02  0.32711241000E+02  0.51100000000E-03 0. -1.
        -11    1    3    3    0    0  0.11646356995E+01 -0.64017841645E+01  0.34192761317E+00  0.65158369804E+01  0.51100000000E-03 0.  1.
         12    1    3    3    0    0 -0.79851722835E+01  0.18689150332E+01  0.77765998112E+01  0.11301828366E+02  0.00000000000E+00 0. -1.
</event>
<event>
 7    1  0.1161807E-013  0.5052886E+02  0.7816164E-02  0.1300439E+00
        -11   -1    0    0    0    0  0.00000000000E+00  0.00000000000E+00  0.45593999997E+02  0.45594000000E+02  0.51100000000E-03 0. -1.
         11   -1    0    0    0    0 -0.00000000000E+00 -0.00000000000E+00 -0.45593999997E+02  0.45594000000E+02  0.51100000000E-03 0.  1.
    9900012    2    1    2    0    0  0.15380500795E+02 -0.44579609137E+01  0.37372881959E+02  0.50528861715E+02  0.30000005668E+02 0.  0.
        -12    1    1    2    0    0 -0.15380500795E+02  0.44579609137E+01 -0.37372881959E+02  0.40659138285E+02  0.00000000000E+00 0.  1.
         11    1    3    3    0    0  0.93153818860E+01  0.64691974016E+01  0.22100954321E+02  0.24841075598E+02  0.51100000000E-03 0. -1.
        -11    1    3    3    0    0  0.23832318883E+01  0.41015368304E+01  0.15047789854E+01  0.49766212093E+01  0.51100000000E-03 0.  1.
         12    1    3    3    0    0  0.36818870204E+01 -0.15028695146E+02  0.13767148652E+02  0.20711164908E+02  0.00000000000E+00 0. -1.
</event>
<event>
 7    1  0.1161807E-013  0.5052885E+02  0.7816164E-02  0.1300439E+00
        -11   -1    0    0    0    0  0.00000000000E+00  0.00000000000E+00  0.45593999997E+02  0.45594000000E+02  0.51100000000E-03 0. -1.
         11   -1    0    0    0    0 -0.00000000000E+00 -0.00000000000E+00 -0.45593999997E+02  0.45594000000E+02  0.51100000000E-03 0.  1.
    9900012    2    1    2    0    0  0.29213933303E+02 -0.12450774995E+02  0.25390754680E+02  0.50528854408E+02  0.29999983460E+02 0.  0.
        -12    1    1    2    0    0 -0.29213933303E+02  0.12450774995E+02 -0.25390754680E+02  0.40659145592E+02  0.00000000000E+00 0.  1.
         11    1    3    3    0    0  0.19446317420E+02 -0.88928796062E+01  0.42582177149E+01  0.21803095818E+02  0.51100000000E-03 0. -1.
        -11    1    3    3    0    0  0.50879674853E+01 -0.95067697266E+01  0.16919578336E+02  0.20063355031E+02  0.51100000000E-03 0.  1.
        -12    1    3    3    0    0  0.46796483980E+01  0.59488743376E+01  0.42129586288E+01  0.86624035591E+01  0.00000000000E+00 0.  1.
</event>
<event>
 7    1  0.1161807E-013  0.5052886E+02  0.7816164E-02  0.1300439E+00
        -11   -1    0    0    0    0  0.00000000000E+00  0.00000000000E+00  0.45593999997E+02  0.45594000000E+02  0.51100000000E-03 0. -1.
         11   -1    0    0    0    0 -0.00000000000E+00 -0.00000000000E+00 -0.45593999997E+02  0.45594000000E+02  0.51100000000E-03 0.  1.
    9900012    2    1    2    0    0  0.34333304826E+02 -0.90287068691E+01  0.19821002565E+02  0.50528861905E+02  0.30000006246E+02 0.  0.
        -12    1    1    2    0    0 -0.34333304826E+02  0.90287068691E+01 -0.19821002565E+02  0.40659138095E+02  0.00000000000E+00 0.  1.
         11    1    3    3    0    0  0.29412300816E+02 -0.23355659357E+01  0.15136688098E+02  0.33161086145E+02  0.51100000000E-03 0. -1.
        -11    1    3    3    0    0  0.99170880023E+01 -0.61955989776E+01  0.35514867957E+01  0.12220766746E+02  0.51100000000E-03 0.  1.
         12    1    3    3    0    0 -0.49960839922E+01 -0.49754195574E+00  0.11328276710E+01  0.51470090137E+01  0.00000000000E+00 0. -1.
</event>
<event>
 7    1  0.1161807E-013  0.5052886E+02  0.7816164E-02  0.1300439E+00
        -11   -1    0    0    0    0  0.00000000000E+00  0.00000000000E+00  0.45593999997E+02  0.45594000000E+02  0.51100000000E-03 0. -1.
         11   -1    0    0    0    0 -0.00000000000E+00 -0.00000000000E+00 -0.45593999997E+02  0.45594000000E+02  0.51100000000E-03 0.  1.
    9900012    2    1    2    0    0 -0.56815499528E+01  0.15272928768E+02  0.37250815160E+02  0.50528860890E+02  0.30000003162E+02 0.  0.
        -12    1    1    2    0    0  0.56815499528E+01 -0.15272928768E+02 -0.37250815160E+02  0.40659139110E+02  0.00000000000E+00 0.  1.
         11    1    3    3    0    0 -0.56156715527E+01  0.16373801312E+01  0.85883644491E+01  0.10391187846E+02  0.51100000000E-03 0. -1.
        -11    1    3    3    0    0 -0.11540558885E+02  0.44945815154E+01  0.18606687811E+02  0.22351612782E+02  0.51100000000E-03 0.  1.
         12    1    3    3    0    0  0.11474680485E+02  0.91409671217E+01  0.10055762900E+02  0.17786060263E+02  0.00000000000E+00 0. -1.
</event>
<event>
 7    1  0.1161807E-013  0.5052887E+02  0.7816164E-02  0.1300439E+00
        -11   -1    0    0    0    0  0.00000000000E+00  0.00000000000E+00  0.45593999997E+02  0.45594000000E+02  0.51100000000E-03 0. -1.
         11   -1    0    0    0    0 -0.00000000000E+00 -0.00000000000E+00 -0.45593999997E+02  0.45594000000E+02  0.51100000000E-03 0.  1.
    9900012    2    1    2    0    0 -0.31336579860E+02 -0.44594868417E+01 -0.25520515418E+02  0.50528868585E+02  0.30000026551E+02 0.  0.
         12    1    1    2    0    0  0.31336579860E+02  0.44594868417E+01  0.25520515418E+02  0.40659131415E+02  0.00000000000E+00 0. -1.
         11    1    3    3    0    0 -0.57187240844E+01  0.59928738338E+01 -0.51172922729E+01  0.97367870681E+01  0.51100000000E-03 0. -1.
        -11    1    3    3    0    0 -0.59922875753E+01  0.47424256132E+01 -0.12667920232E+02  0.14794401453E+02  0.51100000000E-03 0.  1.
        -12    1    3    3    0    0 -0.19625568201E+02 -0.15194786289E+02 -0.77353029132E+01  0.25997680064E+02  0.00000000000E+00 0.  1.
</event>
<event>
 7    1  0.1161807E-013  0.5052886E+02  0.7816164E-02  0.1300439E+00
        -11   -1    0    0    0    0  0.00000000000E+00  0.00000000000E+00  0.45593999997E+02  0.45594000000E+02  0.51100000000E-03 0. -1.
         11   -1    0    0    0    0 -0.00000000000E+00 -0.00000000000E+00 -0.45593999997E+02  0.45594000000E+02  0.51100000000E-03 0.  1.
    9900012    2    1    2    0    0  0.55478176461E+01  0.19435990280E+02  0.35279307569E+02  0.50528861527E+02  0.30000005098E+02 0.  0.
        -12    1    1    2    0    0 -0.55478176461E+01 -0.19435990280E+02 -0.35279307569E+02  0.40659138473E+02  0.00000000000E+00 0.  1.
         11    1    3    3    0    0  0.53027115808E+01  0.83129070708E+01  0.19007430987E+02  0.21412744034E+02  0.51100000000E-03 0. -1.
        -11    1    3    3    0    0  0.17977873776E+00  0.64551545248E+01 -0.44710153277E+01  0.78543821307E+01  0.51100000000E-03 0.  1.
         12    1    3    3    0    0  0.65327327601E-01  0.46679286847E+01  0.20742891909E+02  0.21261735363E+02  0.00000000000E+00 0. -1.
</event>
<event>
 7    1  0.1161807E-013  0.5052882E+02  0.7816164E-02  0.1300439E+00
        -11   -1    0    0    0    0  0.00000000000E+00  0.00000000000E+00  0.45593999997E+02  0.45594000000E+02  0.51100000000E-03 0.  1.
         11   -1    0    0    0    0 -0.00000000000E+00 -0.00000000000E+00 -0.45593999997E+02  0.45594000000E+02  0.51100000000E-03 0. -1.
    9900012    2    1    2    0    0 -0.27316274516E+02  0.30094114780E+02  0.11552206284E+01  0.50528817365E+02  0.29999870863E+02 0.  0.
        -12    1    1    2    0    0  0.27316274516E+02 -0.30094114780E+02 -0.11552206284E+01  0.40659182635E+02  0.00000000000E+00 0.  1.
         11    1    3    3    0    0 -0.24594915422E+01  0.77620201049E+01 -0.63259990782E+01  0.10310980523E+02  0.51100000000E-03 0.  1.
        -11    1    3    3    0    0 -0.12006926951E+02  0.14394221893E+02 -0.62965419683E+01  0.19773880745E+02  0.51100000000E-03 0. -1.
        -12    1    3    3    0    0 -0.12849856023E+02  0.79378727823E+01  0.13777761675E+02  0.20443956097E+02  0.00000000000E+00 0.  1.
</event>
<event>
 7    1  0.1161807E-013  0.5052886E+02  0.7816164E-02  0.1300439E+00
        -11   -1    0    0    0    0  0.00000000000E+00  0.00000000000E+00  0.45593999997E+02  0.45594000000E+02  0.51100000000E-03 0. -1.
         11   -1    0    0    0    0 -0.00000000000E+00 -0.00000000000E+00 -0.45593999997E+02  0.45594000000E+02  0.51100000000E-03 0.  1.
    9900012    2    1    2    0    0  0.21513995844E+02  0.39642516164E+01  0.34272419195E+02  0.50528855573E+02  0.29999987001E+02 0.  0.
        -12    1    1    2    0    0 -0.21513995844E+02 -0.39642516164E+01 -0.34272419195E+02  0.40659144427E+02  0.00000000000E+00 0.  1.
         11    1    3    3    0    0  0.19371452365E+02  0.11081511244E+02  0.19991804052E+02  0.29962064142E+02  0.51100000000E-03 0. -1.
        -11    1    3    3    0    0  0.57928526489E+01  0.50057184624E+00  0.86221283448E+01  0.10399462075E+02  0.51100000000E-03 0.  1.
        -12    1    3    3    0    0 -0.36503091701E+01 -0.76178314735E+01  0.56584867983E+01  0.10167329356E+02  0.00000000000E+00 0.  1.
</event>
<event>
 7    1  0.1161807E-013  0.5052887E+02  0.7816164E-02  0.1300439E+00
        -11   -1    0    0    0    0  0.00000000000E+00  0.00000000000E+00  0.45593999997E+02  0.45594000000E+02  0.51100000000E-03 0. -1.
         11   -1    0    0    0    0 -0.00000000000E+00 -0.00000000000E+00 -0.45593999997E+02  0.45594000000E+02  0.51100000000E-03 0.  1.
    9900012    2    1    2    0    0 -0.18265790002E+02 -0.12359033381E+02 -0.34158166463E+02  0.50528866627E+02  0.30000020600E+02 0.  0.
         12    1    1    2    0    0  0.18265790002E+02  0.12359033381E+02  0.34158166463E+02  0.40659133373E+02  0.00000000000E+00 0. -1.
         11    1    3    3    0    0 -0.84876702209E+00  0.21848539886E+01 -0.70576056278E+01  0.74366517915E+01  0.51100000000E-03 0.  1.
        -11    1    3    3    0    0 -0.12003553477E+02  0.49723770847E+01 -0.80317473401E+01  0.15274776448E+02  0.51100000000E-03 0. -1.
         12    1    3    3    0    0 -0.54134695032E+01 -0.19516264455E+02 -0.19068813495E+02  0.27817438388E+02  0.00000000000E+00 0. -1.
</event>
<event>
 7    1  0.1161807E-013  0.5052886E+02  0.7816164E-02  0.1300439E+00
        -11   -1    0    0    0    0  0.00000000000E+00  0.00000000000E+00  0.45593999997E+02  0.45594000000E+02  0.51100000000E-03 0. -1.
         11   -1    0    0    0    0 -0.00000000000E+00 -0.00000000000E+00 -0.45593999997E+02  0.45594000000E+02  0.51100000000E-03 0.  1.
    9900012    2    1    2    0    0  0.28619602506E+02  0.23805958833E+02 -0.16351151763E+02  0.50528862189E+02  0.30000007110E+02 0.  0.
         12    1    1    2    0    0 -0.28619602506E+02 -0.23805958833E+02  0.16351151763E+02  0.40659137811E+02  0.00000000000E+00 0. -1.
         11    1    3    3    0    0  0.61226263538E+01  0.20023070685E+01  0.45766766590E+01  0.79020096537E+01  0.51100000000E-03 0. -1.
        -11    1    3    3    0    0  0.23934783847E+02  0.12137322094E+02 -0.12026274710E+02  0.29407817822E+02  0.51100000000E-03 0.  1.
         12    1    3    3    0    0 -0.14378076949E+01  0.96663296703E+01 -0.89015537120E+01  0.13219034713E+02  0.00000000000E+00 0. -1.
</event>
<event>
 7    1  0.1649100E-013  0.5052881E+02  0.7816164E-02  0.1300439E+00
        -11   -1    0    0    0    0  0.00000000000E+00  0.00000000000E+00  0.45593999997E+02  0.45594000000E+02  0.51100000000E-03 0. -1.
         11   -1    0    0    0    0 -0.00000000000E+00 -0.00000000000E+00 -0.45593999997E+02  0.45594000000E+02  0.51100000000E-03 0.  1.
    9900012    2    1    2    0    0 -0.20988016947E+01  0.10870997576E+02 -0.39122707613E+02  0.50528809061E+02  0.29999845621E+02 0.  0.
         12    1    1    2    0    0  0.20988016947E+01 -0.10870997576E+02  0.39122707613E+02  0.40659190939E+02  0.00000000000E+00 0. -1.
         11    1    3    3    0    0  0.89971357024E+00 -0.61939589019E+01 -0.65444540584E+01  0.90556330851E+01  0.51100000000E-03 0. -1.
        -11    1    3    3    0    0  0.64875453151E+01  0.70493916031E+01 -0.54073609465E+01  0.11000987176E+02  0.51100000000E-03 0.  1.
        -12    1    3    3    0    0 -0.94860605800E+01  0.10015564875E+02 -0.27170892608E+02  0.30472188799E+02  0.00000000000E+00 0.  1.
</event>
<event>
 7    1  0.1161807E-013  0.5052883E+02  0.7816164E-02  0.1300439E+00
        -11   -1    0    0    0    0  0.00000000000E+00  0.00000000000E+00  0.45593999997E+02  0.45594000000E+02  0.51100000000E-03 0. -1.
         11   -1    0    0    0    0 -0.00000000000E+00 -0.00000000000E+00 -0.45593999997E+02  0.45594000000E+02  0.51100000000E-03 0.  1.
    9900012    2    1    2    0    0  0.32375594776E+02 -0.88792534299E+00 -0.24580492002E+02  0.50528829625E+02  0.29999908129E+02 0.  0.
         12    1    1    2    0    0 -0.32375594776E+02  0.88792534299E+00  0.24580492002E+02  0.40659170375E+02  0.00000000000E+00 0. -1.
         11    1    3    3    0    0  0.10732268994E+02  0.45909127813E+01 -0.20240216890E+01  0.11847140667E+02  0.51100000000E-03 0. -1.
        -11    1    3    3    0    0  0.22617674141E+02 -0.10974660312E+02 -0.14956553029E+02  0.29252364542E+02  0.51100000000E-03 0.  1.
        -12    1    3    3    0    0 -0.97434835895E+00  0.54958221875E+01 -0.75999172836E+01  0.94293244169E+01  0.00000000000E+00 0.  1.
</event>
<event>
 7    1  0.1161807E-013  0.5052887E+02  0.7816164E-02  0.1300439E+00
        -11   -1    0    0    0    0  0.00000000000E+00  0.00000000000E+00  0.45593999997E+02  0.45594000000E+02  0.51100000000E-03 0. -1.
         11   -1    0    0    0    0 -0.00000000000E+00 -0.00000000000E+00 -0.45593999997E+02  0.45594000000E+02  0.51100000000E-03 0.  1.
    9900012    2    1    2    0    0 -0.15986007136E+02 -0.62591043688E+01  0.36856971490E+02  0.50528866228E+02  0.30000019386E+02 0.  0.
        -12    1    1    2    0    0  0.15986007136E+02  0.62591043688E+01 -0.36856971490E+02  0.40659133772E+02  0.00000000000E+00 0.  1.
         11    1    3    3    0    0 -0.20637977220E+01 -0.64998864541E+01  0.27713069425E+02  0.28539831852E+02  0.51100000000E-03 0. -1.
        -11    1    3    3    0    0  0.28853310035E+01 -0.31829016442E+00  0.27472492926E+01  0.39967264812E+01  0.51100000000E-03 0.  1.
        -12    1    3    3    0    0 -0.16807540417E+02  0.55907224968E+00  0.63966527730E+01  0.17992307894E+02  0.00000000000E+00 0.  1.
</event>
<event>
 7    1  0.1161807E-013  0.5052886E+02  0.7816164E-02  0.1300439E+00
        -11   -1    0    0    0    0  0.00000000000E+00  0.00000000000E+00  0.45593999997E+02  0.45594000000E+02  0.51100000000E-03 0. -1.
         11   -1    0    0    0    0 -0.00000000000E+00 -0.00000000000E+00 -0.45593999997E+02  0.45594000000E+02  0.51100000000E-03 0.  1.
    9900012    2    1    2    0    0  0.35739698162E+02 -0.13751049604E+02  0.13665578912E+02  0.50528862811E+02  0.30000009000E+02 0.  0.
        -12    1    1    2    0    0 -0.35739698162E+02  0.13751049604E+02 -0.13665578912E+02  0.40659137189E+02  0.00000000000E+00 0.  1.
         11    1    3    3    0    0 -0.23708346392E+01 -0.63315059906E+01  0.21145520514E+01  0.70837952846E+01  0.51100000000E-03 0. -1.
        -11    1    3    3    0    0  0.11095921867E+02 -0.72002841544E+01 -0.17326226838E+01  0.13340373143E+02  0.51100000000E-03 0.  1.
         12    1    3    3    0    0  0.27014610935E+02 -0.21925945891E+00  0.13283649545E+02  0.30104694383E+02  0.00000000000E+00 0. -1.
</event>
<event>
 7    1  0.1161807E-013  0.5052885E+02  0.7816164E-02  0.1300439E+00
        -11   -1    0    0    0    0  0.00000000000E+00  0.00000000000E+00  0.45593999997E+02  0.45594000000E+02  0.51100000000E-03 0. -1.
         11   -1    0    0    0    0 -0.00000000000E+00 -0.00000000000E+00 -0.45593999997E+02  0.45594000000E+02  0.51100000000E-03 0.  1.
    9900012    2    1    2    0    0 -0.80253673777E+01  0.24311027591E+02 -0.31586919591E+02  0.50528854985E+02  0.29999985213E+02 0.  0.
         12    1    1    2    0    0  0.80253673777E+01 -0.24311027591E+02  0.31586919591E+02  0.40659145015E+02  0.00000000000E+00 0. -1.
         11    1    3    3    0    0 -0.24977956235E+01  0.40105062297E+01  0.19060228720E+01  0.50947096723E+01  0.51100000000E-03 0. -1.
        -11    1    3    3    0    0 -0.46491461084E+01 -0.16772165708E+01  0.47660628810E+00  0.49653568631E+01  0.51100000000E-03 0.  1.
        -12    1    3    3    0    0 -0.87842564582E+00  0.21977737933E+02 -0.33969548751E+02  0.40468788450E+02  0.00000000000E+00 0.  1.
</event>
<event>
 7    1  0.1161807E-013  0.5052886E+02  0.7816164E-02  0.1300439E+00
        -11   -1    0    0    0    0  0.00000000000E+00  0.00000000000E+00  0.45593999997E+02  0.45594000000E+02  0.51100000000E-03 0.  1.
         11   -1    0    0    0    0 -0.00000000000E+00 -0.00000000000E+00 -0.45593999997E+02  0.45594000000E+02  0.51100000000E-03 0. -1.
    9900012    2    1    2    0    0  0.11008450261E+00 -0.31684956212E+02 -0.25479742370E+02  0.50528857855E+02  0.29999993936E+02 0.  0.
         12    1    1    2    0    0 -0.11008450261E+00  0.31684956212E+02  0.25479742370E+02  0.40659142145E+02  0.00000000000E+00 0. -1.
         11    1    3    3    0    0 -0.95990734144E+01 -0.17529973526E+02 -0.21659926948E+02  0.29471929321E+02  0.51100000000E-03 0. -1.
        -11    1    3    3    0    0 -0.18531150447E+01  0.58115783659E+00 -0.72088355162E+00  0.20715822832E+01  0.51100000000E-03 0.  1.
         12    1    3    3    0    0  0.11562272962E+02 -0.14736140522E+02 -0.30989318696E+01  0.18985346251E+02  0.00000000000E+00 0. -1.
</event>
<event>
 7    1  0.1161807E-013  0.5052886E+02  0.7816164E-02  0.1300439E+00
        -11   -1    0    0    0    0  0.00000000000E+00  0.00000000000E+00  0.45593999997E+02  0.45594000000E+02  0.51100000000E-03 0. -1.
         11   -1    0    0    0    0 -0.00000000000E+00 -0.00000000000E+00 -0.45593999997E+02  0.45594000000E+02  0.51100000000E-03 0.  1.
    9900012    2    1    2    0    0 -0.12579011998E+02 -0.16942355264E+02 -0.34754725735E+02  0.50528857047E+02  0.29999991480E+02 0.  0.
         12    1    1    2    0    0  0.12579011998E+02  0.16942355264E+02  0.34754725735E+02  0.40659142953E+02  0.00000000000E+00 0. -1.
         11    1    3    3    0    0 -0.13885959651E+02 -0.12111982047E+02 -0.22638593220E+02  0.29189482486E+02  0.51100000000E-03 0. -1.
        -11    1    3    3    0    0 -0.69512107463E+01  0.48676045332E+00 -0.82120038816E+01  0.10770017390E+02  0.51100000000E-03 0.  1.
         12    1    3    3    0    0  0.82581583991E+01 -0.53171336701E+01 -0.39041286335E+01  0.10569357171E+02  0.00000000000E+00 0. -1.
</event>
<event>
 7    1  0.1161807E-013  0.5052886E+02  0.7816164E-02  0.1300439E+00
        -11   -1    0    0    0    0  0.00000000000E+00  0.00000000000E+00  0.45593999997E+02  0.45594000000E+02  0.51100000000E-03 0. -1.
         11   -1    0    0    0    0 -0.00000000000E+00 -0.00000000000E+00 -0.45593999997E+02  0.45594000000E+02  0.51100000000E-03 0.  1.
    9900012    2    1    2    0    0  0.17609952578E+02  0.22344277395E+02  0.29048033999E+02  0.50528862757E+02  0.30000008836E+02 0.  0.
        -12    1    1    2    0    0 -0.17609952578E+02 -0.22344277395E+02 -0.29048033999E+02  0.40659137243E+02  0.00000000000E+00 0.  1.
         11    1    3    3    0    0  0.84612138352E+01  0.11847676139E+02  0.27122352041E+02  0.30782812574E+02  0.51100000000E-03 0. -1.
        -11    1    3    3    0    0  0.15492205624E+01 -0.17795936049E+01  0.44992793299E+01  0.50804086941E+01  0.51100000000E-03 0.  1.
        -12    1    3    3    0    0  0.75995181805E+01  0.12276194861E+02 -0.25735973716E+01  0.14665641489E+02  0.00000000000E+00 0.  1.
</event>
<event>
 7    1  0.1161807E-013  0.5052886E+02  0.7816164E-02  0.1300439E+00
        -11   -1    0    0    0    0  0.00000000000E+00  0.00000000000E+00  0.45593999997E+02  0.45594000000E+02  0.51100000000E-03 0. -1.
         11   -1    0    0    0    0 -0.00000000000E+00 -0.00000000000E+00 -0.45593999997E+02  0.45594000000E+02  0.51100000000E-03 0.  1.
    9900012    2    1    2    0    0  0.30194603198E+02 -0.24919180623E+02  0.10976600945E+02  0.50528863345E+02  0.30000010624E+02 0.  0.
        -12    1    1    2    0    0 -0.30194603198E+02  0.24919180623E+02 -0.10976600945E+02  0.40659136655E+02  0.00000000000E+00 0.  1.
         11    1    3    3    0    0  0.48372537704E+01 -0.13876380256E+01  0.10958775504E+02  0.12058993496E+02  0.51100000000E-03 0. -1.
        -11    1    3    3    0    0 -0.87692708487E+00 -0.48920568639E+01  0.35313381089E+01  0.60968492332E+01  0.51100000000E-03 0.  1.
         12    1    3    3    0    0  0.26234276512E+02 -0.18639485734E+02 -0.35135126675E+01  0.32373020616E+02  0.00000000000E+00 0. -1.
</event>
<event>
 7    1  0.1161807E-013  0.5052885E+02  0.7816164E-02  0.1300439E+00
        -11   -1    0    0    0    0  0.00000000000E+00  0.00000000000E+00  0.45593999997E+02  0.45594000000E+02  0.51100000000E-03 0. -1.
         11   -1    0    0    0    0 -0.00000000000E+00 -0.00000000000E+00 -0.45593999997E+02  0.45594000000E+02  0.51100000000E-03 0.  1.
    9900012    2    1    2    0    0 -0.12307787375E+02  0.17578878719E+02  0.34535018243E+02  0.50528854754E+02  0.29999984510E+02 0.  0.
        -12    1    1    2    0    0  0.12307787375E+02 -0.17578878719E+02 -0.34535018243E+02  0.40659145246E+02  0.00000000000E+00 0.  1.
         11    1    3    3    0    0 -0.70410620122E+01 -0.30721265460E+01  0.14998145277E+01  0.78271297200E+01  0.51100000000E-03 0. -1.
        -11    1    3    3    0    0 -0.10408912502E+02  0.98119278994E+01  0.12893153475E+02  0.19257538663E+02  0.51100000000E-03 0.  1.
         12    1    3    3    0    0  0.51421871384E+01  0.10839077366E+02  0.20142050240E+02  0.23444186371E+02  0.00000000000E+00 0. -1.
</event>
<event>
 7    1  0.1161807E-013  0.5052886E+02  0.7816164E-02  0.1300439E+00
        -11   -1    0    0    0    0  0.00000000000E+00  0.00000000000E+00  0.45593999997E+02  0.45594000000E+02  0.51100000000E-03 0.  1.
         11   -1    0    0    0    0 -0.00000000000E+00 -0.00000000000E+00 -0.45593999997E+02  0.45594000000E+02  0.51100000000E-03 0. -1.
    9900012    2    1    2    0    0  0.40001266932E+01  0.35311424470E+02  0.19755195835E+02  0.50528862354E+02  0.30000007611E+02 0.  0.
        -12    1    1    2    0    0 -0.40001266932E+01 -0.35311424470E+02 -0.19755195835E+02  0.40659137646E+02  0.00000000000E+00 0.  1.
         11    1    3    3    0    0 -0.41010845045E+01  0.40720235577E+01  0.55009299621E+01  0.79787530778E+01  0.51100000000E-03 0. -1.
        -11    1    3    3    0    0 -0.95182857665E+00 -0.34546760576E+01  0.37511539227E+01  0.51876700276E+01  0.51100000000E-03 0.  1.
         12    1    3    3    0    0  0.90530397744E+01  0.34694076970E+02  0.10503111950E+02  0.37362439248E+02  0.00000000000E+00 0. -1.
</event>
<event>
 7    1  0.1161807E-013  0.5052886E+02  0.7816164E-02  0.1300439E+00
        -11   -1    0    0    0    0  0.00000000000E+00  0.00000000000E+00  0.45593999997E+02  0.45594000000E+02  0.51100000000E-03 0. -1.
         11   -1    0    0    0    0 -0.00000000000E+00 -0.00000000000E+00 -0.45593999997E+02  0.45594000000E+02  0.51100000000E-03 0.  1.
    9900012    2    1    2    0    0 -0.12731652768E+02 -0.22757986860E+01 -0.38547259036E+02  0.50528863006E+02  0.30000009594E+02 0.  0.
         12    1    1    2    0    0  0.12731652768E+02  0.22757986860E+01  0.38547259036E+02  0.40659136994E+02  0.00000000000E+00 0. -1.
         11    1    3    3    0    0 -0.53916959543E+01  0.11585750055E+01 -0.25757936092E+01  0.60866570698E+01  0.51100000000E-03 0. -1.
        -11    1    3    3    0    0  0.64534518109E+01  0.31390274394E+01 -0.24168401464E+01  0.75724269620E+01  0.51100000000E-03 0.  1.
        -12    1    3    3    0    0 -0.13793408625E+02 -0.65734011309E+01 -0.33554625281E+02  0.36869778975E+02  0.00000000000E+00 0.  1.
</event>
<event>
 7    1  0.1161807E-013  0.5052887E+02  0.7816164E-02  0.1300439E+00
        -11   -1    0    0    0    0  0.00000000000E+00  0.00000000000E+00  0.45593999997E+02  0.45594000000E+02  0.51100000000E-03 0.  1.
         11   -1    0    0    0    0 -0.00000000000E+00 -0.00000000000E+00 -0.45593999997E+02  0.45594000000E+02  0.51100000000E-03 0. -1.
    9900012    2    1    2    0    0  0.25371848164E+02  0.13766024857E+02 -0.28634435593E+02  0.50528867922E+02  0.30000024536E+02 0.  0.
         12    1    1    2    0    0 -0.25371848164E+02 -0.13766024857E+02  0.28634435593E+02  0.40659132078E+02  0.00000000000E+00 0. -1.
         11    1    3    3    0    0  0.92700745106E+01 -0.10871881109E+01 -0.21834947961E+02  0.23746183107E+02  0.51100000000E-03 0. -1.
        -11    1    3    3    0    0  0.91761052122E+01  0.86172993068E+00  0.11074831839E+01  0.92827800040E+01  0.51100000000E-03 0.  1.
         12    1    3    3    0    0  0.69256684411E+01  0.13991483037E+02 -0.79069708156E+01  0.17499904812E+02  0.00000000000E+00 0. -1.
</event>
<event>
 7    1  0.1161807E-013  0.5052886E+02  0.7816164E-02  0.1300439E+00
        -11   -1    0    0    0    0  0.00000000000E+00  0.00000000000E+00  0.45593999997E+02  0.45594000000E+02  0.51100000000E-03 0. -1.
         11   -1    0    0    0    0 -0.00000000000E+00 -0.00000000000E+00 -0.45593999997E+02  0.45594000000E+02  0.51100000000E-03 0.  1.
    9900012    2    1    2    0    0  0.20418262771E+01  0.21105846185E+02  0.34692072958E+02  0.50528859283E+02  0.29999998277E+02 0.  0.
        -12    1    1    2    0    0 -0.20418262771E+01 -0.21105846185E+02 -0.34692072958E+02  0.40659140717E+02  0.00000000000E+00 0.  1.
         11    1    3    3    0    0  0.35341432000E+01 -0.42503945081E+01  0.16700722877E+01  0.57745271096E+01  0.51100000000E-03 0. -1.
        -11    1    3    3    0    0 -0.82137935406E+00  0.12877866394E+02  0.45878561762E+01  0.13695347073E+02  0.51100000000E-03 0.  1.
         12    1    3    3    0    0 -0.67093756885E+00  0.12478374299E+02  0.28434144494E+02  0.31058985100E+02  0.00000000000E+00 0. -1.
</event>
<event>
 7    1  0.1161807E-013  0.5052886E+02  0.7816164E-02  0.1300439E+00
        -11   -1    0    0    0    0  0.00000000000E+00  0.00000000000E+00  0.45593999997E+02  0.45594000000E+02  0.51100000000E-03 0. -1.
         11   -1    0    0    0    0 -0.00000000000E+00 -0.00000000000E+00 -0.45593999997E+02  0.45594000000E+02  0.51100000000E-03 0.  1.
    9900012    2    1    2    0    0  0.33808943508E+02  0.10893486431E+02 -0.19785177344E+02  0.50528856498E+02  0.29999989812E+02 0.  0.
         12    1    1    2    0    0 -0.33808943508E+02 -0.10893486431E+02  0.19785177344E+02  0.40659143502E+02  0.00000000000E+00 0. -1.
         11    1    3    3    0    0  0.63036555331E+01  0.94432175849E+00 -0.82837795880E+01  0.10452216090E+02  0.51100000000E-03 0. -1.
        -11    1    3    3    0    0  0.68354625352E+01  0.17470114788E+00 -0.15429991071E+02  0.16877164847E+02  0.51100000000E-03 0.  1.
         12    1    3    3    0    0  0.20669825440E+02  0.97744635243E+01  0.39285933149E+01  0.23199475562E+02  0.00000000000E+00 0. -1.
</event>
<event>
 7    1  0.1161807E-013  0.5052886E+02  0.7816164E-02  0.1300439E+00
        -11   -1    0    0    0    0  0.00000000000E+00  0.00000000000E+00  0.45593999997E+02  0.45594000000E+02  0.51100000000E-03 0. -1.
         11   -1    0    0    0    0 -0.00000000000E+00 -0.00000000000E+00 -0.45593999997E+02  0.45594000000E+02  0.51100000000E-03 0.  1.
    9900012    2    1    2    0    0 -0.30720515632E+01  0.11028939074E+02 -0.39013978148E+02  0.50528862173E+02  0.30000007062E+02 0.  0.
         12    1    1    2    0    0  0.30720515632E+01 -0.11028939074E+02  0.39013978148E+02  0.40659137827E+02  0.00000000000E+00 0. -1.
         11    1    3    3    0    0 -0.54252408614E+01 -0.25597002177E+01 -0.10806373419E+01  0.60953327173E+01  0.51100000000E-03 0. -1.
        -11    1    3    3    0    0 -0.45654630636E+01  0.97022426899E+01 -0.33852739535E+02  0.35510349766E+02  0.51100000000E-03 0.  1.
         12    1    3    3    0    0  0.69186523618E+01  0.38863966021E+01 -0.40806012709E+01  0.89231796902E+01  0.00000000000E+00 0. -1.
</event>
<event>
 7    1  0.1161807E-013  0.5052886E+02  0.7816164E-02  0.1300439E+00
        -11   -1    0    0    0    0  0.00000000000E+00  0.00000000000E+00  0.45593999997E+02  0.45594000000E+02  0.51100000000E-03 0. -1.
         11   -1    0    0    0    0 -0.00000000000E+00 -0.00000000000E+00 -0.45593999997E+02  0.45594000000E+02  0.51100000000E-03 0.  1.
    9900012    2    1    2    0    0  0.35138784697E+02 -0.51829139820E+01 -0.19788101956E+02  0.50528858761E+02  0.29999996689E+02 0.  0.
         12    1    1    2    0    0 -0.35138784697E+02  0.51829139820E+01  0.19788101956E+02  0.40659141239E+02  0.00000000000E+00 0. -1.
         11    1    3    3    0    0  0.13877990821E+01 -0.27103124231E+01  0.13142367585E+01  0.33164737661E+01  0.51100000000E-03 0. -1.
        -11    1    3    3    0    0  0.98000268737E+01 -0.12821391073E+02 -0.84168809386E+01  0.18200892307E+02  0.51100000000E-03 0.  1.
        -12    1    3    3    0    0  0.23950958741E+02  0.10348789514E+02 -0.12685457775E+02  0.29011492688E+02  0.00000000000E+00 0.  1.
</event>
<event>
 7    1  0.1161807E-013  0.5052878E+02  0.7816164E-02  0.1300439E+00
        -11   -1    0    0    0    0  0.00000000000E+00  0.00000000000E+00  0.45593999997E+02  0.45594000000E+02  0.51100000000E-03 0. -1.
         11   -1    0    0    0    0 -0.00000000000E+00 -0.00000000000E+00 -0.45593999997E+02  0.45594000000E+02  0.51100000000E-03 0.  1.
    9900012    2    1    2    0    0  0.47498972209E+01 -0.34120670384E+02  0.21596083273E+02  0.50528776154E+02  0.29999745596E+02 0.  0.
        -12    1    1    2    0    0 -0.47498972209E+01  0.34120670384E+02 -0.21596083273E+02  0.40659223846E+02  0.00000000000E+00 0.  1.
         11    1    3    3    0    0  0.13389376452E+01 -0.28879430006E+02  0.84332095403E+01  0.30115332555E+02  0.51100000000E-03 0. -1.
        -11    1    3    3    0    0 -0.19175053275E+01 -0.34369146241E+01 -0.18737426054E+01  0.43589127574E+01  0.51100000000E-03 0.  1.
         12    1    3    3    0    0  0.53284649032E+01 -0.18043257540E+01  0.15036616338E+02  0.16054530842E+02  0.00000000000E+00 0. -1.
</event>
<event>
 7    1  0.1161807E-013  0.5052886E+02  0.7816164E-02  0.1300439E+00
        -11   -1    0    0    0    0  0.00000000000E+00  0.00000000000E+00  0.45593999997E+02  0.45594000000E+02  0.51100000000E-03 0.  1.
         11   -1    0    0    0    0 -0.00000000000E+00 -0.00000000000E+00 -0.45593999997E+02  0.45594000000E+02  0.51100000000E-03 0. -1.
    9900012    2    1    2    0    0  0.79747293815E+01 -0.34750990886E+02  0.19543236433E+02  0.50528858757E+02  0.29999996679E+02 0.  0.
        -12    1    1    2    0    0 -0.79747293815E+01  0.34750990886E+02 -0.19543236433E+02  0.40659141243E+02  0.00000000000E+00 0.  1.
         11    1    3    3    0    0  0.51323254635E+01 -0.85969049910E+01  0.70732239305E+01  0.12258794277E+02  0.51100000000E-03 0. -1.
        -11    1    3    3    0    0 -0.75646049796E+01 -0.12454226027E+02  0.14963030359E+02  0.20885958733E+02  0.51100000000E-03 0.  1.
         12    1    3    3    0    0  0.10407008898E+02 -0.13699859868E+02 -0.24930178560E+01  0.17384105747E+02  0.00000000000E+00 0. -1.
</event>
<event>
 7    1  0.1161807E-013  0.5052886E+02  0.7816164E-02  0.1300439E+00
        -11   -1    0    0    0    0  0.00000000000E+00  0.00000000000E+00  0.45593999997E+02  0.45594000000E+02  0.51100000000E-03 0. -1.
         11   -1    0    0    0    0 -0.00000000000E+00 -0.00000000000E+00 -0.45593999997E+02  0.45594000000E+02  0.51100000000E-03 0.  1.
    9900012    2    1    2    0    0  0.53485729178E+01 -0.26616034323E+02 -0.30267893789E+02  0.50528856997E+02  0.29999991327E+02 0.  0.
         12    1    1    2    0    0 -0.53485729178E+01  0.26616034323E+02  0.30267893789E+02  0.40659143003E+02  0.00000000000E+00 0. -1.
         11    1    3    3    0    0  0.29820018476E+01 -0.32229399195E+02 -0.23948053718E+02  0.40263330521E+02  0.51100000000E-03 0.  1.
        -11    1    3    3    0    0  0.20017597757E+01 -0.32551852634E+00 -0.90654003681E+00  0.22214453876E+01  0.51100000000E-03 0. -1.
        -12    1    3    3    0    0  0.36481129450E+00  0.59388833980E+01 -0.54133000341E+01  0.80440810883E+01  0.00000000000E+00 0.  1.
</event>
<event>
 7    1  0.1161807E-013  0.5052889E+02  0.7816164E-02  0.1300439E+00
        -11   -1    0    0    0    0  0.00000000000E+00  0.00000000000E+00  0.45593999997E+02  0.45594000000E+02  0.51100000000E-03 0. -1.
         11   -1    0    0    0    0 -0.00000000000E+00 -0.00000000000E+00 -0.45593999997E+02  0.45594000000E+02  0.51100000000E-03 0.  1.
    9900012    2    1    2    0    0  0.18227222474E+02 -0.15633897996E+02 -0.32810249245E+02  0.50528894486E+02  0.30000105278E+02 0.  0.
         12    1    1    2    0    0 -0.18227222474E+02  0.15633897996E+02  0.32810249245E+02  0.40659105514E+02  0.00000000000E+00 0. -1.
         11    1    3    3    0    0  0.66627509606E+01 -0.95560419302E+01 -0.34496524671E+02  0.36410443589E+02  0.51100000000E-03 0. -1.
        -11    1    3    3    0    0  0.27501410980E+01 -0.14035496405E+01 -0.17708984574E+01  0.35593973170E+01  0.51100000000E-03 0.  1.
         12    1    3    3    0    0  0.88143304158E+01 -0.46743064254E+01  0.34571738829E+01  0.10559053579E+02  0.00000000000E+00 0. -1.
</event>
<event>
 7    1  0.1161807E-013  0.5052896E+02  0.7816164E-02  0.1300438E+00
        -11   -1    0    0    0    0  0.00000000000E+00  0.00000000000E+00  0.45593999997E+02  0.45594000000E+02  0.51100000000E-03 0. -1.
         11   -1    0    0    0    0 -0.00000000000E+00 -0.00000000000E+00 -0.45593999997E+02  0.45594000000E+02  0.51100000000E-03 0.  1.
    9900012    2    1    2    0    0 -0.13321895035E+02 -0.23597331406E+02  0.30312552022E+02  0.50528957378E+02  0.30000296446E+02 0.  0.
        -12    1    1    2    0    0  0.13321895035E+02  0.23597331406E+02 -0.30312552022E+02  0.40659042622E+02  0.00000000000E+00 0.  1.
         11    1    3    3    0    0 -0.53779715858E+01  0.12500019395E+01  0.11778275214E+02  0.13008183982E+02  0.51100000000E-03 0. -1.
        -11    1    3    3    0    0 -0.75187965289E+01  0.76603309614E-01  0.26997436882E+01  0.79891667621E+01  0.51100000000E-03 0.  1.
         12    1    3    3    0    0 -0.42512691996E+00 -0.24923936655E+02  0.15834533120E+02  0.29531606634E+02  0.00000000000E+00 0. -1.
</event>
<event>
 7    1  0.1161807E-013  0.5052886E+02  0.7816164E-02  0.1300439E+00
        -11   -1    0    0    0    0  0.00000000000E+00  0.00000000000E+00  0.45593999997E+02  0.45594000000E+02  0.51100000000E-03 0. -1.
         11   -1    0    0    0    0 -0.00000000000E+00 -0.00000000000E+00 -0.45593999997E+02  0.45594000000E+02  0.51100000000E-03 0.  1.
    9900012    2    1    2    0    0 -0.18947259402E+02 -0.17955229597E+02  0.31173332646E+02  0.50528861089E+02  0.30000003766E+02 0.  0.
        -12    1    1    2    0    0  0.18947259402E+02  0.17955229597E+02 -0.31173332646E+02  0.40659138911E+02  0.00000000000E+00 0.  1.
         11    1    3    3    0    0 -0.11859729437E+01 -0.40827933503E+01 -0.54681446555E-01  0.42519082406E+01  0.51100000000E-03 0. -1.
        -11    1    3    3    0    0 -0.29448760084E+00 -0.11807151114E+02  0.17349933078E+01  0.11937576908E+02  0.51100000000E-03 0.  1.
         12    1    3    3    0    0 -0.17466798858E+02 -0.20652851326E+01  0.29493020785E+02  0.34339375941E+02  0.00000000000E+00 0. -1.
</event>
<event>
 7    1  0.1161807E-013  0.5052886E+02  0.7816164E-02  0.1300439E+00
        -11   -1    0    0    0    0  0.00000000000E+00  0.00000000000E+00  0.45593999997E+02  0.45594000000E+02  0.51100000000E-03 0. -1.
         11   -1    0    0    0    0 -0.00000000000E+00 -0.00000000000E+00 -0.45593999997E+02  0.45594000000E+02  0.51100000000E-03 0.  1.
    9900012    2    1    2    0    0 -0.22226792723E+02 -0.42274721909E+01  0.33782598729E+02  0.50528858189E+02  0.29999994951E+02 0.  0.
        -12    1    1    2    0    0  0.22226792723E+02  0.42274721909E+01 -0.33782598729E+02  0.40659141811E+02  0.00000000000E+00 0.  1.
         11    1    3    3    0    0 -0.66389396012E+01 -0.59669690859E+01  0.52801682554E+01  0.10371133794E+02  0.51100000000E-03 0. -1.
        -11    1    3    3    0    0 -0.75235261864E+01  0.87943016845E+01  0.22325034292E+01  0.11786740865E+02  0.51100000000E-03 0.  1.
         12    1    3    3    0    0 -0.80643269358E+01 -0.70548047894E+01  0.26269927045E+02  0.28370983530E+02  0.00000000000E+00 0. -1.
</event>
<event>
 7    1  0.1161807E-013  0.5052886E+02  0.7816164E-02  0.1300439E+00
        -11   -1    0    0    0    0  0.00000000000E+00  0.00000000000E+00  0.45593999997E+02  0.45594000000E+02  0.51100000000E-03 0. -1.
         11   -1    0    0    0    0 -0.00000000000E+00 -0.00000000000E+00 -0.45593999997E+02  0.45594000000E+02  0.51100000000E-03 0.  1.
    9900012    2    1    2    0    0 -0.46016824503E+01 -0.49093648463E+01  0.40098482645E+02  0.50528860130E+02  0.30000000851E+02 0.  0.
        -12    1    1    2    0    0  0.46016824503E+01  0.49093648463E+01 -0.40098482645E+02  0.40659139870E+02  0.00000000000E+00 0.  1.
         11    1    3    3    0    0 -0.68720350690E+01 -0.45519056679E+01  0.19976762772E+02  0.21610547478E+02  0.51100000000E-03 0. -1.
        -11    1    3    3    0    0 -0.83030231086E+01 -0.12058459253E+01  0.14889563943E+02  0.17090739358E+02  0.51100000000E-03 0.  1.
        -12    1    3    3    0    0  0.10573375727E+02  0.84838674697E+00  0.52321559295E+01  0.11827573293E+02  0.00000000000E+00 0.  1.
</event>
<event>
 7    1  0.1161807E-013  0.5052882E+02  0.7816164E-02  0.1300439E+00
        -11   -1    0    0    0    0  0.00000000000E+00  0.00000000000E+00  0.45593999997E+02  0.45594000000E+02  0.51100000000E-03 0. -1.
         11   -1    0    0    0    0 -0.00000000000E+00 -0.00000000000E+00 -0.45593999997E+02  0.45594000000E+02  0.51100000000E-03 0.  1.
    9900012    2    1    2    0    0 -0.18040018214E+02 -0.17432539110E+02  0.31997395249E+02  0.50528819245E+02  0.29999876575E+02 0.  0.
        -12    1    1    2    0    0  0.18040018214E+02  0.17432539110E+02 -0.31997395249E+02  0.40659180755E+02  0.00000000000E+00 0.  1.
         11    1    3    3    0    0 -0.10290734198E+02  0.12723226755E+01  0.78115679920E+01  0.12982242105E+02  0.51100000000E-03 0. -1.
        -11    1    3    3    0    0 -0.14489043272E+02 -0.10568646810E+02  0.12930265106E+02  0.22109283713E+02  0.51100000000E-03 0.  1.
        -12    1    3    3    0    0  0.67397592570E+01 -0.81362149760E+01  0.11255562151E+02  0.15437293426E+02  0.00000000000E+00 0.  1.
</event>
<event>
 7    1  0.1161807E-013  0.5052887E+02  0.7816164E-02  0.1300439E+00
        -11   -1    0    0    0    0  0.00000000000E+00  0.00000000000E+00  0.45593999997E+02  0.45594000000E+02  0.51100000000E-03 0. -1.
         11   -1    0    0    0    0 -0.00000000000E+00 -0.00000000000E+00 -0.45593999997E+02  0.45594000000E+02  0.51100000000E-03 0.  1.
    9900012    2    1    2    0    0  0.32893020517E+02 -0.20694171301E+01  0.23810331738E+02  0.50528865928E+02  0.30000018476E+02 0.  0.
        -12    1    1    2    0    0 -0.32893020517E+02  0.20694171301E+01 -0.23810331738E+02  0.40659134072E+02  0.00000000000E+00 0.  1.
         11    1    3    3    0    0  0.24314022219E+02  0.50411584433E+01  0.21590176632E+02  0.32904721275E+02  0.51100000000E-03 0. -1.
        -11    1    3    3    0    0  0.30096825833E+01 -0.39677117165E+00  0.70338672513E+01  0.76609989809E+01  0.51100000000E-03 0.  1.
         12    1    3    3    0    0  0.55693157151E+01 -0.67138044017E+01 -0.48137121456E+01  0.99631456729E+01  0.00000000000E+00 0. -1.
</event>
<event>
 7    1  0.1837460E-013  0.5052886E+02  0.7816164E-02  0.1300439E+00
        -11   -1    0    0    0    0  0.00000000000E+00  0.00000000000E+00  0.45593999997E+02  0.45594000000E+02  0.51100000000E-03 0. -1.
         11   -1    0    0    0    0 -0.00000000000E+00 -0.00000000000E+00 -0.45593999997E+02  0.45594000000E+02  0.51100000000E-03 0.  1.
    9900012    2    1    2    0    0  0.67688344114E+01  0.36134510791E+01 -0.39928578868E+02  0.50528861317E+02  0.30000004460E+02 0.  0.
         12    1    1    2    0    0 -0.67688344114E+01 -0.36134510791E+01  0.39928578868E+02  0.40659138683E+02  0.00000000000E+00 0. -1.
         11    1    3    3    0    0  0.30676931940E+01 -0.17354238682E+01  0.10560776620E+01  0.36793664976E+01  0.51100000000E-03 0. -1.
        -11    1    3    3    0    0 -0.47560237316E+01  0.12782739717E+01 -0.12573752250E+00  0.49264141389E+01  0.51100000000E-03 0.  1.
        -12    1    3    3    0    0  0.84571649490E+01  0.40706009757E+01 -0.40858919008E+02  0.41923080681E+02  0.00000000000E+00 0.  1.
</event>
<event>
 7    1  0.1161807E-013  0.5052887E+02  0.7816164E-02  0.1300439E+00
        -11   -1    0    0    0    0  0.00000000000E+00  0.00000000000E+00  0.45593999997E+02  0.45594000000E+02  0.51100000000E-03 0. -1.
         11   -1    0    0    0    0 -0.00000000000E+00 -0.00000000000E+00 -0.45593999997E+02  0.45594000000E+02  0.51100000000E-03 0.  1.
    9900012    2    1    2    0    0  0.31484356544E+02 -0.15160017046E+02 -0.20786388865E+02  0.50528870817E+02  0.30000033336E+02 0.  0.
         12    1    1    2    0    0 -0.31484356544E+02  0.15160017046E+02  0.20786388865E+02  0.40659129183E+02  0.00000000000E+00 0. -1.
         11    1    3    3    0    0  0.12823409099E+01  0.28783761032E+01 -0.74334974855E+01  0.80738053190E+01  0.51100000000E-03 0. -1.
        -11    1    3    3    0    0  0.21133407937E+02 -0.14526152516E+02 -0.18338418857E+02  0.31526618030E+02  0.51100000000E-03 0.  1.
         12    1    3    3    0    0  0.90686076972E+01 -0.35122406336E+01  0.49855274782E+01  0.10928447468E+02  0.00000000000E+00 0. -1.
</event>
<event>
 7    1  0.1161807E-013  0.5052886E+02  0.7816164E-02  0.1300439E+00
        -11   -1    0    0    0    0  0.00000000000E+00  0.00000000000E+00  0.45593999997E+02  0.45594000000E+02  0.51100000000E-03 0. -1.
         11   -1    0    0    0    0 -0.00000000000E+00 -0.00000000000E+00 -0.45593999997E+02  0.45594000000E+02  0.51100000000E-03 0.  1.
    9900012    2    1    2    0    0  0.94987540759E+01  0.25078004641E+02 -0.30561954572E+02  0.50528859416E+02  0.29999998681E+02 0.  0.
         12    1    1    2    0    0 -0.94987540759E+01 -0.25078004641E+02  0.30561954572E+02  0.40659140584E+02  0.00000000000E+00 0. -1.
         11    1    3    3    0    0 -0.31404804626E+01 -0.41359719385E+01 -0.18901811113E+00  0.51965959550E+01  0.51100000000E-03 0. -1.
        -11    1    3    3    0    0  0.19475115438E+01 -0.47501181746E+00 -0.10840406343E+01  0.22789431318E+01  0.51100000000E-03 0.  1.
        -12    1    3    3    0    0  0.10691722995E+02  0.29688988397E+02 -0.29288895827E+02  0.43053320329E+02  0.00000000000E+00 0.  1.
</event>
<event>
 7    1  0.1161807E-013  0.5052886E+02  0.7816164E-02  0.1300439E+00
        -11   -1    0    0    0    0  0.00000000000E+00  0.00000000000E+00  0.45593999997E+02  0.45594000000E+02  0.51100000000E-03 0. -1.
         11   -1    0    0    0    0 -0.00000000000E+00 -0.00000000000E+00 -0.45593999997E+02  0.45594000000E+02  0.51100000000E-03 0.  1.
    9900012    2    1    2    0    0 -0.35264484082E+02  0.18482947088E+02  0.82439237606E+01  0.50528862655E+02  0.30000008527E+02 0.  0.
        -12    1    1    2    0    0  0.35264484082E+02 -0.18482947088E+02 -0.82439237606E+01  0.40659137345E+02  0.00000000000E+00 0.  1.
         11    1    3    3    0    0 -0.12987319466E+02  0.10823023483E+02  0.61184498747E+01  0.17978980321E+02  0.51100000000E-03 0. -1.
        -11    1    3    3    0    0 -0.70315616039E+01  0.28279504016E+01  0.11677587244E+02  0.13921429746E+02  0.51100000000E-03 0.  1.
         12    1    3    3    0    0 -0.15245603012E+02  0.48319732036E+01 -0.95521133584E+01  0.18628452589E+02  0.00000000000E+00 0. -1.
</event>
<event>
 7    1  0.1161807E-013  0.5052886E+02  0.7816164E-02  0.1300439E+00
        -11   -1    0    0    0    0  0.00000000000E+00  0.00000000000E+00  0.45593999997E+02  0.45594000000E+02  0.51100000000E-03 0. -1.
         11   -1    0    0    0    0 -0.00000000000E+00 -0.00000000000E+00 -0.45593999997E+02  0.45594000000E+02  0.51100000000E-03 0.  1.
    9900012    2    1    2    0    0  0.48742409629E+01  0.14025868205E+02  0.37850793613E+02  0.50528858580E+02  0.29999996141E+02 0.  0.
        -12    1    1    2    0    0 -0.48742409629E+01 -0.14025868205E+02 -0.37850793613E+02  0.40659141420E+02  0.00000000000E+00 0.  1.
         11    1    3    3    0    0  0.31155658691E+01  0.81160860151E+01  0.15809390082E+02  0.18042018122E+02  0.51100000000E-03 0. -1.
        -11    1    3    3    0    0  0.68660918440E+01  0.12887118193E+02  0.17252331748E+02  0.22602300403E+02  0.51100000000E-03 0.  1.
        -12    1    3    3    0    0 -0.51074167503E+01 -0.69773360027E+01  0.47890717826E+01  0.98845400548E+01  0.00000000000E+00 0.  1.
</event>
<event>
 7    1  0.1161807E-013  0.5052885E+02  0.7816164E-02  0.1300439E+00
        -11   -1    0    0    0    0  0.00000000000E+00  0.00000000000E+00  0.45593999997E+02  0.45594000000E+02  0.51100000000E-03 0. -1.
         11   -1    0    0    0    0 -0.00000000000E+00 -0.00000000000E+00 -0.45593999997E+02  0.45594000000E+02  0.51100000000E-03 0.  1.
    9900012    2    1    2    0    0 -0.93049532173E+01  0.16543220970E+02  0.35957006289E+02  0.50528848315E+02  0.29999964939E+02 0.  0.
        -12    1    1    2    0    0  0.93049532173E+01 -0.16543220970E+02 -0.35957006289E+02  0.40659151685E+02  0.00000000000E+00 0.  1.
         11    1    3    3    0    0  0.20253632598E+01  0.43340310375E+01  0.50056501833E+00  0.48100402251E+01  0.51100000000E-03 0. -1.
        -11    1    3    3    0    0 -0.81560825040E+00  0.17196092226E+02  0.21738250838E+02  0.27729449227E+02  0.51100000000E-03 0.  1.
        -12    1    3    3    0    0 -0.10514708227E+02 -0.49869022930E+01  0.13718190433E+02  0.17989358863E+02  0.00000000000E+00 0.  1.
</event>
<event>
 7    1  0.1161807E-013  0.5052886E+02  0.7816164E-02  0.1300439E+00
        -11   -1    0    0    0    0  0.00000000000E+00  0.00000000000E+00  0.45593999997E+02  0.45594000000E+02  0.51100000000E-03 0. -1.
         11   -1    0    0    0    0 -0.00000000000E+00 -0.00000000000E+00 -0.45593999997E+02  0.45594000000E+02  0.51100000000E-03 0.  1.
    9900012    2    1    2    0    0 -0.11979003343E+02  0.35640310313E+02 -0.15473754045E+02  0.50528864439E+02  0.30000013949E+02 0.  0.
         12    1    1    2    0    0  0.11979003343E+02 -0.35640310313E+02  0.15473754045E+02  0.40659135561E+02  0.00000000000E+00 0. -1.
         11    1    3    3    0    0 -0.12004810325E+01  0.36015713761E+01  0.65440954911E+01  0.75655572924E+01  0.51100000000E-03 0. -1.
        -11    1    3    3    0    0 -0.63846104687E+01  0.32027040306E+01 -0.14939070708E+01  0.72974188959E+01  0.51100000000E-03 0.  1.
         12    1    3    3    0    0 -0.43939118419E+01  0.28836034906E+02 -0.20523942465E+02  0.35665888251E+02  0.00000000000E+00 0. -1.
</event>
<event>
 7    1  0.1161807E-013  0.5052889E+02  0.7816164E-02  0.1300439E+00
        -11   -1    0    0    0    0  0.00000000000E+00  0.00000000000E+00  0.45593999997E+02  0.45594000000E+02  0.51100000000E-03 0. -1.
         11   -1    0    0    0    0 -0.00000000000E+00 -0.00000000000E+00 -0.45593999997E+02  0.45594000000E+02  0.51100000000E-03 0.  1.
    9900012    2    1    2    0    0  0.69066917582E+01 -0.31090495613E+02  0.25275317566E+02  0.50528892944E+02  0.30000100593E+02 0.  0.
        -12    1    1    2    0    0 -0.69066917582E+01  0.31090495613E+02 -0.25275317566E+02  0.40659107056E+02  0.00000000000E+00 0.  1.
         11    1    3    3    0    0 -0.25403270912E+01 -0.24174765696E+01  0.17347862805E+02  0.17698751336E+02  0.51100000000E-03 0. -1.
        -11    1    3    3    0    0 -0.12084198294E+01 -0.51069114639E+00 -0.72765376839E+00  0.15001880545E+01  0.51100000000E-03 0.  1.
        -12    1    3    3    0    0  0.10655438679E+02 -0.28162327897E+02  0.86551085291E+01  0.31329953554E+02  0.00000000000E+00 0.  1.
</event>
<event>
 7    1  0.1161807E-013  0.5052877E+02  0.7816164E-02  0.1300439E+00
        -11   -1    0    0    0    0  0.00000000000E+00  0.00000000000E+00  0.45593999997E+02  0.45594000000E+02  0.51100000000E-03 0.  1.
         11   -1    0    0    0    0 -0.00000000000E+00 -0.00000000000E+00 -0.45593999997E+02  0.45594000000E+02  0.51100000000E-03 0. -1.
    9900012    2    1    2    0    0 -0.13384241074E+02 -0.33182106215E+02 -0.19312757309E+02  0.50528773779E+02  0.29999738378E+02 0.  0.
         12    1    1    2    0    0  0.13384241074E+02  0.33182106215E+02  0.19312757309E+02  0.40659226221E+02  0.00000000000E+00 0. -1.
         11    1    3    3    0    0 -0.58023223272E+01 -0.70213445973E+01 -0.13588230462E+02  0.16358674509E+02  0.51100000000E-03 0. -1.
        -11    1    3    3    0    0  0.16871352795E+01  0.18317387721E+01 -0.38990033677E+01  0.46264370635E+01  0.51100000000E-03 0.  1.
        -12    1    3    3    0    0 -0.92690540261E+01 -0.27992500390E+02 -0.18255234798E+01  0.29543662207E+02  0.00000000000E+00 0.  1.
</event>
<event>
 7    1  0.1161807E-013  0.5052886E+02  0.7816164E-02  0.1300439E+00
        -11   -1    0    0    0    0  0.00000000000E+00  0.00000000000E+00  0.45593999997E+02  0.45594000000E+02  0.51100000000E-03 0. -1.
         11   -1    0    0    0    0 -0.00000000000E+00 -0.00000000000E+00 -0.45593999997E+02  0.45594000000E+02  0.51100000000E-03 0.  1.
    9900012    2    1    2    0    0  0.23726887384E+02  0.19972893761E+01 -0.32957721794E+02  0.50528858646E+02  0.29999996341E+02 0.  0.
         12    1    1    2    0    0 -0.23726887384E+02 -0.19972893761E+01  0.32957721794E+02  0.40659141354E+02  0.00000000000E+00 0. -1.
         11    1    3    3    0    0  0.16981679393E+02  0.11767059398E+02 -0.26187628276E+02  0.33356153808E+02  0.51100000000E-03 0. -1.
        -11    1    3    3    0    0  0.22066191242E+01  0.10562993553E+01 -0.46352498238E+01  0.52412286229E+01  0.51100000000E-03 0.  1.
         12    1    3    3    0    0  0.45385888669E+01 -0.10826069378E+02 -0.21348436943E+01  0.11931476215E+02  0.00000000000E+00 0. -1.
</event>
<event>
 7    1  0.1161807E-013  0.5052882E+02  0.7816164E-02  0.1300439E+00
        -11   -1    0    0    0    0  0.00000000000E+00  0.00000000000E+00  0.45593999997E+02  0.45594000000E+02  0.51100000000E-03 0. -1.
         11   -1    0    0    0    0 -0.00000000000E+00 -0.00000000000E+00 -0.45593999997E+02  0.45594000000E+02  0.51100000000E-03 0.  1.
    9900012    2    1    2    0    0  0.48932201425E+01 -0.38916678413E+01  0.40175619554E+02  0.50528817907E+02  0.29999872510E+02 0.  0.
        -12    1    1    2    0    0 -0.48932201425E+01  0.38916678413E+01 -0.40175619554E+02  0.40659182093E+02  0.00000000000E+00 0.  1.
         11    1    3    3    0    0  0.13056781228E+01 -0.59719340024E+00 -0.11752464012E+01  0.18554351733E+01  0.51100000000E-03 0. -1.
        -11    1    3    3    0    0 -0.68656131747E+01 -0.36486556445E+01  0.21009051138E+01  0.80537652582E+01  0.51100000000E-03 0.  1.
         12    1    3    3    0    0  0.10453155194E+02  0.35418120347E+00  0.39249960841E+02  0.40619617476E+02  0.00000000000E+00 0. -1.
</event>
<event>
 7    1  0.1161807E-013  0.5052886E+02  0.7816164E-02  0.1300439E+00
        -11   -1    0    0    0    0  0.00000000000E+00  0.00000000000E+00  0.45593999997E+02  0.45594000000E+02  0.51100000000E-03 0. -1.
         11   -1    0    0    0    0 -0.00000000000E+00 -0.00000000000E+00 -0.45593999997E+02  0.45594000000E+02  0.51100000000E-03 0.  1.
    9900012    2    1    2    0    0 -0.27112255475E+02  0.16771641449E+02  0.25234959598E+02  0.50528861548E+02  0.30000005160E+02 0.  0.
        -12    1    1    2    0    0  0.27112255475E+02 -0.16771641449E+02 -0.25234959598E+02  0.40659138452E+02  0.00000000000E+00 0.  1.
         11    1    3    3    0    0 -0.38841114568E+01  0.63296816607E+01  0.57043311230E+01  0.93643251522E+01  0.51100000000E-03 0. -1.
        -11    1    3    3    0    0  0.55514127942E+00  0.10604458178E+02  0.12419565373E+02  0.16340389206E+02  0.51100000000E-03 0.  1.
        -12    1    3    3    0    0 -0.23783285297E+02 -0.16249838982E+00  0.71110631020E+01  0.24824147190E+02  0.00000000000E+00 0.  1.
</event>
<event>
 7    1  0.1161807E-013  0.5052886E+02  0.7816164E-02  0.1300439E+00
        -11   -1    0    0    0    0  0.00000000000E+00  0.00000000000E+00  0.45593999997E+02  0.45594000000E+02  0.51100000000E-03 0. -1.
         11   -1    0    0    0    0 -0.00000000000E+00 -0.00000000000E+00 -0.45593999997E+02  0.45594000000E+02  0.51100000000E-03 0.  1.
    9900012    2    1    2    0    0  0.53646446784E+01  0.26272863756E+02  0.30563429630E+02  0.50528855725E+02  0.29999987461E+02 0.  0.
        -12    1    1    2    0    0 -0.53646446784E+01 -0.26272863756E+02 -0.30563429630E+02  0.40659144275E+02  0.00000000000E+00 0.  1.
         11    1    3    3    0    0  0.82988052259E+01  0.14418161152E+02  0.64543806206E+01  0.17844118601E+02  0.51100000000E-03 0. -1.
        -11    1    3    3    0    0  0.44259511447E+01  0.11988940281E+02  0.82799283756E+01  0.15227637596E+02  0.51100000000E-03 0.  1.
        -12    1    3    3    0    0 -0.73601116923E+01 -0.13423767714E+00  0.15829120634E+02  0.17457099528E+02  0.00000000000E+00 0.  1.
</event>
<event>
 7    1  0.1161807E-013  0.5052886E+02  0.7816164E-02  0.1300439E+00
        -11   -1    0    0    0    0  0.00000000000E+00  0.00000000000E+00  0.45593999997E+02  0.45594000000E+02  0.51100000000E-03 0. -1.
         11   -1    0    0    0    0 -0.00000000000E+00 -0.00000000000E+00 -0.45593999997E+02  0.45594000000E+02  0.51100000000E-03 0.  1.
    9900012    2    1    2    0    0 -0.12138547111E+02 -0.17398156985E+02 -0.34686098313E+02  0.50528860700E+02  0.30000002584E+02 0.  0.
         12    1    1    2    0    0  0.12138547111E+02  0.17398156985E+02  0.34686098313E+02  0.40659139300E+02  0.00000000000E+00 0. -1.
         11    1    3    3    0    0 -0.20061455274E+01 -0.10996872779E+02 -0.19942493040E+02  0.22861733524E+02  0.51100000000E-03 0. -1.
        -11    1    3    3    0    0 -0.14705003037E+02 -0.74495466080E+01 -0.56339709361E+01  0.17420519159E+02  0.51100000000E-03 0.  1.
         12    1    3    3    0    0  0.45726014539E+01  0.10482624019E+01 -0.91096343365E+01  0.10246608017E+02  0.00000000000E+00 0. -1.
</event>
<event>
 7    1  0.1161807E-013  0.5052874E+02  0.7816164E-02  0.1300439E+00
        -11   -1    0    0    0    0  0.00000000000E+00  0.00000000000E+00  0.45593999997E+02  0.45594000000E+02  0.51100000000E-03 0. -1.
         11   -1    0    0    0    0 -0.00000000000E+00 -0.00000000000E+00 -0.45593999997E+02  0.45594000000E+02  0.51100000000E-03 0.  1.
    9900012    2    1    2    0    0  0.69977786917E+01  0.64437248661E+01  0.39530809056E+02  0.50528740766E+02  0.29999638032E+02 0.  0.
        -12    1    1    2    0    0 -0.69977786917E+01 -0.64437248661E+01 -0.39530809056E+02  0.40659259234E+02  0.00000000000E+00 0.  1.
         11    1    3    3    0    0  0.35600092501E+01  0.13784244252E+02  0.19170197392E+02  0.23878348431E+02  0.51100000000E-03 0. -1.
        -11    1    3    3    0    0  0.67254809671E+01  0.10241991499E+01  0.37599908763E+01  0.77729408713E+01  0.51100000000E-03 0.  1.
         12    1    3    3    0    0 -0.32877115256E+01 -0.83647185357E+01  0.16600620788E+02  0.18877451465E+02  0.00000000000E+00 0. -1.
</event>
<event>
 7    1  0.1161807E-013  0.5052883E+02  0.7816164E-02  0.1300439E+00
        -11   -1    0    0    0    0  0.00000000000E+00  0.00000000000E+00  0.45593999997E+02  0.45594000000E+02  0.51100000000E-03 0. -1.
         11   -1    0    0    0    0 -0.00000000000E+00 -0.00000000000E+00 -0.45593999997E+02  0.45594000000E+02  0.51100000000E-03 0.  1.
    9900012    2    1    2    0    0  0.22368703569E+02 -0.25570810110E+02 -0.22337028610E+02  0.50528830355E+02  0.29999910348E+02 0.  0.
         12    1    1    2    0    0 -0.22368703569E+02  0.25570810110E+02  0.22337028610E+02  0.40659169645E+02  0.00000000000E+00 0. -1.
         11    1    3    3    0    0  0.25005302026E+01 -0.25319760507E+01 -0.98367457639E+01  0.10460646323E+02  0.51100000000E-03 0. -1.
        -11    1    3    3    0    0  0.88578112698E+01 -0.51743976881E+01 -0.15787224373E+02  0.18827417921E+02  0.51100000000E-03 0.  1.
         12    1    3    3    0    0  0.11010362097E+02 -0.17864436371E+02  0.32869415268E+01  0.21240766111E+02  0.00000000000E+00 0. -1.
</event>
<event>
 7    1  0.1161807E-013  0.5052887E+02  0.7816164E-02  0.1300439E+00
        -11   -1    0    0    0    0  0.00000000000E+00  0.00000000000E+00  0.45593999997E+02  0.45594000000E+02  0.51100000000E-03 0. -1.
         11   -1    0    0    0    0 -0.00000000000E+00 -0.00000000000E+00 -0.45593999997E+02  0.45594000000E+02  0.51100000000E-03 0.  1.
    9900012    2    1    2    0    0  0.71040776108E+01 -0.25594263068E+02 -0.30783611226E+02  0.50528868912E+02  0.30000027545E+02 0.  0.
         12    1    1    2    0    0 -0.71040776108E+01  0.25594263068E+02  0.30783611226E+02  0.40659131088E+02  0.00000000000E+00 0. -1.
         11    1    3    3    0    0 -0.48126056103E+01 -0.30541650891E+01 -0.13168822710E+02  0.14349459536E+02  0.51100000000E-03 0. -1.
        -11    1    3    3    0    0  0.32768034059E+01 -0.10456370734E+02 -0.18276731851E+02  0.21309905136E+02  0.51100000000E-03 0.  1.
        -12    1    3    3    0    0  0.86398798151E+01 -0.12083727246E+02  0.66194333505E+00  0.14869504240E+02  0.00000000000E+00 0.  1.
</event>
<event>
 7    1  0.1161807E-013  0.5052886E+02  0.7816164E-02  0.1300439E+00
        -11   -1    0    0    0    0  0.00000000000E+00  0.00000000000E+00  0.45593999997E+02  0.45594000000E+02  0.51100000000E-03 0. -1.
         11   -1    0    0    0    0 -0.00000000000E+00 -0.00000000000E+00 -0.45593999997E+02  0.45594000000E+02  0.51100000000E-03 0.  1.
    9900012    2    1    2    0    0 -0.34185484401E+02  0.21675265772E+02 -0.38342448181E+01  0.50528856830E+02  0.29999990819E+02 0.  0.
         12    1    1    2    0    0  0.34185484401E+02 -0.21675265772E+02  0.38342448181E+01  0.40659143170E+02  0.00000000000E+00 0. -1.
         11    1    3    3    0    0 -0.90960121028E+01  0.13245690199E+02  0.25019812930E+01  0.16261785132E+02  0.51100000000E-03 0. -1.
        -11    1    3    3    0    0 -0.16241359617E+02  0.15063703830E+02 -0.68778044972E+01  0.23194851374E+02  0.51100000000E-03 0.  1.
         12    1    3    3    0    0 -0.88481126814E+01 -0.66341282571E+01  0.54157838610E+00  0.11072220324E+02  0.00000000000E+00 0. -1.
</event>
<event>
 7    1  0.1161807E-013  0.5052886E+02  0.7816164E-02  0.1300439E+00
        -11   -1    0    0    0    0  0.00000000000E+00  0.00000000000E+00  0.45593999997E+02  0.45594000000E+02  0.51100000000E-03 0. -1.
         11   -1    0    0    0    0 -0.00000000000E+00 -0.00000000000E+00 -0.45593999997E+02  0.45594000000E+02  0.51100000000E-03 0.  1.
    9900012    2    1    2    0    0 -0.39159142983E+02 -0.48932319799E+01  0.97869078387E+01  0.50528858796E+02  0.29999996797E+02 0.  0.
        -12    1    1    2    0    0  0.39159142983E+02  0.48932319799E+01 -0.97869078387E+01  0.40659141204E+02  0.00000000000E+00 0.  1.
         11    1    3    3    0    0 -0.23340569080E+02  0.33066958135E+01 -0.40362619199E+00  0.23577093047E+02  0.51100000000E-03 0. -1.
        -11    1    3    3    0    0 -0.47007373648E+01 -0.58566087293E+01 -0.42093885577E+01  0.86090504628E+01  0.51100000000E-03 0.  1.
        -12    1    3    3    0    0 -0.11117836538E+02 -0.23433190641E+01  0.14399922588E+02  0.18342715286E+02  0.00000000000E+00 0.  1.
</event>
<event>
 7    1  0.1161807E-013  0.5052886E+02  0.7816164E-02  0.1300439E+00
        -11   -1    0    0    0    0  0.00000000000E+00  0.00000000000E+00  0.45593999997E+02  0.45594000000E+02  0.51100000000E-03 0. -1.
         11   -1    0    0    0    0 -0.00000000000E+00 -0.00000000000E+00 -0.45593999997E+02  0.45594000000E+02  0.51100000000E-03 0.  1.
    9900012    2    1    2    0    0 -0.74417982147E+01  0.33507443368E+02  0.21795335748E+02  0.50528858567E+02  0.29999996099E+02 0.  0.
        -12    1    1    2    0    0  0.74417982147E+01 -0.33507443368E+02 -0.21795335748E+02  0.40659141433E+02  0.00000000000E+00 0.  1.
         11    1    3    3    0    0 -0.46831622941E+01  0.61752509941E+01 -0.44256155127E+01  0.89247860950E+01  0.51100000000E-03 0. -1.
        -11    1    3    3    0    0 -0.71951749554E+01  0.43176715932E+01  0.39583372014E+01  0.92779989377E+01  0.51100000000E-03 0.  1.
        -12    1    3    3    0    0  0.44365390349E+01  0.23014520781E+02  0.22262614059E+02  0.32326073534E+02  0.00000000000E+00 0.  1.
</event>
<event>
 7    1  0.1388053E-013  0.5052886E+02  0.7816164E-02  0.1300439E+00
        -11   -1    0    0    0    0  0.00000000000E+00  0.00000000000E+00  0.45593999997E+02  0.45594000000E+02  0.51100000000E-03 0. -1.
         11   -1    0    0    0    0 -0.00000000000E+00 -0.00000000000E+00 -0.45593999997E+02  0.45594000000E+02  0.51100000000E-03 0.  1.
    9900012    2    1    2    0    0  0.44765076094E-01 -0.74097305775E+00 -0.40652366019E+02  0.50528857019E+02  0.29999991395E+02 0.  0.
         12    1    1    2    0    0 -0.44765076094E-01  0.74097305775E+00  0.40652366019E+02  0.40659142981E+02  0.00000000000E+00 0. -1.
         11    1    3    3    0    0  0.46213214128E+01  0.54902252805E+00 -0.60257870892E+00  0.46926686116E+01  0.51100000000E-03 0. -1.
        -11    1    3    3    0    0  0.45450457224E+01 -0.73398631109E+01 -0.73002446601E+01  0.11305954337E+02  0.51100000000E-03 0.  1.
        -12    1    3    3    0    0 -0.91216020591E+01  0.60498675251E+01 -0.32749542650E+02  0.34530234071E+02  0.00000000000E+00 0.  1.
</event>
<event>
 7    1  0.1161807E-013  0.5052889E+02  0.7816164E-02  0.1300439E+00
        -11   -1    0    0    0    0  0.00000000000E+00  0.00000000000E+00  0.45593999997E+02  0.45594000000E+02  0.51100000000E-03 0. -1.
         11   -1    0    0    0    0 -0.00000000000E+00 -0.00000000000E+00 -0.45593999997E+02  0.45594000000E+02  0.51100000000E-03 0.  1.
    9900012    2    1    2    0    0 -0.50768203259E+01  0.10704434487E+02  0.38894787690E+02  0.50528886240E+02  0.30000080214E+02 0.  0.
        -12    1    1    2    0    0  0.50768203259E+01 -0.10704434487E+02 -0.38894787690E+02  0.40659113760E+02  0.00000000000E+00 0.  1.
         11    1    3    3    0    0 -0.83277201850E+00 -0.41787215443E+01  0.86250722572E+01  0.96201400553E+01  0.51100000000E-03 0. -1.
        -11    1    3    3    0    0  0.49665216560E+01 -0.38760253039E+01  0.45620647080E+01  0.77783252809E+01  0.51100000000E-03 0.  1.
        -12    1    3    3    0    0 -0.92105699634E+01  0.18759181336E+02  0.25707650725E+02  0.33130420903E+02  0.00000000000E+00 0.  1.
</event>
<event>
 7    1  0.1161807E-013  0.5052889E+02  0.7816164E-02  0.1300439E+00
        -11   -1    0    0    0    0  0.00000000000E+00  0.00000000000E+00  0.45593999997E+02  0.45594000000E+02  0.51100000000E-03 0. -1.
         11   -1    0    0    0    0 -0.00000000000E+00 -0.00000000000E+00 -0.45593999997E+02  0.45594000000E+02  0.51100000000E-03 0.  1.
    9900012    2    1    2    0    0 -0.31857693288E+02  0.20212767088E+02 -0.15155668455E+02  0.50528894484E+02  0.30000105274E+02 0.  0.
         12    1    1    2    0    0  0.31857693288E+02 -0.20212767088E+02  0.15155668455E+02  0.40659105516E+02  0.00000000000E+00 0. -1.
         11    1    3    3    0    0 -0.35024853704E+01  0.88130315470E+01  0.21574825053E+01  0.97258243785E+01  0.51100000000E-03 0.  1.
        -11    1    3    3    0    0 -0.53725341864E+01 -0.98587147583E-01  0.45667256784E+01  0.70518668942E+01  0.51100000000E-03 0. -1.
        -12    1    3    3    0    0 -0.22982673732E+02  0.11498322689E+02 -0.21879876639E+02  0.33751203212E+02  0.00000000000E+00 0.  1.
</event>
<event>
 7    1  0.1161807E-013  0.5052885E+02  0.7816164E-02  0.1300439E+00
        -11   -1    0    0    0    0  0.00000000000E+00  0.00000000000E+00  0.45593999997E+02  0.45594000000E+02  0.51100000000E-03 0. -1.
         11   -1    0    0    0    0 -0.00000000000E+00 -0.00000000000E+00 -0.45593999997E+02  0.45594000000E+02  0.51100000000E-03 0.  1.
    9900012    2    1    2    0    0 -0.69919739909E+01  0.91456400697E+00  0.40043001875E+02  0.50528854328E+02  0.29999983216E+02 0.  0.
        -12    1    1    2    0    0  0.69919739909E+01 -0.91456400697E+00 -0.40043001875E+02  0.40659145672E+02  0.00000000000E+00 0.  1.
         11    1    3    3    0    0  0.23265225155E+01  0.99632887958E+01  0.11488071925E+02  0.15383615552E+02  0.51100000000E-03 0. -1.
        -11    1    3    3    0    0  0.42729607460E-01  0.31747373827E+01  0.12516417451E+02  0.12912842032E+02  0.51100000000E-03 0.  1.
        -12    1    3    3    0    0 -0.93612261139E+01 -0.12223462172E+02  0.16038512499E+02  0.22232396744E+02  0.00000000000E+00 0.  1.
</event>
<event>
 7    1  0.1161807E-013  0.5052885E+02  0.7816164E-02  0.1300439E+00
        -11   -1    0    0    0    0  0.00000000000E+00  0.00000000000E+00  0.45593999997E+02  0.45594000000E+02  0.51100000000E-03 0. -1.
         11   -1    0    0    0    0 -0.00000000000E+00 -0.00000000000E+00 -0.45593999997E+02  0.45594000000E+02  0.51100000000E-03 0.  1.
    9900012    2    1    2    0    0 -0.33376956591E+02  0.14739206889E+02  0.17941594904E+02  0.50528852460E+02  0.29999977538E+02 0.  0.
        -12    1    1    2    0    0  0.33376956591E+02 -0.14739206889E+02 -0.17941594904E+02  0.40659147540E+02  0.00000000000E+00 0.  1.
         11    1    3    3    0    0 -0.24480034583E+02  0.10384727926E+02  0.13635381594E+02  0.29883746398E+02  0.51100000000E-03 0. -1.
        -11    1    3    3    0    0 -0.90833371782E+01  0.17094237158E+01 -0.53171739370E+01  0.10663089734E+02  0.51100000000E-03 0.  1.
         12    1    3    3    0    0  0.18641517059E+00  0.26450552473E+01  0.96233872471E+01  0.99820163286E+01  0.00000000000E+00 0. -1.
</event>
<event>
 7    1  0.1161807E-013  0.5052887E+02  0.7816164E-02  0.1300439E+00
        -11   -1    0    0    0    0  0.00000000000E+00  0.00000000000E+00  0.45593999997E+02  0.45594000000E+02  0.51100000000E-03 0.  1.
         11   -1    0    0    0    0 -0.00000000000E+00 -0.00000000000E+00 -0.45593999997E+02  0.45594000000E+02  0.51100000000E-03 0. -1.
    9900012    2    1    2    0    0  0.37563106041E+02 -0.11906017630E+01  0.15516462464E+02  0.50528867257E+02  0.30000022514E+02 0.  0.
        -12    1    1    2    0    0 -0.37563106041E+02  0.11906017630E+01 -0.15516462464E+02  0.40659132743E+02  0.00000000000E+00 0.  1.
         11    1    3    3    0    0  0.14477883298E+02 -0.71407415174E+00  0.11943488220E+02  0.18782063726E+02  0.51100000000E-03 0. -1.
        -11    1    3    3    0    0  0.77637597552E+01  0.27908175410E+01  0.11528615645E+02  0.14176516040E+02  0.51100000000E-03 0.  1.
        -12    1    3    3    0    0  0.15321462988E+02 -0.32673451522E+01 -0.79556414003E+01  0.17570287491E+02  0.00000000000E+00 0.  1.
</event>
<event>
 7    1  0.1161807E-013  0.5052875E+02  0.7816164E-02  0.1300439E+00
        -11   -1    0    0    0    0  0.00000000000E+00  0.00000000000E+00  0.45593999997E+02  0.45594000000E+02  0.51100000000E-03 0. -1.
         11   -1    0    0    0    0 -0.00000000000E+00 -0.00000000000E+00 -0.45593999997E+02  0.45594000000E+02  0.51100000000E-03 0.  1.
    9900012    2    1    2    0    0  0.99000349442E+01  0.17322088811E+02 -0.35427520495E+02  0.50528749379E+02  0.29999664210E+02 0.  0.
         12    1    1    2    0    0 -0.99000349442E+01 -0.17322088811E+02  0.35427520495E+02  0.40659250621E+02  0.00000000000E+00 0. -1.
         11    1    3    3    0    0  0.20048787025E+01  0.13917852204E+02 -0.77830365640E+01  0.16071770500E+02  0.51100000000E-03 0. -1.
        -11    1    3    3    0    0  0.10925258641E+01  0.10315409642E+02 -0.18031570003E+02  0.20802375006E+02  0.51100000000E-03 0.  1.
        -12    1    3    3    0    0  0.68026303776E+01 -0.69111730345E+01 -0.96129139277E+01  0.13654603874E+02  0.00000000000E+00 0.  1.
</event>
<event>
 7    1  0.1161807E-013  0.5052886E+02  0.7816164E-02  0.1300439E+00
        -11   -1    0    0    0    0  0.00000000000E+00  0.00000000000E+00  0.45593999997E+02  0.45594000000E+02  0.51100000000E-03 0. -1.
         11   -1    0    0    0    0 -0.00000000000E+00 -0.00000000000E+00 -0.45593999997E+02  0.45594000000E+02  0.51100000000E-03 0.  1.
    9900012    2    1    2    0    0 -0.15238127111E+02 -0.14808153680E+02  0.34665305144E+02  0.50528864323E+02  0.30000013597E+02 0.  0.
        -12    1    1    2    0    0  0.15238127111E+02  0.14808153680E+02 -0.34665305144E+02  0.40659135677E+02  0.00000000000E+00 0.  1.
         11    1    3    3    0    0 -0.21209077864E+01 -0.16316304386E+02  0.11687848705E+02  0.20182315186E+02  0.51100000000E-03 0. -1.
        -11    1    3    3    0    0 -0.13816945841E+02 -0.37453780831E+01  0.18609095731E+02  0.23478379279E+02  0.51100000000E-03 0.  1.
        -12    1    3    3    0    0  0.69972651648E+00  0.52535287888E+01  0.43683607080E+01  0.68681698587E+01  0.00000000000E+00 0.  1.
</event>
<event>
 7    1  0.1161807E-013  0.5052885E+02  0.7816164E-02  0.1300439E+00
        -11   -1    0    0    0    0  0.00000000000E+00  0.00000000000E+00  0.45593999997E+02  0.45594000000E+02  0.51100000000E-03 0. -1.
         11   -1    0    0    0    0 -0.00000000000E+00 -0.00000000000E+00 -0.45593999997E+02  0.45594000000E+02  0.51100000000E-03 0.  1.
    9900012    2    1    2    0    0  0.73667225774E+01 -0.21569382092E+02  0.33669865435E+02  0.50528847479E+02  0.29999962396E+02 0.  0.
        -12    1    1    2    0    0 -0.73667225774E+01  0.21569382092E+02 -0.33669865435E+02  0.40659152521E+02  0.00000000000E+00 0.  1.
         11    1    3    3    0    0  0.73224085014E+01 -0.16796594865E+02  0.38120308020E+02  0.42295403404E+02  0.51100000000E-03 0. -1.
        -11    1    3    3    0    0  0.89491689004E+00 -0.42531590361E+01 -0.76186172045E+00  0.44125583927E+01  0.51100000000E-03 0.  1.
        -12    1    3    3    0    0 -0.85060281405E+00 -0.51962819151E+00 -0.36885808646E+01  0.38208856826E+01  0.00000000000E+00 0.  1.
</event>
<event>
 7    1  0.1161807E-013  0.5052888E+02  0.7816164E-02  0.1300439E+00
        -11   -1    0    0    0    0  0.00000000000E+00  0.00000000000E+00  0.45593999997E+02  0.45594000000E+02  0.51100000000E-03 0. -1.
         11   -1    0    0    0    0 -0.00000000000E+00 -0.00000000000E+00 -0.45593999997E+02  0.45594000000E+02  0.51100000000E-03 0.  1.
    9900012    2    1    2    0    0 -0.66637876773E+01  0.18420711432E+02 -0.35629138613E+02  0.50528878094E+02  0.30000055453E+02 0.  0.
         12    1    1    2    0    0  0.66637876773E+01 -0.18420711432E+02  0.35629138613E+02  0.40659121906E+02  0.00000000000E+00 0. -1.
         11    1    3    3    0    0 -0.10278162685E+02  0.30493571974E+01 -0.15265629661E+02  0.18654186037E+02  0.51100000000E-03 0. -1.
        -11    1    3    3    0    0  0.19476770839E+01  0.15094537092E+02 -0.23681954328E+02  0.28150905085E+02  0.51100000000E-03 0.  1.
        -12    1    3    3    0    0  0.16666979239E+01  0.27681714244E+00  0.33184453755E+01  0.37237869716E+01  0.00000000000E+00 0.  1.
</event>
<event>
 7    1  0.1161807E-013  0.5052884E+02  0.7816164E-02  0.1300439E+00
        -11   -1    0    0    0    0  0.00000000000E+00  0.00000000000E+00  0.45593999997E+02  0.45594000000E+02  0.51100000000E-03 0. -1.
         11   -1    0    0    0    0 -0.00000000000E+00 -0.00000000000E+00 -0.45593999997E+02  0.45594000000E+02  0.51100000000E-03 0.  1.
    9900012    2    1    2    0    0 -0.90833900176E+01  0.11192035256E+02  0.38018383118E+02  0.50528842578E+02  0.29999947500E+02 0.  0.
        -12    1    1    2    0    0  0.90833900176E+01 -0.11192035256E+02 -0.38018383118E+02  0.40659157422E+02  0.00000000000E+00 0.  1.
         11    1    3    3    0    0 -0.43745716283E+01 -0.27435751850E+01  0.14841967780E+02  0.15714582068E+02  0.51100000000E-03 0. -1.
        -11    1    3    3    0    0 -0.83537035941E+01  0.10924061681E+00  0.17571089317E+02  0.19456091007E+02  0.51100000000E-03 0.  1.
        -12    1    3    3    0    0  0.36448852049E+01  0.13826369824E+02  0.56053260214E+01  0.15358169503E+02  0.00000000000E+00 0.  1.
</event>
<event>
 7    1  0.1161807E-013  0.5052886E+02  0.7816164E-02  0.1300439E+00
        -11   -1    0    0    0    0  0.00000000000E+00  0.00000000000E+00  0.45593999997E+02  0.45594000000E+02  0.51100000000E-03 0. -1.
         11   -1    0    0    0    0 -0.00000000000E+00 -0.00000000000E+00 -0.45593999997E+02  0.45594000000E+02  0.51100000000E-03 0.  1.
    9900012    2    1    2    0    0  0.95584974998E+01 -0.11342591072E+02  0.37856922312E+02  0.50528858179E+02  0.29999994922E+02 0.  0.
        -12    1    1    2    0    0 -0.95584974998E+01  0.11342591072E+02 -0.37856922312E+02  0.40659141821E+02  0.00000000000E+00 0.  1.
         11    1    3    3    0    0 -0.10992267478E+00 -0.29862453636E+01  0.10995215205E+02  0.11394055557E+02  0.51100000000E-03 0. -1.
        -11    1    3    3    0    0 -0.51947971513E+01  0.40897255350E+01  0.15038826137E+02  0.16427965919E+02  0.51100000000E-03 0.  1.
        -12    1    3    3    0    0  0.14863217326E+02 -0.12446071243E+02  0.11822880970E+02  0.22706836704E+02  0.00000000000E+00 0.  1.
</event>
<event>
 7    1  0.1161807E-013  0.5052885E+02  0.7816164E-02  0.1300439E+00
        -11   -1    0    0    0    0  0.00000000000E+00  0.00000000000E+00  0.45593999997E+02  0.45594000000E+02  0.51100000000E-03 0. -1.
         11   -1    0    0    0    0 -0.00000000000E+00 -0.00000000000E+00 -0.45593999997E+02  0.45594000000E+02  0.51100000000E-03 0.  1.
    9900012    2    1    2    0    0  0.11574534071E+02 -0.12919270610E+02  0.36773479876E+02  0.50528853252E+02  0.29999979946E+02 0.  0.
        -12    1    1    2    0    0 -0.11574534071E+02  0.12919270610E+02 -0.36773479876E+02  0.40659146748E+02  0.00000000000E+00 0.  1.
         11    1    3    3    0    0  0.10293491657E+02 -0.26007289362E+01  0.19097372470E+02  0.21850157825E+02  0.51100000000E-03 0. -1.
        -11    1    3    3    0    0  0.21714858164E+00 -0.11862063812E+02  0.21423121829E+02  0.24488892596E+02  0.51100000000E-03 0.  1.
        -12    1    3    3    0    0  0.10638938324E+01  0.15435221384E+01 -0.37470144230E+01  0.41898028312E+01  0.00000000000E+00 0.  1.
</event>
<event>
 7    1  0.1161807E-013  0.5052886E+02  0.7816164E-02  0.1300439E+00
        -11   -1    0    0    0    0  0.00000000000E+00  0.00000000000E+00  0.45593999997E+02  0.45594000000E+02  0.51100000000E-03 0. -1.
         11   -1    0    0    0    0 -0.00000000000E+00 -0.00000000000E+00 -0.45593999997E+02  0.45594000000E+02  0.51100000000E-03 0.  1.
    9900012    2    1    2    0    0 -0.19074675990E+02  0.16120613585E+02 -0.32085015753E+02  0.50528859793E+02  0.29999999828E+02 0.  0.
         12    1    1    2    0    0  0.19074675990E+02 -0.16120613585E+02  0.32085015753E+02  0.40659140207E+02  0.00000000000E+00 0. -1.
         11    1    3    3    0    0 -0.34137036303E+01 -0.24244646556E+00 -0.16707359439E+00  0.34263780602E+01  0.51100000000E-03 0. -1.
        -11    1    3    3    0    0  0.54254739765E+01 -0.27875464320E+01 -0.66738025361E+01  0.90413396979E+01  0.51100000000E-03 0.  1.
        -12    1    3    3    0    0 -0.21086446336E+02  0.19150606483E+02 -0.25244139622E+02  0.38061142035E+02  0.00000000000E+00 0.  1.
</event>
<event>
 7    1  0.1161807E-013  0.5052886E+02  0.7816164E-02  0.1300439E+00
        -11   -1    0    0    0    0  0.00000000000E+00  0.00000000000E+00  0.45593999997E+02  0.45594000000E+02  0.51100000000E-03 0. -1.
         11   -1    0    0    0    0 -0.00000000000E+00 -0.00000000000E+00 -0.45593999997E+02  0.45594000000E+02  0.51100000000E-03 0.  1.
    9900012    2    1    2    0    0 -0.25649029520E+02 -0.28996979546E+02  0.12428512525E+02  0.50528862507E+02  0.30000008077E+02 0.  0.
        -12    1    1    2    0    0  0.25649029520E+02  0.28996979546E+02 -0.12428512525E+02  0.40659137493E+02  0.00000000000E+00 0.  1.
         11    1    3    3    0    0 -0.17976598708E+01 -0.19740507247E+01  0.71720683316E+01  0.76529093611E+01  0.51100000000E-03 0. -1.
        -11    1    3    3    0    0 -0.96404761462E+01  0.21134291542E+01  0.32734937431E+01  0.10398130825E+02  0.51100000000E-03 0.  1.
         12    1    3    3    0    0 -0.14210893503E+02 -0.29136357975E+02  0.19829504507E+01  0.32477822321E+02  0.00000000000E+00 0. -1.
</event>
<event>
 7    1  0.1161807E-013  0.5052886E+02  0.7816164E-02  0.1300439E+00
        -11   -1    0    0    0    0  0.00000000000E+00  0.00000000000E+00  0.45593999997E+02  0.45594000000E+02  0.51100000000E-03 0. -1.
         11   -1    0    0    0    0 -0.00000000000E+00 -0.00000000000E+00 -0.45593999997E+02  0.45594000000E+02  0.51100000000E-03 0.  1.
    9900012    2    1    2    0    0 -0.25746284664E+02  0.18793732505E+01  0.31412775918E+02  0.50528859470E+02  0.29999998844E+02 0.  0.
        -12    1    1    2    0    0  0.25746284664E+02 -0.18793732505E+01 -0.31412775918E+02  0.40659140530E+02  0.00000000000E+00 0.  1.
         11    1    3    3    0    0 -0.59467198005E+00 -0.54734383397E+00  0.83740991880E+01  0.84130112034E+01  0.51100000000E-03 0. -1.
        -11    1    3    3    0    0 -0.20750270088E+01 -0.86792005354E+01  0.99137167847E+01  0.13338517150E+02  0.51100000000E-03 0.  1.
         12    1    3    3    0    0 -0.23076585675E+02  0.11105917620E+02  0.13124959945E+02  0.28777331116E+02  0.00000000000E+00 0. -1.
</event>
<event>
 7    1  0.1161807E-013  0.5052887E+02  0.7816164E-02  0.1300439E+00
        -11   -1    0    0    0    0  0.00000000000E+00  0.00000000000E+00  0.45593999997E+02  0.45594000000E+02  0.51100000000E-03 0. -1.
         11   -1    0    0    0    0 -0.00000000000E+00 -0.00000000000E+00 -0.45593999997E+02  0.45594000000E+02  0.51100000000E-03 0.  1.
    9900012    2    1    2    0    0 -0.15424382573E+02  0.32294954689E+02 -0.19294800411E+02  0.50528868196E+02  0.30000025369E+02 0.  0.
         12    1    1    2    0    0  0.15424382573E+02 -0.32294954689E+02  0.19294800411E+02  0.40659131804E+02  0.00000000000E+00 0. -1.
         11    1    3    3    0    0  0.46970507387E-01 -0.99505681278E+00  0.30644308814E+01  0.32222788795E+01  0.51100000000E-03 0. -1.
        -11    1    3    3    0    0 -0.10641743449E+02  0.85832711388E+01 -0.53603078575E-01  0.13671946482E+02  0.51100000000E-03 0.  1.
        -12    1    3    3    0    0 -0.48296096314E+01  0.24706740363E+02 -0.22305628214E+02  0.33634642834E+02  0.00000000000E+00 0.  1.
</event>
<event>
 7    1  0.1161807E-013  0.5052876E+02  0.7816164E-02  0.1300439E+00
        -11   -1    0    0    0    0  0.00000000000E+00  0.00000000000E+00  0.45593999997E+02  0.45594000000E+02  0.51100000000E-03 0. -1.
         11   -1    0    0    0    0 -0.00000000000E+00 -0.00000000000E+00 -0.45593999997E+02  0.45594000000E+02  0.51100000000E-03 0.  1.
    9900012    2    1    2    0    0 -0.19563993806E+02 -0.17017274413E+02 -0.31318302431E+02  0.50528763051E+02  0.29999705770E+02 0.  0.
         12    1    1    2    0    0  0.19563993806E+02  0.17017274413E+02  0.31318302431E+02  0.40659236949E+02  0.00000000000E+00 0. -1.
         11    1    3    3    0    0 -0.14101701463E+01 -0.88827255921E+01 -0.73100227005E+01  0.11589988176E+02  0.51100000000E-03 0. -1.
        -11    1    3    3    0    0 -0.13056120105E+02 -0.16379769461E+02 -0.16997698120E+02  0.26975560447E+02  0.51100000000E-03 0.  1.
         12    1    3    3    0    0 -0.50977035553E+01  0.82452206399E+01 -0.70105816099E+01  0.11963214428E+02  0.00000000000E+00 0. -1.
</event>
<event>
 7    1  0.1161807E-013  0.5052886E+02  0.7816164E-02  0.1300439E+00
        -11   -1    0    0    0    0  0.00000000000E+00  0.00000000000E+00  0.45593999997E+02  0.45594000000E+02  0.51100000000E-03 0. -1.
         11   -1    0    0    0    0 -0.00000000000E+00 -0.00000000000E+00 -0.45593999997E+02  0.45594000000E+02  0.51100000000E-03 0.  1.
    9900012    2    1    2    0    0 -0.34771608527E+02  0.20563397149E+02 -0.46095040375E+01  0.50528860937E+02  0.30000003305E+02 0.  0.
         12    1    1    2    0    0  0.34771608527E+02 -0.20563397149E+02  0.46095040375E+01  0.40659139063E+02  0.00000000000E+00 0. -1.
         11    1    3    3    0    0 -0.89741074117E+01  0.72957588331E+01  0.48569006506E+01  0.12544009924E+02  0.51100000000E-03 0. -1.
        -11    1    3    3    0    0 -0.15938139866E+02  0.60255471139E+01  0.61786555405E+01  0.18124770480E+02  0.51100000000E-03 0.  1.
        -12    1    3    3    0    0 -0.98593612495E+01  0.72420912017E+01 -0.15645060229E+02  0.19860080533E+02  0.00000000000E+00 0.  1.
</event>
<event>
 7    1  0.1161807E-013  0.5052886E+02  0.7816164E-02  0.1300439E+00
        -11   -1    0    0    0    0  0.00000000000E+00  0.00000000000E+00  0.45593999997E+02  0.45594000000E+02  0.51100000000E-03 0. -1.
         11   -1    0    0    0    0 -0.00000000000E+00 -0.00000000000E+00 -0.45593999997E+02  0.45594000000E+02  0.51100000000E-03 0.  1.
    9900012    2    1    2    0    0  0.92559558755E-01  0.28482564837E+02 -0.29015520981E+02  0.50528861731E+02  0.30000005718E+02 0.  0.
         12    1    1    2    0    0 -0.92559558755E-01 -0.28482564837E+02  0.29015520981E+02  0.40659138269E+02  0.00000000000E+00 0. -1.
         11    1    3    3    0    0 -0.23839776955E+00  0.28186933458E+01 -0.15300339483E+01  0.32160332427E+01  0.51100000000E-03 0. -1.
        -11    1    3    3    0    0  0.93762078269E+01  0.23094936206E+02 -0.88692068110E+01  0.26456609407E+02  0.51100000000E-03 0.  1.
         12    1    3    3    0    0 -0.90452504986E+01  0.25689352850E+01 -0.18616280222E+02  0.20856219082E+02  0.00000000000E+00 0. -1.
</event>
<event>
 7    1  0.1161807E-013  0.5052886E+02  0.7816164E-02  0.1300439E+00
        -11   -1    0    0    0    0  0.00000000000E+00  0.00000000000E+00  0.45593999997E+02  0.45594000000E+02  0.51100000000E-03 0. -1.
         11   -1    0    0    0    0 -0.00000000000E+00 -0.00000000000E+00 -0.45593999997E+02  0.45594000000E+02  0.51100000000E-03 0.  1.
    9900012    2    1    2    0    0  0.28604097681E+02 -0.21223577355E+02  0.19609453693E+02  0.50528864322E+02  0.30000013594E+02 0.  0.
        -12    1    1    2    0    0 -0.28604097681E+02  0.21223577355E+02 -0.19609453693E+02  0.40659135678E+02  0.00000000000E+00 0.  1.
         11    1    3    3    0    0  0.89005247992E+01 -0.18298197927E+02  0.10923832407E+02  0.23094880467E+02  0.51100000000E-03 0. -1.
        -11    1    3    3    0    0  0.86306820584E+01 -0.96421796440E+01  0.29651220581E+01  0.13276002793E+02  0.51100000000E-03 0.  1.
        -12    1    3    3    0    0  0.11072890823E+02  0.67168002158E+01  0.57204992281E+01  0.14157981062E+02  0.00000000000E+00 0.  1.
</event>
<event>
 7    1  0.1161807E-013  0.5052886E+02  0.7816164E-02  0.1300439E+00
        -11   -1    0    0    0    0  0.00000000000E+00  0.00000000000E+00  0.45593999997E+02  0.45594000000E+02  0.51100000000E-03 0. -1.
         11   -1    0    0    0    0 -0.00000000000E+00 -0.00000000000E+00 -0.45593999997E+02  0.45594000000E+02  0.51100000000E-03 0.  1.
    9900012    2    1    2    0    0  0.83366950020E+01  0.47242742572E+01 -0.39513878587E+02  0.50528857710E+02  0.29999993495E+02 0.  0.
         12    1    1    2    0    0 -0.83366950020E+01 -0.47242742572E+01  0.39513878587E+02  0.40659142290E+02  0.00000000000E+00 0. -1.
         11    1    3    3    0    0 -0.95319535945E+01 -0.25656161113E+01 -0.96779327204E+01  0.13823997517E+02  0.51100000000E-03 0. -1.
        -11    1    3    3    0    0  0.19918373536E+01 -0.15127561249E+01 -0.75915595483E+01  0.79929734000E+01  0.51100000000E-03 0.  1.
        -12    1    3    3    0    0  0.15876811243E+02  0.88026464933E+01 -0.22244386318E+02  0.28711886792E+02  0.00000000000E+00 0.  1.
</event>
<event>
 7    1  0.1161807E-013  0.5052885E+02  0.7816164E-02  0.1300439E+00
        -11   -1    0    0    0    0  0.00000000000E+00  0.00000000000E+00  0.45593999997E+02  0.45594000000E+02  0.51100000000E-03 0. -1.
         11   -1    0    0    0    0 -0.00000000000E+00 -0.00000000000E+00 -0.45593999997E+02  0.45594000000E+02  0.51100000000E-03 0.  1.
    9900012    2    1    2    0    0 -0.98037675307E+01  0.25399252928E+01 -0.39377677424E+02  0.50528849030E+02  0.29999967110E+02 0.  0.
         12    1    1    2    0    0  0.98037675307E+01 -0.25399252928E+01  0.39377677424E+02  0.40659150970E+02  0.00000000000E+00 0. -1.
         11    1    3    3    0    0 -0.67556353478E+01 -0.74033567205E+01 -0.74318568276E+01  0.12477211061E+02  0.51100000000E-03 0. -1.
        -11    1    3    3    0    0 -0.14976455591E+01 -0.39264102853E+01 -0.13346900852E+01  0.44091992282E+01  0.51100000000E-03 0.  1.
        -12    1    3    3    0    0 -0.15504866237E+01  0.13869692299E+02 -0.30611130512E+02  0.33642438741E+02  0.00000000000E+00 0.  1.
</event>
<event>
 7    1  0.1161807E-013  0.5052886E+02  0.7816164E-02  0.1300439E+00
        -11   -1    0    0    0    0  0.00000000000E+00  0.00000000000E+00  0.45593999997E+02  0.45594000000E+02  0.51100000000E-03 0. -1.
         11   -1    0    0    0    0 -0.00000000000E+00 -0.00000000000E+00 -0.45593999997E+02  0.45594000000E+02  0.51100000000E-03 0.  1.
    9900012    2    1    2    0    0  0.16312309232E+02 -0.30142042662E+02  0.21875357319E+02  0.50528862944E+02  0.30000009404E+02 0.  0.
        -12    1    1    2    0    0 -0.16312309232E+02  0.30142042662E+02 -0.21875357319E+02  0.40659137056E+02  0.00000000000E+00 0.  1.
         11    1    3    3    0    0  0.78995005427E+01  0.18603017142E+01  0.61880648085E+01  0.10205634602E+02  0.51100000000E-03 0. -1.
        -11    1    3    3    0    0  0.11258298805E+01 -0.20322077722E+02  0.12763007987E+01  0.20393216516E+02  0.51100000000E-03 0.  1.
        -12    1    3    3    0    0  0.72869788090E+01 -0.11680266654E+02  0.14410991712E+02  0.19930011826E+02  0.00000000000E+00 0.  1.
</event>
<event>
 7    1  0.1161807E-013  0.5052887E+02  0.7816164E-02  0.1300439E+00
        -11   -1    0    0    0    0  0.00000000000E+00  0.00000000000E+00  0.45593999997E+02  0.45594000000E+02  0.51100000000E-03 0. -1.
         11   -1    0    0    0    0 -0.00000000000E+00 -0.00000000000E+00 -0.45593999997E+02  0.45594000000E+02  0.51100000000E-03 0.  1.
    9900012    2    1    2    0    0 -0.24404638978E+02  0.27216105546E+02 -0.17800628804E+02  0.50528865841E+02  0.30000018212E+02 0.  0.
         12    1    1    2    0    0  0.24404638978E+02 -0.27216105546E+02  0.17800628804E+02  0.40659134159E+02  0.00000000000E+00 0. -1.
         11    1    3    3    0    0 -0.66840046335E+01 -0.30775540628E+01 -0.37231447047E+00  0.73678949013E+01  0.51100000000E-03 0. -1.
        -11    1    3    3    0    0  0.49433533089E-01  0.39814635387E+01 -0.96968079977E+01  0.10482489265E+02  0.51100000000E-03 0.  1.
         12    1    3    3    0    0 -0.17770067877E+02  0.26312196070E+02 -0.77315063357E+01  0.32678481675E+02  0.00000000000E+00 0. -1.
</event>
<event>
 7    1  0.1161807E-013  0.5052886E+02  0.7816164E-02  0.1300439E+00
        -11   -1    0    0    0    0  0.00000000000E+00  0.00000000000E+00  0.45593999997E+02  0.45594000000E+02  0.51100000000E-03 0. -1.
         11   -1    0    0    0    0 -0.00000000000E+00 -0.00000000000E+00 -0.45593999997E+02  0.45594000000E+02  0.51100000000E-03 0.  1.
    9900012    2    1    2    0    0 -0.20723766467E+02  0.19127448355E+02 -0.29288772456E+02  0.50528856266E+02  0.29999989107E+02 0.  0.
         12    1    1    2    0    0  0.20723766467E+02 -0.19127448355E+02  0.29288772456E+02  0.40659143734E+02  0.00000000000E+00 0. -1.
         11    1    3    3    0    0  0.44914504507E+01  0.52419165901E+01 -0.63517564398E+00  0.69321183666E+01  0.51100000000E-03 0. -1.
        -11    1    3    3    0    0 -0.54399490271E+01  0.66275067837E+01 -0.18116729706E+02  0.20043272864E+02  0.51100000000E-03 0.  1.
         12    1    3    3    0    0 -0.19775267891E+02  0.72580249814E+01 -0.10536867106E+02  0.23553465036E+02  0.00000000000E+00 0. -1.
</event>
<event>
 7    1  0.1161807E-013  0.5052886E+02  0.7816164E-02  0.1300439E+00
        -11   -1    0    0    0    0  0.00000000000E+00  0.00000000000E+00  0.45593999997E+02  0.45594000000E+02  0.51100000000E-03 0. -1.
         11   -1    0    0    0    0 -0.00000000000E+00 -0.00000000000E+00 -0.45593999997E+02  0.45594000000E+02  0.51100000000E-03 0.  1.
    9900012    2    1    2    0    0  0.21656549932E+02  0.94623584673E+01 -0.33085088433E+02  0.50528862536E+02  0.30000008164E+02 0.  0.
         12    1    1    2    0    0 -0.21656549932E+02 -0.94623584673E+01  0.33085088433E+02  0.40659137464E+02  0.00000000000E+00 0. -1.
         11    1    3    3    0    0 -0.65681288891E+01  0.31946420130E+00 -0.37003166306E+01  0.75455097844E+01  0.51100000000E-03 0. -1.
        -11    1    3    3    0    0  0.98154041766E+00  0.14601283426E+01 -0.60456818283E+01  0.62964803977E+01  0.51100000000E-03 0.  1.
         12    1    3    3    0    0  0.27243138403E+02  0.76827659233E+01 -0.23339089974E+02  0.36686872354E+02  0.00000000000E+00 0. -1.
</event>
<event>
 7    1  0.1161807E-013  0.5052885E+02  0.7816164E-02  0.1300439E+00
        -11   -1    0    0    0    0  0.00000000000E+00  0.00000000000E+00  0.45593999997E+02  0.45594000000E+02  0.51100000000E-03 0. -1.
         11   -1    0    0    0    0 -0.00000000000E+00 -0.00000000000E+00 -0.45593999997E+02  0.45594000000E+02  0.51100000000E-03 0.  1.
    9900012    2    1    2    0    0  0.11742411817E+02  0.43091967120E+01 -0.38687380509E+02  0.50528845775E+02  0.29999957219E+02 0.  0.
         12    1    1    2    0    0 -0.11742411817E+02 -0.43091967120E+01  0.38687380509E+02  0.40659154225E+02  0.00000000000E+00 0. -1.
         11    1    3    3    0    0 -0.61706088669E+00 -0.24996478887E+00 -0.15058063823E+02  0.15072774558E+02  0.51100000000E-03 0. -1.
        -11    1    3    3    0    0 -0.42353325212E+01 -0.55153150520E+01 -0.73746303978E+01  0.10136168677E+02  0.51100000000E-03 0.  1.
         12    1    3    3    0    0  0.16594805225E+02  0.10074476553E+02 -0.16254686289E+02  0.25319902540E+02  0.00000000000E+00 0. -1.
</event>
<event>
 7    1  0.1161807E-013  0.5052883E+02  0.7816164E-02  0.1300439E+00
        -11   -1    0    0    0    0  0.00000000000E+00  0.00000000000E+00  0.45593999997E+02  0.45594000000E+02  0.51100000000E-03 0. -1.
         11   -1    0    0    0    0 -0.00000000000E+00 -0.00000000000E+00 -0.45593999997E+02  0.45594000000E+02  0.51100000000E-03 0.  1.
    9900012    2    1    2    0    0 -0.24457443442E+02  0.11927512067E+02 -0.30211518590E+02  0.50528832038E+02  0.29999915464E+02 0.  0.
         12    1    1    2    0    0  0.24457443442E+02 -0.11927512067E+02  0.30211518590E+02  0.40659167962E+02  0.00000000000E+00 0. -1.
         11    1    3    3    0    0 -0.29471920533E+01 -0.72785179620E+01 -0.10709446445E+01  0.79252562996E+01  0.51100000000E-03 0. -1.
        -11    1    3    3    0    0 -0.69321634714E+01  0.16507312396E+01 -0.12402426886E+02  0.14303845530E+02  0.51100000000E-03 0.  1.
        -12    1    3    3    0    0 -0.14578087917E+02  0.17555298790E+02 -0.16738147060E+02  0.28299730209E+02  0.00000000000E+00 0.  1.
</event>
<event>
 7    1  0.1161807E-013  0.5052884E+02  0.7816164E-02  0.1300439E+00
        -11   -1    0    0    0    0  0.00000000000E+00  0.00000000000E+00  0.45593999997E+02  0.45594000000E+02  0.51100000000E-03 0. -1.
         11   -1    0    0    0    0 -0.00000000000E+00 -0.00000000000E+00 -0.45593999997E+02  0.45594000000E+02  0.51100000000E-03 0.  1.
    9900012    2    1    2    0    0 -0.52490444203E+01  0.37198596101E+02  0.15552456517E+02  0.50528844537E+02  0.29999953456E+02 0.  0.
        -12    1    1    2    0    0  0.52490444203E+01 -0.37198596101E+02 -0.15552456517E+02  0.40659155463E+02  0.00000000000E+00 0.  1.
         11    1    3    3    0    0  0.15697469237E+01  0.91371251267E+01  0.85999801601E+01  0.12645585000E+02  0.51100000000E-03 0. -1.
        -11    1    3    3    0    0  0.58767520431E+01  0.22434212542E+02  0.26327800253E+01  0.23340129346E+02  0.51100000000E-03 0.  1.
         12    1    3    3    0    0 -0.12695543387E+02  0.56272584319E+01  0.43196963314E+01  0.14543130191E+02  0.00000000000E+00 0. -1.
</event>
<event>
 7    1  0.1161807E-013  0.5052886E+02  0.7816164E-02  0.1300439E+00
        -11   -1    0    0    0    0  0.00000000000E+00  0.00000000000E+00  0.45593999997E+02  0.45594000000E+02  0.51100000000E-03 0. -1.
         11   -1    0    0    0    0 -0.00000000000E+00 -0.00000000000E+00 -0.45593999997E+02  0.45594000000E+02  0.51100000000E-03 0.  1.
    9900012    2    1    2    0    0 -0.18669802723E+02  0.39193787551E+01 -0.35906021665E+02  0.50528862585E+02  0.30000008312E+02 0.  0.
         12    1    1    2    0    0  0.18669802723E+02 -0.39193787551E+01  0.35906021665E+02  0.40659137415E+02  0.00000000000E+00 0. -1.
         11    1    3    3    0    0 -0.11186882561E+02 -0.91701384696E+00 -0.39155323051E+01  0.11887752072E+02  0.51100000000E-03 0. -1.
        -11    1    3    3    0    0 -0.12320573512E+01 -0.72424723287E+01 -0.16284287751E+02  0.17864752966E+02  0.51100000000E-03 0.  1.
         12    1    3    3    0    0 -0.62508628108E+01  0.12078864931E+02 -0.15706201610E+02  0.20776357546E+02  0.00000000000E+00 0. -1.
</event>
<event>
 7    1  0.1161807E-013  0.5052886E+02  0.7816164E-02  0.1300439E+00
        -11   -1    0    0    0    0  0.00000000000E+00  0.00000000000E+00  0.45593999997E+02  0.45594000000E+02  0.51100000000E-03 0. -1.
         11   -1    0    0    0    0 -0.00000000000E+00 -0.00000000000E+00 -0.45593999997E+02  0.45594000000E+02  0.51100000000E-03 0.  1.
    9900012    2    1    2    0    0 -0.47667538242E+01 -0.45656203895E+01  0.40119806102E+02  0.50528859906E+02  0.30000000170E+02 0.  0.
        -12    1    1    2    0    0  0.47667538242E+01  0.45656203895E+01 -0.40119806102E+02  0.40659140094E+02  0.00000000000E+00 0.  1.
         11    1    3    3    0    0 -0.22818773057E+01  0.82831305574E+01  0.12270447077E+02  0.14979355380E+02  0.51100000000E-03 0. -1.
        -11    1    3    3    0    0  0.31770583834E+01 -0.67504328514E+01  0.11070380158E+01  0.75423853709E+01  0.51100000000E-03 0.  1.
         12    1    3    3    0    0 -0.56619349019E+01 -0.60983180956E+01  0.26742321009E+02  0.28007119155E+02  0.00000000000E+00 0. -1.
</event>
<event>
 7    1  0.1161807E-013  0.5052883E+02  0.7816164E-02  0.1300439E+00
        -11   -1    0    0    0    0  0.00000000000E+00  0.00000000000E+00  0.45593999997E+02  0.45594000000E+02  0.51100000000E-03 0. -1.
         11   -1    0    0    0    0 -0.00000000000E+00 -0.00000000000E+00 -0.45593999997E+02  0.45594000000E+02  0.51100000000E-03 0.  1.
    9900012    2    1    2    0    0  0.39416327157E+02 -0.99675908098E+01  0.40986959552E+00  0.50528834906E+02  0.29999924180E+02 0.  0.
        -12    1    1    2    0    0 -0.39416327157E+02  0.99675908098E+01 -0.40986959552E+00  0.40659165094E+02  0.00000000000E+00 0.  1.
         11    1    3    3    0    0  0.15259456341E+02 -0.67793376493E+01  0.90046828894E+01  0.18970891940E+02  0.51100000000E-03 0. -1.
        -11    1    3    3    0    0  0.51314318355E+01 -0.46395881312E+01  0.46458959945E+01  0.83331698988E+01  0.51100000000E-03 0.  1.
        -12    1    3    3    0    0  0.19025438980E+02  0.14513349707E+01 -0.13240709288E+02  0.23224773068E+02  0.00000000000E+00 0.  1.
</event>
<event>
 7    1  0.1161807E-013  0.5052884E+02  0.7816164E-02  0.1300439E+00
        -11   -1    0    0    0    0  0.00000000000E+00  0.00000000000E+00  0.45593999997E+02  0.45594000000E+02  0.51100000000E-03 0.  1.
         11   -1    0    0    0    0 -0.00000000000E+00 -0.00000000000E+00 -0.45593999997E+02  0.45594000000E+02  0.51100000000E-03 0. -1.
    9900012    2    1    2    0    0  0.19090424738E+02  0.22062369194E+02 -0.28319154506E+02  0.50528844044E+02  0.29999951957E+02 0.  0.
         12    1    1    2    0    0 -0.19090424738E+02 -0.22062369194E+02  0.28319154506E+02  0.40659155956E+02  0.00000000000E+00 0. -1.
         11    1    3    3    0    0  0.27310779767E+01  0.13697869510E+02 -0.45112614070E+01  0.14677939084E+02  0.51100000000E-03 0. -1.
        -11    1    3    3    0    0  0.14584874791E+02  0.81746911124E+01 -0.57136918117E+01  0.17668911167E+02  0.51100000000E-03 0.  1.
         12    1    3    3    0    0  0.17744719699E+01  0.18980857146E+00 -0.18094201287E+02  0.18181993793E+02  0.00000000000E+00 0. -1.
</event>
<event>
 7    1  0.1161807E-013  0.5052886E+02  0.7816164E-02  0.1300439E+00
        -11   -1    0    0    0    0  0.00000000000E+00  0.00000000000E+00  0.45593999997E+02  0.45594000000E+02  0.51100000000E-03 0. -1.
         11   -1    0    0    0    0 -0.00000000000E+00 -0.00000000000E+00 -0.45593999997E+02  0.45594000000E+02  0.51100000000E-03 0.  1.
    9900012    2    1    2    0    0 -0.31038781357E+01  0.33030767756E+02  0.23505314542E+02  0.50528862161E+02  0.30000007026E+02 0.  0.
        -12    1    1    2    0    0  0.31038781357E+01 -0.33030767756E+02 -0.23505314542E+02  0.40659137839E+02  0.00000000000E+00 0.  1.
         11    1    3    3    0    0 -0.68846424422E+01  0.18379130675E+02  0.22610425555E+02  0.29940308782E+02  0.51100000000E-03 0. -1.
        -11    1    3    3    0    0  0.31947713876E+01 -0.18473775127E+01  0.16921554319E+01  0.40598963239E+01  0.51100000000E-03 0.  1.
        -12    1    3    3    0    0  0.58599291891E+00  0.16499014594E+02 -0.79726644480E+00  0.16528657056E+02  0.00000000000E+00 0.  1.
</event>
<event>
 7    1  0.1161807E-013  0.5052887E+02  0.7816164E-02  0.1300439E+00
        -11   -1    0    0    0    0  0.00000000000E+00  0.00000000000E+00  0.45593999997E+02  0.45594000000E+02  0.51100000000E-03 0.  1.
         11   -1    0    0    0    0 -0.00000000000E+00 -0.00000000000E+00 -0.45593999997E+02  0.45594000000E+02  0.51100000000E-03 0. -1.
    9900012    2    1    2    0    0 -0.11809590018E+02  0.38633933720E+02 -0.45954139491E+01  0.50528867195E+02  0.30000022326E+02 0.  0.
         12    1    1    2    0    0  0.11809590018E+02 -0.38633933720E+02  0.45954139491E+01  0.40659132805E+02  0.00000000000E+00 0. -1.
         11    1    3    3    0    0  0.13748135956E+01 -0.17698803815E+00 -0.49661390721E+01  0.51559649662E+01  0.51100000000E-03 0. -1.
        -11    1    3    3    0    0 -0.15878490348E+01  0.69109713284E+01 -0.77170222289E+01  0.10480230036E+02  0.51100000000E-03 0.  1.
        -12    1    3    3    0    0 -0.11596554579E+02  0.31899950430E+02  0.80877473519E+01  0.34892672193E+02  0.00000000000E+00 0.  1.
</event>
<event>
 7    1  0.1161807E-013  0.5052887E+02  0.7816164E-02  0.1300439E+00
        -11   -1    0    0    0    0  0.00000000000E+00  0.00000000000E+00  0.45593999997E+02  0.45594000000E+02  0.51100000000E-03 0. -1.
         11   -1    0    0    0    0 -0.00000000000E+00 -0.00000000000E+00 -0.45593999997E+02  0.45594000000E+02  0.51100000000E-03 0.  1.
    9900012    2    1    2    0    0 -0.16939099622E+02 -0.21819686612E+02 -0.29835101640E+02  0.50528866835E+02  0.30000021233E+02 0.  0.
         12    1    1    2    0    0  0.16939099622E+02  0.21819686612E+02  0.29835101640E+02  0.40659133165E+02  0.00000000000E+00 0. -1.
         11    1    3    3    0    0 -0.11939633798E+02  0.33918676439E+01 -0.68156008220E+01  0.14160227264E+02  0.51100000000E-03 0.  1.
        -11    1    3    3    0    0 -0.40117369637E+01 -0.95821529408E+01 -0.27347576841E+01  0.10742001131E+02  0.51100000000E-03 0. -1.
        -12    1    3    3    0    0 -0.98772886046E+00 -0.15629401315E+02 -0.20284743134E+02  0.25626638441E+02  0.00000000000E+00 0.  1.
</event>
<event>
 7    1  0.1161807E-013  0.5052887E+02  0.7816164E-02  0.1300439E+00
        -11   -1    0    0    0    0  0.00000000000E+00  0.00000000000E+00  0.45593999997E+02  0.45594000000E+02  0.51100000000E-03 0. -1.
         11   -1    0    0    0    0 -0.00000000000E+00 -0.00000000000E+00 -0.45593999997E+02  0.45594000000E+02  0.51100000000E-03 0.  1.
    9900012    2    1    2    0    0 -0.21648008383E+02  0.19448884501E+02  0.28394878368E+02  0.50528874421E+02  0.30000044291E+02 0.  0.
        -12    1    1    2    0    0  0.21648008383E+02 -0.19448884501E+02 -0.28394878368E+02  0.40659125579E+02  0.00000000000E+00 0.  1.
         11    1    3    3    0    0 -0.13956338028E+02 -0.27846275582E+00  0.56246865891E+01  0.15049718009E+02  0.51100000000E-03 0. -1.
        -11    1    3    3    0    0  0.51093524185E+00 -0.29880175274E+01  0.30437459540E+01  0.42957762115E+01  0.51100000000E-03 0.  1.
         12    1    3    3    0    0 -0.82026055967E+01  0.22715364784E+02  0.19726445825E+02  0.31183380201E+02  0.00000000000E+00 0. -1.
</event>
<event>
 7    1  0.1161807E-013  0.5052886E+02  0.7816164E-02  0.1300439E+00
        -11   -1    0    0    0    0  0.00000000000E+00  0.00000000000E+00  0.45593999997E+02  0.45594000000E+02  0.51100000000E-03 0. -1.
         11   -1    0    0    0    0 -0.00000000000E+00 -0.00000000000E+00 -0.45593999997E+02  0.45594000000E+02  0.51100000000E-03 0.  1.
    9900012    2    1    2    0    0  0.36900723111E+02 -0.12518923670E+02 -0.11609440416E+02  0.50528856837E+02  0.29999990843E+02 0.  0.
         12    1    1    2    0    0 -0.36900723111E+02  0.12518923670E+02  0.11609440416E+02  0.40659143163E+02  0.00000000000E+00 0. -1.
         11    1    3    3    0    0  0.63817869837E+01 -0.11945081226E+02 -0.62001513594E+01  0.14894765783E+02  0.51100000000E-03 0. -1.
        -11    1    3    3    0    0  0.18698776512E+02 -0.37701814214E+01 -0.11166823020E+02  0.22103313046E+02  0.51100000000E-03 0.  1.
         12    1    3    3    0    0  0.11820159614E+02  0.31963389772E+01  0.57575339626E+01  0.13530778008E+02  0.00000000000E+00 0. -1.
</event>
<event>
 7    1  0.1161807E-013  0.5052887E+02  0.7816164E-02  0.1300439E+00
        -11   -1    0    0    0    0  0.00000000000E+00  0.00000000000E+00  0.45593999997E+02  0.45594000000E+02  0.51100000000E-03 0.  1.
         11   -1    0    0    0    0 -0.00000000000E+00 -0.00000000000E+00 -0.45593999997E+02  0.45594000000E+02  0.51100000000E-03 0. -1.
    9900012    2    1    2    0    0  0.37504926849E+02  0.29030708233E+01 -0.15431049657E+02  0.50528872468E+02  0.30000038353E+02 0.  0.
        -12    1    1    2    0    0 -0.37504926849E+02 -0.29030708233E+01  0.15431049657E+02  0.40659127532E+02  0.00000000000E+00 0.  1.
         11    1    3    3    0    0  0.29309038371E+02  0.43380285807E+01 -0.13023669532E+02  0.32364396959E+02  0.51100000000E-03 0. -1.
        -11    1    3    3    0    0  0.20871945516E+01 -0.52605866611E+01  0.51993432374E+01  0.76852666497E+01  0.51100000000E-03 0.  1.
         12    1    3    3    0    0  0.61086939268E+01  0.38256289037E+01 -0.76067233622E+01  0.10479208859E+02  0.00000000000E+00 0. -1.
</event>
<event>
 7    1  0.1161807E-013  0.5052885E+02  0.7816164E-02  0.1300439E+00
        -11   -1    0    0    0    0  0.00000000000E+00  0.00000000000E+00  0.45593999997E+02  0.45594000000E+02  0.51100000000E-03 0. -1.
         11   -1    0    0    0    0 -0.00000000000E+00 -0.00000000000E+00 -0.45593999997E+02  0.45594000000E+02  0.51100000000E-03 0.  1.
    9900012    2    1    2    0    0 -0.20663316191E+02 -0.22965708493E+02 -0.26434255629E+02  0.50528852527E+02  0.29999977740E+02 0.  0.
         12    1    1    2    0    0  0.20663316191E+02  0.22965708493E+02  0.26434255629E+02  0.40659147473E+02  0.00000000000E+00 0. -1.
         11    1    3    3    0    0 -0.12493303901E+02 -0.34984059023E+01 -0.14501929967E+01  0.13054675262E+02  0.51100000000E-03 0. -1.
        -11    1    3    3    0    0 -0.63157475913E+01 -0.63141858883E+01 -0.22163067545E+02  0.23894752025E+02  0.51100000000E-03 0.  1.
        -12    1    3    3    0    0 -0.18542646993E+01 -0.13153116702E+02 -0.28209950877E+01  0.13579425240E+02  0.00000000000E+00 0.  1.
</event>
<event>
 7    1  0.1161807E-013  0.5052885E+02  0.7816164E-02  0.1300439E+00
        -11   -1    0    0    0    0  0.00000000000E+00  0.00000000000E+00  0.45593999997E+02  0.45594000000E+02  0.51100000000E-03 0. -1.
         11   -1    0    0    0    0 -0.00000000000E+00 -0.00000000000E+00 -0.45593999997E+02  0.45594000000E+02  0.51100000000E-03 0.  1.
    9900012    2    1    2    0    0  0.31256509221E+02 -0.13546681695E+02  0.22196491876E+02  0.50528853363E+02  0.29999980283E+02 0.  0.
        -12    1    1    2    0    0 -0.31256509221E+02  0.13546681695E+02 -0.22196491876E+02  0.40659146637E+02  0.00000000000E+00 0.  1.
         11    1    3    3    0    0  0.73188600441E+01  0.64115691501E+00  0.80837170577E+01  0.10923519408E+02  0.51100000000E-03 0. -1.
        -11    1    3    3    0    0  0.98571821983E+01 -0.98755424014E+01  0.19454062611E+02  0.23940570815E+02  0.51100000000E-03 0.  1.
         12    1    3    3    0    0  0.14080466979E+02 -0.43122962083E+01 -0.53412877934E+01  0.15664763140E+02  0.00000000000E+00 0. -1.
</event>
<event>
 7    1  0.1161807E-013  0.5052893E+02  0.7816164E-02  0.1300439E+00
        -11   -1    0    0    0    0  0.00000000000E+00  0.00000000000E+00  0.45593999997E+02  0.45594000000E+02  0.51100000000E-03 0. -1.
         11   -1    0    0    0    0 -0.00000000000E+00 -0.00000000000E+00 -0.45593999997E+02  0.45594000000E+02  0.51100000000E-03 0.  1.
    9900012    2    1    2    0    0 -0.22379298143E+02 -0.25380950103E+02 -0.22541833383E+02  0.50528931322E+02  0.30000217245E+02 0.  0.
         12    1    1    2    0    0  0.22379298143E+02  0.25380950103E+02  0.22541833383E+02  0.40659068678E+02  0.00000000000E+00 0. -1.
         11    1    3    3    0    0 -0.63077176867E+00  0.29851806012E+01  0.28130082514E+00  0.30640343767E+01  0.51100000000E-03 0. -1.
        -11    1    3    3    0    0 -0.12301083083E+02 -0.93590789812E+01 -0.21119123878E+02  0.26171098525E+02  0.51100000000E-03 0.  1.
         12    1    3    3    0    0 -0.94474432912E+01 -0.19007051723E+02 -0.17040103307E+01  0.21293798420E+02  0.00000000000E+00 0. -1.
</event>
<event>
 7    1  0.1161807E-013  0.5052887E+02  0.7816164E-02  0.1300439E+00
        -11   -1    0    0    0    0  0.00000000000E+00  0.00000000000E+00  0.45593999997E+02  0.45594000000E+02  0.51100000000E-03 0. -1.
         11   -1    0    0    0    0 -0.00000000000E+00 -0.00000000000E+00 -0.45593999997E+02  0.45594000000E+02  0.51100000000E-03 0.  1.
    9900012    2    1    2    0    0 -0.29556034803E+02  0.58974737883E+01 -0.27291494733E+02  0.50528867260E+02  0.30000022525E+02 0.  0.
         12    1    1    2    0    0  0.29556034803E+02 -0.58974737883E+01  0.27291494733E+02  0.40659132740E+02  0.00000000000E+00 0. -1.
         11    1    3    3    0    0  0.34332278491E+01  0.22054569787E+01 -0.92272782768E-01  0.40816183648E+01  0.51100000000E-03 0.  1.
        -11    1    3    3    0    0  0.99769469929E-01  0.22855651235E+01 -0.76595199076E+01  0.79938731136E+01  0.51100000000E-03 0. -1.
        -12    1    3    3    0    0 -0.33089032122E+02  0.14064516861E+01 -0.19539702043E+02  0.38453375782E+02  0.00000000000E+00 0.  1.
</event>
<event>
 7    1  0.1161807E-013  0.5052886E+02  0.7816164E-02  0.1300439E+00
        -11   -1    0    0    0    0  0.00000000000E+00  0.00000000000E+00  0.45593999997E+02  0.45594000000E+02  0.51100000000E-03 0. -1.
         11   -1    0    0    0    0 -0.00000000000E+00 -0.00000000000E+00 -0.45593999997E+02  0.45594000000E+02  0.51100000000E-03 0.  1.
    9900012    2    1    2    0    0 -0.59531374577E+01 -0.19045203894E+02 -0.35426062545E+02  0.50528861490E+02  0.30000004985E+02 0.  0.
         12    1    1    2    0    0  0.59531374577E+01  0.19045203894E+02  0.35426062545E+02  0.40659138510E+02  0.00000000000E+00 0. -1.
         11    1    3    3    0    0  0.47621722924E+01 -0.59742663065E+01 -0.12396620597E+02  0.14561811197E+02  0.51100000000E-03 0.  1.
        -11    1    3    3    0    0 -0.12605582066E+01 -0.26418805308E+01 -0.21622870658E+02  0.21820107137E+02  0.51100000000E-03 0. -1.
         12    1    3    3    0    0 -0.94547515436E+01 -0.10429057057E+02 -0.14065712892E+01  0.14146943155E+02  0.00000000000E+00 0. -1.
</event>
<event>
 7    1  0.1289996E-013  0.5052886E+02  0.7816164E-02  0.1300439E+00
        -11   -1    0    0    0    0  0.00000000000E+00  0.00000000000E+00  0.45593999997E+02  0.45594000000E+02  0.51100000000E-03 0. -1.
         11   -1    0    0    0    0 -0.00000000000E+00 -0.00000000000E+00 -0.45593999997E+02  0.45594000000E+02  0.51100000000E-03 0.  1.
    9900012    2    1    2    0    0  0.72668922158E+01 -0.14629560903E+02 -0.37233501898E+02  0.50528862795E+02  0.30000008952E+02 0.  0.
         12    1    1    2    0    0 -0.72668922158E+01  0.14629560903E+02  0.37233501898E+02  0.40659137205E+02  0.00000000000E+00 0. -1.
         11    1    3    3    0    0  0.58204253579E+01 -0.13623805384E+02 -0.25091707647E+01  0.15026022850E+02  0.51100000000E-03 0. -1.
        -11    1    3    3    0    0 -0.27630596878E+01 -0.10126713634E+01 -0.18920564665E+02  0.19148048716E+02  0.51100000000E-03 0.  1.
        -12    1    3    3    0    0  0.42095265456E+01  0.69158449694E-02 -0.15803766468E+02  0.16354791229E+02  0.00000000000E+00 0.  1.
</event>
<event>
 7    1  0.1161807E-013  0.5052886E+02  0.7816164E-02  0.1300439E+00
        -11   -1    0    0    0    0  0.00000000000E+00  0.00000000000E+00  0.45593999997E+02  0.45594000000E+02  0.51100000000E-03 0. -1.
         11   -1    0    0    0    0 -0.00000000000E+00 -0.00000000000E+00 -0.45593999997E+02  0.45594000000E+02  0.51100000000E-03 0.  1.
    9900012    2    1    2    0    0  0.86780376410E+01 -0.48219581424E+00  0.39719328565E+02  0.50528856972E+02  0.29999991254E+02 0.  0.
        -12    1    1    2    0    0 -0.86780376410E+01  0.48219581424E+00 -0.39719328565E+02  0.40659143028E+02  0.00000000000E+00 0.  1.
         11    1    3    3    0    0  0.35723381073E+01 -0.40048585690E+01  0.56615216217E+00  0.53963895562E+01  0.51100000000E-03 0. -1.
        -11    1    3    3    0    0  0.33971342237E+01  0.32259604836E+01 -0.11241836339E+01  0.48177931752E+01  0.51100000000E-03 0.  1.
         12    1    3    3    0    0  0.17085653100E+01  0.29670227114E+00  0.40277360036E+02  0.40314674241E+02  0.00000000000E+00 0. -1.
</event>
<event>
 7    1  0.1161807E-013  0.5052885E+02  0.7816164E-02  0.1300439E+00
        -11   -1    0    0    0    0  0.00000000000E+00  0.00000000000E+00  0.45593999997E+02  0.45594000000E+02  0.51100000000E-03 0. -1.
         11   -1    0    0    0    0 -0.00000000000E+00 -0.00000000000E+00 -0.45593999997E+02  0.45594000000E+02  0.51100000000E-03 0.  1.
    9900012    2    1    2    0    0 -0.12629216063E+02  0.98928028045E+00 -0.38635351752E+02  0.50528853687E+02  0.29999981268E+02 0.  0.
         12    1    1    2    0    0  0.12629216063E+02 -0.98928028045E+00  0.38635351752E+02  0.40659146313E+02  0.00000000000E+00 0. -1.
         11    1    3    3    0    0 -0.41339460471E+01  0.72088936232E+01 -0.15414143364E+02  0.17511524008E+02  0.51100000000E-03 0.  1.
        -11    1    3    3    0    0  0.69607275097E+01 -0.56069838618E+00 -0.76797492913E+01  0.10380012504E+02  0.51100000000E-03 0. -1.
         12    1    3    3    0    0 -0.15455997526E+02 -0.56589149565E+01 -0.15541459097E+02  0.22637317175E+02  0.00000000000E+00 0. -1.
</event>
<event>
 7    1  0.1161807E-013  0.5052886E+02  0.7816164E-02  0.1300439E+00
        -11   -1    0    0    0    0  0.00000000000E+00  0.00000000000E+00  0.45593999997E+02  0.45594000000E+02  0.51100000000E-03 0. -1.
         11   -1    0    0    0    0 -0.00000000000E+00 -0.00000000000E+00 -0.45593999997E+02  0.45594000000E+02  0.51100000000E-03 0.  1.
    9900012    2    1    2    0    0 -0.28686382706E+02 -0.36716562789E+01 -0.28579289760E+02  0.50528863071E+02  0.30000009790E+02 0.  0.
         12    1    1    2    0    0  0.28686382706E+02  0.36716562789E+01  0.28579289760E+02  0.40659136929E+02  0.00000000000E+00 0. -1.
         11    1    3    3    0    0 -0.21014554291E+02 -0.73503156663E+01 -0.15879796549E+02  0.27346052204E+02  0.51100000000E-03 0. -1.
        -11    1    3    3    0    0 -0.12764953835E+02 -0.16928956468E+00 -0.10149357907E+02  0.16308959855E+02  0.51100000000E-03 0.  1.
         12    1    3    3    0    0  0.50931254188E+01  0.38479489521E+01 -0.25501353042E+01  0.68738510123E+01  0.00000000000E+00 0. -1.
</event>
<event>
 7    1  0.1161807E-013  0.5052886E+02  0.7816164E-02  0.1300439E+00
        -11   -1    0    0    0    0  0.00000000000E+00  0.00000000000E+00  0.45593999997E+02  0.45594000000E+02  0.51100000000E-03 0. -1.
         11   -1    0    0    0    0 -0.00000000000E+00 -0.00000000000E+00 -0.45593999997E+02  0.45594000000E+02  0.51100000000E-03 0.  1.
    9900012    2    1    2    0    0 -0.19323534527E+02  0.26503595262E+02  0.24027609168E+02  0.50528861412E+02  0.30000004747E+02 0.  0.
        -12    1    1    2    0    0  0.19323534527E+02 -0.26503595262E+02 -0.24027609168E+02  0.40659138588E+02  0.00000000000E+00 0.  1.
         11    1    3    3    0    0 -0.33845356536E+01  0.82467734083E+00 -0.27133204111E+01  0.44155726946E+01  0.51100000000E-03 0.  1.
        -11    1    3    3    0    0 -0.16936923586E+02  0.19806975372E+02  0.29657904034E+02  0.39481222447E+02  0.51100000000E-03 0. -1.
         12    1    3    3    0    0  0.99792471329E+00  0.58719425491E+01 -0.29169744552E+01  0.66320662697E+01  0.00000000000E+00 0. -1.
</event>
<event>
 7    1  0.1161807E-013  0.5052886E+02  0.7816164E-02  0.1300439E+00
        -11   -1    0    0    0    0  0.00000000000E+00  0.00000000000E+00  0.45593999997E+02  0.45594000000E+02  0.51100000000E-03 0.  1.
         11   -1    0    0    0    0 -0.00000000000E+00 -0.00000000000E+00 -0.45593999997E+02  0.45594000000E+02  0.51100000000E-03 0. -1.
    9900012    2    1    2    0    0  0.20424551529E+02  0.28641382622E+02  0.20388106483E+02  0.50528856015E+02  0.29999988343E+02 0.  0.
         12    1    1    2    0    0 -0.20424551529E+02 -0.28641382622E+02 -0.20388106483E+02  0.40659143985E+02  0.00000000000E+00 0. -1.
         11    1    3    3    0    0 -0.22463372069E+01  0.26788737364E+01 -0.32596598592E+01  0.47799349369E+01  0.51100000000E-03 0. -1.
        -11    1    3    3    0    0  0.66634137469E+00  0.12823675580E+02  0.39808886738E+01  0.13443888615E+02  0.51100000000E-03 0.  1.
         12    1    3    3    0    0  0.22004547361E+02  0.13138833306E+02  0.19666877668E+02  0.32305032462E+02  0.00000000000E+00 0. -1.
</event>
<event>
 7    1  0.1161807E-013  0.5052888E+02  0.7816164E-02  0.1300439E+00
        -11   -1    0    0    0    0  0.00000000000E+00  0.00000000000E+00  0.45593999997E+02  0.45594000000E+02  0.51100000000E-03 0. -1.
         11   -1    0    0    0    0 -0.00000000000E+00 -0.00000000000E+00 -0.45593999997E+02  0.45594000000E+02  0.51100000000E-03 0.  1.
    9900012    2    1    2    0    0  0.42977736690E+01  0.65975462389E+01 -0.39889412149E+02  0.50528884461E+02  0.30000074806E+02 0.  0.
         12    1    1    2    0    0 -0.42977736690E+01 -0.65975462389E+01  0.39889412149E+02  0.40659115539E+02  0.00000000000E+00 0. -1.
         11    1    3    3    0    0 -0.32910111370E+01 -0.49227905884E+01 -0.10793685731E+02  0.12311306730E+02  0.51100000000E-03 0. -1.
        -11    1    3    3    0    0 -0.68675900347E+01  0.21854743165E+01 -0.11748863850E+02  0.13783174268E+02  0.51100000000E-03 0.  1.
        -12    1    3    3    0    0  0.14456374841E+02  0.93348625107E+01 -0.17346862568E+02  0.24434403463E+02  0.00000000000E+00 0.  1.
</event>
<event>
 7    1  0.1567796E-013  0.5052887E+02  0.7816164E-02  0.1300439E+00
        -11   -1    0    0    0    0  0.00000000000E+00  0.00000000000E+00  0.45593999997E+02  0.45594000000E+02  0.51100000000E-03 0. -1.
         11   -1    0    0    0    0 -0.00000000000E+00 -0.00000000000E+00 -0.45593999997E+02  0.45594000000E+02  0.51100000000E-03 0.  1.
    9900012    2    1    2    0    0  0.75847766451E+01 -0.11039111539E+02 -0.38389763225E+02  0.50528871372E+02  0.30000035022E+02 0.  0.
         12    1    1    2    0    0 -0.75847766451E+01  0.11039111539E+02  0.38389763225E+02  0.40659128628E+02  0.00000000000E+00 0. -1.
         11    1    3    3    0    0  0.84300968285E+01 -0.97137929998E+00  0.74538804813E-01  0.84862044860E+01  0.51100000000E-03 0. -1.
        -11    1    3    3    0    0 -0.50458443334E+01 -0.87112195032E+01 -0.14358383693E+02  0.17535936611E+02  0.51100000000E-03 0.  1.
        -12    1    3    3    0    0  0.42005241499E+01 -0.13565127354E+01 -0.24105918336E+02  0.24506730275E+02  0.00000000000E+00 0.  1.
</event>
<event>
 7    1  0.1161807E-013  0.5052887E+02  0.7816164E-02  0.1300439E+00
        -11   -1    0    0    0    0  0.00000000000E+00  0.00000000000E+00  0.45593999997E+02  0.45594000000E+02  0.51100000000E-03 0. -1.
         11   -1    0    0    0    0 -0.00000000000E+00 -0.00000000000E+00 -0.45593999997E+02  0.45594000000E+02  0.51100000000E-03 0.  1.
    9900012    2    1    2    0    0 -0.16454261531E+01  0.35400693369E+02  0.19931099188E+02  0.50528865318E+02  0.30000016621E+02 0.  0.
        -12    1    1    2    0    0  0.16454261531E+01 -0.35400693369E+02 -0.19931099188E+02  0.40659134682E+02  0.00000000000E+00 0.  1.
         11    1    3    3    0    0  0.16173192042E+01 -0.18520557348E+01 -0.87630800290E+00  0.26103156572E+01  0.51100000000E-03 0. -1.
        -11    1    3    3    0    0  0.60081896988E+01  0.45488488663E+01 -0.89482767892E+00  0.75888791202E+01  0.51100000000E-03 0.  1.
         12    1    3    3    0    0 -0.92709350561E+01  0.32703900238E+02  0.21702234869E+02  0.40329670541E+02  0.00000000000E+00 0. -1.
</event>
<event>
 7    1  0.1161807E-013  0.5052886E+02  0.7816164E-02  0.1300439E+00
        -11   -1    0    0    0    0  0.00000000000E+00  0.00000000000E+00  0.45593999997E+02  0.45594000000E+02  0.51100000000E-03 0. -1.
         11   -1    0    0    0    0 -0.00000000000E+00 -0.00000000000E+00 -0.45593999997E+02  0.45594000000E+02  0.51100000000E-03 0.  1.
    9900012    2    1    2    0    0 -0.13346881055E+02 -0.54815776867E+01 -0.38012875910E+02  0.50528860034E+02  0.30000000560E+02 0.  0.
         12    1    1    2    0    0  0.13346881055E+02  0.54815776867E+01  0.38012875910E+02  0.40659139966E+02  0.00000000000E+00 0. -1.
         11    1    3    3    0    0  0.42841978262E+01 -0.71360174051E+01 -0.21523885314E+02  0.23077147456E+02  0.51100000000E-03 0. -1.
        -11    1    3    3    0    0 -0.11701378369E+02 -0.20401101968E+01 -0.16662905937E+02  0.20463057931E+02  0.51100000000E-03 0.  1.
        -12    1    3    3    0    0 -0.59297005118E+01  0.36945499152E+01  0.17391534120E+00  0.69886546474E+01  0.00000000000E+00 0.  1.
</event>
<event>
 7    1  0.1161807E-013  0.5052887E+02  0.7816164E-02  0.1300439E+00
        -11   -1    0    0    0    0  0.00000000000E+00  0.00000000000E+00  0.45593999997E+02  0.45594000000E+02  0.51100000000E-03 0. -1.
         11   -1    0    0    0    0 -0.00000000000E+00 -0.00000000000E+00 -0.45593999997E+02  0.45594000000E+02  0.51100000000E-03 0.  1.
    9900012    2    1    2    0    0 -0.20750338187E+00 -0.18729072237E+02  0.36088004056E+02  0.50528865217E+02  0.30000016314E+02 0.  0.
        -12    1    1    2    0    0  0.20750338187E+00  0.18729072237E+02 -0.36088004056E+02  0.40659134783E+02  0.00000000000E+00 0.  1.
         11    1    3    3    0    0  0.92021863436E+01 -0.38460131939E+01  0.18167262622E+02  0.20724900058E+02  0.51100000000E-03 0. -1.
        -11    1    3    3    0    0  0.38502096841E+01 -0.66460068230E+01  0.89727630923E+01  0.11811181104E+02  0.51100000000E-03 0.  1.
         12    1    3    3    0    0 -0.13259899410E+02 -0.82370522202E+01  0.89479783422E+01  0.17992784055E+02  0.00000000000E+00 0. -1.
</event>
<event>
 7    1  0.1161807E-013  0.5052886E+02  0.7816164E-02  0.1300439E+00
        -11   -1    0    0    0    0  0.00000000000E+00  0.00000000000E+00  0.45593999997E+02  0.45594000000E+02  0.51100000000E-03 0. -1.
         11   -1    0    0    0    0 -0.00000000000E+00 -0.00000000000E+00 -0.45593999997E+02  0.45594000000E+02  0.51100000000E-03 0.  1.
    9900012    2    1    2    0    0 -0.56578737398E+01  0.22175217300E+02  0.33606752926E+02  0.50528860316E+02  0.30000001417E+02 0.  0.
        -12    1    1    2    0    0  0.56578737398E+01 -0.22175217300E+02 -0.33606752926E+02  0.40659139684E+02  0.00000000000E+00 0.  1.
         11    1    3    3    0    0 -0.43478647900E+01  0.14101401184E+01 -0.78939235094E+00  0.46384872459E+01  0.51100000000E-03 0. -1.
        -11    1    3    3    0    0 -0.42370432231E+00 -0.33807503703E+01 -0.50211149891E+00  0.34439968985E+01  0.51100000000E-03 0.  1.
         12    1    3    3    0    0 -0.88630462754E+00  0.24145827552E+02  0.34898256776E+02  0.42446376172E+02  0.00000000000E+00 0. -1.
</event>
<event>
 7    1  0.1161807E-013  0.5052886E+02  0.7816164E-02  0.1300439E+00
        -11   -1    0    0    0    0  0.00000000000E+00  0.00000000000E+00  0.45593999997E+02  0.45594000000E+02  0.51100000000E-03 0. -1.
         11   -1    0    0    0    0 -0.00000000000E+00 -0.00000000000E+00 -0.45593999997E+02  0.45594000000E+02  0.51100000000E-03 0.  1.
    9900012    2    1    2    0    0 -0.14728856243E+02 -0.16622571480E+02 -0.34057552144E+02  0.50528856540E+02  0.29999989940E+02 0.  0.
         12    1    1    2    0    0  0.14728856243E+02  0.16622571480E+02  0.34057552144E+02  0.40659143460E+02  0.00000000000E+00 0. -1.
         11    1    3    3    0    0 -0.71663450514E+01 -0.12507395229E+02 -0.32031883183E+02  0.35125958739E+02  0.51100000000E-03 0.  1.
        -11    1    3    3    0    0  0.14501297611E+01 -0.28115734447E+01 -0.49184970280E+01  0.58480282861E+01  0.51100000000E-03 0. -1.
        -12    1    3    3    0    0 -0.90126409530E+01 -0.13036028067E+01  0.28928280673E+01  0.95548695152E+01  0.00000000000E+00 0.  1.
</event>
<event>
 7    1  0.1161807E-013  0.5052887E+02  0.7816164E-02  0.1300439E+00
        -11   -1    0    0    0    0  0.00000000000E+00  0.00000000000E+00  0.45593999997E+02  0.45594000000E+02  0.51100000000E-03 0.  1.
         11   -1    0    0    0    0 -0.00000000000E+00 -0.00000000000E+00 -0.45593999997E+02  0.45594000000E+02  0.51100000000E-03 0. -1.
    9900012    2    1    2    0    0  0.40465612317E+02  0.14336838334E+01 -0.36937020406E+01  0.50528872313E+02  0.30000037882E+02 0.  0.
         12    1    1    2    0    0 -0.40465612317E+02 -0.14336838334E+01  0.36937020406E+01  0.40659127687E+02  0.00000000000E+00 0. -1.
         11    1    3    3    0    0  0.26582366064E+02  0.62451116366E+01 -0.90078783598E+01  0.28753529830E+02  0.51100000000E-03 0.  1.
        -11    1    3    3    0    0  0.89488971511E+01 -0.61268914301E+01 -0.36630781208E+01  0.11447257331E+02  0.51100000000E-03 0. -1.
        -12    1    3    3    0    0  0.49343491022E+01  0.13154636269E+01  0.89772544400E+01  0.10328085152E+02  0.00000000000E+00 0.  1.
</event>
<event>
 7    1  0.1161807E-013  0.5052886E+02  0.7816164E-02  0.1300439E+00
        -11   -1    0    0    0    0  0.00000000000E+00  0.00000000000E+00  0.45593999997E+02  0.45594000000E+02  0.51100000000E-03 0.  1.
         11   -1    0    0    0    0 -0.00000000000E+00 -0.00000000000E+00 -0.45593999997E+02  0.45594000000E+02  0.51100000000E-03 0. -1.
    9900012    2    1    2    0    0 -0.12593314278E+02 -0.28607420674E+02 -0.26003649648E+02  0.50528857398E+02  0.29999992547E+02 0.  0.
         12    1    1    2    0    0  0.12593314278E+02  0.28607420674E+02  0.26003649648E+02  0.40659142602E+02  0.00000000000E+00 0. -1.
         11    1    3    3    0    0  0.12454776272E+01 -0.10477255350E+02 -0.17829250184E+02  0.20717293660E+02  0.51100000000E-03 0. -1.
        -11    1    3    3    0    0  0.39148679785E+01 -0.20088893735E+01 -0.28623648017E+01  0.52492818864E+01  0.51100000000E-03 0.  1.
        -12    1    3    3    0    0 -0.17753659883E+02 -0.16121275951E+02 -0.53120346622E+01  0.24562281852E+02  0.00000000000E+00 0.  1.
</event>
<event>
 7    1  0.1161807E-013  0.5052886E+02  0.7816164E-02  0.1300439E+00
        -11   -1    0    0    0    0  0.00000000000E+00  0.00000000000E+00  0.45593999997E+02  0.45594000000E+02  0.51100000000E-03 0. -1.
         11   -1    0    0    0    0 -0.00000000000E+00 -0.00000000000E+00 -0.45593999997E+02  0.45594000000E+02  0.51100000000E-03 0.  1.
    9900012    2    1    2    0    0 -0.16585456846E+01  0.28145960351E+02  0.29295391533E+02  0.50528858065E+02  0.29999994573E+02 0.  0.
        -12    1    1    2    0    0  0.16585456846E+01 -0.28145960351E+02 -0.29295391533E+02  0.40659141935E+02  0.00000000000E+00 0.  1.
         11    1    3    3    0    0 -0.31682251238E+01  0.11459161489E+02  0.44616470511E+01  0.12698674228E+02  0.51100000000E-03 0. -1.
        -11    1    3    3    0    0  0.14380884036E+00  0.74829515327E+01 -0.33134009961E+01  0.81849783778E+01  0.51100000000E-03 0.  1.
         12    1    3    3    0    0  0.13658705989E+01  0.92038473291E+01  0.28147145478E+02  0.29645205459E+02  0.00000000000E+00 0. -1.
</event>
<event>
 7    1  0.1161807E-013  0.5052885E+02  0.7816164E-02  0.1300439E+00
        -11   -1    0    0    0    0  0.00000000000E+00  0.00000000000E+00  0.45593999997E+02  0.45594000000E+02  0.51100000000E-03 0. -1.
         11   -1    0    0    0    0 -0.00000000000E+00 -0.00000000000E+00 -0.45593999997E+02  0.45594000000E+02  0.51100000000E-03 0.  1.
    9900012    2    1    2    0    0  0.10065459050E+02  0.59263925366E+01 -0.38945225535E+02  0.50528853595E+02  0.29999980988E+02 0.  0.
         12    1    1    2    0    0 -0.10065459050E+02 -0.59263925366E+01  0.38945225535E+02  0.40659146405E+02  0.00000000000E+00 0. -1.
         11    1    3    3    0    0 -0.59849887825E+01  0.65652125205E+01 -0.20593459122E+01  0.91193756373E+01  0.51100000000E-03 0. -1.
        -11    1    3    3    0    0  0.27333812913E+01  0.30860626512E+01 -0.40428967892E+01  0.57740947931E+01  0.51100000000E-03 0.  1.
         12    1    3    3    0    0  0.13317066541E+02 -0.37248826351E+01 -0.32842982834E+02  0.35635383165E+02  0.00000000000E+00 0. -1.
</event>
<event>
 7    1  0.1161807E-013  0.5052887E+02  0.7816164E-02  0.1300439E+00
        -11   -1    0    0    0    0  0.00000000000E+00  0.00000000000E+00  0.45593999997E+02  0.45594000000E+02  0.51100000000E-03 0. -1.
         11   -1    0    0    0    0 -0.00000000000E+00 -0.00000000000E+00 -0.45593999997E+02  0.45594000000E+02  0.51100000000E-03 0.  1.
    9900012    2    1    2    0    0 -0.22826050979E+02  0.13699241176E+02 -0.30732187396E+02  0.50528866287E+02  0.30000019566E+02 0.  0.
         12    1    1    2    0    0  0.22826050979E+02 -0.13699241176E+02  0.30732187396E+02  0.40659133713E+02  0.00000000000E+00 0. -1.
         11    1    3    3    0    0 -0.14004025393E+01 -0.65118354277E+01 -0.35504822363E+01  0.75479170822E+01  0.51100000000E-03 0. -1.
        -11    1    3    3    0    0  0.44787925937E+00 -0.72189743523E+00  0.12078139400E+01  0.14766673670E+01  0.51100000000E-03 0.  1.
        -12    1    3    3    0    0 -0.21873527699E+02  0.20932974039E+02 -0.28389519100E+02  0.41504281838E+02  0.00000000000E+00 0.  1.
</event>
<event>
 7    1  0.1161807E-013  0.5052885E+02  0.7816164E-02  0.1300439E+00
        -11   -1    0    0    0    0  0.00000000000E+00  0.00000000000E+00  0.45593999997E+02  0.45594000000E+02  0.51100000000E-03 0. -1.
         11   -1    0    0    0    0 -0.00000000000E+00 -0.00000000000E+00 -0.45593999997E+02  0.45594000000E+02  0.51100000000E-03 0.  1.
    9900012    2    1    2    0    0  0.28482545684E+02 -0.11109903368E+02 -0.26804503064E+02  0.50528846713E+02  0.29999960069E+02 0.  0.
         12    1    1    2    0    0 -0.28482545684E+02  0.11109903368E+02  0.26804503064E+02  0.40659153287E+02  0.00000000000E+00 0. -1.
         11    1    3    3    0    0  0.84302844147E+01 -0.13774987016E+02 -0.13031961087E+02  0.20752155855E+02  0.51100000000E-03 0. -1.
        -11    1    3    3    0    0  0.68521555942E+01 -0.71822917220E+01 -0.54608114833E+01  0.11329510712E+02  0.51100000000E-03 0.  1.
        -12    1    3    3    0    0  0.13200105675E+02  0.98473753698E+01 -0.83117304934E+01  0.18447180145E+02  0.00000000000E+00 0.  1.
</event>
<event>
 7    1  0.1161807E-013  0.5052885E+02  0.7816164E-02  0.1300439E+00
        -11   -1    0    0    0    0  0.00000000000E+00  0.00000000000E+00  0.45593999997E+02  0.45594000000E+02  0.51100000000E-03 0. -1.
         11   -1    0    0    0    0 -0.00000000000E+00 -0.00000000000E+00 -0.45593999997E+02  0.45594000000E+02  0.51100000000E-03 0.  1.
    9900012    2    1    2    0    0 -0.24605416550E+01  0.16350772576E+01 -0.40551679927E+02  0.50528849889E+02  0.29999969722E+02 0.  0.
         12    1    1    2    0    0  0.24605416550E+01 -0.16350772576E+01  0.40551679927E+02  0.40659150111E+02  0.00000000000E+00 0. -1.
         11    1    3    3    0    0 -0.12044557425E+01  0.13088721073E+02 -0.10553378257E+02  0.16856426842E+02  0.51100000000E-03 0. -1.
        -11    1    3    3    0    0  0.22480140810E+01  0.90193488637E+00 -0.40304772052E+01  0.47023186420E+01  0.51100000000E-03 0.  1.
        -12    1    3    3    0    0 -0.35040999934E+01 -0.12355578702E+02 -0.25967824465E+02  0.28970104405E+02  0.00000000000E+00 0.  1.
</event>
<event>
 7    1  0.1161807E-013  0.5052883E+02  0.7816164E-02  0.1300439E+00
        -11   -1    0    0    0    0  0.00000000000E+00  0.00000000000E+00  0.45593999997E+02  0.45594000000E+02  0.51100000000E-03 0. -1.
         11   -1    0    0    0    0 -0.00000000000E+00 -0.00000000000E+00 -0.45593999997E+02  0.45594000000E+02  0.51100000000E-03 0.  1.
    9900012    2    1    2    0    0  0.28131912188E+01  0.24025766175E+02 -0.32680521902E+02  0.50528831331E+02  0.29999913312E+02 0.  0.
         12    1    1    2    0    0 -0.28131912188E+01 -0.24025766175E+02  0.32680521902E+02  0.40659168669E+02  0.00000000000E+00 0. -1.
         11    1    3    3    0    0 -0.62746397506E+01  0.84906941720E+01 -0.24866341857E+01  0.10846489817E+02  0.51100000000E-03 0. -1.
        -11    1    3    3    0    0 -0.29496704970E+01  0.12534388011E+02 -0.19127002163E+02  0.23057615897E+02  0.51100000000E-03 0.  1.
         12    1    3    3    0    0  0.12037501466E+02  0.30006839917E+01 -0.11066885553E+02  0.16624725616E+02  0.00000000000E+00 0. -1.
</event>
<event>
 7    1  0.1161807E-013  0.5052885E+02  0.7816164E-02  0.1300439E+00
        -11   -1    0    0    0    0  0.00000000000E+00  0.00000000000E+00  0.45593999997E+02  0.45594000000E+02  0.51100000000E-03 0. -1.
         11   -1    0    0    0    0 -0.00000000000E+00 -0.00000000000E+00 -0.45593999997E+02  0.45594000000E+02  0.51100000000E-03 0.  1.
    9900012    2    1    2    0    0 -0.21511621101E+02  0.56736430686E+01  0.34032724159E+02  0.50528851193E+02  0.29999973686E+02 0.  0.
        -12    1    1    2    0    0  0.21511621101E+02 -0.56736430686E+01 -0.34032724159E+02  0.40659148807E+02  0.00000000000E+00 0.  1.
         11    1    3    3    0    0 -0.18214492522E+02  0.92897832094E+00  0.29085754132E+02  0.34330916566E+02  0.51100000000E-03 0. -1.
        -11    1    3    3    0    0 -0.61323607349E+01  0.60648595428E+01  0.80458955959E+01  0.11795117874E+02  0.51100000000E-03 0.  1.
         12    1    3    3    0    0  0.28352321565E+01 -0.13201947952E+01 -0.30989255691E+01  0.44028167531E+01  0.00000000000E+00 0. -1.
</event>
<event>
 7    1  0.1161807E-013  0.5052886E+02  0.7816164E-02  0.1300439E+00
        -11   -1    0    0    0    0  0.00000000000E+00  0.00000000000E+00  0.45593999997E+02  0.45594000000E+02  0.51100000000E-03 0. -1.
         11   -1    0    0    0    0 -0.00000000000E+00 -0.00000000000E+00 -0.45593999997E+02  0.45594000000E+02  0.51100000000E-03 0.  1.
    9900012    2    1    2    0    0 -0.23449939505E+02  0.80804646246E+01  0.32217569670E+02  0.50528863674E+02  0.30000011622E+02 0.  0.
        -12    1    1    2    0    0  0.23449939505E+02 -0.80804646246E+01 -0.32217569670E+02  0.40659136326E+02  0.00000000000E+00 0.  1.
         11    1    3    3    0    0 -0.14651989432E+02  0.14529598113E+02  0.16817587089E+02  0.26619940860E+02  0.51100000000E-03 0. -1.
        -11    1    3    3    0    0 -0.76788654600E+01  0.24846844454E+01  0.11611011245E+02  0.14140516749E+02  0.51100000000E-03 0.  1.
        -12    1    3    3    0    0 -0.11190846135E+01 -0.89338179339E+01  0.37889713367E+01  0.97684060644E+01  0.00000000000E+00 0.  1.
</event>
<event>
 7    1  0.1161807E-013  0.5052887E+02  0.7816164E-02  0.1300439E+00
        -11   -1    0    0    0    0  0.00000000000E+00  0.00000000000E+00  0.45593999997E+02  0.45594000000E+02  0.51100000000E-03 0. -1.
         11   -1    0    0    0    0 -0.00000000000E+00 -0.00000000000E+00 -0.45593999997E+02  0.45594000000E+02  0.51100000000E-03 0.  1.
    9900012    2    1    2    0    0 -0.20617812087E+02 -0.20124453183E+02  0.28689321405E+02  0.50528868752E+02  0.30000027060E+02 0.  0.
        -12    1    1    2    0    0  0.20617812087E+02  0.20124453183E+02 -0.28689321405E+02  0.40659131248E+02  0.00000000000E+00 0.  1.
         11    1    3    3    0    0 -0.75785697669E+01 -0.25329235101E+01  0.40357567079E+00  0.80008308820E+01  0.51100000000E-03 0.  1.
        -11    1    3    3    0    0 -0.15616957545E+02 -0.18360792111E+02  0.13759584547E+02  0.27754895372E+02  0.51100000000E-03 0. -1.
        -12    1    3    3    0    0  0.25777152249E+01  0.76926243866E+00  0.14526161186E+02  0.14773142499E+02  0.00000000000E+00 0.  1.
</event>
<event>
 7    1  0.1161807E-013  0.5052885E+02  0.7816164E-02  0.1300439E+00
        -11   -1    0    0    0    0  0.00000000000E+00  0.00000000000E+00  0.45593999997E+02  0.45594000000E+02  0.51100000000E-03 0. -1.
         11   -1    0    0    0    0 -0.00000000000E+00 -0.00000000000E+00 -0.45593999997E+02  0.45594000000E+02  0.51100000000E-03 0.  1.
    9900012    2    1    2    0    0 -0.58316095186E+01  0.10897391033E+02  0.38735073404E+02  0.50528847125E+02  0.29999961322E+02 0.  0.
        -12    1    1    2    0    0  0.58316095186E+01 -0.10897391033E+02 -0.38735073404E+02  0.40659152875E+02  0.00000000000E+00 0.  1.
         11    1    3    3    0    0 -0.85548587735E+01 -0.58449746284E+00  0.18632524389E+02  0.20510929069E+02  0.51100000000E-03 0. -1.
        -11    1    3    3    0    0 -0.44744818788E+00  0.32557705976E+01  0.20908434556E+02  0.21165133779E+02  0.51100000000E-03 0.  1.
        -12    1    3    3    0    0  0.31706974429E+01  0.82261178978E+01 -0.80588554074E+00  0.88527842766E+01  0.00000000000E+00 0.  1.
</event>
<event>
 7    1  0.1161807E-013  0.5052886E+02  0.7816164E-02  0.1300439E+00
        -11   -1    0    0    0    0  0.00000000000E+00  0.00000000000E+00  0.45593999997E+02  0.45594000000E+02  0.51100000000E-03 0. -1.
         11   -1    0    0    0    0 -0.00000000000E+00 -0.00000000000E+00 -0.45593999997E+02  0.45594000000E+02  0.51100000000E-03 0.  1.
    9900012    2    1    2    0    0  0.23480645288E+02  0.71746519669E+01 -0.32409094888E+02  0.50528858771E+02  0.29999996722E+02 0.  0.
         12    1    1    2    0    0 -0.23480645288E+02 -0.71746519669E+01  0.32409094888E+02  0.40659141229E+02  0.00000000000E+00 0. -1.
         11    1    3    3    0    0  0.95890639129E+01  0.34191262881E+01 -0.10181890843E+02  0.14398314925E+02  0.51100000000E-03 0.  1.
        -11    1    3    3    0    0  0.81260002740E+01  0.51604240119E+01 -0.26904410217E+02  0.28574624159E+02  0.51100000000E-03 0. -1.
         12    1    3    3    0    0  0.57655811007E+01 -0.14048983332E+01  0.46772061711E+01  0.75559196874E+01  0.00000000000E+00 0. -1.
</event>
<event>
 7    1  0.1161807E-013  0.5052886E+02  0.7816164E-02  0.1300439E+00
        -11   -1    0    0    0    0  0.00000000000E+00  0.00000000000E+00  0.45593999997E+02  0.45594000000E+02  0.51100000000E-03 0. -1.
         11   -1    0    0    0    0 -0.00000000000E+00 -0.00000000000E+00 -0.45593999997E+02  0.45594000000E+02  0.51100000000E-03 0.  1.
    9900012    2    1    2    0    0  0.79487127450E+01 -0.12990464197E+02 -0.37699227147E+02  0.50528856848E+02  0.29999990874E+02 0.  0.
         12    1    1    2    0    0 -0.79487127450E+01  0.12990464197E+02  0.37699227147E+02  0.40659143152E+02  0.00000000000E+00 0. -1.
         11    1    3    3    0    0  0.24066864704E+01  0.10363916380E+01  0.40612712683E+01  0.48332361798E+01  0.51100000000E-03 0. -1.
        -11    1    3    3    0    0 -0.29474394649E+01 -0.41221211544E+01 -0.16572866521E+02  0.17330296801E+02  0.51100000000E-03 0.  1.
        -12    1    3    3    0    0  0.84894657395E+01 -0.99047346806E+01 -0.25187631895E+02  0.28365323867E+02  0.00000000000E+00 0.  1.
</event>
<event>
 7    1  0.1161807E-013  0.5052882E+02  0.7816164E-02  0.1300439E+00
        -11   -1    0    0    0    0  0.00000000000E+00  0.00000000000E+00  0.45593999997E+02  0.45594000000E+02  0.51100000000E-03 0. -1.
         11   -1    0    0    0    0 -0.00000000000E+00 -0.00000000000E+00 -0.45593999997E+02  0.45594000000E+02  0.51100000000E-03 0.  1.
    9900012    2    1    2    0    0  0.55872517367E+00 -0.99998719553E+01 -0.39406334878E+02  0.50528820944E+02  0.29999881742E+02 0.  0.
         12    1    1    2    0    0 -0.55872517367E+00  0.99998719553E+01  0.39406334878E+02  0.40659179056E+02  0.00000000000E+00 0. -1.
         11    1    3    3    0    0  0.85134451479E+00 -0.64627335880E+01 -0.47722252733E+01  0.80787280702E+01  0.51100000000E-03 0. -1.
        -11    1    3    3    0    0 -0.15269511262E+01  0.51237137861E+01  0.12703049076E+01  0.54952431723E+01  0.51100000000E-03 0.  1.
        -12    1    3    3    0    0  0.12343317851E+01 -0.86608521534E+01 -0.35904414513E+02  0.36954849702E+02  0.00000000000E+00 0.  1.
</event>
<event>
 7    1  0.1161807E-013  0.5052885E+02  0.7816164E-02  0.1300439E+00
        -11   -1    0    0    0    0  0.00000000000E+00  0.00000000000E+00  0.45593999997E+02  0.45594000000E+02  0.51100000000E-03 0. -1.
         11   -1    0    0    0    0 -0.00000000000E+00 -0.00000000000E+00 -0.45593999997E+02  0.45594000000E+02  0.51100000000E-03 0.  1.
    9900012    2    1    2    0    0 -0.36807616981E+02  0.11931273401E+02 -0.12490414056E+02  0.50528851016E+02  0.29999973148E+02 0.  0.
         12    1    1    2    0    0  0.36807616981E+02 -0.11931273401E+02  0.12490414056E+02  0.40659148984E+02  0.00000000000E+00 0. -1.
         11    1    3    3    0    0 -0.15390538723E+02  0.83260648513E+01  0.85198098719E+00  0.17519072748E+02  0.51100000000E-03 0. -1.
        -11    1    3    3    0    0 -0.21837855838E+02  0.22699346872E+01 -0.25227961662E+01  0.22099978548E+02  0.51100000000E-03 0.  1.
         12    1    3    3    0    0  0.42077757948E+00  0.13352738627E+01 -0.10819598877E+02  0.10909799720E+02  0.00000000000E+00 0. -1.
</event>
<event>
 7    1  0.1161807E-013  0.5052886E+02  0.7816164E-02  0.1300439E+00
        -11   -1    0    0    0    0  0.00000000000E+00  0.00000000000E+00  0.45593999997E+02  0.45594000000E+02  0.51100000000E-03 0. -1.
         11   -1    0    0    0    0 -0.00000000000E+00 -0.00000000000E+00 -0.45593999997E+02  0.45594000000E+02  0.51100000000E-03 0.  1.
    9900012    2    1    2    0    0  0.21009528902E+02 -0.27506549994E+01  0.34701573637E+02  0.50528860553E+02  0.30000002138E+02 0.  0.
        -12    1    1    2    0    0 -0.21009528902E+02  0.27506549994E+01 -0.34701573637E+02  0.40659139447E+02  0.00000000000E+00 0.  1.
         11    1    3    3    0    0  0.60721644388E+00  0.71825982110E+01  0.24457054410E+02  0.25497175129E+02  0.51100000000E-03 0. -1.
        -11    1    3    3    0    0  0.10981053461E+01 -0.87620722178E+00  0.73224796237E-01  0.14067468069E+01  0.51100000000E-03 0.  1.
         12    1    3    3    0    0  0.19304207112E+02 -0.90570459886E+01  0.10171294431E+02  0.23624938617E+02  0.00000000000E+00 0. -1.
</event>
<event>
 7    1  0.1161807E-013  0.5052886E+02  0.7816164E-02  0.1300439E+00
        -11   -1    0    0    0    0  0.00000000000E+00  0.00000000000E+00  0.45593999997E+02  0.45594000000E+02  0.51100000000E-03 0. -1.
         11   -1    0    0    0    0 -0.00000000000E+00 -0.00000000000E+00 -0.45593999997E+02  0.45594000000E+02  0.51100000000E-03 0.  1.
    9900012    2    1    2    0    0  0.10029171187E+02  0.83676722263E+01  0.38504075347E+02  0.50528855500E+02  0.29999986777E+02 0.  0.
        -12    1    1    2    0    0 -0.10029171187E+02 -0.83676722263E+01 -0.38504075347E+02  0.40659144500E+02  0.00000000000E+00 0.  1.
         11    1    3    3    0    0  0.53074920434E+01  0.62879658403E+01  0.26064876622E+02  0.27332869952E+02  0.51100000000E-03 0. -1.
        -11    1    3    3    0    0 -0.64276095735E+01  0.15625408966E+01  0.18033175704E+00  0.66172667082E+01  0.51100000000E-03 0.  1.
         12    1    3    3    0    0  0.11149288718E+02  0.51716548939E+00  0.12258866967E+02  0.16578718840E+02  0.00000000000E+00 0. -1.
</event>
<event>
 7    1  0.2130912E-013  0.5052886E+02  0.7816164E-02  0.1300439E+00
        -11   -1    0    0    0    0  0.00000000000E+00  0.00000000000E+00  0.45593999997E+02  0.45594000000E+02  0.51100000000E-03 0. -1.
         11   -1    0    0    0    0 -0.00000000000E+00 -0.00000000000E+00 -0.45593999997E+02  0.45594000000E+02  0.51100000000E-03 0.  1.
    9900012    2    1    2    0    0  0.64658917100E+01  0.11037878973E+02 -0.38594339143E+02  0.50528861523E+02  0.30000005084E+02 0.  0.
         12    1    1    2    0    0 -0.64658917100E+01 -0.11037878973E+02  0.38594339143E+02  0.40659138477E+02  0.00000000000E+00 0. -1.
         11    1    3    3    0    0 -0.73937849898E+01 -0.10677902267E+01 -0.12031023438E+02  0.14161700381E+02  0.51100000000E-03 0. -1.
        -11    1    3    3    0    0  0.44997505149E+01 -0.16392285770E+00  0.11496129214E+01  0.46471750053E+01  0.51100000000E-03 0.  1.
        -12    1    3    3    0    0  0.93599261849E+01  0.12269592058E+02 -0.27712928626E+02  0.31719986136E+02  0.00000000000E+00 0.  1.
</event>
<event>
 7    1  0.1161807E-013  0.5052882E+02  0.7816164E-02  0.1300439E+00
        -11   -1    0    0    0    0  0.00000000000E+00  0.00000000000E+00  0.45593999997E+02  0.45594000000E+02  0.51100000000E-03 0. -1.
         11   -1    0    0    0    0 -0.00000000000E+00 -0.00000000000E+00 -0.45593999997E+02  0.45594000000E+02  0.51100000000E-03 0.  1.
    9900012    2    1    2    0    0  0.38125198176E+02  0.36465695227E+01  0.13650653164E+02  0.50528824688E+02  0.29999893123E+02 0.  0.
        -12    1    1    2    0    0 -0.38125198176E+02 -0.36465695227E+01 -0.13650653164E+02  0.40659175312E+02  0.00000000000E+00 0.  1.
         11    1    3    3    0    0  0.37166615714E+02 -0.11649509796E+01  0.11664622878E+02  0.38971500633E+02  0.51100000000E-03 0. -1.
        -11    1    3    3    0    0  0.18436992158E+01  0.32107125296E+01 -0.39095635578E+01  0.53844766895E+01  0.51100000000E-03 0.  1.
        -12    1    3    3    0    0 -0.88511675426E+00  0.16008079726E+01  0.58955938437E+01  0.61728473659E+01  0.00000000000E+00 0.  1.
</event>
<event>
 7    1  0.1161807E-013  0.5052887E+02  0.7816164E-02  0.1300439E+00
        -11   -1    0    0    0    0  0.00000000000E+00  0.00000000000E+00  0.45593999997E+02  0.45594000000E+02  0.51100000000E-03 0. -1.
         11   -1    0    0    0    0 -0.00000000000E+00 -0.00000000000E+00 -0.45593999997E+02  0.45594000000E+02  0.51100000000E-03 0.  1.
    9900012    2    1    2    0    0  0.37833872530E+02 -0.18908570988E+01 -0.14771179582E+02  0.50528868216E+02  0.30000025430E+02 0.  0.
         12    1    1    2    0    0 -0.37833872530E+02  0.18908570988E+01  0.14771179582E+02  0.40659131784E+02  0.00000000000E+00 0. -1.
         11    1    3    3    0    0  0.57327447799E+01 -0.15503181320E+01  0.41260134589E+01  0.72313094489E+01  0.51100000000E-03 0. -1.
        -11    1    3    3    0    0 -0.28363590622E+01 -0.27302955401E+01 -0.19164660214E+01  0.43786172176E+01  0.51100000000E-03 0.  1.
        -12    1    3    3    0    0  0.34937486812E+02  0.23897565733E+01 -0.16980727019E+02  0.38918941550E+02  0.00000000000E+00 0.  1.
</event>
<event>
 7    1  0.1161807E-013  0.5052880E+02  0.7816164E-02  0.1300439E+00
        -11   -1    0    0    0    0  0.00000000000E+00  0.00000000000E+00  0.45593999997E+02  0.45594000000E+02  0.51100000000E-03 0. -1.
         11   -1    0    0    0    0 -0.00000000000E+00 -0.00000000000E+00 -0.45593999997E+02  0.45594000000E+02  0.51100000000E-03 0.  1.
    9900012    2    1    2    0    0  0.10246602311E+02 -0.19808638568E+01  0.39296996292E+02  0.50528799342E+02  0.29999816081E+02 0.  0.
        -12    1    1    2    0    0 -0.10246602311E+02  0.19808638568E+01 -0.39296996292E+02  0.40659200658E+02  0.00000000000E+00 0.  1.
         11    1    3    3    0    0  0.33356753841E+01 -0.57559137340E+00  0.18087818301E+02  0.18401826182E+02  0.51100000000E-03 0. -1.
        -11    1    3    3    0    0 -0.31931909929E+01 -0.76078425093E+01  0.18066714314E+02  0.19861568486E+02  0.51100000000E-03 0.  1.
         12    1    3    3    0    0  0.10104117919E+02  0.62025700259E+01  0.31424636773E+01  0.12265404674E+02  0.00000000000E+00 0. -1.
</event>
<event>
 7    1  0.1161807E-013  0.5052886E+02  0.7816164E-02  0.1300439E+00
        -11   -1    0    0    0    0  0.00000000000E+00  0.00000000000E+00  0.45593999997E+02  0.45594000000E+02  0.51100000000E-03 0.  1.
         11   -1    0    0    0    0 -0.00000000000E+00 -0.00000000000E+00 -0.45593999997E+02  0.45594000000E+02  0.51100000000E-03 0. -1.
    9900012    2    1    2    0    0 -0.30000804763E+02  0.27442641544E+02  0.13800162938E+00  0.50528857045E+02  0.29999991475E+02 0.  0.
         12    1    1    2    0    0  0.30000804763E+02 -0.27442641544E+02 -0.13800162938E+00  0.40659142955E+02  0.00000000000E+00 0. -1.
         11    1    3    3    0    0 -0.12551678715E+02  0.11033274759E+02 -0.50579765410E+01  0.17460266819E+02  0.51100000000E-03 0. -1.
        -11    1    3    3    0    0  0.10197052033E+01  0.10667411327E+02  0.82031469996E+01  0.13495372691E+02  0.51100000000E-03 0.  1.
         12    1    3    3    0    0 -0.18468831252E+02  0.57419554583E+01 -0.30071688292E+01  0.19573217535E+02  0.00000000000E+00 0. -1.
</event>
<event>
 7    1  0.1565487E-013  0.5052886E+02  0.7816164E-02  0.1300439E+00
        -11   -1    0    0    0    0  0.00000000000E+00  0.00000000000E+00  0.45593999997E+02  0.45594000000E+02  0.51100000000E-03 0. -1.
         11   -1    0    0    0    0 -0.00000000000E+00 -0.00000000000E+00 -0.45593999997E+02  0.45594000000E+02  0.51100000000E-03 0.  1.
    9900012    2    1    2    0    0 -0.23263191421E+01  0.21457169317E+02 -0.34457857015E+02  0.50528858520E+02  0.29999995957E+02 0.  0.
         12    1    1    2    0    0  0.23263191421E+01 -0.21457169317E+02  0.34457857015E+02  0.40659141480E+02  0.00000000000E+00 0. -1.
         11    1    3    3    0    0  0.95951675605E+00 -0.19936830003E-01  0.30277610848E+01  0.31762253273E+01  0.51100000000E-03 0. -1.
        -11    1    3    3    0    0 -0.19060546905E+01  0.16736842078E+02 -0.10347961689E+02  0.19769553324E+02  0.51100000000E-03 0.  1.
        -12    1    3    3    0    0 -0.13797812077E+01  0.47402640690E+01 -0.27137656410E+02  0.27583079869E+02  0.00000000000E+00 0.  1.
</event>
<event>
 7    1  0.1161807E-013  0.5052884E+02  0.7816164E-02  0.1300439E+00
        -11   -1    0    0    0    0  0.00000000000E+00  0.00000000000E+00  0.45593999997E+02  0.45594000000E+02  0.51100000000E-03 0. -1.
         11   -1    0    0    0    0 -0.00000000000E+00 -0.00000000000E+00 -0.45593999997E+02  0.45594000000E+02  0.51100000000E-03 0.  1.
    9900012    2    1    2    0    0 -0.30269537854E+02 -0.22810104502E+02 -0.14718057723E+02  0.50528843438E+02  0.29999950113E+02 0.  0.
         12    1    1    2    0    0  0.30269537854E+02  0.22810104502E+02  0.14718057723E+02  0.40659156562E+02  0.00000000000E+00 0. -1.
         11    1    3    3    0    0 -0.76646804308E+01 -0.84561113562E+01 -0.12753575886E+02  0.17114521422E+02  0.51100000000E-03 0. -1.
        -11    1    3    3    0    0 -0.22265095433E+02 -0.17368241835E+02 -0.54864616078E+01  0.28766153033E+02  0.51100000000E-03 0.  1.
        -12    1    3    3    0    0 -0.33976198970E+00  0.30142486899E+01  0.35219797714E+01  0.46481689819E+01  0.00000000000E+00 0.  1.
</event>
<event>
 7    1  0.1161807E-013  0.5052885E+02  0.7816164E-02  0.1300439E+00
        -11   -1    0    0    0    0  0.00000000000E+00  0.00000000000E+00  0.45593999997E+02  0.45594000000E+02  0.51100000000E-03 0. -1.
         11   -1    0    0    0    0 -0.00000000000E+00 -0.00000000000E+00 -0.45593999997E+02  0.45594000000E+02  0.51100000000E-03 0.  1.
    9900012    2    1    2    0    0  0.13356163097E+02 -0.14253343729E+01 -0.38376395381E+02  0.50528851052E+02  0.29999973256E+02 0.  0.
         12    1    1    2    0    0 -0.13356163097E+02  0.14253343729E+01  0.38376395381E+02  0.40659148948E+02  0.00000000000E+00 0. -1.
         11    1    3    3    0    0  0.14726212328E+02  0.17564078331E+01 -0.26062622902E+02  0.29986773931E+02  0.51100000000E-03 0. -1.
        -11    1    3    3    0    0  0.39551233818E+01 -0.43618246594E+01 -0.13702253888E+02  0.14913761336E+02  0.51100000000E-03 0.  1.
         12    1    3    3    0    0 -0.53251726123E+01  0.11800824534E+01  0.13884814084E+01  0.56283157844E+01  0.00000000000E+00 0. -1.
</event>
<event>
 7    1  0.1161807E-013  0.5052886E+02  0.7816164E-02  0.1300439E+00
        -11   -1    0    0    0    0  0.00000000000E+00  0.00000000000E+00  0.45593999997E+02  0.45594000000E+02  0.51100000000E-03 0. -1.
         11   -1    0    0    0    0 -0.00000000000E+00 -0.00000000000E+00 -0.45593999997E+02  0.45594000000E+02  0.51100000000E-03 0.  1.
    9900012    2    1    2    0    0  0.12876214531E+02 -0.31582947808E+02 -0.22133370651E+02  0.50528860938E+02  0.30000003309E+02 0.  0.
         12    1    1    2    0    0 -0.12876214531E+02  0.31582947808E+02  0.22133370651E+02  0.40659139062E+02  0.00000000000E+00 0. -1.
         11    1    3    3    0    0  0.44170407616E+01  0.17854478605E+00 -0.25495015327E+00  0.44279935831E+01  0.51100000000E-03 0. -1.
        -11    1    3    3    0    0  0.15383193953E+02 -0.12025453137E+02 -0.12460755155E+02  0.23163000639E+02  0.51100000000E-03 0.  1.
         12    1    3    3    0    0 -0.69240201841E+01 -0.19736039457E+02 -0.94176653423E+01  0.22937866716E+02  0.00000000000E+00 0. -1.
</event>
<event>
 7    1  0.1161807E-013  0.5052886E+02  0.7816164E-02  0.1300439E+00
        -11   -1    0    0    0    0  0.00000000000E+00  0.00000000000E+00  0.45593999997E+02  0.45594000000E+02  0.51100000000E-03 0. -1.
         11   -1    0    0    0    0 -0.00000000000E+00 -0.00000000000E+00 -0.45593999997E+02  0.45594000000E+02  0.51100000000E-03 0.  1.
    9900012    2    1    2    0    0  0.84083405379E+01  0.24788287396E+02 -0.31112796735E+02  0.50528861995E+02  0.30000006520E+02 0.  0.
         12    1    1    2    0    0 -0.84083405379E+01 -0.24788287396E+02  0.31112796735E+02  0.40659138005E+02  0.00000000000E+00 0. -1.
         11    1    3    3    0    0 -0.30740999426E+01  0.14951360528E+01  0.14761415700E+00  0.34215950190E+01  0.51100000000E-03 0. -1.
        -11    1    3    3    0    0 -0.72440235518E+01  0.95747953975E+01 -0.99039405348E+01  0.15564081165E+02  0.51100000000E-03 0.  1.
        -12    1    3    3    0    0  0.18726464032E+02  0.13718355946E+02 -0.21356470357E+02  0.31543185811E+02  0.00000000000E+00 0.  1.
</event>
<event>
 7    1  0.1161807E-013  0.5052884E+02  0.7816164E-02  0.1300439E+00
        -11   -1    0    0    0    0  0.00000000000E+00  0.00000000000E+00  0.45593999997E+02  0.45594000000E+02  0.51100000000E-03 0. -1.
         11   -1    0    0    0    0 -0.00000000000E+00 -0.00000000000E+00 -0.45593999997E+02  0.45594000000E+02  0.51100000000E-03 0.  1.
    9900012    2    1    2    0    0 -0.29570609118E+02 -0.11842921634E+02 -0.25268390225E+02  0.50528840380E+02  0.29999940818E+02 0.  0.
         12    1    1    2    0    0  0.29570609118E+02  0.11842921634E+02  0.25268390225E+02  0.40659159620E+02  0.00000000000E+00 0. -1.
         11    1    3    3    0    0 -0.20912159940E+02 -0.12645412122E+02 -0.23420839514E+02  0.33849085732E+02  0.51100000000E-03 0. -1.
        -11    1    3    3    0    0 -0.50559252555E+01 -0.57708671516E+01 -0.42972018220E+01  0.87938178075E+01  0.51100000000E-03 0.  1.
         12    1    3    3    0    0 -0.36025239230E+01  0.65733576402E+01  0.24496511107E+01  0.78859368401E+01  0.00000000000E+00 0. -1.
</event>
<event>
 7    1  0.1193377E-013  0.5052885E+02  0.7816164E-02  0.1300439E+00
        -11   -1    0    0    0    0  0.00000000000E+00  0.00000000000E+00  0.45593999997E+02  0.45594000000E+02  0.51100000000E-03 0. -1.
         11   -1    0    0    0    0 -0.00000000000E+00 -0.00000000000E+00 -0.45593999997E+02  0.45594000000E+02  0.51100000000E-03 0.  1.
    9900012    2    1    2    0    0 -0.69381347486E+01 -0.75397020917E+00 -0.40055714623E+02  0.50528850244E+02  0.29999970803E+02 0.  0.
         12    1    1    2    0    0  0.69381347486E+01  0.75397020917E+00  0.40055714623E+02  0.40659149756E+02  0.00000000000E+00 0. -1.
         11    1    3    3    0    0 -0.68179747445E+00 -0.65665119893E+01 -0.66152635369E+01  0.93458889051E+01  0.51100000000E-03 0. -1.
        -11    1    3    3    0    0  0.43624879067E+00 -0.60220527478E+01 -0.11492078590E+01  0.61462274013E+01  0.51100000000E-03 0.  1.
        -12    1    3    3    0    0 -0.66925860648E+01  0.11834594528E+02 -0.32291243227E+02  0.35036733938E+02  0.00000000000E+00 0.  1.
</event>
<event>
 7    1  0.1161807E-013  0.5052886E+02  0.7816164E-02  0.1300439E+00
        -11   -1    0    0    0    0  0.00000000000E+00  0.00000000000E+00  0.45593999997E+02  0.45594000000E+02  0.51100000000E-03 0.  1.
         11   -1    0    0    0    0 -0.00000000000E+00 -0.00000000000E+00 -0.45593999997E+02  0.45594000000E+02  0.51100000000E-03 0. -1.
    9900012    2    1    2    0    0 -0.47997522490E+01 -0.27011833609E+02  0.30008141891E+02  0.50528863803E+02  0.30000012014E+02 0.  0.
        -12    1    1    2    0    0  0.47997522490E+01  0.27011833609E+02 -0.30008141891E+02  0.40659136197E+02  0.00000000000E+00 0.  1.
         11    1    3    3    0    0 -0.47156143122E+01 -0.21507989999E+02  0.15853672750E+02  0.27132445376E+02  0.51100000000E-03 0. -1.
        -11    1    3    3    0    0 -0.67023332543E+01 -0.14747684924E+01 -0.43573851822E+00  0.68764875827E+01  0.51100000000E-03 0.  1.
         12    1    3    3    0    0  0.66181953176E+01 -0.40290751175E+01  0.14590207658E+02  0.16519930844E+02  0.00000000000E+00 0. -1.
</event>
<event>
 7    1  0.1161807E-013  0.5052886E+02  0.7816164E-02  0.1300439E+00
        -11   -1    0    0    0    0  0.00000000000E+00  0.00000000000E+00  0.45593999997E+02  0.45594000000E+02  0.51100000000E-03 0. -1.
         11   -1    0    0    0    0 -0.00000000000E+00 -0.00000000000E+00 -0.45593999997E+02  0.45594000000E+02  0.51100000000E-03 0.  1.
    9900012    2    1    2    0    0 -0.12054176759E+02  0.27678246946E+02  0.27235579207E+02  0.50528864421E+02  0.30000013893E+02 0.  0.
        -12    1    1    2    0    0  0.12054176759E+02 -0.27678246946E+02 -0.27235579207E+02  0.40659135579E+02  0.00000000000E+00 0.  1.
         11    1    3    3    0    0 -0.90475680539E+01  0.99531112680E+01  0.15411676993E+02  0.20455872008E+02  0.51100000000E-03 0. -1.
        -11    1    3    3    0    0 -0.53035103407E+01 -0.25609905861E+01  0.69002912838E+01  0.90719300470E+01  0.51100000000E-03 0.  1.
         12    1    3    3    0    0  0.22969016355E+01  0.20286126264E+02  0.49236109304E+01  0.21001062366E+02  0.00000000000E+00 0. -1.
</event>
<event>
 7    1  0.1161807E-013  0.5052885E+02  0.7816164E-02  0.1300439E+00
        -11   -1    0    0    0    0  0.00000000000E+00  0.00000000000E+00  0.45593999997E+02  0.45594000000E+02  0.51100000000E-03 0. -1.
         11   -1    0    0    0    0 -0.00000000000E+00 -0.00000000000E+00 -0.45593999997E+02  0.45594000000E+02  0.51100000000E-03 0.  1.
    9900012    2    1    2    0    0 -0.20684963786E+02 -0.34408336248E+02  0.64315499293E+01  0.50528853862E+02  0.29999981798E+02 0.  0.
        -12    1    1    2    0    0  0.20684963786E+02  0.34408336248E+02 -0.64315499293E+01  0.40659146138E+02  0.00000000000E+00 0.  1.
         11    1    3    3    0    0 -0.41043541340E+01  0.22668465543E+01 -0.22320167242E+01  0.51929004493E+01  0.51100000000E-03 0. -1.
        -11    1    3    3    0    0 -0.49094245505E+01 -0.63743026543E+01 -0.56691999656E+01  0.98424596650E+01  0.51100000000E-03 0.  1.
        -12    1    3    3    0    0 -0.11671185101E+02 -0.30300880148E+02  0.14332766619E+02  0.35493493747E+02  0.00000000000E+00 0.  1.
</event>
<event>
 7    1  0.1161807E-013  0.5052887E+02  0.7816164E-02  0.1300439E+00
        -11   -1    0    0    0    0  0.00000000000E+00  0.00000000000E+00  0.45593999997E+02  0.45594000000E+02  0.51100000000E-03 0. -1.
         11   -1    0    0    0    0 -0.00000000000E+00 -0.00000000000E+00 -0.45593999997E+02  0.45594000000E+02  0.51100000000E-03 0.  1.
    9900012    2    1    2    0    0 -0.34869332930E+02 -0.85809696764E+01  0.19069914615E+02  0.50528867410E+02  0.30000022978E+02 0.  0.
        -12    1    1    2    0    0  0.34869332930E+02  0.85809696764E+01 -0.19069914615E+02  0.40659132590E+02  0.00000000000E+00 0.  1.
         11    1    3    3    0    0 -0.70694127651E+01 -0.70057163197E+01  0.11894573711E+01  0.10023545635E+02  0.51100000000E-03 0. -1.
        -11    1    3    3    0    0 -0.17586659014E+02  0.52677134874E+01 -0.53145106119E+00  0.18366323017E+02  0.51100000000E-03 0.  1.
         12    1    3    3    0    0 -0.10213261151E+02 -0.68429668440E+01  0.18411908305E+02  0.22138998758E+02  0.00000000000E+00 0. -1.
</event>
<event>
 7    1  0.1161807E-013  0.5052886E+02  0.7816164E-02  0.1300439E+00
        -11   -1    0    0    0    0  0.00000000000E+00  0.00000000000E+00  0.45593999997E+02  0.45594000000E+02  0.51100000000E-03 0. -1.
         11   -1    0    0    0    0 -0.00000000000E+00 -0.00000000000E+00 -0.45593999997E+02  0.45594000000E+02  0.51100000000E-03 0.  1.
    9900012    2    1    2    0    0 -0.64207628823E+00  0.50680572132E+00 -0.40650910687E+02  0.50528860146E+02  0.30000000899E+02 0.  0.
         12    1    1    2    0    0  0.64207628823E+00 -0.50680572132E+00  0.40650910687E+02  0.40659139854E+02  0.00000000000E+00 0. -1.
         11    1    3    3    0    0  0.49071712803E+01 -0.86789075443E+01 -0.22101703802E+02  0.24246424012E+02  0.51100000000E-03 0. -1.
        -11    1    3    3    0    0  0.28327917922E+01 -0.10474438470E+01 -0.10205312462E+02  0.10642849743E+02  0.51100000000E-03 0.  1.
         12    1    3    3    0    0 -0.83820393607E+01  0.10233157113E+02 -0.83438944224E+01  0.15639586391E+02  0.00000000000E+00 0. -1.
</event>
<event>
 7    1  0.1161807E-013  0.5052886E+02  0.7816164E-02  0.1300439E+00
        -11   -1    0    0    0    0  0.00000000000E+00  0.00000000000E+00  0.45593999997E+02  0.45594000000E+02  0.51100000000E-03 0.  1.
         11   -1    0    0    0    0 -0.00000000000E+00 -0.00000000000E+00 -0.45593999997E+02  0.45594000000E+02  0.51100000000E-03 0. -1.
    9900012    2    1    2    0    0 -0.39850497250E+02  0.92109475963E+00  0.80159239849E+01  0.50528861003E+02  0.30000003505E+02 0.  0.
         12    1    1    2    0    0  0.39850497250E+02 -0.92109475963E+00 -0.80159239849E+01  0.40659138997E+02  0.00000000000E+00 0. -1.
         11    1    3    3    0    0 -0.71687937412E+01 -0.36490329582E-01 -0.88830430748E+01  0.11414963416E+02  0.51100000000E-03 0. -1.
        -11    1    3    3    0    0 -0.14463118331E+02 -0.45470086507E+01  0.27733209328E+01  0.15412604867E+02  0.51100000000E-03 0.  1.
         12    1    3    3    0    0 -0.18218585178E+02  0.55045937399E+01  0.14125646127E+02  0.23701292721E+02  0.00000000000E+00 0. -1.
</event>
<event>
 7    1  0.1161807E-013  0.5052893E+02  0.7816164E-02  0.1300439E+00
        -11   -1    0    0    0    0  0.00000000000E+00  0.00000000000E+00  0.45593999997E+02  0.45594000000E+02  0.51100000000E-03 0. -1.
         11   -1    0    0    0    0 -0.00000000000E+00 -0.00000000000E+00 -0.45593999997E+02  0.45594000000E+02  0.51100000000E-03 0.  1.
    9900012    2    1    2    0    0 -0.19961465221E+02 -0.29257097981E+02  0.19968035318E+02  0.50528925853E+02  0.30000200621E+02 0.  0.
        -12    1    1    2    0    0  0.19961465221E+02  0.29257097981E+02 -0.19968035318E+02  0.40659074147E+02  0.00000000000E+00 0.  1.
         11    1    3    3    0    0 -0.99736878364E+01 -0.30247456053E+01  0.94814537851E+00  0.10465300519E+02  0.51100000000E-03 0. -1.
        -11    1    3    3    0    0 -0.10895426646E+02 -0.11523119612E+02 -0.18042668622E+00  0.15859544805E+02  0.51100000000E-03 0.  1.
        -12    1    3    3    0    0  0.90764926123E+00 -0.14709232764E+02  0.19200316626E+02  0.24204080528E+02  0.00000000000E+00 0.  1.
</event>
<event>
 7    1  0.1161807E-013  0.5052886E+02  0.7816164E-02  0.1300439E+00
        -11   -1    0    0    0    0  0.00000000000E+00  0.00000000000E+00  0.45593999997E+02  0.45594000000E+02  0.51100000000E-03 0. -1.
         11   -1    0    0    0    0 -0.00000000000E+00 -0.00000000000E+00 -0.45593999997E+02  0.45594000000E+02  0.51100000000E-03 0.  1.
    9900012    2    1    2    0    0  0.10851222401E+02  0.10442711093E+02 -0.37767266614E+02  0.50528859944E+02  0.30000000287E+02 0.  0.
         12    1    1    2    0    0 -0.10851222401E+02 -0.10442711093E+02  0.37767266614E+02  0.40659140056E+02  0.00000000000E+00 0. -1.
         11    1    3    3    0    0  0.33121694451E+01  0.82388641677E+01 -0.13450043203E+02  0.16116854893E+02  0.51100000000E-03 0.  1.
        -11    1    3    3    0    0  0.39401728070E+01  0.36406044312E+01  0.34483600204E+01  0.63773152239E+01  0.51100000000E-03 0. -1.
         12    1    3    3    0    0  0.35988801492E+01 -0.14367575061E+01 -0.27765583431E+02  0.28034689828E+02  0.00000000000E+00 0. -1.
</event>
<event>
 7    1  0.1161807E-013  0.5052887E+02  0.7816164E-02  0.1300439E+00
        -11   -1    0    0    0    0  0.00000000000E+00  0.00000000000E+00  0.45593999997E+02  0.45594000000E+02  0.51100000000E-03 0. -1.
         11   -1    0    0    0    0 -0.00000000000E+00 -0.00000000000E+00 -0.45593999997E+02  0.45594000000E+02  0.51100000000E-03 0.  1.
    9900012    2    1    2    0    0 -0.53706133666E+00 -0.29970180628E+02 -0.27471166335E+02  0.50528866444E+02  0.30000020043E+02 0.  0.
         12    1    1    2    0    0  0.53706133666E+00  0.29970180628E+02  0.27471166335E+02  0.40659133556E+02  0.00000000000E+00 0. -1.
         11    1    3    3    0    0 -0.43616459326E+01 -0.12284813486E+01 -0.17539603429E+01  0.48589606719E+01  0.51100000000E-03 0. -1.
        -11    1    3    3    0    0 -0.24693645270E+00 -0.86380706715E+01  0.40310518961E+01  0.95355451961E+01  0.51100000000E-03 0.  1.
        -12    1    3    3    0    0  0.40715210487E+01 -0.20103628608E+02 -0.29748257888E+02  0.36134360576E+02  0.00000000000E+00 0.  1.
</event>
<event>
 7    1  0.1161807E-013  0.5052884E+02  0.7816164E-02  0.1300439E+00
        -11   -1    0    0    0    0  0.00000000000E+00  0.00000000000E+00  0.45593999997E+02  0.45594000000E+02  0.51100000000E-03 0. -1.
         11   -1    0    0    0    0 -0.00000000000E+00 -0.00000000000E+00 -0.45593999997E+02  0.45594000000E+02  0.51100000000E-03 0.  1.
    9900012    2    1    2    0    0  0.25123744955E+02  0.15198939589E+02  0.28123958212E+02  0.50528839277E+02  0.29999937466E+02 0.  0.
        -12    1    1    2    0    0 -0.25123744955E+02 -0.15198939589E+02 -0.28123958212E+02  0.40659160723E+02  0.00000000000E+00 0.  1.
         11    1    3    3    0    0  0.12662290465E+02  0.75768764365E+01  0.68462056569E+01  0.16266935437E+02  0.51100000000E-03 0. -1.
        -11    1    3    3    0    0 -0.31065819855E+01  0.63628324261E+01 -0.89846334548E+00  0.71374872862E+01  0.51100000000E-03 0.  1.
         12    1    3    3    0    0  0.15568036476E+02  0.12592307262E+01  0.22176215900E+02  0.27124416554E+02  0.00000000000E+00 0. -1.
</event>
<event>
 7    1  0.1161807E-013  0.5052889E+02  0.7816164E-02  0.1300439E+00
        -11   -1    0    0    0    0  0.00000000000E+00  0.00000000000E+00  0.45593999997E+02  0.45594000000E+02  0.51100000000E-03 0. -1.
         11   -1    0    0    0    0 -0.00000000000E+00 -0.00000000000E+00 -0.45593999997E+02  0.45594000000E+02  0.51100000000E-03 0.  1.
    9900012    2    1    2    0    0 -0.28407506774E+02 -0.23643148561E+02  0.16946326406E+02  0.50528894087E+02  0.30000104066E+02 0.  0.
        -12    1    1    2    0    0  0.28407506774E+02  0.23643148561E+02 -0.16946326406E+02  0.40659105913E+02  0.00000000000E+00 0.  1.
         11    1    3    3    0    0  0.99823974514E+00 -0.26656837333E+01  0.26381222134E+00  0.28586621878E+01  0.51100000000E-03 0. -1.
        -11    1    3    3    0    0 -0.44866869670E+01  0.48665425706E+01 -0.23654552941E+01  0.70291518366E+01  0.51100000000E-03 0.  1.
         12    1    3    3    0    0 -0.24919059553E+02 -0.25844007398E+02  0.19047969478E+02  0.40641080062E+02  0.00000000000E+00 0. -1.
</event>
<event>
 7    1  0.1161807E-013  0.5052885E+02  0.7816164E-02  0.1300439E+00
        -11   -1    0    0    0    0  0.00000000000E+00  0.00000000000E+00  0.45593999997E+02  0.45594000000E+02  0.51100000000E-03 0. -1.
         11   -1    0    0    0    0 -0.00000000000E+00 -0.00000000000E+00 -0.45593999997E+02  0.45594000000E+02  0.51100000000E-03 0.  1.
    9900012    2    1    2    0    0 -0.20025546666E+02 -0.53998130870E+01 -0.34971213840E+02  0.50528852221E+02  0.29999976812E+02 0.  0.
         12    1    1    2    0    0  0.20025546666E+02  0.53998130870E+01  0.34971213840E+02  0.40659147779E+02  0.00000000000E+00 0. -1.
         11    1    3    3    0    0  0.16080396399E+01  0.28112759156E+01 -0.53983864772E+01  0.62953665958E+01  0.51100000000E-03 0. -1.
        -11    1    3    3    0    0 -0.19221979932E+01  0.42240940373E+01 -0.17263613133E+02  0.17876525228E+02  0.51100000000E-03 0.  1.
        -12    1    3    3    0    0 -0.19711388312E+02 -0.12435183040E+02 -0.12309214230E+02  0.26356960397E+02  0.00000000000E+00 0.  1.
</event>
<event>
 7    1  0.1161807E-013  0.5052886E+02  0.7816164E-02  0.1300439E+00
        -11   -1    0    0    0    0  0.00000000000E+00  0.00000000000E+00  0.45593999997E+02  0.45594000000E+02  0.51100000000E-03 0. -1.
         11   -1    0    0    0    0 -0.00000000000E+00 -0.00000000000E+00 -0.45593999997E+02  0.45594000000E+02  0.51100000000E-03 0.  1.
    9900012    2    1    2    0    0 -0.38723345143E+01 -0.18709745337E+02  0.35890335090E+02  0.50528859600E+02  0.29999999240E+02 0.  0.
        -12    1    1    2    0    0  0.38723345143E+01  0.18709745337E+02 -0.35890335090E+02  0.40659140400E+02  0.00000000000E+00 0.  1.
         11    1    3    3    0    0 -0.42887337675E+00 -0.13068835515E+02  0.95430652280E+01  0.16187911795E+02  0.51100000000E-03 0. -1.
        -11    1    3    3    0    0 -0.15129237425E+01  0.34272213290E+01 -0.21872031020E+01  0.43380458687E+01  0.51100000000E-03 0.  1.
         12    1    3    3    0    0 -0.19305373951E+01 -0.90681311517E+01  0.28534472964E+02  0.30002901936E+02  0.00000000000E+00 0. -1.
</event>
<event>
 7    1  0.1161807E-013  0.5052888E+02  0.7816164E-02  0.1300439E+00
        -11   -1    0    0    0    0  0.00000000000E+00  0.00000000000E+00  0.45593999997E+02  0.45594000000E+02  0.51100000000E-03 0.  1.
         11   -1    0    0    0    0 -0.00000000000E+00 -0.00000000000E+00 -0.45593999997E+02  0.45594000000E+02  0.51100000000E-03 0. -1.
    9900012    2    1    2    0    0  0.39900479300E+02  0.77791031143E+01  0.77567261592E+00  0.50528876034E+02  0.30000049193E+02 0.  0.
        -12    1    1    2    0    0 -0.39900479300E+02 -0.77791031143E+01 -0.77567261592E+00  0.40659123966E+02  0.00000000000E+00 0.  1.
         11    1    3    3    0    0  0.97380020886E+01  0.14343111915E+02  0.73303416808E+01  0.18822525163E+02  0.51100000000E-03 0. -1.
        -11    1    3    3    0    0  0.35760033881E+01 -0.80782132607E+00  0.22087317973E+00  0.36727592827E+01  0.51100000000E-03 0.  1.
         12    1    3    3    0    0  0.26586473824E+02 -0.57561874751E+01 -0.67755422446E+01  0.28033591588E+02  0.00000000000E+00 0. -1.
</event>
<event>
 7    1  0.1161807E-013  0.5052886E+02  0.7816164E-02  0.1300439E+00
        -11   -1    0    0    0    0  0.00000000000E+00  0.00000000000E+00  0.45593999997E+02  0.45594000000E+02  0.51100000000E-03 0. -1.
         11   -1    0    0    0    0 -0.00000000000E+00 -0.00000000000E+00 -0.45593999997E+02  0.45594000000E+02  0.51100000000E-03 0.  1.
    9900012    2    1    2    0    0  0.24499014427E+01 -0.24339117249E+02  0.32477237287E+02  0.50528860962E+02  0.30000003380E+02 0.  0.
        -12    1    1    2    0    0 -0.24499014427E+01  0.24339117249E+02 -0.32477237287E+02  0.40659139038E+02  0.00000000000E+00 0.  1.
         11    1    3    3    0    0  0.11968329314E+01 -0.11217652010E+00  0.10447733808E+01  0.15926532314E+01  0.51100000000E-03 0. -1.
        -11    1    3    3    0    0 -0.81563326283E+01 -0.17530728706E+01 -0.96662545356E+00  0.83984160091E+01  0.51100000000E-03 0.  1.
         12    1    3    3    0    0  0.94094011396E+01 -0.22473867858E+02  0.32399089360E+02  0.40537791721E+02  0.00000000000E+00 0. -1.
</event>
<event>
 7    1  0.1161807E-013  0.5052886E+02  0.7816164E-02  0.1300439E+00
        -11   -1    0    0    0    0  0.00000000000E+00  0.00000000000E+00  0.45593999997E+02  0.45594000000E+02  0.51100000000E-03 0. -1.
         11   -1    0    0    0    0 -0.00000000000E+00 -0.00000000000E+00 -0.45593999997E+02  0.45594000000E+02  0.51100000000E-03 0.  1.
    9900012    2    1    2    0    0 -0.16445370148E+02  0.19496890862E+02  0.31663648563E+02  0.50528860893E+02  0.30000003170E+02 0.  0.
        -12    1    1    2    0    0  0.16445370148E+02 -0.19496890862E+02 -0.31663648563E+02  0.40659139107E+02  0.00000000000E+00 0.  1.
         11    1    3    3    0    0 -0.15119798498E+01 -0.18385932651E+01  0.34700482624E+01  0.42080569703E+01  0.51100000000E-03 0. -1.
        -11    1    3    3    0    0  0.50826107306E+01  0.38434756954E+01  0.15710274614E+02  0.16953405733E+02  0.51100000000E-03 0.  1.
         12    1    3    3    0    0 -0.20016001029E+02  0.17492008432E+02  0.12483325687E+02  0.29367398189E+02  0.00000000000E+00 0. -1.
</event>
<event>
 7    1  0.1161807E-013  0.5052885E+02  0.7816164E-02  0.1300439E+00
        -11   -1    0    0    0    0  0.00000000000E+00  0.00000000000E+00  0.45593999997E+02  0.45594000000E+02  0.51100000000E-03 0.  1.
         11   -1    0    0    0    0 -0.00000000000E+00 -0.00000000000E+00 -0.45593999997E+02  0.45594000000E+02  0.51100000000E-03 0. -1.
    9900012    2    1    2    0    0  0.39180155904E+02 -0.64083542888E+01 -0.87757993422E+01  0.50528852500E+02  0.29999977658E+02 0.  0.
        -12    1    1    2    0    0 -0.39180155904E+02  0.64083542888E+01  0.87757993422E+01  0.40659147500E+02  0.00000000000E+00 0.  1.
         11    1    3    3    0    0  0.33990665785E+02 -0.83615785735E+01 -0.14146531475E+02  0.37754545551E+02  0.51100000000E-03 0. -1.
        -11    1    3    3    0    0  0.25021387137E+01 -0.36193706147E+01 -0.26152480789E+00  0.44078268200E+01  0.51100000000E-03 0.  1.
         12    1    3    3    0    0  0.26873514055E+01  0.55725948994E+01  0.56322569409E+01  0.83664801284E+01  0.00000000000E+00 0. -1.
</event>
<event>
 7    1  0.1161807E-013  0.5052882E+02  0.7816164E-02  0.1300439E+00
        -11   -1    0    0    0    0  0.00000000000E+00  0.00000000000E+00  0.45593999997E+02  0.45594000000E+02  0.51100000000E-03 0.  1.
         11   -1    0    0    0    0 -0.00000000000E+00 -0.00000000000E+00 -0.45593999997E+02  0.45594000000E+02  0.51100000000E-03 0. -1.
    9900012    2    1    2    0    0  0.28334650919E+01 -0.38173877197E+02 -0.13707495378E+02  0.50528820788E+02  0.29999881267E+02 0.  0.
        -12    1    1    2    0    0 -0.28334650919E+01  0.38173877197E+02  0.13707495378E+02  0.40659179212E+02  0.00000000000E+00 0.  1.
         11    1    3    3    0    0  0.50611975974E+01 -0.89203881050E+01  0.47587575727E+01  0.11306406103E+02  0.51100000000E-03 0. -1.
        -11    1    3    3    0    0  0.29360216138E+01 -0.41927375091E+01  0.29039214837E+01  0.58848985532E+01  0.51100000000E-03 0.  1.
        -12    1    3    3    0    0 -0.51637541193E+01 -0.25060751583E+02 -0.21370174435E+02  0.33337516132E+02  0.00000000000E+00 0.  1.
</event>
<event>
 7    1  0.1161807E-013  0.5052886E+02  0.7816164E-02  0.1300439E+00
        -11   -1    0    0    0    0  0.00000000000E+00  0.00000000000E+00  0.45593999997E+02  0.45594000000E+02  0.51100000000E-03 0. -1.
         11   -1    0    0    0    0 -0.00000000000E+00 -0.00000000000E+00 -0.45593999997E+02  0.45594000000E+02  0.51100000000E-03 0.  1.
    9900012    2    1    2    0    0  0.38103839555E+02  0.81474120406E+01  0.11613910186E+02  0.50528858081E+02  0.29999994622E+02 0.  0.
         12    1    1    2    0    0 -0.38103839555E+02 -0.81474120406E+01 -0.11613910186E+02  0.40659141919E+02  0.00000000000E+00 0. -1.
         11    1    3    3    0    0  0.21633480282E+02  0.58547636221E+01 -0.35359933533E+01  0.22688961533E+02  0.51100000000E-03 0. -1.
        -11    1    3    3    0    0  0.51850957129E+01  0.30211117505E+01 -0.28019984997E+01  0.66229547495E+01  0.51100000000E-03 0.  1.
         12    1    3    3    0    0  0.11285263560E+02 -0.72846333196E+00  0.17951902039E+02  0.21216941798E+02  0.00000000000E+00 0. -1.
</event>
<event>
 7    1  0.1161807E-013  0.5052886E+02  0.7816164E-02  0.1300439E+00
        -11   -1    0    0    0    0  0.00000000000E+00  0.00000000000E+00  0.45593999997E+02  0.45594000000E+02  0.51100000000E-03 0.  1.
         11   -1    0    0    0    0 -0.00000000000E+00 -0.00000000000E+00 -0.45593999997E+02  0.45594000000E+02  0.51100000000E-03 0. -1.
    9900012    2    1    2    0    0 -0.31063248396E+02 -0.29721830220E+01  0.26065423372E+02  0.50528861195E+02  0.30000004087E+02 0.  0.
        -12    1    1    2    0    0  0.31063248396E+02  0.29721830220E+01 -0.26065423372E+02  0.40659138805E+02  0.00000000000E+00 0.  1.
         11    1    3    3    0    0 -0.27931062515E+02 -0.81703733207E+01  0.95072333540E+01  0.30615139061E+02  0.51100000000E-03 0. -1.
        -11    1    3    3    0    0  0.15062500012E+01  0.29332043597E+01  0.88740497507E+00  0.34146690518E+01  0.51100000000E-03 0.  1.
        -12    1    3    3    0    0 -0.46384358823E+01  0.22649859390E+01  0.15670785043E+02  0.16499053082E+02  0.00000000000E+00 0.  1.
</event>
<event>
 7    1  0.1161807E-013  0.5052883E+02  0.7816164E-02  0.1300439E+00
        -11   -1    0    0    0    0  0.00000000000E+00  0.00000000000E+00  0.45593999997E+02  0.45594000000E+02  0.51100000000E-03 0.  1.
         11   -1    0    0    0    0 -0.00000000000E+00 -0.00000000000E+00 -0.45593999997E+02  0.45594000000E+02  0.51100000000E-03 0. -1.
    9900012    2    1    2    0    0  0.10906033878E+02 -0.29932985393E+02  0.25263473613E+02  0.50528827745E+02  0.29999902413E+02 0.  0.
        -12    1    1    2    0    0 -0.10906033878E+02  0.29932985393E+02 -0.25263473613E+02  0.40659172255E+02  0.00000000000E+00 0.  1.
         11    1    3    3    0    0  0.12997069430E+02 -0.46096180786E+01  0.80981676038E+01  0.15992270364E+02  0.51100000000E-03 0. -1.
        -11    1    3    3    0    0  0.46191046016E+01 -0.20960463475E+01  0.61397988712E+01  0.79640861404E+01  0.51100000000E-03 0.  1.
         12    1    3    3    0    0 -0.67101401532E+01 -0.23227320966E+02  0.11025507138E+02  0.26572471240E+02  0.00000000000E+00 0. -1.
</event>
<event>
 7    1  0.1161807E-013  0.5052886E+02  0.7816164E-02  0.1300439E+00
        -11   -1    0    0    0    0  0.00000000000E+00  0.00000000000E+00  0.45593999997E+02  0.45594000000E+02  0.51100000000E-03 0. -1.
         11   -1    0    0    0    0 -0.00000000000E+00 -0.00000000000E+00 -0.45593999997E+02  0.45594000000E+02  0.51100000000E-03 0.  1.
    9900012    2    1    2    0    0 -0.29333322870E+02 -0.26428132476E+02  0.97095595244E+01  0.50528861262E+02  0.30000004291E+02 0.  0.
         12    1    1    2    0    0  0.29333322870E+02  0.26428132476E+02 -0.97095595244E+01  0.40659138738E+02  0.00000000000E+00 0. -1.
         11    1    3    3    0    0  0.18230413178E+01 -0.13546572730E+01  0.29924673035E+01  0.37567854340E+01  0.51100000000E-03 0. -1.
        -11    1    3    3    0    0 -0.47562439116E+01  0.25191278406E+00  0.89311402062E+01  0.10121787483E+02  0.51100000000E-03 0.  1.
        -12    1    3    3    0    0 -0.26400120277E+02 -0.25325387987E+02 -0.22140479853E+01  0.36650288345E+02  0.00000000000E+00 0.  1.
</event>
<event>
 7    1  0.1161807E-013  0.5052885E+02  0.7816164E-02  0.1300439E+00
        -11   -1    0    0    0    0  0.00000000000E+00  0.00000000000E+00  0.45593999997E+02  0.45594000000E+02  0.51100000000E-03 0. -1.
         11   -1    0    0    0    0 -0.00000000000E+00 -0.00000000000E+00 -0.45593999997E+02  0.45594000000E+02  0.51100000000E-03 0.  1.
    9900012    2    1    2    0    0  0.83053576379E+01  0.24563945975E+02 -0.31317722727E+02  0.50528853868E+02  0.29999981818E+02 0.  0.
         12    1    1    2    0    0 -0.83053576379E+01 -0.24563945975E+02  0.31317722727E+02  0.40659146132E+02  0.00000000000E+00 0. -1.
         11    1    3    3    0    0  0.85711790739E+01  0.19091152148E+02 -0.19022956059E+02  0.28280913325E+02  0.51100000000E-03 0.  1.
        -11    1    3    3    0    0 -0.44530064190E+01  0.94316138269E+01 -0.22533853870E+01  0.10670630324E+02  0.51100000000E-03 0. -1.
         12    1    3    3    0    0  0.41871849830E+01 -0.39588199997E+01 -0.10041381281E+02  0.11577310219E+02  0.00000000000E+00 0. -1.
</event>
<event>
 7    1  0.1161807E-013  0.5052885E+02  0.7816164E-02  0.1300439E+00
        -11   -1    0    0    0    0  0.00000000000E+00  0.00000000000E+00  0.45593999997E+02  0.45594000000E+02  0.51100000000E-03 0. -1.
         11   -1    0    0    0    0 -0.00000000000E+00 -0.00000000000E+00 -0.45593999997E+02  0.45594000000E+02  0.51100000000E-03 0.  1.
    9900012    2    1    2    0    0 -0.21403141924E+02 -0.25910877369E+02  0.22884449883E+02  0.50528854698E+02  0.29999984341E+02 0.  0.
        -12    1    1    2    0    0  0.21403141924E+02  0.25910877369E+02 -0.22884449883E+02  0.40659145302E+02  0.00000000000E+00 0.  1.
         11    1    3    3    0    0  0.81992107765E+00 -0.21632709756E+01  0.31475115159E+01  0.39062566341E+01  0.51100000000E-03 0. -1.
        -11    1    3    3    0    0  0.28150865969E+01  0.34910967239E+01  0.52111567578E+01  0.68752180983E+01  0.51100000000E-03 0.  1.
         12    1    3    3    0    0 -0.25038149598E+02 -0.27238703117E+02  0.14525781609E+02  0.39747379966E+02  0.00000000000E+00 0. -1.
</event>
<event>
 7    1  0.1161807E-013  0.5052885E+02  0.7816164E-02  0.1300439E+00
        -11   -1    0    0    0    0  0.00000000000E+00  0.00000000000E+00  0.45593999997E+02  0.45594000000E+02  0.51100000000E-03 0. -1.
         11   -1    0    0    0    0 -0.00000000000E+00 -0.00000000000E+00 -0.45593999997E+02  0.45594000000E+02  0.51100000000E-03 0.  1.
    9900012    2    1    2    0    0 -0.43000830531E+01 -0.32567699621E+02  0.23958724155E+02  0.50528852985E+02  0.29999979133E+02 0.  0.
        -12    1    1    2    0    0  0.43000830531E+01  0.32567699621E+02 -0.23958724155E+02  0.40659147015E+02  0.00000000000E+00 0.  1.
         11    1    3    3    0    0  0.76669977231E+00 -0.19352895313E+01  0.14990044830E+02  0.15133889731E+02  0.51100000000E-03 0. -1.
        -11    1    3    3    0    0 -0.67844540931E+00  0.15624607463E+01  0.65316965106E-01  0.17046519657E+01  0.51100000000E-03 0.  1.
        -12    1    3    3    0    0 -0.43883374161E+01 -0.32194870836E+02  0.89033623596E+01  0.33690311289E+02  0.00000000000E+00 0.  1.
</event>
<event>
 7    1  0.1161807E-013  0.5052886E+02  0.7816164E-02  0.1300439E+00
        -11   -1    0    0    0    0  0.00000000000E+00  0.00000000000E+00  0.45593999997E+02  0.45594000000E+02  0.51100000000E-03 0. -1.
         11   -1    0    0    0    0 -0.00000000000E+00 -0.00000000000E+00 -0.45593999997E+02  0.45594000000E+02  0.51100000000E-03 0.  1.
    9900012    2    1    2    0    0 -0.19940912161E+02  0.12052814395E+02  0.33320491141E+02  0.50528862743E+02  0.30000008793E+02 0.  0.
        -12    1    1    2    0    0  0.19940912161E+02 -0.12052814395E+02 -0.33320491141E+02  0.40659137257E+02  0.00000000000E+00 0.  1.
         11    1    3    3    0    0 -0.11431432569E+02 -0.18805974519E+01  0.53355954586E+01  0.12754719774E+02  0.51100000000E-03 0. -1.
        -11    1    3    3    0    0  0.26032990396E+00  0.66947097119E+01 -0.87320413304E+00  0.67564336380E+01  0.51100000000E-03 0.  1.
        -12    1    3    3    0    0 -0.87698094958E+01  0.72387021351E+01  0.28858099815E+02  0.31017709331E+02  0.00000000000E+00 0.  1.
</event>
<event>
 7    1  0.1161807E-013  0.5052886E+02  0.7816164E-02  0.1300439E+00
        -11   -1    0    0    0    0  0.00000000000E+00  0.00000000000E+00  0.45593999997E+02  0.45594000000E+02  0.51100000000E-03 0.  1.
         11   -1    0    0    0    0 -0.00000000000E+00 -0.00000000000E+00 -0.45593999997E+02  0.45594000000E+02  0.51100000000E-03 0. -1.
    9900012    2    1    2    0    0  0.77083617908E+01  0.34974546881E+02 -0.19249108223E+02  0.50528856644E+02  0.29999990256E+02 0.  0.
         12    1    1    2    0    0 -0.77083617908E+01 -0.34974546881E+02  0.19249108223E+02  0.40659143356E+02  0.00000000000E+00 0. -1.
         11    1    3    3    0    0  0.61142032000E+00  0.12233516727E+02 -0.18683635874E+02  0.22340792646E+02  0.51100000000E-03 0. -1.
        -11    1    3    3    0    0  0.79753519692E+01  0.19009082705E+02 -0.60613818085E+01  0.21487015009E+02  0.51100000000E-03 0.  1.
        -12    1    3    3    0    0 -0.87841049838E+00  0.37319474496E+01  0.54959094596E+01  0.67010489894E+01  0.00000000000E+00 0.  1.
</event>
<event>
 7    1  0.1161807E-013  0.5052886E+02  0.7816164E-02  0.1300439E+00
        -11   -1    0    0    0    0  0.00000000000E+00  0.00000000000E+00  0.45593999997E+02  0.45594000000E+02  0.51100000000E-03 0. -1.
         11   -1    0    0    0    0 -0.00000000000E+00 -0.00000000000E+00 -0.45593999997E+02  0.45594000000E+02  0.51100000000E-03 0.  1.
    9900012    2    1    2    0    0 -0.17454320825E+02  0.11634956046E+02 -0.34830166626E+02  0.50528855581E+02  0.29999987025E+02 0.  0.
         12    1    1    2    0    0  0.17454320825E+02 -0.11634956046E+02  0.34830166626E+02  0.40659144419E+02  0.00000000000E+00 0. -1.
         11    1    3    3    0    0 -0.51948906778E+01  0.73265429502E+01 -0.86144957954E+01  0.12444864757E+02  0.51100000000E-03 0. -1.
        -11    1    3    3    0    0 -0.18446954061E+02  0.71051333516E+01 -0.14402072239E+02  0.24457978639E+02  0.51100000000E-03 0.  1.
        -12    1    3    3    0    0  0.61875239138E+01 -0.27967202555E+01 -0.11813598592E+02  0.13626012185E+02  0.00000000000E+00 0.  1.
</event>
<event>
 7    1  0.1161807E-013  0.5052885E+02  0.7816164E-02  0.1300439E+00
        -11   -1    0    0    0    0  0.00000000000E+00  0.00000000000E+00  0.45593999997E+02  0.45594000000E+02  0.51100000000E-03 0. -1.
         11   -1    0    0    0    0 -0.00000000000E+00 -0.00000000000E+00 -0.45593999997E+02  0.45594000000E+02  0.51100000000E-03 0.  1.
    9900012    2    1    2    0    0  0.17387069016E+02  0.50940999581E+01 -0.36399260387E+02  0.50528853673E+02  0.29999981224E+02 0.  0.
         12    1    1    2    0    0 -0.17387069016E+02 -0.50940999581E+01  0.36399260387E+02  0.40659146327E+02  0.00000000000E+00 0. -1.
         11    1    3    3    0    0 -0.40082767295E+01  0.73697181200E+01 -0.34737476629E+01  0.90799752530E+01  0.51100000000E-03 0. -1.
        -11    1    3    3    0    0  0.70985368823E+01  0.50973018146E+01 -0.15032507630E+02  0.17388156819E+02  0.51100000000E-03 0.  1.
         12    1    3    3    0    0  0.14296808864E+02 -0.73729199766E+01 -0.17893005094E+02  0.24060721601E+02  0.00000000000E+00 0. -1.
</event>
<event>
 7    1  0.1161807E-013  0.5052888E+02  0.7816164E-02  0.1300439E+00
        -11   -1    0    0    0    0  0.00000000000E+00  0.00000000000E+00  0.45593999997E+02  0.45594000000E+02  0.51100000000E-03 0. -1.
         11   -1    0    0    0    0 -0.00000000000E+00 -0.00000000000E+00 -0.45593999997E+02  0.45594000000E+02  0.51100000000E-03 0.  1.
    9900012    2    1    2    0    0 -0.83953849985E+01 -0.34196639037E+02 -0.20329079612E+02  0.50528879393E+02  0.30000059402E+02 0.  0.
         12    1    1    2    0    0  0.83953849985E+01  0.34196639037E+02  0.20329079612E+02  0.40659120607E+02  0.00000000000E+00 0. -1.
         11    1    3    3    0    0 -0.99792712724E+01 -0.14558817672E+02 -0.89181425204E+00  0.17673153653E+02  0.51100000000E-03 0. -1.
        -11    1    3    3    0    0  0.31037005239E+01 -0.93691132039E+01  0.10130362107E+01  0.99216672890E+01  0.51100000000E-03 0.  1.
         12    1    3    3    0    0 -0.15198142499E+01 -0.10268708161E+02 -0.20450301571E+02  0.22934058450E+02  0.00000000000E+00 0. -1.
</event>
<event>
 7    1  0.1161807E-013  0.5052887E+02  0.7816164E-02  0.1300439E+00
        -11   -1    0    0    0    0  0.00000000000E+00  0.00000000000E+00  0.45593999997E+02  0.45594000000E+02  0.51100000000E-03 0. -1.
         11   -1    0    0    0    0 -0.00000000000E+00 -0.00000000000E+00 -0.45593999997E+02  0.45594000000E+02  0.51100000000E-03 0.  1.
    9900012    2    1    2    0    0  0.46237372198E+01  0.88204292012E+01  0.39420623942E+02  0.50528874220E+02  0.30000043680E+02 0.  0.
        -12    1    1    2    0    0 -0.46237372198E+01 -0.88204292012E+01 -0.39420623942E+02  0.40659125780E+02  0.00000000000E+00 0.  1.
         11    1    3    3    0    0  0.37890051236E+01  0.10830150613E+02  0.99939074392E+01  0.15216008290E+02  0.51100000000E-03 0. -1.
        -11    1    3    3    0    0  0.84661171789E+00  0.76821155549E+01  0.54658489954E+01  0.94661056566E+01  0.51100000000E-03 0.  1.
        -12    1    3    3    0    0 -0.11879621649E-01 -0.96918369669E+01  0.23960867508E+02  0.25846760273E+02  0.00000000000E+00 0.  1.
</event>
<event>
 7    1  0.1161807E-013  0.5052886E+02  0.7816164E-02  0.1300439E+00
        -11   -1    0    0    0    0  0.00000000000E+00  0.00000000000E+00  0.45593999997E+02  0.45594000000E+02  0.51100000000E-03 0. -1.
         11   -1    0    0    0    0 -0.00000000000E+00 -0.00000000000E+00 -0.45593999997E+02  0.45594000000E+02  0.51100000000E-03 0.  1.
    9900012    2    1    2    0    0  0.21074646575E+02  0.28922789588E+02  0.19300184711E+02  0.50528860613E+02  0.30000002318E+02 0.  0.
        -12    1    1    2    0    0 -0.21074646575E+02 -0.28922789588E+02 -0.19300184711E+02  0.40659139387E+02  0.00000000000E+00 0.  1.
         11    1    3    3    0    0  0.98539716184E+01  0.20099948273E+02  0.78565747932E+01  0.23724132123E+02  0.51100000000E-03 0. -1.
        -11    1    3    3    0    0  0.82896380592E+01  0.93876885668E+01 -0.23063959445E+01  0.12734451629E+02  0.51100000000E-03 0.  1.
         12    1    3    3    0    0  0.29310368977E+01 -0.56484725177E+00  0.13750005863E+02  0.14070276861E+02  0.00000000000E+00 0. -1.
</event>
<event>
 7    1  0.1161807E-013  0.5052885E+02  0.7816164E-02  0.1300439E+00
        -11   -1    0    0    0    0  0.00000000000E+00  0.00000000000E+00  0.45593999997E+02  0.45594000000E+02  0.51100000000E-03 0. -1.
         11   -1    0    0    0    0 -0.00000000000E+00 -0.00000000000E+00 -0.45593999997E+02  0.45594000000E+02  0.51100000000E-03 0.  1.
    9900012    2    1    2    0    0  0.20064213621E+02  0.13489980095E+02 -0.32689669667E+02  0.50528846859E+02  0.29999960514E+02 0.  0.
         12    1    1    2    0    0 -0.20064213621E+02 -0.13489980095E+02  0.32689669667E+02  0.40659153141E+02  0.00000000000E+00 0. -1.
         11    1    3    3    0    0  0.14547062065E+02  0.38312511224E+01 -0.53639154064E+01  0.15970819911E+02  0.51100000000E-03 0. -1.
        -11    1    3    3    0    0  0.62514878145E+01  0.75678791231E+01 -0.31908528807E+01  0.10321600490E+02  0.51100000000E-03 0.  1.
        -12    1    3    3    0    0 -0.73433625837E+00  0.20908498490E+01 -0.24134901380E+02  0.24236426458E+02  0.00000000000E+00 0.  1.
</event>
<event>
 7    1  0.1161807E-013  0.5052886E+02  0.7816164E-02  0.1300439E+00
        -11   -1    0    0    0    0  0.00000000000E+00  0.00000000000E+00  0.45593999997E+02  0.45594000000E+02  0.51100000000E-03 0. -1.
         11   -1    0    0    0    0 -0.00000000000E+00 -0.00000000000E+00 -0.45593999997E+02  0.45594000000E+02  0.51100000000E-03 0.  1.
    9900012    2    1    2    0    0 -0.11086974808E+02 -0.45545435118E+01 -0.38852299181E+02  0.50528855535E+02  0.29999986883E+02 0.  0.
         12    1    1    2    0    0  0.11086974808E+02  0.45545435118E+01  0.38852299181E+02  0.40659144465E+02  0.00000000000E+00 0. -1.
         11    1    3    3    0    0 -0.10117016486E+02  0.77085681098E+01 -0.20849483311E+02  0.24422878607E+02  0.51100000000E-03 0. -1.
        -11    1    3    3    0    0 -0.23333276493E+01  0.26858882398E+01 -0.16942468305E+01  0.39406707728E+01  0.51100000000E-03 0.  1.
        -12    1    3    3    0    0  0.13633693274E+01 -0.14948999861E+02 -0.16308569040E+02  0.22165306154E+02  0.00000000000E+00 0.  1.
</event>
<event>
 7    1  0.1161807E-013  0.5052886E+02  0.7816164E-02  0.1300439E+00
        -11   -1    0    0    0    0  0.00000000000E+00  0.00000000000E+00  0.45593999997E+02  0.45594000000E+02  0.51100000000E-03 0. -1.
         11   -1    0    0    0    0 -0.00000000000E+00 -0.00000000000E+00 -0.45593999997E+02  0.45594000000E+02  0.51100000000E-03 0.  1.
    9900012    2    1    2    0    0  0.56216046210E+01  0.20572876009E+02  0.34616763321E+02  0.50528856273E+02  0.29999989126E+02 0.  0.
        -12    1    1    2    0    0 -0.56216046210E+01 -0.20572876009E+02 -0.34616763321E+02  0.40659143727E+02  0.00000000000E+00 0.  1.
         11    1    3    3    0    0  0.21039458603E+01 -0.53946142818E+01  0.11111055725E+02  0.12529326040E+02  0.51100000000E-03 0. -1.
        -11    1    3    3    0    0  0.62867962550E+01  0.72765484694E+01  0.13625990396E+02  0.16677517181E+02  0.51100000000E-03 0.  1.
        -12    1    3    3    0    0 -0.27691374943E+01  0.18690941821E+02  0.98797172007E+01  0.21322013052E+02  0.00000000000E+00 0.  1.
</event>
<event>
 7    1  0.1161807E-013  0.5052886E+02  0.7816164E-02  0.1300439E+00
        -11   -1    0    0    0    0  0.00000000000E+00  0.00000000000E+00  0.45593999997E+02  0.45594000000E+02  0.51100000000E-03 0. -1.
         11   -1    0    0    0    0 -0.00000000000E+00 -0.00000000000E+00 -0.45593999997E+02  0.45594000000E+02  0.51100000000E-03 0.  1.
    9900012    2    1    2    0    0  0.57909773512E+01 -0.20902505095E+02  0.34390632921E+02  0.50528858707E+02  0.29999996527E+02 0.  0.
        -12    1    1    2    0    0 -0.57909773512E+01  0.20902505095E+02 -0.34390632921E+02  0.40659141293E+02  0.00000000000E+00 0.  1.
         11    1    3    3    0    0 -0.19337039381E+01 -0.14761057873E+02  0.18933741700E+02  0.24085568614E+02  0.51100000000E-03 0. -1.
        -11    1    3    3    0    0 -0.63601668744E+01 -0.29211940858E+01  0.53874236862E+01  0.88322948203E+01  0.51100000000E-03 0.  1.
         12    1    3    3    0    0  0.14084848164E+02 -0.32202531356E+01  0.10069467536E+02  0.17610995273E+02  0.00000000000E+00 0. -1.
</event>
<event>
 7    1  0.1161807E-013  0.5052887E+02  0.7816164E-02  0.1300439E+00
        -11   -1    0    0    0    0  0.00000000000E+00  0.00000000000E+00  0.45593999997E+02  0.45594000000E+02  0.51100000000E-03 0. -1.
         11   -1    0    0    0    0 -0.00000000000E+00 -0.00000000000E+00 -0.45593999997E+02  0.45594000000E+02  0.51100000000E-03 0.  1.
    9900012    2    1    2    0    0  0.35129941247E+01  0.41090051942E+01  0.40298136342E+02  0.50528870102E+02  0.30000031163E+02 0.  0.
        -12    1    1    2    0    0 -0.35129941247E+01 -0.41090051942E+01 -0.40298136342E+02  0.40659129898E+02  0.00000000000E+00 0.  1.
         11    1    3    3    0    0  0.93385491414E+01 -0.19160698206E+01  0.21540695043E+02  0.23555919995E+02  0.51100000000E-03 0. -1.
        -11    1    3    3    0    0 -0.73289937785E+00 -0.38074773509E+01  0.14663137318E+02  0.15167123047E+02  0.51100000000E-03 0.  1.
         12    1    3    3    0    0 -0.50926556389E+01  0.98325523656E+01  0.40943039813E+01  0.11805827060E+02  0.00000000000E+00 0. -1.
</event>
<event>
 7    1  0.1161807E-013  0.5052886E+02  0.7816164E-02  0.1300439E+00
        -11   -1    0    0    0    0  0.00000000000E+00  0.00000000000E+00  0.45593999997E+02  0.45594000000E+02  0.51100000000E-03 0.  1.
         11   -1    0    0    0    0 -0.00000000000E+00 -0.00000000000E+00 -0.45593999997E+02  0.45594000000E+02  0.51100000000E-03 0. -1.
    9900012    2    1    2    0    0 -0.27914339871E+02 -0.49000870659E+01 -0.29153813414E+02  0.50528855146E+02  0.29999985701E+02 0.  0.
         12    1    1    2    0    0  0.27914339871E+02  0.49000870659E+01  0.29153813414E+02  0.40659144854E+02  0.00000000000E+00 0. -1.
         11    1    3    3    0    0 -0.40625955144E+01  0.37118803628E+01 -0.18494223455E+02  0.19295570466E+02  0.51100000000E-03 0. -1.
        -11    1    3    3    0    0 -0.32550779861E+01 -0.22811199704E+01 -0.87386454603E+01  0.96001544652E+01  0.51100000000E-03 0.  1.
        -12    1    3    3    0    0 -0.20596666371E+02 -0.63308474583E+01 -0.19209444988E+01  0.21633130215E+02  0.00000000000E+00 0.  1.
</event>
<event>
 7    1  0.1161807E-013  0.5052886E+02  0.7816164E-02  0.1300439E+00
        -11   -1    0    0    0    0  0.00000000000E+00  0.00000000000E+00  0.45593999997E+02  0.45594000000E+02  0.51100000000E-03 0. -1.
         11   -1    0    0    0    0 -0.00000000000E+00 -0.00000000000E+00 -0.45593999997E+02  0.45594000000E+02  0.51100000000E-03 0.  1.
    9900012    2    1    2    0    0 -0.38857211689E+01 -0.13563869730E+02 -0.38132512221E+02  0.50528857371E+02  0.29999992463E+02 0.  0.
         12    1    1    2    0    0  0.38857211689E+01  0.13563869730E+02  0.38132512221E+02  0.40659142629E+02  0.00000000000E+00 0. -1.
         11    1    3    3    0    0  0.32150296686E+01 -0.63710051239E+01 -0.23639960229E+02  0.24693599210E+02  0.51100000000E-03 0.  1.
        -11    1    3    3    0    0  0.63938963986E+00 -0.12108390344E+02 -0.70505310742E+01  0.14026115803E+02  0.51100000000E-03 0. -1.
        -12    1    3    3    0    0 -0.77401404773E+01  0.49155257370E+01 -0.74420209178E+01  0.11809142358E+02  0.00000000000E+00 0.  1.
</event>
<event>
 7    1  0.1161807E-013  0.5052886E+02  0.7816164E-02  0.1300439E+00
        -11   -1    0    0    0    0  0.00000000000E+00  0.00000000000E+00  0.45593999997E+02  0.45594000000E+02  0.51100000000E-03 0. -1.
         11   -1    0    0    0    0 -0.00000000000E+00 -0.00000000000E+00 -0.45593999997E+02  0.45594000000E+02  0.51100000000E-03 0.  1.
    9900012    2    1    2    0    0 -0.74288339661E+01  0.89116210362E+01  0.38968715693E+02  0.50528863679E+02  0.30000011638E+02 0.  0.
        -12    1    1    2    0    0  0.74288339661E+01 -0.89116210362E+01 -0.38968715693E+02  0.40659136321E+02  0.00000000000E+00 0.  1.
         11    1    3    3    0    0 -0.12147477202E+02  0.56775932819E+01  0.70927215665E+01  0.15169145240E+02  0.51100000000E-03 0. -1.
        -11    1    3    3    0    0 -0.51888317723E+00  0.50639604149E+01  0.29024806224E+01  0.58598062135E+01  0.51100000000E-03 0.  1.
         12    1    3    3    0    0  0.52375264131E+01 -0.18299326606E+01  0.28973513505E+02  0.29499912225E+02  0.00000000000E+00 0. -1.
</event>
<event>
 7    1  0.1161807E-013  0.5052886E+02  0.7816164E-02  0.1300439E+00
        -11   -1    0    0    0    0  0.00000000000E+00  0.00000000000E+00  0.45593999997E+02  0.45594000000E+02  0.51100000000E-03 0.  1.
         11   -1    0    0    0    0 -0.00000000000E+00 -0.00000000000E+00 -0.45593999997E+02  0.45594000000E+02  0.51100000000E-03 0. -1.
    9900012    2    1    2    0    0 -0.74929051552E+01  0.13250274603E+02 -0.37702151537E+02  0.50528860373E+02  0.30000001589E+02 0.  0.
         12    1    1    2    0    0  0.74929051552E+01 -0.13250274603E+02  0.37702151537E+02  0.40659139627E+02  0.00000000000E+00 0. -1.
         11    1    3    3    0    0 -0.29967285862E+01 -0.29696066915E+00 -0.14303316126E+02  0.14616888189E+02  0.51100000000E-03 0. -1.
        -11    1    3    3    0    0  0.82491717502E+01  0.83891018729E+01 -0.46254274814E+01  0.12642011092E+02  0.51100000000E-03 0.  1.
         12    1    3    3    0    0 -0.12745348319E+02  0.51581333995E+01 -0.18773407929E+02  0.23269961092E+02  0.00000000000E+00 0. -1.
</event>
<event>
 7    1  0.1161807E-013  0.5052886E+02  0.7816164E-02  0.1300439E+00
        -11   -1    0    0    0    0  0.00000000000E+00  0.00000000000E+00  0.45593999997E+02  0.45594000000E+02  0.51100000000E-03 0. -1.
         11   -1    0    0    0    0 -0.00000000000E+00 -0.00000000000E+00 -0.45593999997E+02  0.45594000000E+02  0.51100000000E-03 0.  1.
    9900012    2    1    2    0    0  0.12431584843E+01  0.40108530332E+02  0.65518041327E+01  0.50528858521E+02  0.29999995961E+02 0.  0.
         12    1    1    2    0    0 -0.12431584843E+01 -0.40108530332E+02 -0.65518041327E+01  0.40659141479E+02  0.00000000000E+00 0. -1.
         11    1    3    3    0    0 -0.37178733792E+00  0.67848699387E+01 -0.35618871129E+01  0.76720092529E+01  0.51100000000E-03 0. -1.
        -11    1    3    3    0    0 -0.10260513971E+02  0.24877880292E+02  0.83591022793E+01  0.28179099807E+02  0.51100000000E-03 0.  1.
         12    1    3    3    0    0  0.11875459793E+02  0.84457801011E+01  0.17545889663E+01  0.14677749461E+02  0.00000000000E+00 0. -1.
</event>
<event>
 7    1  0.1161807E-013  0.5052885E+02  0.7816164E-02  0.1300439E+00
        -11   -1    0    0    0    0  0.00000000000E+00  0.00000000000E+00  0.45593999997E+02  0.45594000000E+02  0.51100000000E-03 0. -1.
         11   -1    0    0    0    0 -0.00000000000E+00 -0.00000000000E+00 -0.45593999997E+02  0.45594000000E+02  0.51100000000E-03 0.  1.
    9900012    2    1    2    0    0  0.87909777003E+01 -0.26555280456E+02  0.29507669028E+02  0.50528846781E+02  0.29999960277E+02 0.  0.
        -12    1    1    2    0    0 -0.87909777003E+01  0.26555280456E+02 -0.29507669028E+02  0.40659153219E+02  0.00000000000E+00 0.  1.
         11    1    3    3    0    0  0.14180039950E+01 -0.11665464922E+02  0.95325525669E+01  0.15131535477E+02  0.51100000000E-03 0. -1.
        -11    1    3    3    0    0 -0.18294015085E+01 -0.91339614297E+01  0.22413824423E+02  0.24272525349E+02  0.51100000000E-03 0.  1.
        -12    1    3    3    0    0  0.92023752138E+01 -0.57558541035E+01 -0.24387079623E+01  0.11124785956E+02  0.00000000000E+00 0.  1.
</event>
<event>
 7    1  0.1161807E-013  0.5052887E+02  0.7816164E-02  0.1300439E+00
        -11   -1    0    0    0    0  0.00000000000E+00  0.00000000000E+00  0.45593999997E+02  0.45594000000E+02  0.51100000000E-03 0. -1.
         11   -1    0    0    0    0 -0.00000000000E+00 -0.00000000000E+00 -0.45593999997E+02  0.45594000000E+02  0.51100000000E-03 0.  1.
    9900012    2    1    2    0    0 -0.23695138969E+02  0.29896781325E+02  0.14067251693E+02  0.50528871694E+02  0.30000036002E+02 0.  0.
        -12    1    1    2    0    0  0.23695138969E+02 -0.29896781325E+02 -0.14067251693E+02  0.40659128306E+02  0.00000000000E+00 0.  1.
         11    1    3    3    0    0 -0.11415966459E+01 -0.13102893569E+01  0.30741668075E+01  0.35313740842E+01  0.51100000000E-03 0.  1.
        -11    1    3    3    0    0 -0.41623631915E+01  0.12917992608E+01  0.11052879377E+02  0.11881083934E+02  0.51100000000E-03 0. -1.
        -12    1    3    3    0    0 -0.18391179132E+02  0.29915271421E+02 -0.59794492093E-01  0.35116413676E+02  0.00000000000E+00 0.  1.
</event>
<event>
 7    1  0.1161807E-013  0.5052886E+02  0.7816164E-02  0.1300439E+00
        -11   -1    0    0    0    0  0.00000000000E+00  0.00000000000E+00  0.45593999997E+02  0.45594000000E+02  0.51100000000E-03 0. -1.
         11   -1    0    0    0    0 -0.00000000000E+00 -0.00000000000E+00 -0.45593999997E+02  0.45594000000E+02  0.51100000000E-03 0.  1.
    9900012    2    1    2    0    0 -0.12291986253E+02  0.10361345882E+02 -0.37345888539E+02  0.50528858281E+02  0.29999995232E+02 0.  0.
         12    1    1    2    0    0  0.12291986253E+02 -0.10361345882E+02  0.37345888539E+02  0.40659141719E+02  0.00000000000E+00 0. -1.
         11    1    3    3    0    0  0.29085727777E+01 -0.43271561491E+01 -0.11658862540E+01  0.53425992700E+01  0.51100000000E-03 0. -1.
        -11    1    3    3    0    0  0.24268032203E+01 -0.20113344534E-02 -0.10155635010E+00  0.24289281317E+01  0.51100000000E-03 0.  1.
        -12    1    3    3    0    0 -0.17627362251E+02  0.14690513366E+02 -0.36078445935E+02  0.42757330880E+02  0.00000000000E+00 0.  1.
</event>
<event>
 7    1  0.1161807E-013  0.5052885E+02  0.7816164E-02  0.1300439E+00
        -11   -1    0    0    0    0  0.00000000000E+00  0.00000000000E+00  0.45593999997E+02  0.45594000000E+02  0.51100000000E-03 0. -1.
         11   -1    0    0    0    0 -0.00000000000E+00 -0.00000000000E+00 -0.45593999997E+02  0.45594000000E+02  0.51100000000E-03 0.  1.
    9900012    2    1    2    0    0  0.10270364448E+02 -0.26804664856E+01  0.39249223993E+02  0.50528845182E+02  0.29999955414E+02 0.  0.
        -12    1    1    2    0    0 -0.10270364448E+02  0.26804664856E+01 -0.39249223993E+02  0.40659154818E+02  0.00000000000E+00 0.  1.
         11    1    3    3    0    0  0.66837265629E+01 -0.44635401942E+01  0.22453756948E+02  0.23848827920E+02  0.51100000000E-03 0. -1.
        -11    1    3    3    0    0  0.99863942908E+00 -0.78088413912E+01  0.14475648386E+02  0.16477854260E+02  0.51100000000E-03 0.  1.
        -12    1    3    3    0    0  0.25879984565E+01  0.95919150998E+01  0.23198186599E+01  0.10202163001E+02  0.00000000000E+00 0.  1.
</event>
<event>
 7    1  0.1161807E-013  0.5052886E+02  0.7816164E-02  0.1300439E+00
        -11   -1    0    0    0    0  0.00000000000E+00  0.00000000000E+00  0.45593999997E+02  0.45594000000E+02  0.51100000000E-03 0. -1.
         11   -1    0    0    0    0 -0.00000000000E+00 -0.00000000000E+00 -0.45593999997E+02  0.45594000000E+02  0.51100000000E-03 0.  1.
    9900012    2    1    2    0    0  0.26765693503E+02  0.99545018827E+01  0.28942548564E+02  0.50528861128E+02  0.30000003884E+02 0.  0.
        -12    1    1    2    0    0 -0.26765693503E+02 -0.99545018827E+01 -0.28942548564E+02  0.40659138872E+02  0.00000000000E+00 0.  1.
         11    1    3    3    0    0  0.11697585710E+02 -0.52130689637E+01  0.86882845733E+01  0.15475654705E+02  0.51100000000E-03 0. -1.
        -11    1    3    3    0    0  0.82912691201E+01 -0.28191256441E+01  0.30981681565E+01  0.92893088659E+01  0.51100000000E-03 0.  1.
        -12    1    3    3    0    0  0.67768386734E+01  0.17986696491E+02  0.17156095834E+02  0.25763897557E+02  0.00000000000E+00 0.  1.
</event>
<event>
 7    1  0.1161807E-013  0.5052886E+02  0.7816164E-02  0.1300439E+00
        -11   -1    0    0    0    0  0.00000000000E+00  0.00000000000E+00  0.45593999997E+02  0.45594000000E+02  0.51100000000E-03 0. -1.
         11   -1    0    0    0    0 -0.00000000000E+00 -0.00000000000E+00 -0.45593999997E+02  0.45594000000E+02  0.51100000000E-03 0.  1.
    9900012    2    1    2    0    0  0.39399651110E+02 -0.64507574450E+01  0.76955367039E+01  0.50528855095E+02  0.29999985547E+02 0.  0.
        -12    1    1    2    0    0 -0.39399651110E+02  0.64507574450E+01 -0.76955367039E+01  0.40659144905E+02  0.00000000000E+00 0.  1.
         11    1    3    3    0    0  0.85457271703E+01  0.29086119314E+01  0.22296432474E+01  0.92984291957E+01  0.51100000000E-03 0. -1.
        -11    1    3    3    0    0  0.39979398611E+01  0.59840721500E+01  0.72936558066E+01  0.10246465630E+02  0.51100000000E-03 0.  1.
        -12    1    3    3    0    0  0.26855984079E+02 -0.15343441526E+02 -0.18277623501E+01  0.30983960269E+02  0.00000000000E+00 0.  1.
</event>
<event>
 7    1  0.1161807E-013  0.5052886E+02  0.7816164E-02  0.1300439E+00
        -11   -1    0    0    0    0  0.00000000000E+00  0.00000000000E+00  0.45593999997E+02  0.45594000000E+02  0.51100000000E-03 0. -1.
         11   -1    0    0    0    0 -0.00000000000E+00 -0.00000000000E+00 -0.45593999997E+02  0.45594000000E+02  0.51100000000E-03 0.  1.
    9900012    2    1    2    0    0  0.24817733946E+01 -0.34923020507E+02 -0.20673388993E+02  0.50528861138E+02  0.30000003915E+02 0.  0.
         12    1    1    2    0    0 -0.24817733946E+01  0.34923020507E+02  0.20673388993E+02  0.40659138862E+02  0.00000000000E+00 0. -1.
         11    1    3    3    0    0 -0.13452946633E+01 -0.13622699395E+01  0.36133469327E+01  0.40892387355E+01  0.51100000000E-03 0. -1.
        -11    1    3    3    0    0 -0.15802312178E+01 -0.18252339273E+01  0.32690374892E+01  0.40638917257E+01  0.51100000000E-03 0.  1.
        -12    1    3    3    0    0  0.54072992757E+01 -0.31735516640E+02 -0.27555773415E+02  0.42375730677E+02  0.00000000000E+00 0.  1.
</event>
<event>
 7    1  0.1161807E-013  0.5052886E+02  0.7816164E-02  0.1300439E+00
        -11   -1    0    0    0    0  0.00000000000E+00  0.00000000000E+00  0.45593999997E+02  0.45594000000E+02  0.51100000000E-03 0.  1.
         11   -1    0    0    0    0 -0.00000000000E+00 -0.00000000000E+00 -0.45593999997E+02  0.45594000000E+02  0.51100000000E-03 0. -1.
    9900012    2    1    2    0    0 -0.11442987822E+02  0.23960294650E+02 -0.30791685562E+02  0.50528860932E+02  0.30000003289E+02 0.  0.
         12    1    1    2    0    0  0.11442987822E+02 -0.23960294650E+02  0.30791685562E+02  0.40659139068E+02  0.00000000000E+00 0. -1.
         11    1    3    3    0    0  0.85597014896E+01  0.82162204454E+01 -0.16746593264E+02  0.20523721743E+02  0.51100000000E-03 0. -1.
        -11    1    3    3    0    0 -0.10450902518E+01  0.91878629854E+00 -0.34307357853E+01  0.37022061242E+01  0.51100000000E-03 0.  1.
        -12    1    3    3    0    0 -0.18957599060E+02  0.14825287906E+02 -0.10614356513E+02  0.26302933065E+02  0.00000000000E+00 0.  1.
</event>
<event>
 7    1  0.1161807E-013  0.5052886E+02  0.7816164E-02  0.1300439E+00
        -11   -1    0    0    0    0  0.00000000000E+00  0.00000000000E+00  0.45593999997E+02  0.45594000000E+02  0.51100000000E-03 0. -1.
         11   -1    0    0    0    0 -0.00000000000E+00 -0.00000000000E+00 -0.45593999997E+02  0.45594000000E+02  0.51100000000E-03 0.  1.
    9900012    2    1    2    0    0 -0.13099062419E+02  0.20779735312E+02 -0.32400348737E+02  0.50528862845E+02  0.30000009105E+02 0.  0.
         12    1    1    2    0    0  0.13099062419E+02 -0.20779735312E+02  0.32400348737E+02  0.40659137155E+02  0.00000000000E+00 0. -1.
         11    1    3    3    0    0  0.34193318629E+01  0.44309244660E+01 -0.19930907310E+02  0.20701835389E+02  0.51100000000E-03 0. -1.
        -11    1    3    3    0    0  0.24915963895E+01  0.28162645339E+01 -0.17935839071E+01  0.41660943323E+01  0.51100000000E-03 0.  1.
        -12    1    3    3    0    0 -0.19009990672E+02  0.13532546312E+02 -0.10675857519E+02  0.25660933124E+02  0.00000000000E+00 0.  1.
</event>
<event>
 7    1  0.1161807E-013  0.5052884E+02  0.7816164E-02  0.1300439E+00
        -11   -1    0    0    0    0  0.00000000000E+00  0.00000000000E+00  0.45593999997E+02  0.45594000000E+02  0.51100000000E-03 0. -1.
         11   -1    0    0    0    0 -0.00000000000E+00 -0.00000000000E+00 -0.45593999997E+02  0.45594000000E+02  0.51100000000E-03 0.  1.
    9900012    2    1    2    0    0  0.28924903918E+01  0.19963429318E+02  0.35302438142E+02  0.50528841750E+02  0.29999944984E+02 0.  0.
        -12    1    1    2    0    0 -0.28924903918E+01 -0.19963429318E+02 -0.35302438142E+02  0.40659158250E+02  0.00000000000E+00 0.  1.
         11    1    3    3    0    0  0.26935373808E+01  0.38952312199E+01  0.37515923419E+01  0.60417228701E+01  0.51100000000E-03 0. -1.
        -11    1    3    3    0    0  0.10760376356E+01  0.20160290867E+02  0.99929223121E+01  0.22526732595E+02  0.51100000000E-03 0.  1.
         12    1    3    3    0    0 -0.87708462467E+00 -0.40920927686E+01  0.21557923488E+02  0.21960386285E+02  0.00000000000E+00 0. -1.
</event>
<event>
 7    1  0.1161807E-013  0.5052882E+02  0.7816164E-02  0.1300439E+00
        -11   -1    0    0    0    0  0.00000000000E+00  0.00000000000E+00  0.45593999997E+02  0.45594000000E+02  0.51100000000E-03 0.  1.
         11   -1    0    0    0    0 -0.00000000000E+00 -0.00000000000E+00 -0.45593999997E+02  0.45594000000E+02  0.51100000000E-03 0. -1.
    9900012    2    1    2    0    0  0.39183397226E+02  0.89571901943E+01 -0.61317847533E+01  0.50528823193E+02  0.29999888577E+02 0.  0.
        -12    1    1    2    0    0 -0.39183397226E+02 -0.89571901943E+01  0.61317847533E+01  0.40659176807E+02  0.00000000000E+00 0.  1.
         11    1    3    3    0    0  0.99522305402E+01  0.41300765250E+01 -0.96889272842E+01  0.14490677590E+02  0.51100000000E-03 0. -1.
        -11    1    3    3    0    0  0.74335164440E+01  0.32195301331E+01 -0.79389337788E+01  0.11342363546E+02  0.51100000000E-03 0.  1.
        -12    1    3    3    0    0  0.21797650242E+02  0.16075835363E+01  0.11496076310E+02  0.24695782057E+02  0.00000000000E+00 0.  1.
</event>
<event>
 7    1  0.1161807E-013  0.5052885E+02  0.7816164E-02  0.1300439E+00
        -11   -1    0    0    0    0  0.00000000000E+00  0.00000000000E+00  0.45593999997E+02  0.45594000000E+02  0.51100000000E-03 0. -1.
         11   -1    0    0    0    0 -0.00000000000E+00 -0.00000000000E+00 -0.45593999997E+02  0.45594000000E+02  0.51100000000E-03 0.  1.
    9900012    2    1    2    0    0 -0.82998493645E+01  0.19732081084E+01 -0.39754057902E+02  0.50528853804E+02  0.29999981624E+02 0.  0.
         12    1    1    2    0    0  0.82998493645E+01 -0.19732081084E+01  0.39754057902E+02  0.40659146196E+02  0.00000000000E+00 0. -1.
         11    1    3    3    0    0  0.74997438224E+01  0.31920218419E+01 -0.11493113957E+02  0.14089954916E+02  0.51100000000E-03 0. -1.
        -11    1    3    3    0    0  0.34909565333E+01  0.86876908099E+00 -0.45887258550E+01  0.58307754602E+01  0.51100000000E-03 0.  1.
         12    1    3    3    0    0 -0.19290549720E+02 -0.20875828145E+01 -0.23672218089E+02  0.30608123428E+02  0.00000000000E+00 0. -1.
</event>
<event>
 7    1  0.1161807E-013  0.5052885E+02  0.7816164E-02  0.1300439E+00
        -11   -1    0    0    0    0  0.00000000000E+00  0.00000000000E+00  0.45593999997E+02  0.45594000000E+02  0.51100000000E-03 0. -1.
         11   -1    0    0    0    0 -0.00000000000E+00 -0.00000000000E+00 -0.45593999997E+02  0.45594000000E+02  0.51100000000E-03 0.  1.
    9900012    2    1    2    0    0  0.29734946216E+02  0.90170750347E+01  0.26223879033E+02  0.50528849736E+02  0.29999969258E+02 0.  0.
        -12    1    1    2    0    0 -0.29734946216E+02 -0.90170750347E+01 -0.26223879033E+02  0.40659150264E+02  0.00000000000E+00 0.  1.
         11    1    3    3    0    0  0.32435107556E+01  0.78746002340E+01  0.48980218503E+01  0.98244750075E+01  0.51100000000E-03 0. -1.
        -11    1    3    3    0    0 -0.27151197749E+01  0.21093848266E+01  0.77578515056E+01  0.84856137069E+01  0.51100000000E-03 0.  1.
         12    1    3    3    0    0  0.29206555235E+02 -0.96691002591E+00  0.13568005677E+02  0.32218761022E+02  0.00000000000E+00 0. -1.
</event>
<event>
 7    1  0.1161807E-013  0.5052887E+02  0.7816164E-02  0.1300439E+00
        -11   -1    0    0    0    0  0.00000000000E+00  0.00000000000E+00  0.45593999997E+02  0.45594000000E+02  0.51100000000E-03 0.  1.
         11   -1    0    0    0    0 -0.00000000000E+00 -0.00000000000E+00 -0.45593999997E+02  0.45594000000E+02  0.51100000000E-03 0. -1.
    9900012    2    1    2    0    0 -0.14283329470E+02 -0.28946533493E+02  0.24723463500E+02  0.50528868806E+02  0.30000027223E+02 0.  0.
        -12    1    1    2    0    0  0.14283329470E+02  0.28946533493E+02 -0.24723463500E+02  0.40659131194E+02  0.00000000000E+00 0.  1.
         11    1    3    3    0    0 -0.75412551181E+01 -0.19440906676E+02  0.33217982806E+01  0.21115248642E+02  0.51100000000E-03 0. -1.
        -11    1    3    3    0    0 -0.52523453860E+01  0.12883651187E+01  0.11546034984E-01  0.54080634524E+01  0.51100000000E-03 0.  1.
        -12    1    3    3    0    0 -0.14897289662E+01 -0.10793991935E+02  0.21390119184E+02  0.24005556711E+02  0.00000000000E+00 0.  1.
</event>
<event>
 7    1  0.1161807E-013  0.5052887E+02  0.7816164E-02  0.1300439E+00
        -11   -1    0    0    0    0  0.00000000000E+00  0.00000000000E+00  0.45593999997E+02  0.45594000000E+02  0.51100000000E-03 0. -1.
         11   -1    0    0    0    0 -0.00000000000E+00 -0.00000000000E+00 -0.45593999997E+02  0.45594000000E+02  0.51100000000E-03 0.  1.
    9900012    2    1    2    0    0  0.22014467200E+02  0.14460368958E+01 -0.34153144098E+02  0.50528867685E+02  0.30000023816E+02 0.  0.
         12    1    1    2    0    0 -0.22014467200E+02 -0.14460368958E+01  0.34153144098E+02  0.40659132315E+02  0.00000000000E+00 0. -1.
         11    1    3    3    0    0 -0.11638175212E+01 -0.81626220192E+00  0.62689047530E+00  0.15536238715E+01  0.51100000000E-03 0. -1.
        -11    1    3    3    0    0  0.10632481525E+02  0.89359727901E+01 -0.30663290468E+01  0.14223348662E+02  0.51100000000E-03 0.  1.
        -12    1    3    3    0    0  0.12545803196E+02 -0.66736736924E+01 -0.31713705527E+02  0.34751895151E+02  0.00000000000E+00 0.  1.
</event>
<event>
 7    1  0.1161807E-013  0.5052885E+02  0.7816164E-02  0.1300439E+00
        -11   -1    0    0    0    0  0.00000000000E+00  0.00000000000E+00  0.45593999997E+02  0.45594000000E+02  0.51100000000E-03 0. -1.
         11   -1    0    0    0    0 -0.00000000000E+00 -0.00000000000E+00 -0.45593999997E+02  0.45594000000E+02  0.51100000000E-03 0.  1.
    9900012    2    1    2    0    0  0.10219146429E+02  0.20778152590E+01  0.39299083252E+02  0.50528853251E+02  0.29999979940E+02 0.  0.
        -12    1    1    2    0    0 -0.10219146429E+02 -0.20778152590E+01 -0.39299083252E+02  0.40659146749E+02  0.00000000000E+00 0.  1.
         11    1    3    3    0    0 -0.27544883900E+01  0.40746820865E+00  0.31774781129E+02  0.31896550797E+02  0.51100000000E-03 0. -1.
        -11    1    3    3    0    0  0.24241908289E+01  0.18327251445E+01  0.74883797033E+01  0.80815477152E+01  0.51100000000E-03 0.  1.
        -12    1    3    3    0    0  0.10549443990E+02 -0.16237809421E+00  0.35922418741E-01  0.10550754739E+02  0.00000000000E+00 0.  1.
</event>
<event>
 7    1  0.1161807E-013  0.5052886E+02  0.7816164E-02  0.1300439E+00
        -11   -1    0    0    0    0  0.00000000000E+00  0.00000000000E+00  0.45593999997E+02  0.45594000000E+02  0.51100000000E-03 0. -1.
         11   -1    0    0    0    0 -0.00000000000E+00 -0.00000000000E+00 -0.45593999997E+02  0.45594000000E+02  0.51100000000E-03 0.  1.
    9900012    2    1    2    0    0  0.22673486137E+02  0.22575651411E+02  0.25088217135E+02  0.50528860200E+02  0.30000001065E+02 0.  0.
        -12    1    1    2    0    0 -0.22673486137E+02 -0.22575651411E+02 -0.25088217135E+02  0.40659139800E+02  0.00000000000E+00 0.  1.
         11    1    3    3    0    0  0.58607347956E+01  0.92318666111E+01 -0.10905212785E+01  0.10989304363E+02  0.51100000000E-03 0. -1.
        -11    1    3    3    0    0  0.16214088408E+02  0.33297685120E+01  0.71548297994E+01  0.18032626291E+02  0.51100000000E-03 0.  1.
         12    1    3    3    0    0  0.59866293324E+00  0.10014016288E+02  0.19023908614E+02  0.21506929546E+02  0.00000000000E+00 0. -1.
</event>
<event>
 7    1  0.1161807E-013  0.5052886E+02  0.7816164E-02  0.1300439E+00
        -11   -1    0    0    0    0  0.00000000000E+00  0.00000000000E+00  0.45593999997E+02  0.45594000000E+02  0.51100000000E-03 0. -1.
         11   -1    0    0    0    0 -0.00000000000E+00 -0.00000000000E+00 -0.45593999997E+02  0.45594000000E+02  0.51100000000E-03 0.  1.
    9900012    2    1    2    0    0  0.24153901412E+02  0.22854753186E+01 -0.32627159301E+02  0.50528857425E+02  0.29999992630E+02 0.  0.
         12    1    1    2    0    0 -0.24153901412E+02 -0.22854753186E+01  0.32627159301E+02  0.40659142575E+02  0.00000000000E+00 0. -1.
         11    1    3    3    0    0  0.10550656255E+02  0.60973086487E+01 -0.38201308952E+01  0.12770548950E+02  0.51100000000E-03 0. -1.
        -11    1    3    3    0    0  0.95778382731E+00 -0.88208558307E+01 -0.46059006950E+01  0.99969579833E+01  0.51100000000E-03 0.  1.
        -12    1    3    3    0    0  0.12645461330E+02  0.50090225006E+01 -0.24201127711E+02  0.27761350492E+02  0.00000000000E+00 0.  1.
</event>
<event>
 7    1  0.1161807E-013  0.5052886E+02  0.7816164E-02  0.1300439E+00
        -11   -1    0    0    0    0  0.00000000000E+00  0.00000000000E+00  0.45593999997E+02  0.45594000000E+02  0.51100000000E-03 0. -1.
         11   -1    0    0    0    0 -0.00000000000E+00 -0.00000000000E+00 -0.45593999997E+02  0.45594000000E+02  0.51100000000E-03 0.  1.
    9900012    2    1    2    0    0 -0.20448917694E+02 -0.43016882807E+01 -0.34878400683E+02  0.50528860915E+02  0.30000003238E+02 0.  0.
         12    1    1    2    0    0  0.20448917694E+02  0.43016882807E+01  0.34878400683E+02  0.40659139085E+02  0.00000000000E+00 0. -1.
         11    1    3    3    0    0 -0.10864200548E+02  0.85518054449E+00 -0.13947256642E+02  0.17699947893E+02  0.51100000000E-03 0.  1.
        -11    1    3    3    0    0 -0.38681340241E+01 -0.13148546840E+02 -0.17903314640E+02  0.22547182090E+02  0.51100000000E-03 0. -1.
         12    1    3    3    0    0 -0.57165831224E+01  0.79916780148E+01 -0.30278294006E+01  0.10281730932E+02  0.00000000000E+00 0. -1.
</event>
<event>
 7    1  0.1161807E-013  0.5052885E+02  0.7816164E-02  0.1300439E+00
        -11   -1    0    0    0    0  0.00000000000E+00  0.00000000000E+00  0.45593999997E+02  0.45594000000E+02  0.51100000000E-03 0. -1.
         11   -1    0    0    0    0 -0.00000000000E+00 -0.00000000000E+00 -0.45593999997E+02  0.45594000000E+02  0.51100000000E-03 0.  1.
    9900012    2    1    2    0    0  0.21042228736E+02 -0.87145316827E+01  0.33681569702E+02  0.50528848629E+02  0.29999965892E+02 0.  0.
        -12    1    1    2    0    0 -0.21042228736E+02  0.87145316827E+01 -0.33681569702E+02  0.40659151371E+02  0.00000000000E+00 0.  1.
         11    1    3    3    0    0  0.47220200058E+01  0.25219038396E+01  0.18212706438E-01  0.53532984108E+01  0.51100000000E-03 0. -1.
        -11    1    3    3    0    0  0.28898732764E+01 -0.75435028823E+01 -0.68831962463E+00  0.81073785810E+01  0.51100000000E-03 0.  1.
         12    1    3    3    0    0  0.13430335454E+02 -0.36929326401E+01  0.34351676620E+02  0.37068171637E+02  0.00000000000E+00 0. -1.
</event>
<event>
 7    1  0.1161807E-013  0.5052887E+02  0.7816164E-02  0.1300439E+00
        -11   -1    0    0    0    0  0.00000000000E+00  0.00000000000E+00  0.45593999997E+02  0.45594000000E+02  0.51100000000E-03 0. -1.
         11   -1    0    0    0    0 -0.00000000000E+00 -0.00000000000E+00 -0.45593999997E+02  0.45594000000E+02  0.51100000000E-03 0.  1.
    9900012    2    1    2    0    0  0.20519562443E+02  0.40601782838E+01  0.34865853810E+02  0.50528865080E+02  0.30000015898E+02 0.  0.
        -12    1    1    2    0    0 -0.20519562443E+02 -0.40601782838E+01 -0.34865853810E+02  0.40659134920E+02  0.00000000000E+00 0.  1.
         11    1    3    3    0    0  0.11375271524E+02 -0.46779392583E+01  0.79894956104E+01  0.14666695548E+02  0.51100000000E-03 0. -1.
        -11    1    3    3    0    0  0.79200244432E+01 -0.51631581584E+01  0.79835669608E+01  0.12374260828E+02  0.51100000000E-03 0.  1.
         12    1    3    3    0    0  0.12242664759E+01  0.13901275701E+02  0.18892791239E+02  0.23487908704E+02  0.00000000000E+00 0. -1.
</event>
<event>
 7    1  0.1161807E-013  0.5052886E+02  0.7816164E-02  0.1300439E+00
        -11   -1    0    0    0    0  0.00000000000E+00  0.00000000000E+00  0.45593999997E+02  0.45594000000E+02  0.51100000000E-03 0. -1.
         11   -1    0    0    0    0 -0.00000000000E+00 -0.00000000000E+00 -0.45593999997E+02  0.45594000000E+02  0.51100000000E-03 0.  1.
    9900012    2    1    2    0    0 -0.23182117127E+02  0.23849843555E+02  0.23386752234E+02  0.50528858689E+02  0.29999996472E+02 0.  0.
        -12    1    1    2    0    0  0.23182117127E+02 -0.23849843555E+02 -0.23386752234E+02  0.40659141311E+02  0.00000000000E+00 0.  1.
         11    1    3    3    0    0 -0.80744657047E+01  0.12269479172E+02  0.19802089485E+01  0.14820875255E+02  0.51100000000E-03 0. -1.
        -11    1    3    3    0    0 -0.97737656735E+01  0.14124155318E+02  0.44384340770E+01  0.17740291886E+02  0.51100000000E-03 0.  1.
         12    1    3    3    0    0 -0.53338857484E+01 -0.25437909345E+01  0.16968109208E+02  0.17967691549E+02  0.00000000000E+00 0. -1.
</event>
<event>
 7    1  0.1161807E-013  0.5052884E+02  0.7816164E-02  0.1300439E+00
        -11   -1    0    0    0    0  0.00000000000E+00  0.00000000000E+00  0.45593999997E+02  0.45594000000E+02  0.51100000000E-03 0.  1.
         11   -1    0    0    0    0 -0.00000000000E+00 -0.00000000000E+00 -0.45593999997E+02  0.45594000000E+02  0.51100000000E-03 0. -1.
    9900012    2    1    2    0    0  0.13086267666E+02  0.37124413819E+02  0.10183045498E+02  0.50528844592E+02  0.29999953623E+02 0.  0.
        -12    1    1    2    0    0 -0.13086267666E+02 -0.37124413819E+02 -0.10183045498E+02  0.40659155408E+02  0.00000000000E+00 0.  1.
         11    1    3    3    0    0 -0.46179029314E+00  0.24375294381E+01  0.24553217228E+01  0.34904734721E+01  0.51100000000E-03 0. -1.
        -11    1    3    3    0    0 -0.51845312180E+01  0.18571367353E+02 -0.39902863906E+01  0.19690033902E+02  0.51100000000E-03 0.  1.
        -12    1    3    3    0    0  0.18732589177E+02  0.16115517028E+02  0.11718010166E+02  0.27348337219E+02  0.00000000000E+00 0.  1.
</event>
<event>
 7    1  0.1161807E-013  0.5052887E+02  0.7816164E-02  0.1300439E+00
        -11   -1    0    0    0    0  0.00000000000E+00  0.00000000000E+00  0.45593999997E+02  0.45594000000E+02  0.51100000000E-03 0. -1.
         11   -1    0    0    0    0 -0.00000000000E+00 -0.00000000000E+00 -0.45593999997E+02  0.45594000000E+02  0.51100000000E-03 0.  1.
    9900012    2    1    2    0    0  0.15804816231E+00 -0.34764230912E+02  0.21085249429E+02  0.50528874657E+02  0.30000045009E+02 0.  0.
        -12    1    1    2    0    0 -0.15804816231E+00  0.34764230912E+02 -0.21085249429E+02  0.40659125343E+02  0.00000000000E+00 0.  1.
         11    1    3    3    0    0  0.21137069753E+00 -0.60188209238E+00  0.78561444723E+01  0.78820013864E+01  0.51100000000E-03 0. -1.
        -11    1    3    3    0    0  0.68478729462E+01 -0.14605441749E+01  0.10775506118E+01  0.70843255682E+01  0.51100000000E-03 0.  1.
         12    1    3    3    0    0 -0.69011954814E+01 -0.32701804645E+02  0.12151554345E+02  0.35562547703E+02  0.00000000000E+00 0. -1.
</event>
<event>
 7    1  0.1161807E-013  0.5052886E+02  0.7816164E-02  0.1300439E+00
        -11   -1    0    0    0    0  0.00000000000E+00  0.00000000000E+00  0.45593999997E+02  0.45594000000E+02  0.51100000000E-03 0. -1.
         11   -1    0    0    0    0 -0.00000000000E+00 -0.00000000000E+00 -0.45593999997E+02  0.45594000000E+02  0.51100000000E-03 0.  1.
    9900012    2    1    2    0    0 -0.20698371526E+02 -0.22785779479E+02 -0.26562217659E+02  0.50528859118E+02  0.29999997775E+02 0.  0.
         12    1    1    2    0    0  0.20698371526E+02  0.22785779479E+02  0.26562217659E+02  0.40659140882E+02  0.00000000000E+00 0. -1.
         11    1    3    3    0    0 -0.16765761337E+02 -0.72958546742E+01 -0.18375235570E+02  0.25922375107E+02  0.51100000000E-03 0. -1.
        -11    1    3    3    0    0  0.77546597524E+00 -0.14689198079E+02 -0.11602785618E+02  0.18734954551E+02  0.51100000000E-03 0.  1.
         12    1    3    3    0    0 -0.47080761636E+01 -0.80072672635E+00  0.34158035292E+01  0.58715294603E+01  0.00000000000E+00 0. -1.
</event>
<event>
 7    1  0.1161807E-013  0.5052885E+02  0.7816164E-02  0.1300439E+00
        -11   -1    0    0    0    0  0.00000000000E+00  0.00000000000E+00  0.45593999997E+02  0.45594000000E+02  0.51100000000E-03 0. -1.
         11   -1    0    0    0    0 -0.00000000000E+00 -0.00000000000E+00 -0.45593999997E+02  0.45594000000E+02  0.51100000000E-03 0.  1.
    9900012    2    1    2    0    0  0.16317416155E+02 -0.19051424951E+02  0.31999238418E+02  0.50528854387E+02  0.29999983396E+02 0.  0.
        -12    1    1    2    0    0 -0.16317416155E+02  0.19051424951E+02 -0.31999238418E+02  0.40659145613E+02  0.00000000000E+00 0.  1.
         11    1    3    3    0    0  0.13453976130E+01  0.30746216808E+01  0.95546706159E+01  0.10126950383E+02  0.51100000000E-03 0. -1.
        -11    1    3    3    0    0  0.62859935884E+01  0.20277112340E+01  0.48605413067E+00  0.66228073444E+01  0.51100000000E-03 0.  1.
         12    1    3    3    0    0  0.86860249531E+01 -0.24153757866E+02  0.21958513671E+02  0.33779096660E+02  0.00000000000E+00 0. -1.
</event>
<event>
 7    1  0.1161807E-013  0.5052886E+02  0.7816164E-02  0.1300439E+00
        -11   -1    0    0    0    0  0.00000000000E+00  0.00000000000E+00  0.45593999997E+02  0.45594000000E+02  0.51100000000E-03 0. -1.
         11   -1    0    0    0    0 -0.00000000000E+00 -0.00000000000E+00 -0.45593999997E+02  0.45594000000E+02  0.51100000000E-03 0.  1.
    9900012    2    1    2    0    0  0.56271714478E+01 -0.14306897691E+02 -0.37640578568E+02  0.50528861605E+02  0.30000005335E+02 0.  0.
         12    1    1    2    0    0 -0.56271714478E+01  0.14306897691E+02  0.37640578568E+02  0.40659138395E+02  0.00000000000E+00 0. -1.
         11    1    3    3    0    0  0.63397127400E+01 -0.10417766575E+02 -0.16661372881E+02  0.20647594644E+02  0.51100000000E-03 0.  1.
        -11    1    3    3    0    0  0.52589652306E+01  0.44103100958E+01 -0.17950106454E+02  0.19217540748E+02  0.51100000000E-03 0. -1.
        -12    1    3    3    0    0 -0.59715065228E+01 -0.82994412117E+01 -0.30290992328E+01  0.10663726213E+02  0.00000000000E+00 0.  1.
</event>
<event>
 7    1  0.1161807E-013  0.5052887E+02  0.7816164E-02  0.1300439E+00
        -11   -1    0    0    0    0  0.00000000000E+00  0.00000000000E+00  0.45593999997E+02  0.45594000000E+02  0.51100000000E-03 0. -1.
         11   -1    0    0    0    0 -0.00000000000E+00 -0.00000000000E+00 -0.45593999997E+02  0.45594000000E+02  0.51100000000E-03 0.  1.
    9900012    2    1    2    0    0  0.10797598936E+02 -0.17222478269E+02  0.35213112596E+02  0.50528865735E+02  0.30000017887E+02 0.  0.
        -12    1    1    2    0    0 -0.10797598936E+02  0.17222478269E+02 -0.35213112596E+02  0.40659134265E+02  0.00000000000E+00 0.  1.
         11    1    3    3    0    0 -0.80309501313E+01 -0.25424379468E+01  0.14080059485E+02  0.16407566123E+02  0.51100000000E-03 0. -1.
        -11    1    3    3    0    0  0.51540079206E+01 -0.11621612559E+02  0.11228136744E+02  0.16961625250E+02  0.51100000000E-03 0.  1.
        -12    1    3    3    0    0  0.13674541147E+02 -0.30584277626E+01  0.99049163672E+01  0.17159674361E+02  0.00000000000E+00 0.  1.
</event>
<event>
 7    1  0.1161807E-013  0.5052885E+02  0.7816164E-02  0.1300439E+00
        -11   -1    0    0    0    0  0.00000000000E+00  0.00000000000E+00  0.45593999997E+02  0.45594000000E+02  0.51100000000E-03 0. -1.
         11   -1    0    0    0    0 -0.00000000000E+00 -0.00000000000E+00 -0.45593999997E+02  0.45594000000E+02  0.51100000000E-03 0.  1.
    9900012    2    1    2    0    0 -0.23958496586E+02  0.86992792190E+01 -0.31677738573E+02  0.50528854181E+02  0.29999982770E+02 0.  0.
         12    1    1    2    0    0  0.23958496586E+02 -0.86992792190E+01  0.31677738573E+02  0.40659145819E+02  0.00000000000E+00 0. -1.
         11    1    3    3    0    0 -0.93532299159E+01  0.43075628567E+01 -0.12649495149E+02  0.16310969788E+02  0.51100000000E-03 0. -1.
        -11    1    3    3    0    0  0.14918767647E+01  0.23560454416E+01 -0.17721971262E+02  0.17940036569E+02  0.51100000000E-03 0.  1.
         12    1    3    3    0    0 -0.16097143435E+02  0.20356709208E+01 -0.13062721619E+01  0.16277847825E+02  0.00000000000E+00 0. -1.
</event>
<event>
 7    1  0.1161807E-013  0.5052886E+02  0.7816164E-02  0.1300439E+00
        -11   -1    0    0    0    0  0.00000000000E+00  0.00000000000E+00  0.45593999997E+02  0.45594000000E+02  0.51100000000E-03 0. -1.
         11   -1    0    0    0    0 -0.00000000000E+00 -0.00000000000E+00 -0.45593999997E+02  0.45594000000E+02  0.51100000000E-03 0.  1.
    9900012    2    1    2    0    0 -0.14587521358E+02  0.19164184142E+02 -0.32758265084E+02  0.50528860013E+02  0.30000000495E+02 0.  0.
         12    1    1    2    0    0  0.14587521358E+02 -0.19164184142E+02  0.32758265084E+02  0.40659139987E+02  0.00000000000E+00 0. -1.
         11    1    3    3    0    0 -0.34465876687E+00 -0.78151649239E-01  0.12287146822E+01  0.12785293806E+01  0.51100000000E-03 0. -1.
        -11    1    3    3    0    0 -0.17168202912E+02  0.76471909387E+01 -0.75865119075E+01  0.20267754776E+02  0.51100000000E-03 0.  1.
         12    1    3    3    0    0  0.29253403205E+01  0.11595144852E+02 -0.26400467858E+02  0.28982575857E+02  0.00000000000E+00 0. -1.
</event>
<event>
 7    1  0.1161807E-013  0.5052885E+02  0.7816164E-02  0.1300439E+00
        -11   -1    0    0    0    0  0.00000000000E+00  0.00000000000E+00  0.45593999997E+02  0.45594000000E+02  0.51100000000E-03 0. -1.
         11   -1    0    0    0    0 -0.00000000000E+00 -0.00000000000E+00 -0.45593999997E+02  0.45594000000E+02  0.51100000000E-03 0.  1.
    9900012    2    1    2    0    0  0.35175061145E+02 -0.17586087747E+02  0.10325248022E+02  0.50528853974E+02  0.29999982140E+02 0.  0.
        -12    1    1    2    0    0 -0.35175061145E+02  0.17586087747E+02 -0.10325248022E+02  0.40659146026E+02  0.00000000000E+00 0.  1.
         11    1    3    3    0    0  0.10235357731E+02 -0.17296913270E+02  0.85407745417E+01  0.21837824676E+02  0.51100000000E-03 0. -1.
        -11    1    3    3    0    0  0.27431640641E+01 -0.52138600665E+01  0.63710629661E+00  0.59258071661E+01  0.51100000000E-03 0.  1.
        -12    1    3    3    0    0  0.22196539350E+02  0.49246855889E+01  0.11473671839E+01  0.22765222132E+02  0.00000000000E+00 0.  1.
</event>
<event>
 7    1  0.1161807E-013  0.5052880E+02  0.7816164E-02  0.1300439E+00
        -11   -1    0    0    0    0  0.00000000000E+00  0.00000000000E+00  0.45593999997E+02  0.45594000000E+02  0.51100000000E-03 0. -1.
         11   -1    0    0    0    0 -0.00000000000E+00 -0.00000000000E+00 -0.45593999997E+02  0.45594000000E+02  0.51100000000E-03 0.  1.
    9900012    2    1    2    0    0 -0.19539937489E+02  0.10276974603E+02  0.34143008479E+02  0.50528801877E+02  0.29999823784E+02 0.  0.
        -12    1    1    2    0    0  0.19539937489E+02 -0.10276974603E+02 -0.34143008479E+02  0.40659198123E+02  0.00000000000E+00 0.  1.
         11    1    3    3    0    0 -0.28381858874E+01  0.98023748158E+01  0.13927793057E+02  0.17266304494E+02  0.51100000000E-03 0. -1.
        -11    1    3    3    0    0  0.37098057094E+01  0.48542093328E-01 -0.97630105170E+00  0.38364278621E+01  0.51100000000E-03 0.  1.
         12    1    3    3    0    0 -0.20411557311E+02  0.42605769359E+00  0.21191516473E+02  0.29426069521E+02  0.00000000000E+00 0. -1.
</event>
<event>
 7    1  0.1161807E-013  0.5052887E+02  0.7816164E-02  0.1300439E+00
        -11   -1    0    0    0    0  0.00000000000E+00  0.00000000000E+00  0.45593999997E+02  0.45594000000E+02  0.51100000000E-03 0. -1.
         11   -1    0    0    0    0 -0.00000000000E+00 -0.00000000000E+00 -0.45593999997E+02  0.45594000000E+02  0.51100000000E-03 0.  1.
    9900012    2    1    2    0    0  0.31109891811E+02  0.79915341774E+01 -0.24929405093E+02  0.50528865414E+02  0.30000016912E+02 0.  0.
         12    1    1    2    0    0 -0.31109891811E+02 -0.79915341774E+01  0.24929405093E+02  0.40659134586E+02  0.00000000000E+00 0. -1.
         11    1    3    3    0    0  0.15275999994E+01  0.86687475255E+00 -0.52368879737E+01  0.55235884627E+01  0.51100000000E-03 0.  1.
        -11    1    3    3    0    0 -0.29364125191E+01 -0.41935474702E+01  0.40776425878E+00  0.51356237030E+01  0.51100000000E-03 0. -1.
         12    1    3    3    0    0  0.32518704331E+02  0.11318206895E+02 -0.20100281378E+02  0.39869653248E+02  0.00000000000E+00 0. -1.
</event>
<event>
 7    1  0.1161807E-013  0.5052886E+02  0.7816164E-02  0.1300439E+00
        -11   -1    0    0    0    0  0.00000000000E+00  0.00000000000E+00  0.45593999997E+02  0.45594000000E+02  0.51100000000E-03 0. -1.
         11   -1    0    0    0    0 -0.00000000000E+00 -0.00000000000E+00 -0.45593999997E+02  0.45594000000E+02  0.51100000000E-03 0.  1.
    9900012    2    1    2    0    0  0.25076465066E+02  0.79187951968E+01 -0.31010150982E+02  0.50528857344E+02  0.29999992383E+02 0.  0.
         12    1    1    2    0    0 -0.25076465066E+02 -0.79187951968E+01  0.31010150982E+02  0.40659142656E+02  0.00000000000E+00 0. -1.
         11    1    3    3    0    0  0.46257785178E+01  0.32069371546E+01 -0.10187196293E+02  0.11638781783E+02  0.51100000000E-03 0. -1.
        -11    1    3    3    0    0  0.13827051580E+01 -0.39788483219E+00 -0.19012069584E+02  0.19066435850E+02  0.51100000000E-03 0.  1.
         12    1    3    3    0    0  0.19067981390E+02  0.51097428744E+01 -0.18108851050E+01  0.19823639712E+02  0.00000000000E+00 0. -1.
</event>
<event>
 7    1  0.1161807E-013  0.5052886E+02  0.7816164E-02  0.1300439E+00
        -11   -1    0    0    0    0  0.00000000000E+00  0.00000000000E+00  0.45593999997E+02  0.45594000000E+02  0.51100000000E-03 0. -1.
         11   -1    0    0    0    0 -0.00000000000E+00 -0.00000000000E+00 -0.45593999997E+02  0.45594000000E+02  0.51100000000E-03 0.  1.
    9900012    2    1    2    0    0  0.17930027643E+02 -0.11100879363E+02 -0.34762769508E+02  0.50528861326E+02  0.30000004486E+02 0.  0.
         12    1    1    2    0    0 -0.17930027643E+02  0.11100879363E+02  0.34762769508E+02  0.40659138674E+02  0.00000000000E+00 0. -1.
         11    1    3    3    0    0  0.12708661098E+02 -0.19234511866E+02 -0.20580867270E+02  0.30903860786E+02  0.51100000000E-03 0. -1.
        -11    1    3    3    0    0  0.38264610906E+01 -0.10706017837E+01 -0.25284152433E+01  0.47096577966E+01  0.51100000000E-03 0.  1.
        -12    1    3    3    0    0  0.13949054538E+01  0.92042342864E+01 -0.11653486994E+02  0.14915342743E+02  0.00000000000E+00 0.  1.
</event>
<event>
 7    1  0.1161807E-013  0.5052888E+02  0.7816164E-02  0.1300439E+00
        -11   -1    0    0    0    0  0.00000000000E+00  0.00000000000E+00  0.45593999997E+02  0.45594000000E+02  0.51100000000E-03 0. -1.
         11   -1    0    0    0    0 -0.00000000000E+00 -0.00000000000E+00 -0.45593999997E+02  0.45594000000E+02  0.51100000000E-03 0.  1.
    9900012    2    1    2    0    0 -0.25882956655E+02  0.30986010777E+02  0.48066641083E+01  0.50528876437E+02  0.30000050417E+02 0.  0.
        -12    1    1    2    0    0  0.25882956655E+02 -0.30986010777E+02 -0.48066641083E+01  0.40659123563E+02  0.00000000000E+00 0.  1.
         11    1    3    3    0    0  0.30425778927E+01  0.69916568696E+01 -0.13051077999E+01  0.77358808578E+01  0.51100000000E-03 0. -1.
        -11    1    3    3    0    0  0.10799455470E+01  0.63622257345E+01 -0.25334252549E+01  0.69327081624E+01  0.51100000000E-03 0.  1.
         12    1    3    3    0    0 -0.30005480094E+02  0.17632128173E+02  0.86451971631E+01  0.35860287417E+02  0.00000000000E+00 0. -1.
</event>
<event>
 7    1  0.1161807E-013  0.5052885E+02  0.7816164E-02  0.1300439E+00
        -11   -1    0    0    0    0  0.00000000000E+00  0.00000000000E+00  0.45593999997E+02  0.45594000000E+02  0.51100000000E-03 0. -1.
         11   -1    0    0    0    0 -0.00000000000E+00 -0.00000000000E+00 -0.45593999997E+02  0.45594000000E+02  0.51100000000E-03 0.  1.
    9900012    2    1    2    0    0  0.10463336418E+02 -0.17943654544E+02 -0.34952967487E+02  0.50528854860E+02  0.29999984832E+02 0.  0.
         12    1    1    2    0    0 -0.10463336418E+02  0.17943654544E+02  0.34952967487E+02  0.40659145140E+02  0.00000000000E+00 0. -1.
         11    1    3    3    0    0  0.13808867086E+02 -0.11006914482E+02 -0.37296952989E+01  0.18048479268E+02  0.51100000000E-03 0. -1.
        -11    1    3    3    0    0 -0.61261099936E+00 -0.60407694385E+01 -0.20952083403E+02  0.21814123563E+02  0.51100000000E-03 0.  1.
        -12    1    3    3    0    0 -0.27329196684E+01 -0.89597062356E+00 -0.10271188785E+02  0.10666252029E+02  0.00000000000E+00 0.  1.
</event>
<event>
 7    1  0.1161807E-013  0.5052890E+02  0.7816164E-02  0.1300439E+00
        -11   -1    0    0    0    0  0.00000000000E+00  0.00000000000E+00  0.45593999997E+02  0.45594000000E+02  0.51100000000E-03 0. -1.
         11   -1    0    0    0    0 -0.00000000000E+00 -0.00000000000E+00 -0.45593999997E+02  0.45594000000E+02  0.51100000000E-03 0.  1.
    9900012    2    1    2    0    0 -0.15003195042E+02 -0.49762435659E+01  0.37460696605E+02  0.50528897063E+02  0.30000113114E+02 0.  0.
        -12    1    1    2    0    0  0.15003195042E+02  0.49762435659E+01 -0.37460696605E+02  0.40659102937E+02  0.00000000000E+00 0.  1.
         11    1    3    3    0    0 -0.13231206729E+02 -0.34968182572E+01  0.15048888863E+02  0.20341131377E+02  0.51100000000E-03 0. -1.
        -11    1    3    3    0    0 -0.79389531850E+00 -0.49605716789E+01 -0.20750391913E+01  0.54353775457E+01  0.51100000000E-03 0.  1.
         12    1    3    3    0    0 -0.97809299510E+00  0.34811463702E+01  0.24486846933E+02  0.24752388141E+02  0.00000000000E+00 0. -1.
</event>
<event>
 7    1  0.1161807E-013  0.5052888E+02  0.7816164E-02  0.1300439E+00
        -11   -1    0    0    0    0  0.00000000000E+00  0.00000000000E+00  0.45593999997E+02  0.45594000000E+02  0.51100000000E-03 0. -1.
         11   -1    0    0    0    0 -0.00000000000E+00 -0.00000000000E+00 -0.45593999997E+02  0.45594000000E+02  0.51100000000E-03 0.  1.
    9900012    2    1    2    0    0  0.38368289291E+02  0.47912034305E+01 -0.12573087922E+02  0.50528883024E+02  0.30000070438E+02 0.  0.
         12    1    1    2    0    0 -0.38368289291E+02 -0.47912034305E+01  0.12573087922E+02  0.40659116976E+02  0.00000000000E+00 0. -1.
         11    1    3    3    0    0  0.82026349809E+01 -0.74467645702E+01  0.40757891857E+01  0.11804642347E+02  0.51100000000E-03 0. -1.
        -11    1    3    3    0    0  0.83519261291E+01 -0.19970789479E+01 -0.19150591953E+01  0.87983206564E+01  0.51100000000E-03 0.  1.
         12    1    3    3    0    0  0.21813728181E+02  0.14235046949E+02 -0.14733817913E+02  0.29925920020E+02  0.00000000000E+00 0. -1.
</event>
<event>
 7    1  0.1161807E-013  0.5052886E+02  0.7816164E-02  0.1300439E+00
        -11   -1    0    0    0    0  0.00000000000E+00  0.00000000000E+00  0.45593999997E+02  0.45594000000E+02  0.51100000000E-03 0. -1.
         11   -1    0    0    0    0 -0.00000000000E+00 -0.00000000000E+00 -0.45593999997E+02  0.45594000000E+02  0.51100000000E-03 0.  1.
    9900012    2    1    2    0    0  0.30093497515E+02 -0.17805408194E+02 -0.20748843094E+02  0.50528860273E+02  0.30000001285E+02 0.  0.
         12    1    1    2    0    0 -0.30093497515E+02  0.17805408194E+02  0.20748843094E+02  0.40659139727E+02  0.00000000000E+00 0. -1.
         11    1    3    3    0    0 -0.21848211979E+01 -0.28791374588E+00  0.76897931750E+00  0.23340238738E+01  0.51100000000E-03 0. -1.
        -11    1    3    3    0    0  0.66473251002E+01  0.49840002631E+01 -0.79170627702E+01  0.11476370192E+02  0.51100000000E-03 0.  1.
        -12    1    3    3    0    0  0.25630993613E+02 -0.22501494711E+02 -0.13600759641E+02  0.36718466207E+02  0.00000000000E+00 0.  1.
</event>
<event>
 7    1  0.1161807E-013  0.5052886E+02  0.7816164E-02  0.1300439E+00
        -11   -1    0    0    0    0  0.00000000000E+00  0.00000000000E+00  0.45593999997E+02  0.45594000000E+02  0.51100000000E-03 0. -1.
         11   -1    0    0    0    0 -0.00000000000E+00 -0.00000000000E+00 -0.45593999997E+02  0.45594000000E+02  0.51100000000E-03 0.  1.
    9900012    2    1    2    0    0 -0.15504019310E+02 -0.24818219966E+02  0.28228477541E+02  0.50528860789E+02  0.30000002855E+02 0.  0.
        -12    1    1    2    0    0  0.15504019310E+02  0.24818219966E+02 -0.28228477541E+02  0.40659139211E+02  0.00000000000E+00 0.  1.
         11    1    3    3    0    0 -0.82737979985E+01  0.87892976029E+00  0.47643553801E+01  0.95878742843E+01  0.51100000000E-03 0. -1.
        -11    1    3    3    0    0  0.29518276359E+00 -0.38992030330E+01 -0.36482580677E+01  0.53479626351E+01  0.51100000000E-03 0.  1.
         12    1    3    3    0    0 -0.75254040752E+01 -0.21797946694E+02  0.27112380229E+02  0.35593023870E+02  0.00000000000E+00 0. -1.
</event>
<event>
 7    1  0.1161807E-013  0.5052886E+02  0.7816164E-02  0.1300439E+00
        -11   -1    0    0    0    0  0.00000000000E+00  0.00000000000E+00  0.45593999997E+02  0.45594000000E+02  0.51100000000E-03 0. -1.
         11   -1    0    0    0    0 -0.00000000000E+00 -0.00000000000E+00 -0.45593999997E+02  0.45594000000E+02  0.51100000000E-03 0.  1.
    9900012    2    1    2    0    0 -0.25981751359E+02  0.68712509187E+01 -0.30510659331E+02  0.50528858031E+02  0.29999994471E+02 0.  0.
         12    1    1    2    0    0  0.25981751359E+02 -0.68712509187E+01  0.30510659331E+02  0.40659141969E+02  0.00000000000E+00 0. -1.
         11    1    3    3    0    0 -0.10604572903E+02 -0.60438457414E+01 -0.10094303965E+02  0.15839192233E+02  0.51100000000E-03 0.  1.
        -11    1    3    3    0    0 -0.73793155099E+01 -0.45220171312E+01 -0.83533540703E+01  0.12028360687E+02  0.51100000000E-03 0. -1.
        -12    1    3    3    0    0 -0.79978629468E+01  0.17437113791E+02 -0.12063001295E+02  0.22661305111E+02  0.00000000000E+00 0.  1.
</event>
<event>
 7    1  0.1161807E-013  0.5052886E+02  0.7816164E-02  0.1300439E+00
        -11   -1    0    0    0    0  0.00000000000E+00  0.00000000000E+00  0.45593999997E+02  0.45594000000E+02  0.51100000000E-03 0. -1.
         11   -1    0    0    0    0 -0.00000000000E+00 -0.00000000000E+00 -0.45593999997E+02  0.45594000000E+02  0.51100000000E-03 0.  1.
    9900012    2    1    2    0    0 -0.92685400679E+00 -0.38753462124E+01  0.40463423960E+02  0.50528855332E+02  0.29999986266E+02 0.  0.
        -12    1    1    2    0    0  0.92685400679E+00  0.38753462124E+01 -0.40463423960E+02  0.40659144668E+02  0.00000000000E+00 0.  1.
         11    1    3    3    0    0 -0.16662863910E+01  0.14731737396E+01  0.89276400454E+01  0.92005167379E+01  0.51100000000E-03 0. -1.
        -11    1    3    3    0    0  0.13204681319E+02 -0.52541425888E+01  0.17847860078E+02  0.22814813888E+02  0.51100000000E-03 0.  1.
        -12    1    3    3    0    0 -0.12465248935E+02 -0.94377363242E-01  0.13687923836E+02  0.18513524706E+02  0.00000000000E+00 0.  1.
</event>
<event>
 7    1  0.1161807E-013  0.5052887E+02  0.7816164E-02  0.1300439E+00
        -11   -1    0    0    0    0  0.00000000000E+00  0.00000000000E+00  0.45593999997E+02  0.45594000000E+02  0.51100000000E-03 0. -1.
         11   -1    0    0    0    0 -0.00000000000E+00 -0.00000000000E+00 -0.45593999997E+02  0.45594000000E+02  0.51100000000E-03 0.  1.
    9900012    2    1    2    0    0 -0.32670468498E+02 -0.74320505279E+01 -0.23034097970E+02  0.50528873641E+02  0.30000041920E+02 0.  0.
         12    1    1    2    0    0  0.32670468498E+02  0.74320505279E+01  0.23034097970E+02  0.40659126359E+02  0.00000000000E+00 0. -1.
         11    1    3    3    0    0 -0.89762566345E+01  0.61111137604E+01 -0.14618741323E+02  0.18210614836E+02  0.51100000000E-03 0. -1.
        -11    1    3    3    0    0 -0.19844550325E+02 -0.91448135675E+01 -0.12513347881E+02  0.25179707469E+02  0.51100000000E-03 0.  1.
         12    1    3    3    0    0 -0.38496615390E+01 -0.43983507208E+01  0.40979912342E+01  0.71385513365E+01  0.00000000000E+00 0. -1.
</event>
<event>
 7    1  0.1161807E-013  0.5052885E+02  0.7816164E-02  0.1300439E+00
        -11   -1    0    0    0    0  0.00000000000E+00  0.00000000000E+00  0.45593999997E+02  0.45594000000E+02  0.51100000000E-03 0. -1.
         11   -1    0    0    0    0 -0.00000000000E+00 -0.00000000000E+00 -0.45593999997E+02  0.45594000000E+02  0.51100000000E-03 0.  1.
    9900012    2    1    2    0    0  0.13524963445E+02  0.18973348761E+02 -0.33320468809E+02  0.50528852922E+02  0.29999978943E+02 0.  0.
         12    1    1    2    0    0 -0.13524963445E+02 -0.18973348761E+02  0.33320468809E+02  0.40659147078E+02  0.00000000000E+00 0. -1.
         11    1    3    3    0    0 -0.29210786181E+01  0.27316629787E+01  0.56695901266E+00  0.40393224315E+01  0.51100000000E-03 0. -1.
        -11    1    3    3    0    0  0.27992175333E+01  0.73961012115E+01  0.10258721806E+01  0.79743555176E+01  0.51100000000E-03 0.  1.
        -12    1    3    3    0    0  0.13646824530E+02  0.88455845712E+01 -0.34913300003E+02  0.38515174973E+02  0.00000000000E+00 0.  1.
</event>
<event>
 7    1  0.1161807E-013  0.5052887E+02  0.7816164E-02  0.1300439E+00
        -11   -1    0    0    0    0  0.00000000000E+00  0.00000000000E+00  0.45593999997E+02  0.45594000000E+02  0.51100000000E-03 0. -1.
         11   -1    0    0    0    0 -0.00000000000E+00 -0.00000000000E+00 -0.45593999997E+02  0.45594000000E+02  0.51100000000E-03 0.  1.
    9900012    2    1    2    0    0  0.34107097112E+02  0.68359035160E+01  0.21050926305E+02  0.50528866357E+02  0.30000019778E+02 0.  0.
        -12    1    1    2    0    0 -0.34107097112E+02 -0.68359035160E+01 -0.21050926305E+02  0.40659133643E+02  0.00000000000E+00 0.  1.
         11    1    3    3    0    0  0.12048152623E+01 -0.90382352113E+00  0.10100040430E+02  0.10211723347E+02  0.51100000000E-03 0. -1.
        -11    1    3    3    0    0 -0.12054604783E+01  0.43331365494E+01  0.17515592837E+01  0.48267139449E+01  0.51100000000E-03 0.  1.
         12    1    3    3    0    0  0.34107742328E+02  0.34065904878E+01  0.91993265918E+01  0.35490429065E+02  0.00000000000E+00 0. -1.
</event>
<event>
 7    1  0.1161807E-013  0.5052887E+02  0.7816164E-02  0.1300439E+00
        -11   -1    0    0    0    0  0.00000000000E+00  0.00000000000E+00  0.45593999997E+02  0.45594000000E+02  0.51100000000E-03 0. -1.
         11   -1    0    0    0    0 -0.00000000000E+00 -0.00000000000E+00 -0.45593999997E+02  0.45594000000E+02  0.51100000000E-03 0.  1.
    9900012    2    1    2    0    0 -0.22358669886E+01 -0.30001677708E+01  0.40486602684E+02  0.50528866896E+02  0.30000021418E+02 0.  0.
        -12    1    1    2    0    0  0.22358669886E+01  0.30001677708E+01 -0.40486602684E+02  0.40659133104E+02  0.00000000000E+00 0.  1.
         11    1    3    3    0    0 -0.72576011241E+01  0.17812341712E+01  0.25816042032E+02  0.26875892463E+02  0.51100000000E-03 0. -1.
        -11    1    3    3    0    0  0.84228825068E+01  0.35517076117E+00  0.15291304218E+02  0.17461245115E+02  0.51100000000E-03 0.  1.
        -12    1    3    3    0    0 -0.34011483712E+01 -0.51365727032E+01 -0.62074356624E+00  0.61917293185E+01  0.00000000000E+00 0.  1.
</event>
<event>
 7    1  0.1161807E-013  0.5052887E+02  0.7816164E-02  0.1300439E+00
        -11   -1    0    0    0    0  0.00000000000E+00  0.00000000000E+00  0.45593999997E+02  0.45594000000E+02  0.51100000000E-03 0. -1.
         11   -1    0    0    0    0 -0.00000000000E+00 -0.00000000000E+00 -0.45593999997E+02  0.45594000000E+02  0.51100000000E-03 0.  1.
    9900012    2    1    2    0    0 -0.35944149572E+02 -0.16580992034E+02  0.92873027319E+01  0.50528866004E+02  0.30000018706E+02 0.  0.
         12    1    1    2    0    0  0.35944149572E+02  0.16580992034E+02 -0.92873027319E+01  0.40659133996E+02  0.00000000000E+00 0. -1.
         11    1    3    3    0    0 -0.16988748713E+02 -0.67552599582E+01  0.15272142098E+02  0.23822036950E+02  0.51100000000E-03 0. -1.
        -11    1    3    3    0    0 -0.20015232817E+02 -0.91802137325E+01 -0.15197509756E+01  0.22072505798E+02  0.51100000000E-03 0.  1.
        -12    1    3    3    0    0  0.10598319586E+01 -0.64551834299E+00 -0.44650883901E+01  0.46343232563E+01  0.00000000000E+00 0.  1.
</event>
<event>
 7    1  0.1161807E-013  0.5052886E+02  0.7816164E-02  0.1300439E+00
        -11   -1    0    0    0    0  0.00000000000E+00  0.00000000000E+00  0.45593999997E+02  0.45594000000E+02  0.51100000000E-03 0. -1.
         11   -1    0    0    0    0 -0.00000000000E+00 -0.00000000000E+00 -0.45593999997E+02  0.45594000000E+02  0.51100000000E-03 0.  1.
    9900012    2    1    2    0    0 -0.16972109759E+02  0.18955866220E+02 -0.31714169528E+02  0.50528856837E+02  0.29999990843E+02 0.  0.
         12    1    1    2    0    0  0.16972109759E+02 -0.18955866220E+02  0.31714169528E+02  0.40659143163E+02  0.00000000000E+00 0. -1.
         11    1    3    3    0    0  0.23097946506E+01  0.40554721710E+00 -0.99255442968E+01  0.10198825899E+02  0.51100000000E-03 0. -1.
        -11    1    3    3    0    0  0.37386705415E+01  0.70064320643E+01 -0.31658820740E+01  0.85493015655E+01  0.51100000000E-03 0.  1.
        -12    1    3    3    0    0 -0.23020574952E+02  0.11543886939E+02 -0.18622743157E+02  0.31780729373E+02  0.00000000000E+00 0.  1.
</event>
<event>
 7    1  0.1161807E-013  0.5052884E+02  0.7816164E-02  0.1300439E+00
        -11   -1    0    0    0    0  0.00000000000E+00  0.00000000000E+00  0.45593999997E+02  0.45594000000E+02  0.51100000000E-03 0.  1.
         11   -1    0    0    0    0 -0.00000000000E+00 -0.00000000000E+00 -0.45593999997E+02  0.45594000000E+02  0.51100000000E-03 0. -1.
    9900012    2    1    2    0    0 -0.34613486944E+02 -0.16521195251E+02  0.13495336451E+02  0.50528837726E+02  0.29999932751E+02 0.  0.
        -12    1    1    2    0    0  0.34613486944E+02  0.16521195251E+02 -0.13495336451E+02  0.40659162274E+02  0.00000000000E+00 0.  1.
         11    1    3    3    0    0 -0.84016852962E+01  0.51199147521E+01  0.86807262551E+01  0.13120855592E+02  0.51100000000E-03 0. -1.
        -11    1    3    3    0    0  0.13465127847E+01 -0.21926951604E+01  0.25177935501E+01  0.36000407453E+01  0.51100000000E-03 0.  1.
         12    1    3    3    0    0 -0.27558314432E+02 -0.19448414843E+02  0.22968166455E+01  0.33807941389E+02  0.00000000000E+00 0. -1.
</event>
<event>
 7    1  0.1161807E-013  0.5052886E+02  0.7816164E-02  0.1300439E+00
        -11   -1    0    0    0    0  0.00000000000E+00  0.00000000000E+00  0.45593999997E+02  0.45594000000E+02  0.51100000000E-03 0. -1.
         11   -1    0    0    0    0 -0.00000000000E+00 -0.00000000000E+00 -0.45593999997E+02  0.45594000000E+02  0.51100000000E-03 0.  1.
    9900012    2    1    2    0    0 -0.87136976952E+01  0.28319201778E+02  0.27843487082E+02  0.50528862162E+02  0.30000007027E+02 0.  0.
        -12    1    1    2    0    0  0.87136976952E+01 -0.28319201778E+02 -0.27843487082E+02  0.40659137838E+02  0.00000000000E+00 0.  1.
         11    1    3    3    0    0 -0.51623292262E+01  0.10510725129E+02  0.62654214424E+01  0.13280831747E+02  0.51100000000E-03 0. -1.
        -11    1    3    3    0    0  0.12547267951E+01  0.21622783444E+02  0.22279371129E+02  0.31072326616E+02  0.51100000000E-03 0.  1.
        -12    1    3    3    0    0 -0.48060952640E+01 -0.38143067955E+01 -0.70130548909E+00  0.61757037985E+01  0.00000000000E+00 0.  1.
</event>
<event>
 7    1  0.1161807E-013  0.5052886E+02  0.7816164E-02  0.1300439E+00
        -11   -1    0    0    0    0  0.00000000000E+00  0.00000000000E+00  0.45593999997E+02  0.45594000000E+02  0.51100000000E-03 0. -1.
         11   -1    0    0    0    0 -0.00000000000E+00 -0.00000000000E+00 -0.45593999997E+02  0.45594000000E+02  0.51100000000E-03 0.  1.
    9900012    2    1    2    0    0  0.64563471665E+01  0.38489694780E+01  0.39958316026E+02  0.50528855833E+02  0.29999987790E+02 0.  0.
        -12    1    1    2    0    0 -0.64563471665E+01 -0.38489694780E+01 -0.39958316026E+02  0.40659144167E+02  0.00000000000E+00 0.  1.
         11    1    3    3    0    0 -0.60301425204E+01  0.12561852965E+02  0.16641595004E+02  0.21704963793E+02  0.51100000000E-03 0. -1.
        -11    1    3    3    0    0  0.34139970625E+01  0.10852426735E+01  0.53377133636E+01  0.64283988532E+01  0.51100000000E-03 0.  1.
         12    1    3    3    0    0  0.90724926244E+01 -0.97981261607E+01  0.17979007658E+02  0.22395493186E+02  0.00000000000E+00 0. -1.
</event>
<event>
 7    1  0.1161807E-013  0.5052885E+02  0.7816164E-02  0.1300439E+00
        -11   -1    0    0    0    0  0.00000000000E+00  0.00000000000E+00  0.45593999997E+02  0.45594000000E+02  0.51100000000E-03 0. -1.
         11   -1    0    0    0    0 -0.00000000000E+00 -0.00000000000E+00 -0.45593999997E+02  0.45594000000E+02  0.51100000000E-03 0.  1.
    9900012    2    1    2    0    0  0.64229978593E+00  0.11281523522E+02 -0.39057410657E+02  0.50528847904E+02  0.29999963688E+02 0.  0.
         12    1    1    2    0    0 -0.64229978593E+00 -0.11281523522E+02  0.39057410657E+02  0.40659152096E+02  0.00000000000E+00 0. -1.
         11    1    3    3    0    0 -0.16182813019E+01  0.63767279425E+00 -0.80521260653E+01  0.82378513824E+01  0.51100000000E-03 0.  1.
        -11    1    3    3    0    0 -0.11432164942E+02  0.37135727563E+01 -0.73363327923E+01  0.14082144615E+02  0.51100000000E-03 0. -1.
         12    1    3    3    0    0  0.13692746029E+02  0.69302779714E+01 -0.23668951799E+02  0.28208851906E+02  0.00000000000E+00 0. -1.
</event>
<event>
 7    1  0.1161807E-013  0.5052885E+02  0.7816164E-02  0.1300439E+00
        -11   -1    0    0    0    0  0.00000000000E+00  0.00000000000E+00  0.45593999997E+02  0.45594000000E+02  0.51100000000E-03 0.  1.
         11   -1    0    0    0    0 -0.00000000000E+00 -0.00000000000E+00 -0.45593999997E+02  0.45594000000E+02  0.51100000000E-03 0. -1.
    9900012    2    1    2    0    0 -0.32066040448E+02 -0.20612059566E+02 -0.14144905109E+02  0.50528852320E+02  0.29999977111E+02 0.  0.
         12    1    1    2    0    0  0.32066040448E+02  0.20612059566E+02  0.14144905109E+02  0.40659147680E+02  0.00000000000E+00 0. -1.
         11    1    3    3    0    0 -0.13395404618E+02  0.46940957061E+01 -0.95608400798E+01  0.17113768220E+02  0.51100000000E-03 0. -1.
        -11    1    3    3    0    0 -0.13311275848E+02 -0.11184792938E+02  0.73421090172E+00  0.17401974706E+02  0.51100000000E-03 0.  1.
        -12    1    3    3    0    0 -0.53593599820E+01 -0.14121362334E+02 -0.53182759304E+01  0.16013109393E+02  0.00000000000E+00 0.  1.
</event>
<event>
 7    1  0.1161807E-013  0.5052890E+02  0.7816164E-02  0.1300439E+00
        -11   -1    0    0    0    0  0.00000000000E+00  0.00000000000E+00  0.45593999997E+02  0.45594000000E+02  0.51100000000E-03 0. -1.
         11   -1    0    0    0    0 -0.00000000000E+00 -0.00000000000E+00 -0.45593999997E+02  0.45594000000E+02  0.51100000000E-03 0.  1.
    9900012    2    1    2    0    0  0.89346330986E+00  0.20215988614E+02  0.35265818836E+02  0.50528899536E+02  0.30000120631E+02 0.  0.
        -12    1    1    2    0    0 -0.89346330986E+00 -0.20215988614E+02 -0.35265818836E+02  0.40659100464E+02  0.00000000000E+00 0.  1.
         11    1    3    3    0    0  0.73274008325E+00 -0.35538709372E+01  0.31578510926E+01  0.48102942168E+01  0.51100000000E-03 0. -1.
        -11    1    3    3    0    0  0.94123473015E+00 -0.31937120189E+01  0.10923189220E+02  0.11419359976E+02  0.51100000000E-03 0.  1.
         12    1    3    3    0    0 -0.78051150354E+00  0.26963571570E+02  0.21184778524E+02  0.34299245344E+02  0.00000000000E+00 0. -1.
</event>
<event>
 7    1  0.1161807E-013  0.5052885E+02  0.7816164E-02  0.1300439E+00
        -11   -1    0    0    0    0  0.00000000000E+00  0.00000000000E+00  0.45593999997E+02  0.45594000000E+02  0.51100000000E-03 0. -1.
         11   -1    0    0    0    0 -0.00000000000E+00 -0.00000000000E+00 -0.45593999997E+02  0.45594000000E+02  0.51100000000E-03 0.  1.
    9900012    2    1    2    0    0  0.86011354167E+01 -0.19939922492E+02 -0.34374213559E+02  0.50528848542E+02  0.29999965629E+02 0.  0.
         12    1    1    2    0    0 -0.86011354167E+01  0.19939922492E+02  0.34374213559E+02  0.40659151458E+02  0.00000000000E+00 0. -1.
         11    1    3    3    0    0 -0.73285660310E+01  0.62322206176E+00 -0.25453707620E+01  0.77830070273E+01  0.51100000000E-03 0. -1.
        -11    1    3    3    0    0 -0.13114658514E+01 -0.49640548442E+01 -0.75423069594E+01  0.91240439338E+01  0.51100000000E-03 0.  1.
         12    1    3    3    0    0  0.17241167299E+02 -0.15599089709E+02 -0.24286535838E+02  0.33621797581E+02  0.00000000000E+00 0. -1.
</event>
<event>
 7    1  0.1161807E-013  0.5052886E+02  0.7816164E-02  0.1300439E+00
        -11   -1    0    0    0    0  0.00000000000E+00  0.00000000000E+00  0.45593999997E+02  0.45594000000E+02  0.51100000000E-03 0. -1.
         11   -1    0    0    0    0 -0.00000000000E+00 -0.00000000000E+00 -0.45593999997E+02  0.45594000000E+02  0.51100000000E-03 0.  1.
    9900012    2    1    2    0    0 -0.13337723518E+02 -0.14635906285E+02  0.35511417924E+02  0.50528862966E+02  0.30000009471E+02 0.  0.
        -12    1    1    2    0    0  0.13337723518E+02  0.14635906285E+02 -0.35511417924E+02  0.40659137034E+02  0.00000000000E+00 0.  1.
         11    1    3    3    0    0 -0.12520439188E+01 -0.53640124402E+01  0.70502509485E+01  0.89468587857E+01  0.51100000000E-03 0. -1.
        -11    1    3    3    0    0 -0.40520393446E+01 -0.97557001638E+01 -0.13992351862E+01  0.10656010881E+02  0.51100000000E-03 0.  1.
         12    1    3    3    0    0 -0.80336402541E+01  0.48380631936E+00  0.29860402161E+02  0.30925993299E+02  0.00000000000E+00 0. -1.
</event>
<event>
 7    1  0.1161807E-013  0.5052887E+02  0.7816164E-02  0.1300439E+00
        -11   -1    0    0    0    0  0.00000000000E+00  0.00000000000E+00  0.45593999997E+02  0.45594000000E+02  0.51100000000E-03 0. -1.
         11   -1    0    0    0    0 -0.00000000000E+00 -0.00000000000E+00 -0.45593999997E+02  0.45594000000E+02  0.51100000000E-03 0.  1.
    9900012    2    1    2    0    0  0.33232943888E+01  0.18413542923E+02  0.36097947060E+02  0.50528872728E+02  0.30000039143E+02 0.  0.
        -12    1    1    2    0    0 -0.33232943888E+01 -0.18413542923E+02 -0.36097947060E+02  0.40659127272E+02  0.00000000000E+00 0.  1.
         11    1    3    3    0    0  0.76096331180E+00  0.12017974141E+02  0.79056073783E+01  0.14405186424E+02  0.51100000000E-03 0. -1.
        -11    1    3    3    0    0 -0.88130792797E+00  0.14032658898E+02  0.15623154967E+02  0.21018448820E+02  0.51100000000E-03 0.  1.
         12    1    3    3    0    0  0.34436390049E+01 -0.76370901166E+01  0.12569184715E+02  0.15105237484E+02  0.00000000000E+00 0. -1.
</event>
<event>
 7    1  0.1161807E-013  0.5052889E+02  0.7816164E-02  0.1300439E+00
        -11   -1    0    0    0    0  0.00000000000E+00  0.00000000000E+00  0.45593999997E+02  0.45594000000E+02  0.51100000000E-03 0. -1.
         11   -1    0    0    0    0 -0.00000000000E+00 -0.00000000000E+00 -0.45593999997E+02  0.45594000000E+02  0.51100000000E-03 0.  1.
    9900012    2    1    2    0    0 -0.31193301159E+02 -0.28025698230E+01  0.25928498096E+02  0.50528887266E+02  0.30000083334E+02 0.  0.
        -12    1    1    2    0    0  0.31193301159E+02  0.28025698230E+01 -0.25928498096E+02  0.40659112734E+02  0.00000000000E+00 0.  1.
         11    1    3    3    0    0 -0.51154010114E+01  0.51973707620E+01  0.15630964635E+02  0.17248392564E+02  0.51100000000E-03 0. -1.
        -11    1    3    3    0    0 -0.43958621618E+01 -0.87907564171E+01  0.45801121617E+01  0.10843358806E+02  0.51100000000E-03 0.  1.
        -12    1    3    3    0    0 -0.21682037986E+02  0.79081583213E+00  0.57174212990E+01  0.22437135896E+02  0.00000000000E+00 0.  1.
</event>
<event>
 7    1  0.1161807E-013  0.5052886E+02  0.7816164E-02  0.1300439E+00
        -11   -1    0    0    0    0  0.00000000000E+00  0.00000000000E+00  0.45593999997E+02  0.45594000000E+02  0.51100000000E-03 0. -1.
         11   -1    0    0    0    0 -0.00000000000E+00 -0.00000000000E+00 -0.45593999997E+02  0.45594000000E+02  0.51100000000E-03 0.  1.
    9900012    2    1    2    0    0 -0.15184832923E+02 -0.13072733452E+02 -0.35379231725E+02  0.50528861442E+02  0.30000004839E+02 0.  0.
         12    1    1    2    0    0  0.15184832923E+02  0.13072733452E+02  0.35379231725E+02  0.40659138558E+02  0.00000000000E+00 0. -1.
         11    1    3    3    0    0  0.98194994037E+00 -0.30936118044E+01 -0.15616805814E+02  0.15950526129E+02  0.51100000000E-03 0. -1.
        -11    1    3    3    0    0 -0.16429641751E+02 -0.76143538781E+01 -0.23791630458E+02  0.29899050038E+02  0.51100000000E-03 0.  1.
         12    1    3    3    0    0  0.26285888823E+00 -0.23647677698E+01  0.40292045475E+01  0.46792852751E+01  0.00000000000E+00 0. -1.
</event>
<event>
 7    1  0.1161807E-013  0.5052886E+02  0.7816164E-02  0.1300439E+00
        -11   -1    0    0    0    0  0.00000000000E+00  0.00000000000E+00  0.45593999997E+02  0.45594000000E+02  0.51100000000E-03 0. -1.
         11   -1    0    0    0    0 -0.00000000000E+00 -0.00000000000E+00 -0.45593999997E+02  0.45594000000E+02  0.51100000000E-03 0.  1.
    9900012    2    1    2    0    0  0.13063502986E+02  0.74038930227E+01 -0.37784826980E+02  0.50528857214E+02  0.29999991989E+02 0.  0.
         12    1    1    2    0    0 -0.13063502986E+02 -0.74038930227E+01  0.37784826980E+02  0.40659142786E+02  0.00000000000E+00 0. -1.
         11    1    3    3    0    0  0.37373544620E+01  0.12854401553E+00 -0.22083434201E+02  0.22397821508E+02  0.51100000000E-03 0. -1.
        -11    1    3    3    0    0 -0.15909178231E+01  0.43996984881E+01 -0.16168646918E+02  0.16831919371E+02  0.51100000000E-03 0.  1.
         12    1    3    3    0    0  0.10917066347E+02  0.28756505190E+01  0.46725413871E+00  0.11299116335E+02  0.00000000000E+00 0. -1.
</event>
<event>
 7    1  0.1161807E-013  0.5052886E+02  0.7816164E-02  0.1300439E+00
        -11   -1    0    0    0    0  0.00000000000E+00  0.00000000000E+00  0.45593999997E+02  0.45594000000E+02  0.51100000000E-03 0. -1.
         11   -1    0    0    0    0 -0.00000000000E+00 -0.00000000000E+00 -0.45593999997E+02  0.45594000000E+02  0.51100000000E-03 0.  1.
    9900012    2    1    2    0    0 -0.28252253733E+02 -0.10022769322E+02  0.27468526596E+02  0.50528859586E+02  0.29999999197E+02 0.  0.
        -12    1    1    2    0    0  0.28252253733E+02  0.10022769322E+02 -0.27468526596E+02  0.40659140414E+02  0.00000000000E+00 0.  1.
         11    1    3    3    0    0 -0.12688103259E+02 -0.78499405583E+01  0.14733507249E+02  0.20968685395E+02  0.51100000000E-03 0. -1.
        -11    1    3    3    0    0 -0.30657188379E+01 -0.91661228925E+01  0.11735780852E+02  0.15203453336E+02  0.51100000000E-03 0.  1.
        -12    1    3    3    0    0 -0.12498431636E+02  0.69932941290E+01  0.99923849572E+00  0.14356720855E+02  0.00000000000E+00 0.  1.
</event>
<event>
 7    1  0.1161807E-013  0.5052885E+02  0.7816164E-02  0.1300439E+00
        -11   -1    0    0    0    0  0.00000000000E+00  0.00000000000E+00  0.45593999997E+02  0.45594000000E+02  0.51100000000E-03 0. -1.
         11   -1    0    0    0    0 -0.00000000000E+00 -0.00000000000E+00 -0.45593999997E+02  0.45594000000E+02  0.51100000000E-03 0.  1.
    9900012    2    1    2    0    0 -0.33217968667E+02  0.12441268383E+02  0.19873292300E+02  0.50528851606E+02  0.29999974941E+02 0.  0.
        -12    1    1    2    0    0  0.33217968667E+02 -0.12441268383E+02 -0.19873292300E+02  0.40659148394E+02  0.00000000000E+00 0.  1.
         11    1    3    3    0    0 -0.19612842322E+01 -0.41220942763E+01  0.24010298462E+00  0.45712084580E+01  0.51100000000E-03 0. -1.
        -11    1    3    3    0    0 -0.12559832587E+02 -0.40732961118E+01  0.97326054915E+01  0.16403193157E+02  0.51100000000E-03 0.  1.
        -12    1    3    3    0    0 -0.18696851848E+02  0.20636658771E+02  0.99005838237E+01  0.29554449991E+02  0.00000000000E+00 0.  1.
</event>
<event>
 7    1  0.1161807E-013  0.5052887E+02  0.7816164E-02  0.1300439E+00
        -11   -1    0    0    0    0  0.00000000000E+00  0.00000000000E+00  0.45593999997E+02  0.45594000000E+02  0.51100000000E-03 0. -1.
         11   -1    0    0    0    0 -0.00000000000E+00 -0.00000000000E+00 -0.45593999997E+02  0.45594000000E+02  0.51100000000E-03 0.  1.
    9900012    2    1    2    0    0  0.19542072281E+02  0.30267812667E+02  0.18844948725E+02  0.50528866154E+02  0.30000019162E+02 0.  0.
        -12    1    1    2    0    0 -0.19542072281E+02 -0.30267812667E+02 -0.18844948725E+02  0.40659133846E+02  0.00000000000E+00 0.  1.
         11    1    3    3    0    0  0.14262435349E+02  0.69423805241E+01  0.14260434785E+02  0.21330112751E+02  0.51100000000E-03 0. -1.
        -11    1    3    3    0    0  0.10923250233E+01 -0.18216093520E+01  0.29740697016E+01  0.36546580468E+01  0.51100000000E-03 0.  1.
         12    1    3    3    0    0  0.41873119084E+01  0.25147041495E+02  0.16104442380E+01  0.25544095357E+02  0.00000000000E+00 0. -1.
</event>
<event>
 7    1  0.1161807E-013  0.5052885E+02  0.7816164E-02  0.1300439E+00
        -11   -1    0    0    0    0  0.00000000000E+00  0.00000000000E+00  0.45593999997E+02  0.45594000000E+02  0.51100000000E-03 0. -1.
         11   -1    0    0    0    0 -0.00000000000E+00 -0.00000000000E+00 -0.45593999997E+02  0.45594000000E+02  0.51100000000E-03 0.  1.
    9900012    2    1    2    0    0 -0.26341733107E+02  0.39735790326E+01 -0.30716284796E+02  0.50528851152E+02  0.29999973561E+02 0.  0.
         12    1    1    2    0    0  0.26341733107E+02 -0.39735790326E+01  0.30716284796E+02  0.40659148848E+02  0.00000000000E+00 0. -1.
         11    1    3    3    0    0 -0.52785356559E+01 -0.42318357214E+01 -0.93420238756E+01  0.11534504003E+02  0.51100000000E-03 0. -1.
        -11    1    3    3    0    0 -0.19157600756E+02 -0.45619787284E+01 -0.12385424115E+02  0.23264222477E+02  0.51100000000E-03 0.  1.
        -12    1    3    3    0    0 -0.19055966950E+01  0.12767393482E+02 -0.89888368048E+01  0.15730124672E+02  0.00000000000E+00 0.  1.
</event>
<event>
 7    1  0.1161807E-013  0.5052886E+02  0.7816164E-02  0.1300439E+00
        -11   -1    0    0    0    0  0.00000000000E+00  0.00000000000E+00  0.45593999997E+02  0.45594000000E+02  0.51100000000E-03 0. -1.
         11   -1    0    0    0    0 -0.00000000000E+00 -0.00000000000E+00 -0.45593999997E+02  0.45594000000E+02  0.51100000000E-03 0.  1.
    9900012    2    1    2    0    0 -0.41508346054E+01  0.36058287569E+02 -0.18323102758E+02  0.50528860498E+02  0.30000001970E+02 0.  0.
         12    1    1    2    0    0  0.41508346054E+01 -0.36058287569E+02  0.18323102758E+02  0.40659139502E+02  0.00000000000E+00 0. -1.
         11    1    3    3    0    0  0.34660013829E+01  0.16114254251E+02 -0.15858807584E+02  0.22873218704E+02  0.51100000000E-03 0. -1.
        -11    1    3    3    0    0 -0.11991583801E+02  0.82326322654E+01  0.12889411178E+01  0.14602591740E+02  0.51100000000E-03 0.  1.
         12    1    3    3    0    0  0.43747478122E+01  0.11711401053E+02 -0.37532362925E+01  0.13053050054E+02  0.00000000000E+00 0. -1.
</event>
<event>
 7    1  0.1161807E-013  0.5052885E+02  0.7816164E-02  0.1300439E+00
        -11   -1    0    0    0    0  0.00000000000E+00  0.00000000000E+00  0.45593999997E+02  0.45594000000E+02  0.51100000000E-03 0.  1.
         11   -1    0    0    0    0 -0.00000000000E+00 -0.00000000000E+00 -0.45593999997E+02  0.45594000000E+02  0.51100000000E-03 0. -1.
    9900012    2    1    2    0    0  0.28752900037E+01 -0.39420396582E+02  0.95357808854E+01  0.50528854948E+02  0.29999985099E+02 0.  0.
        -12    1    1    2    0    0 -0.28752900037E+01  0.39420396582E+02 -0.95357808854E+01  0.40659145052E+02  0.00000000000E+00 0.  1.
         11    1    3    3    0    0  0.14232531312E+01 -0.10128169319E+02  0.10742302633E+02  0.14832482238E+02  0.51100000000E-03 0. -1.
        -11    1    3    3    0    0 -0.57279881130E+01 -0.37840264731E+01  0.49839869097E+01  0.84834444625E+01  0.51100000000E-03 0.  1.
         12    1    3    3    0    0  0.71800249854E+01 -0.25508200790E+02 -0.61905086570E+01  0.27212928247E+02  0.00000000000E+00 0. -1.
</event>
<event>
 7    1  0.1161807E-013  0.5052885E+02  0.7816164E-02  0.1300439E+00
        -11   -1    0    0    0    0  0.00000000000E+00  0.00000000000E+00  0.45593999997E+02  0.45594000000E+02  0.51100000000E-03 0. -1.
         11   -1    0    0    0    0 -0.00000000000E+00 -0.00000000000E+00 -0.45593999997E+02  0.45594000000E+02  0.51100000000E-03 0.  1.
    9900012    2    1    2    0    0 -0.26684214967E+02 -0.30073451517E+02  0.60586316409E+01  0.50528845656E+02  0.29999956857E+02 0.  0.
         12    1    1    2    0    0  0.26684214967E+02  0.30073451517E+02 -0.60586316409E+01  0.40659154344E+02  0.00000000000E+00 0. -1.
         11    1    3    3    0    0 -0.81421080464E+01 -0.13873221829E+02  0.41389583790E+01  0.16609972428E+02  0.51100000000E-03 0. -1.
        -11    1    3    3    0    0 -0.14800865672E+02 -0.17782154418E+02  0.97431394974E+01  0.25103772782E+02  0.51100000000E-03 0.  1.
        -12    1    3    3    0    0 -0.37412412484E+01  0.15819247289E+01 -0.78234662355E+01  0.88151004455E+01  0.00000000000E+00 0.  1.
</event>
<event>
 7    1  0.1161807E-013  0.5052887E+02  0.7816164E-02  0.1300439E+00
        -11   -1    0    0    0    0  0.00000000000E+00  0.00000000000E+00  0.45593999997E+02  0.45594000000E+02  0.51100000000E-03 0. -1.
         11   -1    0    0    0    0 -0.00000000000E+00 -0.00000000000E+00 -0.45593999997E+02  0.45594000000E+02  0.51100000000E-03 0.  1.
    9900012    2    1    2    0    0  0.33023633308E+00  0.27126047772E+02  0.30285865799E+02  0.50528865836E+02  0.30000018196E+02 0.  0.
        -12    1    1    2    0    0 -0.33023633308E+00 -0.27126047772E+02 -0.30285865799E+02  0.40659134164E+02  0.00000000000E+00 0.  1.
         11    1    3    3    0    0  0.52512408018E+00 -0.56554741714E+01  0.90942200573E+01  0.10722172453E+02  0.51100000000E-03 0. -1.
        -11    1    3    3    0    0 -0.22452538803E+01  0.99308844008E+01  0.32687921773E+01  0.10693392003E+02  0.51100000000E-03 0.  1.
        -12    1    3    3    0    0  0.20503661332E+01  0.22850637542E+02  0.17922853564E+02  0.29113301380E+02  0.00000000000E+00 0.  1.
</event>
<event>
 7    1  0.1161807E-013  0.5052884E+02  0.7816164E-02  0.1300439E+00
        -11   -1    0    0    0    0  0.00000000000E+00  0.00000000000E+00  0.45593999997E+02  0.45594000000E+02  0.51100000000E-03 0. -1.
         11   -1    0    0    0    0 -0.00000000000E+00 -0.00000000000E+00 -0.45593999997E+02  0.45594000000E+02  0.51100000000E-03 0.  1.
    9900012    2    1    2    0    0 -0.20222339221E+02  0.14937998626E+02 -0.31954346566E+02  0.50528842717E+02  0.29999947923E+02 0.  0.
         12    1    1    2    0    0  0.20222339221E+02 -0.14937998626E+02  0.31954346566E+02  0.40659157283E+02  0.00000000000E+00 0. -1.
         11    1    3    3    0    0 -0.48633774934E+01 -0.28744024960E+01 -0.11548336969E+02  0.12856077059E+02  0.51100000000E-03 0.  1.
        -11    1    3    3    0    0  0.26034614402E+01  0.97356361309E+01 -0.13405082003E+02  0.16770713942E+02  0.51100000000E-03 0. -1.
         12    1    3    3    0    0 -0.17962423167E+02  0.80767649906E+01 -0.70009275941E+01  0.20902051716E+02  0.00000000000E+00 0. -1.
</event>
<event>
 7    1  0.1161807E-013  0.5052887E+02  0.7816164E-02  0.1300439E+00
        -11   -1    0    0    0    0  0.00000000000E+00  0.00000000000E+00  0.45593999997E+02  0.45594000000E+02  0.51100000000E-03 0.  1.
         11   -1    0    0    0    0 -0.00000000000E+00 -0.00000000000E+00 -0.45593999997E+02  0.45594000000E+02  0.51100000000E-03 0. -1.
    9900012    2    1    2    0    0  0.35618194176E+02  0.66887682488E+01 -0.18432846376E+02  0.50528865694E+02  0.30000017762E+02 0.  0.
         12    1    1    2    0    0 -0.35618194176E+02 -0.66887682488E+01  0.18432846376E+02  0.40659134306E+02  0.00000000000E+00 0. -1.
         11    1    3    3    0    0  0.72576785707E+01 -0.10738221134E+02 -0.79068144252E+01  0.15182259581E+02  0.51100000000E-03 0. -1.
        -11    1    3    3    0    0  0.16888870704E+01  0.24091280585E+01 -0.20493224953E+01  0.35855209509E+01  0.51100000000E-03 0.  1.
         12    1    3    3    0    0  0.26671628535E+02  0.15017861325E+02 -0.84767094558E+01  0.31761085162E+02  0.00000000000E+00 0. -1.
</event>
<event>
 7    1  0.1161807E-013  0.5052888E+02  0.7816164E-02  0.1300439E+00
        -11   -1    0    0    0    0  0.00000000000E+00  0.00000000000E+00  0.45593999997E+02  0.45594000000E+02  0.51100000000E-03 0. -1.
         11   -1    0    0    0    0 -0.00000000000E+00 -0.00000000000E+00 -0.45593999997E+02  0.45594000000E+02  0.51100000000E-03 0.  1.
    9900012    2    1    2    0    0 -0.29649947452E-01  0.22135298698E+02 -0.34105592072E+02  0.50528883702E+02  0.30000072499E+02 0.  0.
         12    1    1    2    0    0  0.29649947452E-01 -0.22135298698E+02  0.34105592072E+02  0.40659116298E+02  0.00000000000E+00 0. -1.
         11    1    3    3    0    0 -0.65743660545E+00  0.15901605921E+02 -0.23248042630E+02  0.28173831478E+02  0.51100000000E-03 0. -1.
        -11    1    3    3    0    0  0.64083922413E+01  0.61373489462E+01 -0.13373876461E+02  0.16049769938E+02  0.51100000000E-03 0.  1.
         12    1    3    3    0    0 -0.57806055833E+01  0.96343830516E-01  0.25163270183E+01  0.63052822860E+01  0.00000000000E+00 0. -1.
</event>
<event>
 7    1  0.1161807E-013  0.5052886E+02  0.7816164E-02  0.1300439E+00
        -11   -1    0    0    0    0  0.00000000000E+00  0.00000000000E+00  0.45593999997E+02  0.45594000000E+02  0.51100000000E-03 0. -1.
         11   -1    0    0    0    0 -0.00000000000E+00 -0.00000000000E+00 -0.45593999997E+02  0.45594000000E+02  0.51100000000E-03 0.  1.
    9900012    2    1    2    0    0  0.25030633391E+01 -0.24641150126E+02  0.32244595840E+02  0.50528861218E+02  0.30000004157E+02 0.  0.
        -12    1    1    2    0    0 -0.25030633391E+01  0.24641150126E+02 -0.32244595840E+02  0.40659138782E+02  0.00000000000E+00 0.  1.
         11    1    3    3    0    0 -0.12319401005E+01  0.37349431174E+01 -0.53917426416E+00  0.39696581276E+01  0.51100000000E-03 0. -1.
        -11    1    3    3    0    0 -0.24445438262E+01 -0.65423511324E+00  0.95048777246E+01  0.98359808318E+01  0.51100000000E-03 0.  1.
         12    1    3    3    0    0  0.61795472658E+01 -0.27721858130E+02  0.23278892380E+02  0.36723222258E+02  0.00000000000E+00 0. -1.
</event>
<event>
 7    1  0.1161807E-013  0.5052888E+02  0.7816164E-02  0.1300439E+00
        -11   -1    0    0    0    0  0.00000000000E+00  0.00000000000E+00  0.45593999997E+02  0.45594000000E+02  0.51100000000E-03 0.  1.
         11   -1    0    0    0    0 -0.00000000000E+00 -0.00000000000E+00 -0.45593999997E+02  0.45594000000E+02  0.51100000000E-03 0. -1.
    9900012    2    1    2    0    0  0.14838056250E+02 -0.37757337255E+02  0.27165962343E+01  0.50528876486E+02  0.30000050566E+02 0.  0.
        -12    1    1    2    0    0 -0.14838056250E+02  0.37757337255E+02 -0.27165962343E+01  0.40659123514E+02  0.00000000000E+00 0.  1.
         11    1    3    3    0    0  0.67993505889E+01 -0.72735080738E+01  0.25280763398E+01  0.10272597450E+02  0.51100000000E-03 0. -1.
        -11    1    3    3    0    0  0.16780324064E+02 -0.16894193956E+02  0.24626659577E+01  0.23938625462E+02  0.51100000000E-03 0.  1.
        -12    1    3    3    0    0 -0.87416184029E+01 -0.13589635225E+02 -0.22741460632E+01  0.16317653574E+02  0.00000000000E+00 0.  1.
</event>
<event>
 7    1  0.1161807E-013  0.5052885E+02  0.7816164E-02  0.1300439E+00
        -11   -1    0    0    0    0  0.00000000000E+00  0.00000000000E+00  0.45593999997E+02  0.45594000000E+02  0.51100000000E-03 0. -1.
         11   -1    0    0    0    0 -0.00000000000E+00 -0.00000000000E+00 -0.45593999997E+02  0.45594000000E+02  0.51100000000E-03 0.  1.
    9900012    2    1    2    0    0 -0.21102937124E+02 -0.84859330609E+01 -0.33701944913E+02  0.50528854582E+02  0.29999983988E+02 0.  0.
         12    1    1    2    0    0  0.21102937124E+02  0.84859330609E+01  0.33701944913E+02  0.40659145418E+02  0.00000000000E+00 0. -1.
         11    1    3    3    0    0 -0.23097231646E+01  0.37434948049E+01  0.92978741702E+00  0.44958958343E+01  0.51100000000E-03 0. -1.
        -11    1    3    3    0    0 -0.67503978218E+01 -0.35489717850E+01 -0.29273064960E+02  0.30250213287E+02  0.51100000000E-03 0.  1.
         12    1    3    3    0    0 -0.12042816138E+02 -0.86804560809E+01 -0.53586673703E+01  0.15782745461E+02  0.00000000000E+00 0. -1.
</event>
<event>
 7    1  0.1161807E-013  0.5052886E+02  0.7816164E-02  0.1300439E+00
        -11   -1    0    0    0    0  0.00000000000E+00  0.00000000000E+00  0.45593999997E+02  0.45594000000E+02  0.51100000000E-03 0.  1.
         11   -1    0    0    0    0 -0.00000000000E+00 -0.00000000000E+00 -0.45593999997E+02  0.45594000000E+02  0.51100000000E-03 0. -1.
    9900012    2    1    2    0    0  0.35962877617E+02  0.14565020601E+02 -0.12153085709E+02  0.50528857315E+02  0.29999992296E+02 0.  0.
         12    1    1    2    0    0 -0.35962877617E+02 -0.14565020601E+02  0.12153085709E+02  0.40659142685E+02  0.00000000000E+00 0. -1.
         11    1    3    3    0    0 -0.33251809150E+01 -0.80948564847E+00  0.93846817806E+00  0.35486360640E+01  0.51100000000E-03 0. -1.
        -11    1    3    3    0    0  0.58735886505E+01 -0.32136924847E+01 -0.35176851044E+01  0.75631324050E+01  0.51100000000E-03 0.  1.
         12    1    3    3    0    0  0.33414469882E+02  0.18588198734E+02 -0.95738687827E+01  0.39417088846E+02  0.00000000000E+00 0. -1.
</event>
<event>
 7    1  0.1161807E-013  0.5052887E+02  0.7816164E-02  0.1300439E+00
        -11   -1    0    0    0    0  0.00000000000E+00  0.00000000000E+00  0.45593999997E+02  0.45594000000E+02  0.51100000000E-03 0. -1.
         11   -1    0    0    0    0 -0.00000000000E+00 -0.00000000000E+00 -0.45593999997E+02  0.45594000000E+02  0.51100000000E-03 0.  1.
    9900012    2    1    2    0    0 -0.10744120030E+02  0.26255323823E+02  0.29127084484E+02  0.50528865789E+02  0.30000018051E+02 0.  0.
        -12    1    1    2    0    0  0.10744120030E+02 -0.26255323823E+02 -0.29127084484E+02  0.40659134211E+02  0.00000000000E+00 0.  1.
         11    1    3    3    0    0  0.21948751067E+01 -0.22125910232E+01  0.69713855783E+01  0.76363114729E+01  0.51100000000E-03 0. -1.
        -11    1    3    3    0    0 -0.14580879530E+01 -0.24353091746E+01 -0.51232566000E+00  0.28843073861E+01  0.51100000000E-03 0.  1.
         12    1    3    3    0    0 -0.11480907184E+02  0.30903224021E+02  0.22668024566E+02  0.40008246930E+02  0.00000000000E+00 0. -1.
</event>
<event>
 7    1  0.1161807E-013  0.5052878E+02  0.7816164E-02  0.1300439E+00
        -11   -1    0    0    0    0  0.00000000000E+00  0.00000000000E+00  0.45593999997E+02  0.45594000000E+02  0.51100000000E-03 0. -1.
         11   -1    0    0    0    0 -0.00000000000E+00 -0.00000000000E+00 -0.45593999997E+02  0.45594000000E+02  0.51100000000E-03 0.  1.
    9900012    2    1    2    0    0  0.84077315033E+01  0.83466460753E+01 -0.38894936693E+02  0.50528775338E+02  0.29999743117E+02 0.  0.
         12    1    1    2    0    0 -0.84077315033E+01 -0.83466460753E+01  0.38894936693E+02  0.40659224662E+02  0.00000000000E+00 0. -1.
         11    1    3    3    0    0 -0.25231090360E+01  0.53560089502E+00 -0.19855976173E+01  0.32550799814E+01  0.51100000000E-03 0. -1.
        -11    1    3    3    0    0  0.11027133956E+00  0.12554630000E+02 -0.54835096069E+01  0.13700356641E+02  0.51100000000E-03 0.  1.
         12    1    3    3    0    0  0.10820569200E+02 -0.47435848199E+01 -0.31425829469E+02  0.33573338716E+02  0.00000000000E+00 0. -1.
</event>
<event>
 7    1  0.1161807E-013  0.5052893E+02  0.7816164E-02  0.1300439E+00
        -11   -1    0    0    0    0  0.00000000000E+00  0.00000000000E+00  0.45593999997E+02  0.45594000000E+02  0.51100000000E-03 0. -1.
         11   -1    0    0    0    0 -0.00000000000E+00 -0.00000000000E+00 -0.45593999997E+02  0.45594000000E+02  0.51100000000E-03 0.  1.
    9900012    2    1    2    0    0 -0.30024090982E+02  0.17231998345E+02 -0.21325389524E+02  0.50528929123E+02  0.30000210561E+02 0.  0.
         12    1    1    2    0    0  0.30024090982E+02 -0.17231998345E+02  0.21325389524E+02  0.40659070877E+02  0.00000000000E+00 0. -1.
         11    1    3    3    0    0 -0.13839642311E+02 -0.32207172372E+01 -0.51600141224E+00  0.14218824724E+02  0.51100000000E-03 0. -1.
        -11    1    3    3    0    0 -0.20679122357E+01  0.16348782047E+01  0.21778434538E+01  0.34193698438E+01  0.51100000000E-03 0.  1.
        -12    1    3    3    0    0 -0.14116536435E+02  0.18817837378E+02 -0.22987231566E+02  0.32890734555E+02  0.00000000000E+00 0.  1.
</event>
<event>
 7    1  0.1161807E-013  0.5052890E+02  0.7816164E-02  0.1300439E+00
        -11   -1    0    0    0    0  0.00000000000E+00  0.00000000000E+00  0.45593999997E+02  0.45594000000E+02  0.51100000000E-03 0. -1.
         11   -1    0    0    0    0 -0.00000000000E+00 -0.00000000000E+00 -0.45593999997E+02  0.45594000000E+02  0.51100000000E-03 0.  1.
    9900012    2    1    2    0    0  0.28662151026E+02  0.76546400360E+00  0.28828064119E+02  0.50528903633E+02  0.30000133081E+02 0.  0.
        -12    1    1    2    0    0 -0.28662151026E+02 -0.76546400360E+00 -0.28828064119E+02  0.40659096367E+02  0.00000000000E+00 0.  1.
         11    1    3    3    0    0  0.23327911180E+02  0.63153669776E+01  0.21323353354E+02  0.32229810713E+02  0.51100000000E-03 0. -1.
        -11    1    3    3    0    0  0.28251619201E+01  0.22393240904E+01  0.92535184945E+01  0.99309474395E+01  0.51100000000E-03 0.  1.
         12    1    3    3    0    0  0.25090779260E+01 -0.77892270644E+01 -0.17488077298E+01  0.83681454801E+01  0.00000000000E+00 0. -1.
</event>
<event>
 7    1  0.1161807E-013  0.5052886E+02  0.7816164E-02  0.1300439E+00
        -11   -1    0    0    0    0  0.00000000000E+00  0.00000000000E+00  0.45593999997E+02  0.45594000000E+02  0.51100000000E-03 0. -1.
         11   -1    0    0    0    0 -0.00000000000E+00 -0.00000000000E+00 -0.45593999997E+02  0.45594000000E+02  0.51100000000E-03 0.  1.
    9900012    2    1    2    0    0 -0.10341950229E+02  0.29225348753E+02 -0.26307571672E+02  0.50528864845E+02  0.30000015183E+02 0.  0.
         12    1    1    2    0    0  0.10341950229E+02 -0.29225348753E+02  0.26307571672E+02  0.40659135155E+02  0.00000000000E+00 0. -1.
         11    1    3    3    0    0 -0.49668656122E+01  0.89886547676E+01 -0.74029842915E+01  0.12659772716E+02  0.51100000000E-03 0. -1.
        -11    1    3    3    0    0 -0.13761806610E+02  0.85873594757E+01 -0.16814316843E+02  0.23363461111E+02  0.51100000000E-03 0.  1.
         12    1    3    3    0    0  0.83867219927E+01  0.11649334510E+02 -0.20902705367E+01  0.14505631018E+02  0.00000000000E+00 0. -1.
</event>
<event>
 7    1  0.1161807E-013  0.5052888E+02  0.7816164E-02  0.1300439E+00
        -11   -1    0    0    0    0  0.00000000000E+00  0.00000000000E+00  0.45593999997E+02  0.45594000000E+02  0.51100000000E-03 0. -1.
         11   -1    0    0    0    0 -0.00000000000E+00 -0.00000000000E+00 -0.45593999997E+02  0.45594000000E+02  0.51100000000E-03 0.  1.
    9900012    2    1    2    0    0 -0.30462318930E+02 -0.85584795656E+01 -0.25533578132E+02  0.50528879752E+02  0.30000060495E+02 0.  0.
         12    1    1    2    0    0  0.30462318930E+02  0.85584795656E+01  0.25533578132E+02  0.40659120248E+02  0.00000000000E+00 0. -1.
         11    1    3    3    0    0 -0.17967664456E+02  0.47980995668E+01 -0.12207231599E+02  0.22245791265E+02  0.51100000000E-03 0. -1.
        -11    1    3    3    0    0 -0.11823028190E+02 -0.73735669577E+00 -0.37432784408E+01  0.12423358009E+02  0.51100000000E-03 0.  1.
         12    1    3    3    0    0 -0.67162628453E+00 -0.12619222437E+02 -0.95830680929E+01  0.15859730478E+02  0.00000000000E+00 0. -1.
</event>
<event>
 7    1  0.1161807E-013  0.5052887E+02  0.7816164E-02  0.1300439E+00
        -11   -1    0    0    0    0  0.00000000000E+00  0.00000000000E+00  0.45593999997E+02  0.45594000000E+02  0.51100000000E-03 0. -1.
         11   -1    0    0    0    0 -0.00000000000E+00 -0.00000000000E+00 -0.45593999997E+02  0.45594000000E+02  0.51100000000E-03 0.  1.
    9900012    2    1    2    0    0  0.26524637846E+02 -0.61359471434E+01  0.30198647636E+02  0.50528873358E+02  0.30000041059E+02 0.  0.
        -12    1    1    2    0    0 -0.26524637846E+02  0.61359471434E+01 -0.30198647636E+02  0.40659126642E+02  0.00000000000E+00 0.  1.
         11    1    3    3    0    0  0.26522550663E+02 -0.51346038490E+01  0.18075045326E+02  0.32504109189E+02  0.51100000000E-03 0. -1.
        -11    1    3    3    0    0  0.65635308140E+01 -0.64419374855E+00  0.75155217746E+01  0.99988994463E+01  0.51100000000E-03 0.  1.
        -12    1    3    3    0    0 -0.65614436311E+01 -0.35714954582E+00  0.46080805354E+01  0.80258647225E+01  0.00000000000E+00 0.  1.
</event>
<event>
 7    1  0.1161807E-013  0.5052886E+02  0.7816164E-02  0.1300439E+00
        -11   -1    0    0    0    0  0.00000000000E+00  0.00000000000E+00  0.45593999997E+02  0.45594000000E+02  0.51100000000E-03 0. -1.
         11   -1    0    0    0    0 -0.00000000000E+00 -0.00000000000E+00 -0.45593999997E+02  0.45594000000E+02  0.51100000000E-03 0.  1.
    9900012    2    1    2    0    0 -0.36165222606E+02 -0.52025697679E+01 -0.17837481846E+02  0.50528858138E+02  0.29999994797E+02 0.  0.
         12    1    1    2    0    0  0.36165222606E+02  0.52025697679E+01  0.17837481846E+02  0.40659141862E+02  0.00000000000E+00 0. -1.
         11    1    3    3    0    0 -0.12992464941E+02  0.65288965064E+01 -0.54234018175E+01  0.15519146960E+02  0.51100000000E-03 0. -1.
        -11    1    3    3    0    0 -0.43834962602E+01 -0.53549707892E+01 -0.13465925078E+02  0.15140075630E+02  0.51100000000E-03 0.  1.
         12    1    3    3    0    0 -0.18789261404E+02 -0.63764954851E+01  0.10518450495E+01  0.19869635547E+02  0.00000000000E+00 0. -1.
</event>
<event>
 7    1  0.1161807E-013  0.5052884E+02  0.7816164E-02  0.1300439E+00
        -11   -1    0    0    0    0  0.00000000000E+00  0.00000000000E+00  0.45593999997E+02  0.45594000000E+02  0.51100000000E-03 0. -1.
         11   -1    0    0    0    0 -0.00000000000E+00 -0.00000000000E+00 -0.45593999997E+02  0.45594000000E+02  0.51100000000E-03 0.  1.
    9900012    2    1    2    0    0  0.19867229760E+02 -0.22596242091E+02 -0.27347212694E+02  0.50528843380E+02  0.29999949937E+02 0.  0.
         12    1    1    2    0    0 -0.19867229760E+02  0.22596242091E+02  0.27347212694E+02  0.40659156620E+02  0.00000000000E+00 0. -1.
         11    1    3    3    0    0  0.13513401227E+02 -0.89120935450E+00 -0.93840022554E+01  0.16476218177E+02  0.51100000000E-03 0. -1.
        -11    1    3    3    0    0  0.63535412451E+01 -0.15181720958E+01 -0.10820350717E+02  0.12639316547E+02  0.51100000000E-03 0.  1.
         12    1    3    3    0    0  0.28728801461E-03 -0.20186860640E+02 -0.71428597218E+01  0.21413308656E+02  0.00000000000E+00 0. -1.
</event>
<event>
 7    1  0.1161807E-013  0.5052886E+02  0.7816164E-02  0.1300439E+00
        -11   -1    0    0    0    0  0.00000000000E+00  0.00000000000E+00  0.45593999997E+02  0.45594000000E+02  0.51100000000E-03 0. -1.
         11   -1    0    0    0    0 -0.00000000000E+00 -0.00000000000E+00 -0.45593999997E+02  0.45594000000E+02  0.51100000000E-03 0.  1.
    9900012    2    1    2    0    0 -0.14464458576E+02  0.24093998644E+02 -0.29384088666E+02  0.50528855896E+02  0.29999987980E+02 0.  0.
         12    1    1    2    0    0  0.14464458576E+02 -0.24093998644E+02  0.29384088666E+02  0.40659144104E+02  0.00000000000E+00 0. -1.
         11    1    3    3    0    0 -0.24715510188E+01 -0.42692326332E+01 -0.84591924080E+01  0.97924893756E+01  0.51100000000E-03 0. -1.
        -11    1    3    3    0    0 -0.69892380506E+01  0.42496938161E+01 -0.12039293092E+02  0.14555202660E+02  0.51100000000E-03 0.  1.
         12    1    3    3    0    0 -0.50036695068E+01  0.24113537462E+02 -0.88856031662E+01  0.26181163860E+02  0.00000000000E+00 0. -1.
</event>
<event>
 7    1  0.1161807E-013  0.5052885E+02  0.7816164E-02  0.1300439E+00
        -11   -1    0    0    0    0  0.00000000000E+00  0.00000000000E+00  0.45593999997E+02  0.45594000000E+02  0.51100000000E-03 0. -1.
         11   -1    0    0    0    0 -0.00000000000E+00 -0.00000000000E+00 -0.45593999997E+02  0.45594000000E+02  0.51100000000E-03 0.  1.
    9900012    2    1    2    0    0  0.37950629067E+02 -0.13418165560E+02 -0.57331680353E+01  0.50528848148E+02  0.29999964431E+02 0.  0.
         12    1    1    2    0    0 -0.37950629067E+02  0.13418165560E+02  0.57331680353E+01  0.40659151852E+02  0.00000000000E+00 0. -1.
         11    1    3    3    0    0  0.26722815694E+02 -0.79067782648E+01 -0.12041219318E+02  0.30358145267E+02  0.51100000000E-03 0. -1.
        -11    1    3    3    0    0  0.13768035313E+02 -0.97479157074E+00  0.34070875851E+01  0.14216795035E+02  0.51100000000E-03 0.  1.
         12    1    3    3    0    0 -0.25402219396E+01 -0.45365957241E+01  0.29009636975E+01  0.59539078461E+01  0.00000000000E+00 0. -1.
</event>
<event>
 7    1  0.1161807E-013  0.5052888E+02  0.7816164E-02  0.1300439E+00
        -11   -1    0    0    0    0  0.00000000000E+00  0.00000000000E+00  0.45593999997E+02  0.45594000000E+02  0.51100000000E-03 0. -1.
         11   -1    0    0    0    0 -0.00000000000E+00 -0.00000000000E+00 -0.45593999997E+02  0.45594000000E+02  0.51100000000E-03 0.  1.
    9900012    2    1    2    0    0 -0.85914916240E+01  0.40889090554E+01  0.39530134438E+02  0.50528875141E+02  0.30000046479E+02 0.  0.
        -12    1    1    2    0    0  0.85914916240E+01 -0.40889090554E+01 -0.39530134438E+02  0.40659124859E+02  0.00000000000E+00 0.  1.
         11    1    3    3    0    0 -0.83026419327E+01 -0.54178324872E+01  0.19783971626E+02  0.22128992419E+02  0.51100000000E-03 0. -1.
        -11    1    3    3    0    0  0.19405298924E+01 -0.32335653301E+01  0.13537587105E+02  0.14053037604E+02  0.51100000000E-03 0.  1.
         12    1    3    3    0    0 -0.22293795836E+01  0.12740306873E+02  0.62085757067E+01  0.14346845118E+02  0.00000000000E+00 0. -1.
</event>
<event>
 7    1  0.1161807E-013  0.5052886E+02  0.7816164E-02  0.1300439E+00
        -11   -1    0    0    0    0  0.00000000000E+00  0.00000000000E+00  0.45593999997E+02  0.45594000000E+02  0.51100000000E-03 0.  1.
         11   -1    0    0    0    0 -0.00000000000E+00 -0.00000000000E+00 -0.45593999997E+02  0.45594000000E+02  0.51100000000E-03 0. -1.
    9900012    2    1    2    0    0 -0.21706984297E+02 -0.33923075716E+02  0.55854423563E+01  0.50528863270E+02  0.30000010395E+02 0.  0.
        -12    1    1    2    0    0  0.21706984297E+02  0.33923075716E+02 -0.55854423563E+01  0.40659136730E+02  0.00000000000E+00 0.  1.
         11    1    3    3    0    0 -0.53248439029E+01 -0.61415863670E+01  0.44403010291E+01  0.92622523818E+01  0.51100000000E-03 0. -1.
        -11    1    3    3    0    0 -0.20232796011E+02 -0.28815285426E+02  0.51870006886E+01  0.35589207423E+02  0.51100000000E-03 0.  1.
        -12    1    3    3    0    0  0.38506556170E+01  0.10337960765E+01 -0.40418593614E+01  0.56774034652E+01  0.00000000000E+00 0.  1.
</event>
<event>
 7    1  0.1161807E-013  0.5052887E+02  0.7816164E-02  0.1300439E+00
        -11   -1    0    0    0    0  0.00000000000E+00  0.00000000000E+00  0.45593999997E+02  0.45594000000E+02  0.51100000000E-03 0. -1.
         11   -1    0    0    0    0 -0.00000000000E+00 -0.00000000000E+00 -0.45593999997E+02  0.45594000000E+02  0.51100000000E-03 0.  1.
    9900012    2    1    2    0    0  0.18937097907E+02 -0.15759079119E+02  0.32345053607E+02  0.50528871324E+02  0.30000034878E+02 0.  0.
        -12    1    1    2    0    0 -0.18937097907E+02  0.15759079119E+02 -0.32345053607E+02  0.40659128676E+02  0.00000000000E+00 0.  1.
         11    1    3    3    0    0  0.88100436066E+01  0.10800271973E+01  0.25953961621E+02  0.27429754851E+02  0.51100000000E-03 0. -1.
        -11    1    3    3    0    0  0.97945424056E+01 -0.99537291897E+01  0.78974455478E+01  0.16043049341E+02  0.51100000000E-03 0.  1.
        -12    1    3    3    0    0  0.33251189424E+00 -0.68853771263E+01 -0.15063535611E+01  0.70560671328E+01  0.00000000000E+00 0.  1.
</event>
<event>
 7    1  0.1161807E-013  0.5052886E+02  0.7816164E-02  0.1300439E+00
        -11   -1    0    0    0    0  0.00000000000E+00  0.00000000000E+00  0.45593999997E+02  0.45594000000E+02  0.51100000000E-03 0. -1.
         11   -1    0    0    0    0 -0.00000000000E+00 -0.00000000000E+00 -0.45593999997E+02  0.45594000000E+02  0.51100000000E-03 0.  1.
    9900012    2    1    2    0    0  0.11192622549E+02  0.84481504280E+00 -0.39079113743E+02  0.50528860278E+02  0.30000001300E+02 0.  0.
         12    1    1    2    0    0 -0.11192622549E+02 -0.84481504280E+00  0.39079113743E+02  0.40659139722E+02  0.00000000000E+00 0. -1.
         11    1    3    3    0    0  0.42515113572E-01 -0.55314096304E+01 -0.27455476617E+01  0.61754621089E+01  0.51100000000E-03 0. -1.
        -11    1    3    3    0    0  0.30594800314E+01 -0.77889080273E+01 -0.17763108223E+02  0.19635567737E+02  0.51100000000E-03 0.  1.
        -12    1    3    3    0    0  0.80906274042E+01  0.14165132701E+02 -0.18570457858E+02  0.24717830432E+02  0.00000000000E+00 0.  1.
</event>
<event>
 7    1  0.1161807E-013  0.5052886E+02  0.7816164E-02  0.1300439E+00
        -11   -1    0    0    0    0  0.00000000000E+00  0.00000000000E+00  0.45593999997E+02  0.45594000000E+02  0.51100000000E-03 0. -1.
         11   -1    0    0    0    0 -0.00000000000E+00 -0.00000000000E+00 -0.45593999997E+02  0.45594000000E+02  0.51100000000E-03 0.  1.
    9900012    2    1    2    0    0  0.25529777008E+02  0.43412925729E+01  0.31345648445E+02  0.50528855743E+02  0.29999987515E+02 0.  0.
        -12    1    1    2    0    0 -0.25529777008E+02 -0.43412925729E+01 -0.31345648445E+02  0.40659144257E+02  0.00000000000E+00 0.  1.
         11    1    3    3    0    0  0.15962746244E+02  0.61093144313E+01  0.24335375808E+02  0.29737913620E+02  0.51100000000E-03 0. -1.
        -11    1    3    3    0    0  0.24723496218E+01  0.65466650077E+01  0.69469389673E+01  0.98605931187E+01  0.51100000000E-03 0.  1.
        -12    1    3    3    0    0  0.70946811425E+01 -0.83146868661E+01  0.63333669679E-01  0.10930349004E+02  0.00000000000E+00 0.  1.
</event>
<event>
 7    1  0.1161807E-013  0.5052888E+02  0.7816164E-02  0.1300439E+00
        -11   -1    0    0    0    0  0.00000000000E+00  0.00000000000E+00  0.45593999997E+02  0.45594000000E+02  0.51100000000E-03 0. -1.
         11   -1    0    0    0    0 -0.00000000000E+00 -0.00000000000E+00 -0.45593999997E+02  0.45594000000E+02  0.51100000000E-03 0.  1.
    9900012    2    1    2    0    0 -0.26669959328E+02  0.89584840012E+01  0.29353416660E+02  0.50528877582E+02  0.30000053899E+02 0.  0.
        -12    1    1    2    0    0  0.26669959328E+02 -0.89584840012E+01 -0.29353416660E+02  0.40659122418E+02  0.00000000000E+00 0.  1.
         11    1    3    3    0    0 -0.12350052668E+02 -0.54004757859E+01  0.14373187459E+02  0.19704757233E+02  0.51100000000E-03 0. -1.
        -11    1    3    3    0    0 -0.17853134854E+02  0.12314230086E+02  0.15571649702E+02  0.26699268930E+02  0.51100000000E-03 0.  1.
         12    1    3    3    0    0  0.35332281937E+01  0.20447297014E+01 -0.59142050121E+00  0.41248514191E+01  0.00000000000E+00 0. -1.
</event>
<event>
 7    1  0.1161807E-013  0.5052886E+02  0.7816164E-02  0.1300439E+00
        -11   -1    0    0    0    0  0.00000000000E+00  0.00000000000E+00  0.45593999997E+02  0.45594000000E+02  0.51100000000E-03 0. -1.
         11   -1    0    0    0    0 -0.00000000000E+00 -0.00000000000E+00 -0.45593999997E+02  0.45594000000E+02  0.51100000000E-03 0.  1.
    9900012    2    1    2    0    0 -0.31873804445E+02 -0.16139699649E+02 -0.19409690285E+02  0.50528863370E+02  0.30000010699E+02 0.  0.
         12    1    1    2    0    0  0.31873804445E+02  0.16139699649E+02  0.19409690285E+02  0.40659136630E+02  0.00000000000E+00 0. -1.
         11    1    3    3    0    0 -0.14423512075E+02  0.48495402343E+01 -0.22136310426E+01  0.15377122738E+02  0.51100000000E-03 0. -1.
        -11    1    3    3    0    0 -0.13042867061E+02 -0.53458193188E+01 -0.10486697899E+02  0.17568864460E+02  0.51100000000E-03 0.  1.
         12    1    3    3    0    0 -0.44074253092E+01 -0.15643420564E+02 -0.67093613437E+01  0.17582876171E+02  0.00000000000E+00 0. -1.
</event>
<event>
 7    1  0.1161807E-013  0.5052886E+02  0.7816164E-02  0.1300439E+00
        -11   -1    0    0    0    0  0.00000000000E+00  0.00000000000E+00  0.45593999997E+02  0.45594000000E+02  0.51100000000E-03 0. -1.
         11   -1    0    0    0    0 -0.00000000000E+00 -0.00000000000E+00 -0.45593999997E+02  0.45594000000E+02  0.51100000000E-03 0.  1.
    9900012    2    1    2    0    0 -0.34028686921E+02  0.20234341153E+02  0.92620500607E+01  0.50528859985E+02  0.30000000411E+02 0.  0.
        -12    1    1    2    0    0  0.34028686921E+02 -0.20234341153E+02 -0.92620500607E+01  0.40659140015E+02  0.00000000000E+00 0.  1.
         11    1    3    3    0    0  0.32651592089E+00 -0.47123184595E+00  0.75420539652E+01  0.75638118945E+01  0.51100000000E-03 0. -1.
        -11    1    3    3    0    0 -0.10538102656E+02  0.25275286879E+01 -0.54898843750E+01  0.12148203142E+02  0.51100000000E-03 0.  1.
        -12    1    3    3    0    0 -0.23817100185E+02  0.18178044311E+02  0.72098804705E+01  0.30816844949E+02  0.00000000000E+00 0.  1.
</event>
<event>
 7    1  0.1161807E-013  0.5052886E+02  0.7816164E-02  0.1300439E+00
        -11   -1    0    0    0    0  0.00000000000E+00  0.00000000000E+00  0.45593999997E+02  0.45594000000E+02  0.51100000000E-03 0. -1.
         11   -1    0    0    0    0 -0.00000000000E+00 -0.00000000000E+00 -0.45593999997E+02  0.45594000000E+02  0.51100000000E-03 0.  1.
    9900012    2    1    2    0    0  0.23125984522E+01  0.13969691521E+02  0.38113847570E+02  0.50528858723E+02  0.29999996573E+02 0.  0.
        -12    1    1    2    0    0 -0.23125984522E+01 -0.13969691521E+02 -0.38113847570E+02  0.40659141277E+02  0.00000000000E+00 0.  1.
         11    1    3    3    0    0 -0.79562513321E+01  0.14849601968E+01  0.11837329727E+02  0.14339784426E+02  0.51100000000E-03 0. -1.
        -11    1    3    3    0    0 -0.29066485163E+01 -0.32464414631E+01  0.49152059180E+01  0.65686556652E+01  0.51100000000E-03 0.  1.
         12    1    3    3    0    0  0.13175498301E+02  0.15731172788E+02  0.21361311925E+02  0.29620418632E+02  0.00000000000E+00 0. -1.
</event>
<event>
 7    1  0.1161807E-013  0.5052887E+02  0.7816164E-02  0.1300439E+00
        -11   -1    0    0    0    0  0.00000000000E+00  0.00000000000E+00  0.45593999997E+02  0.45594000000E+02  0.51100000000E-03 0. -1.
         11   -1    0    0    0    0 -0.00000000000E+00 -0.00000000000E+00 -0.45593999997E+02  0.45594000000E+02  0.51100000000E-03 0.  1.
    9900012    2    1    2    0    0  0.15133639831E+02 -0.33820930631E+02 -0.16741640918E+02  0.50528868874E+02  0.30000027430E+02 0.  0.
         12    1    1    2    0    0 -0.15133639831E+02  0.33820930631E+02  0.16741640918E+02  0.40659131126E+02  0.00000000000E+00 0. -1.
         11    1    3    3    0    0  0.80016050086E+01 -0.43945326817E+01 -0.14725475771E+01  0.92469452703E+01  0.51100000000E-03 0. -1.
        -11    1    3    3    0    0  0.69295792208E+01  0.54188083132E+00  0.12492851874E+01  0.70621113524E+01  0.51100000000E-03 0.  1.
        -12    1    3    3    0    0  0.20245560132E+00 -0.29968278781E+02 -0.16518378528E+02  0.34219812252E+02  0.00000000000E+00 0.  1.
</event>
<event>
 7    1  0.1161807E-013  0.5052885E+02  0.7816164E-02  0.1300439E+00
        -11   -1    0    0    0    0  0.00000000000E+00  0.00000000000E+00  0.45593999997E+02  0.45594000000E+02  0.51100000000E-03 0. -1.
         11   -1    0    0    0    0 -0.00000000000E+00 -0.00000000000E+00 -0.45593999997E+02  0.45594000000E+02  0.51100000000E-03 0.  1.
    9900012    2    1    2    0    0 -0.16419940397E+02  0.14540955896E+02 -0.34236125122E+02  0.50528854603E+02  0.29999984052E+02 0.  0.
         12    1    1    2    0    0  0.16419940397E+02 -0.14540955896E+02  0.34236125122E+02  0.40659145397E+02  0.00000000000E+00 0. -1.
         11    1    3    3    0    0 -0.75355470418E+00 -0.48136794855E+01 -0.38354625571E+00  0.48873779138E+01  0.51100000000E-03 0. -1.
        -11    1    3    3    0    0 -0.77850884841E+01 -0.18268716879E+01 -0.95053381618E+01  0.12421614899E+02  0.51100000000E-03 0.  1.
         12    1    3    3    0    0 -0.78812972091E+01  0.21181507070E+02 -0.24347240704E+02  0.33219861790E+02  0.00000000000E+00 0. -1.
</event>
<event>
 7    1  0.1161807E-013  0.5052886E+02  0.7816164E-02  0.1300439E+00
        -11   -1    0    0    0    0  0.00000000000E+00  0.00000000000E+00  0.45593999997E+02  0.45594000000E+02  0.51100000000E-03 0. -1.
         11   -1    0    0    0    0 -0.00000000000E+00 -0.00000000000E+00 -0.45593999997E+02  0.45594000000E+02  0.51100000000E-03 0.  1.
    9900012    2    1    2    0    0  0.19823048117E+02  0.53379072648E+01  0.35095853227E+02  0.50528863212E+02  0.30000010220E+02 0.  0.
        -12    1    1    2    0    0 -0.19823048117E+02 -0.53379072648E+01 -0.35095853227E+02  0.40659136788E+02  0.00000000000E+00 0.  1.
         11    1    3    3    0    0 -0.96007534822E+00  0.87094440571E+01  0.14350536346E+02  0.16814102835E+02  0.51100000000E-03 0. -1.
        -11    1    3    3    0    0 -0.20028371561E+00  0.30918859127E+01  0.73960192742E+01  0.80187887757E+01  0.51100000000E-03 0.  1.
        -12    1    3    3    0    0  0.20983407180E+02 -0.64634227050E+01  0.13349297607E+02  0.25695971602E+02  0.00000000000E+00 0.  1.
</event>
<event>
 7    1  0.1161807E-013  0.5052886E+02  0.7816164E-02  0.1300439E+00
        -11   -1    0    0    0    0  0.00000000000E+00  0.00000000000E+00  0.45593999997E+02  0.45594000000E+02  0.51100000000E-03 0. -1.
         11   -1    0    0    0    0 -0.00000000000E+00 -0.00000000000E+00 -0.45593999997E+02  0.45594000000E+02  0.51100000000E-03 0.  1.
    9900012    2    1    2    0    0 -0.21075483921E+02 -0.31318735309E+02  0.15103847320E+02  0.50528863170E+02  0.30000010093E+02 0.  0.
        -12    1    1    2    0    0  0.21075483921E+02  0.31318735309E+02 -0.15103847320E+02  0.40659136830E+02  0.00000000000E+00 0.  1.
         11    1    3    3    0    0 -0.13663645915E+02 -0.15703483369E+02  0.86528664272E+00  0.20833706604E+02  0.51100000000E-03 0.  1.
        -11    1    3    3    0    0 -0.79731355863E+01 -0.19243133513E+02  0.15332986177E+02  0.25864445555E+02  0.51100000000E-03 0. -1.
        -12    1    3    3    0    0  0.56129758091E+00  0.36278815730E+01 -0.10944254995E+01  0.38307110118E+01  0.00000000000E+00 0.  1.
</event>
<event>
 7    1  0.1161807E-013  0.5052890E+02  0.7816164E-02  0.1300439E+00
        -11   -1    0    0    0    0  0.00000000000E+00  0.00000000000E+00  0.45593999997E+02  0.45594000000E+02  0.51100000000E-03 0. -1.
         11   -1    0    0    0    0 -0.00000000000E+00 -0.00000000000E+00 -0.45593999997E+02  0.45594000000E+02  0.51100000000E-03 0.  1.
    9900012    2    1    2    0    0 -0.35142360873E+02 -0.12826350384E+02  0.15926752045E+02  0.50528902339E+02  0.30000129149E+02 0.  0.
        -12    1    1    2    0    0  0.35142360873E+02  0.12826350384E+02 -0.15926752045E+02  0.40659097661E+02  0.00000000000E+00 0.  1.
         11    1    3    3    0    0 -0.26772078456E+01 -0.10197498528E+02  0.19219870426E+01  0.10716830340E+02  0.51100000000E-03 0. -1.
        -11    1    3    3    0    0  0.18412417778E+01  0.39333379710E+00  0.32086653650E+01  0.37202710178E+01  0.51100000000E-03 0.  1.
        -12    1    3    3    0    0 -0.34306394805E+02 -0.30221856533E+01  0.10796099638E+02  0.36091800981E+02  0.00000000000E+00 0.  1.
</event>
<event>
 7    1  0.1264978E-013  0.5052889E+02  0.7816164E-02  0.1300439E+00
        -11   -1    0    0    0    0  0.00000000000E+00  0.00000000000E+00  0.45593999997E+02  0.45594000000E+02  0.51100000000E-03 0. -1.
         11   -1    0    0    0    0 -0.00000000000E+00 -0.00000000000E+00 -0.45593999997E+02  0.45594000000E+02  0.51100000000E-03 0.  1.
    9900012    2    1    2    0    0  0.16187280525E+01 -0.23743747340E+02 -0.32966310550E+02  0.50528887252E+02  0.30000083290E+02 0.  0.
         12    1    1    2    0    0 -0.16187280525E+01  0.23743747340E+02  0.32966310550E+02  0.40659112748E+02  0.00000000000E+00 0. -1.
         11    1    3    3    0    0  0.49062392944E+00  0.37600422815E+01 -0.27341585670E+01  0.46748532736E+01  0.51100000000E-03 0. -1.
        -11    1    3    3    0    0  0.35408721110E+01 -0.56059515205E+00 -0.13677381958E+02  0.14139406625E+02  0.51100000000E-03 0.  1.
        -12    1    3    3    0    0 -0.24127679880E+01 -0.26943194469E+02 -0.16554770025E+02  0.31714627353E+02  0.00000000000E+00 0.  1.
</event>
<event>
 7    1  0.1161807E-013  0.5052886E+02  0.7816164E-02  0.1300439E+00
        -11   -1    0    0    0    0  0.00000000000E+00  0.00000000000E+00  0.45593999997E+02  0.45594000000E+02  0.51100000000E-03 0. -1.
         11   -1    0    0    0    0 -0.00000000000E+00 -0.00000000000E+00 -0.45593999997E+02  0.45594000000E+02  0.51100000000E-03 0.  1.
    9900012    2    1    2    0    0  0.96936413561E+01  0.13524328628E+02  0.37098404409E+02  0.50528858872E+02  0.29999997028E+02 0.  0.
        -12    1    1    2    0    0 -0.96936413561E+01 -0.13524328628E+02 -0.37098404409E+02  0.40659141128E+02  0.00000000000E+00 0.  1.
         11    1    3    3    0    0 -0.10044343826E+01  0.31202932290E+01 -0.12047529963E+01  0.34923556960E+01  0.51100000000E-03 0. -1.
        -11    1    3    3    0    0 -0.26395355566E+01  0.75180262285E+01  0.19451628468E+01  0.82019220362E+01  0.51100000000E-03 0.  1.
         12    1    3    3    0    0  0.13337611295E+02  0.28860091702E+01  0.36357994558E+02  0.38834581140E+02  0.00000000000E+00 0. -1.
</event>
<event>
 7    1  0.1405170E-013  0.5052886E+02  0.7816164E-02  0.1300439E+00
        -11   -1    0    0    0    0  0.00000000000E+00  0.00000000000E+00  0.45593999997E+02  0.45594000000E+02  0.51100000000E-03 0. -1.
         11   -1    0    0    0    0 -0.00000000000E+00 -0.00000000000E+00 -0.45593999997E+02  0.45594000000E+02  0.51100000000E-03 0.  1.
    9900012    2    1    2    0    0 -0.76327149280E+01 -0.22618646848E+02 -0.32913581544E+02  0.50528863604E+02  0.30000011410E+02 0.  0.
         12    1    1    2    0    0  0.76327149280E+01  0.22618646848E+02  0.32913581544E+02  0.40659136396E+02  0.00000000000E+00 0. -1.
         11    1    3    3    0    0 -0.11539213385E+02 -0.23709572753E+01 -0.10733262364E+02  0.15936681121E+02  0.51100000000E-03 0. -1.
        -11    1    3    3    0    0 -0.35790727388E+01 -0.16771568564E+02 -0.99167734115E+01  0.19810039599E+02  0.51100000000E-03 0.  1.
        -12    1    3    3    0    0  0.74855711952E+01 -0.34761210091E+01 -0.12263545769E+02  0.14782142883E+02  0.00000000000E+00 0.  1.
</event>
<event>
 7    1  0.1161807E-013  0.5052884E+02  0.7816164E-02  0.1300439E+00
        -11   -1    0    0    0    0  0.00000000000E+00  0.00000000000E+00  0.45593999997E+02  0.45594000000E+02  0.51100000000E-03 0. -1.
         11   -1    0    0    0    0 -0.00000000000E+00 -0.00000000000E+00 -0.45593999997E+02  0.45594000000E+02  0.51100000000E-03 0.  1.
    9900012    2    1    2    0    0  0.32263888215E+02  0.33774621612E+01  0.24511247043E+02  0.50528844020E+02  0.29999951883E+02 0.  0.
        -12    1    1    2    0    0 -0.32263888215E+02 -0.33774621612E+01 -0.24511247043E+02  0.40659155980E+02  0.00000000000E+00 0.  1.
         11    1    3    3    0    0  0.98699595633E+01  0.41319922426E+01  0.10324706354E+01  0.10749672439E+02  0.51100000000E-03 0. -1.
        -11    1    3    3    0    0  0.30430936161E+00  0.12835266975E+01 -0.41454876216E+01  0.43503003175E+01  0.51100000000E-03 0.  1.
        -12    1    3    3    0    0  0.22089619290E+02 -0.20380567789E+01  0.27624264029E+02  0.35428871263E+02  0.00000000000E+00 0.  1.
</event>
<event>
 7    1  0.1161807E-013  0.5052885E+02  0.7816164E-02  0.1300439E+00
        -11   -1    0    0    0    0  0.00000000000E+00  0.00000000000E+00  0.45593999997E+02  0.45594000000E+02  0.51100000000E-03 0.  1.
         11   -1    0    0    0    0 -0.00000000000E+00 -0.00000000000E+00 -0.45593999997E+02  0.45594000000E+02  0.51100000000E-03 0. -1.
    9900012    2    1    2    0    0 -0.37041427618E+02 -0.16528344537E+02 -0.28129303362E+01  0.50528854532E+02  0.29999983835E+02 0.  0.
         12    1    1    2    0    0  0.37041427618E+02  0.16528344537E+02  0.28129303362E+01  0.40659145468E+02  0.00000000000E+00 0. -1.
         11    1    3    3    0    0 -0.17376924909E+02 -0.13983521491E+02  0.77033589407E+01  0.23597417905E+02  0.51100000000E-03 0. -1.
        -11    1    3    3    0    0 -0.12844047329E+02 -0.78320859442E+01 -0.26918235285E+01  0.15282572957E+02  0.51100000000E-03 0.  1.
         12    1    3    3    0    0 -0.68204553806E+01  0.52872628975E+01 -0.78244657484E+01  0.11648863670E+02  0.00000000000E+00 0. -1.
</event>
<event>
 7    1  0.1161807E-013  0.5052888E+02  0.7816164E-02  0.1300439E+00
        -11   -1    0    0    0    0  0.00000000000E+00  0.00000000000E+00  0.45593999997E+02  0.45594000000E+02  0.51100000000E-03 0. -1.
         11   -1    0    0    0    0 -0.00000000000E+00 -0.00000000000E+00 -0.45593999997E+02  0.45594000000E+02  0.51100000000E-03 0.  1.
    9900012    2    1    2    0    0 -0.12285472312E+01  0.36447620827E+02  0.17978469191E+02  0.50528883597E+02  0.30000072180E+02 0.  0.
        -12    1    1    2    0    0  0.12285472312E+01 -0.36447620827E+02 -0.17978469191E+02  0.40659116403E+02  0.00000000000E+00 0.  1.
         11    1    3    3    0    0 -0.15598104895E+01 -0.63290026941E+00  0.33199823321E+01  0.37223452903E+01  0.51100000000E-03 0. -1.
        -11    1    3    3    0    0 -0.89771066627E+01  0.11967680310E+02  0.13254354868E+02  0.19987289442E+02  0.51100000000E-03 0.  1.
        -12    1    3    3    0    0  0.93083699210E+01  0.25112840787E+02  0.14041319909E+01  0.26819248864E+02  0.00000000000E+00 0.  1.
</event>
<event>
 7    1  0.1161807E-013  0.5052886E+02  0.7816164E-02  0.1300439E+00
        -11   -1    0    0    0    0  0.00000000000E+00  0.00000000000E+00  0.45593999997E+02  0.45594000000E+02  0.51100000000E-03 0. -1.
         11   -1    0    0    0    0 -0.00000000000E+00 -0.00000000000E+00 -0.45593999997E+02  0.45594000000E+02  0.51100000000E-03 0.  1.
    9900012    2    1    2    0    0 -0.11629061055E+00 -0.21332129245E+02  0.34613471980E+02  0.50528859526E+02  0.29999999015E+02 0.  0.
        -12    1    1    2    0    0  0.11629061055E+00  0.21332129245E+02 -0.34613471980E+02  0.40659140474E+02  0.00000000000E+00 0.  1.
         11    1    3    3    0    0 -0.15776012747E+01  0.37822155733E+01  0.13405617878E+02  0.14018008823E+02  0.51100000000E-03 0. -1.
        -11    1    3    3    0    0  0.43355084893E+01 -0.42065883117E+00  0.58343084717E+01  0.72809850513E+01  0.51100000000E-03 0.  1.
        -12    1    3    3    0    0 -0.28741978252E+01 -0.24693685987E+02  0.15373545630E+02  0.29229865651E+02  0.00000000000E+00 0.  1.
</event>
<event>
 7    1  0.1161807E-013  0.5052885E+02  0.7816164E-02  0.1300439E+00
        -11   -1    0    0    0    0  0.00000000000E+00  0.00000000000E+00  0.45593999997E+02  0.45594000000E+02  0.51100000000E-03 0. -1.
         11   -1    0    0    0    0 -0.00000000000E+00 -0.00000000000E+00 -0.45593999997E+02  0.45594000000E+02  0.51100000000E-03 0.  1.
    9900012    2    1    2    0    0  0.17793875849E+02  0.31041954960E+01  0.36426749901E+02  0.50528853972E+02  0.29999982132E+02 0.  0.
        -12    1    1    2    0    0 -0.17793875849E+02 -0.31041954960E+01 -0.36426749901E+02  0.40659146028E+02  0.00000000000E+00 0.  1.
         11    1    3    3    0    0  0.16006986018E+02 -0.54980340397E+01  0.75189047439E+01  0.18519878739E+02  0.51100000000E-03 0. -1.
        -11    1    3    3    0    0  0.45341120772E+01  0.10980649020E+01  0.51776058760E+01  0.69693272075E+01  0.51100000000E-03 0.  1.
         12    1    3    3    0    0 -0.27472222459E+01  0.75041646337E+01  0.23730239281E+02  0.25039648026E+02  0.00000000000E+00 0. -1.
</event>
<event>
 7    1  0.1161807E-013  0.5052884E+02  0.7816164E-02  0.1300439E+00
        -11   -1    0    0    0    0  0.00000000000E+00  0.00000000000E+00  0.45593999997E+02  0.45594000000E+02  0.51100000000E-03 0. -1.
         11   -1    0    0    0    0 -0.00000000000E+00 -0.00000000000E+00 -0.45593999997E+02  0.45594000000E+02  0.51100000000E-03 0.  1.
    9900012    2    1    2    0    0 -0.29820057259E+02 -0.23700986272E+02 -0.14219515557E+02  0.50528841279E+02  0.29999943551E+02 0.  0.
         12    1    1    2    0    0  0.29820057259E+02  0.23700986272E+02  0.14219515557E+02  0.40659158721E+02  0.00000000000E+00 0. -1.
         11    1    3    3    0    0 -0.16819573751E+02  0.25190076112E-01 -0.52424658922E+01  0.17617665697E+02  0.51100000000E-03 0. -1.
        -11    1    3    3    0    0 -0.15127784138E+01  0.14934239570E+01  0.21726359826E+01  0.30395988252E+01  0.51100000000E-03 0.  1.
         12    1    3    3    0    0 -0.11487705094E+02 -0.25219600305E+02 -0.11149685648E+02  0.29871576757E+02  0.00000000000E+00 0. -1.
</event>
<event>
 7    1  0.1161807E-013  0.5052886E+02  0.7816164E-02  0.1300439E+00
        -11   -1    0    0    0    0  0.00000000000E+00  0.00000000000E+00  0.45593999997E+02  0.45594000000E+02  0.51100000000E-03 0. -1.
         11   -1    0    0    0    0 -0.00000000000E+00 -0.00000000000E+00 -0.45593999997E+02  0.45594000000E+02  0.51100000000E-03 0.  1.
    9900012    2    1    2    0    0  0.17493381390E+02  0.24155149658E+02  0.27634681403E+02  0.50528864941E+02  0.30000015476E+02 0.  0.
        -12    1    1    2    0    0 -0.17493381390E+02 -0.24155149658E+02 -0.27634681403E+02  0.40659135059E+02  0.00000000000E+00 0.  1.
         11    1    3    3    0    0  0.40235167268E+01  0.43083634692E+01  0.84977188950E+01  0.10342239086E+02  0.51100000000E-03 0. -1.
        -11    1    3    3    0    0  0.92787054401E+00 -0.22714798725E+01  0.14041595299E+02  0.14254366466E+02  0.51100000000E-03 0.  1.
        -12    1    3    3    0    0  0.12541994119E+02  0.22118266061E+02  0.50953672097E+01  0.25932259389E+02  0.00000000000E+00 0.  1.
</event>
<event>
 7    1  0.1161807E-013  0.5052886E+02  0.7816164E-02  0.1300439E+00
        -11   -1    0    0    0    0  0.00000000000E+00  0.00000000000E+00  0.45593999997E+02  0.45594000000E+02  0.51100000000E-03 0. -1.
         11   -1    0    0    0    0 -0.00000000000E+00 -0.00000000000E+00 -0.45593999997E+02  0.45594000000E+02  0.51100000000E-03 0.  1.
    9900012    2    1    2    0    0 -0.26264043756E+02 -0.48773480195E+01 -0.30652521810E+02  0.50528860666E+02  0.30000002479E+02 0.  0.
         12    1    1    2    0    0  0.26264043756E+02  0.48773480195E+01  0.30652521810E+02  0.40659139334E+02  0.00000000000E+00 0. -1.
         11    1    3    3    0    0 -0.30739436329E+01 -0.98970178527E+01 -0.12920715905E+01  0.10443636392E+02  0.51100000000E-03 0. -1.
        -11    1    3    3    0    0 -0.25759665008E+01 -0.40102922488E+01 -0.57178040216E+01  0.74438787218E+01  0.51100000000E-03 0.  1.
        -12    1    3    3    0    0 -0.20614133622E+02  0.90299620819E+01 -0.23642646198E+02  0.32641345552E+02  0.00000000000E+00 0.  1.
</event>
<event>
 7    1  0.1161807E-013  0.5052886E+02  0.7816164E-02  0.1300439E+00
        -11   -1    0    0    0    0  0.00000000000E+00  0.00000000000E+00  0.45593999997E+02  0.45594000000E+02  0.51100000000E-03 0. -1.
         11   -1    0    0    0    0 -0.00000000000E+00 -0.00000000000E+00 -0.45593999997E+02  0.45594000000E+02  0.51100000000E-03 0.  1.
    9900012    2    1    2    0    0  0.19822961991E+01  0.27865162126E+02  0.29542662827E+02  0.50528859756E+02  0.29999999713E+02 0.  0.
        -12    1    1    2    0    0 -0.19822961991E+01 -0.27865162126E+02 -0.29542662827E+02  0.40659140244E+02  0.00000000000E+00 0.  1.
         11    1    3    3    0    0  0.16163600742E+01  0.80890259620E+01  0.71568240263E+01  0.10920855796E+02  0.51100000000E-03 0. -1.
        -11    1    3    3    0    0  0.12202148091E+02  0.16256837323E+02  0.13972779155E+02  0.24666084718E+02  0.51100000000E-03 0.  1.
         12    1    3    3    0    0 -0.11836211966E+02  0.35192988414E+01  0.84130596455E+01  0.14941919242E+02  0.00000000000E+00 0. -1.
</event>
<event>
 7    1  0.1161807E-013  0.5052886E+02  0.7816164E-02  0.1300439E+00
        -11   -1    0    0    0    0  0.00000000000E+00  0.00000000000E+00  0.45593999997E+02  0.45594000000E+02  0.51100000000E-03 0.  1.
         11   -1    0    0    0    0 -0.00000000000E+00 -0.00000000000E+00 -0.45593999997E+02  0.45594000000E+02  0.51100000000E-03 0. -1.
    9900012    2    1    2    0    0  0.70735721657E+01 -0.40009779660E+02 -0.15323296245E+01  0.50528856800E+02  0.29999990730E+02 0.  0.
         12    1    1    2    0    0 -0.70735721657E+01  0.40009779660E+02  0.15323296245E+01  0.40659143200E+02  0.00000000000E+00 0. -1.
         11    1    3    3    0    0 -0.23481647974E+01 -0.57852120116E+01  0.48206884899E+01  0.78880665383E+01  0.51100000000E-03 0. -1.
        -11    1    3    3    0    0 -0.54623009597E+00 -0.14551382480E+02 -0.13090078221E+02  0.19580379145E+02  0.51100000000E-03 0.  1.
         12    1    3    3    0    0  0.99679670591E+01 -0.19673185169E+02  0.67370601063E+01  0.23060411117E+02  0.00000000000E+00 0. -1.
</event>
<event>
 7    1  0.1161807E-013  0.5052886E+02  0.7816164E-02  0.1300439E+00
        -11   -1    0    0    0    0  0.00000000000E+00  0.00000000000E+00  0.45593999997E+02  0.45594000000E+02  0.51100000000E-03 0. -1.
         11   -1    0    0    0    0 -0.00000000000E+00 -0.00000000000E+00 -0.45593999997E+02  0.45594000000E+02  0.51100000000E-03 0.  1.
    9900012    2    1    2    0    0  0.11937618081E+02  0.28030671452E+02 -0.26924718955E+02  0.50528858860E+02  0.29999996989E+02 0.  0.
         12    1    1    2    0    0 -0.11937618081E+02 -0.28030671452E+02  0.26924718955E+02  0.40659141140E+02  0.00000000000E+00 0. -1.
         11    1    3    3    0    0 -0.18511738398E+01  0.17770198397E+02 -0.29158522617E+01  0.18102734333E+02  0.51100000000E-03 0. -1.
        -11    1    3    3    0    0 -0.20105798441E+01  0.45676285408E+01 -0.50762853030E+01  0.71185907688E+01  0.51100000000E-03 0.  1.
        -12    1    3    3    0    0  0.15799371765E+02  0.56928445144E+01 -0.18932581390E+02  0.25307533758E+02  0.00000000000E+00 0.  1.
</event>
<event>
 7    1  0.1161807E-013  0.5052885E+02  0.7816164E-02  0.1300439E+00
        -11   -1    0    0    0    0  0.00000000000E+00  0.00000000000E+00  0.45593999997E+02  0.45594000000E+02  0.51100000000E-03 0. -1.
         11   -1    0    0    0    0 -0.00000000000E+00 -0.00000000000E+00 -0.45593999997E+02  0.45594000000E+02  0.51100000000E-03 0.  1.
    9900012    2    1    2    0    0 -0.23396416562E+01  0.63780319925E+01 -0.40087572220E+02  0.50528847751E+02  0.29999963223E+02 0.  0.
         12    1    1    2    0    0  0.23396416562E+01 -0.63780319925E+01  0.40087572220E+02  0.40659152249E+02  0.00000000000E+00 0. -1.
         11    1    3    3    0    0  0.24710346058E+01  0.68430896073E+01 -0.36299375672E+01  0.81308261819E+01  0.51100000000E-03 0. -1.
        -11    1    3    3    0    0 -0.73844678540E+00  0.92301024745E+01 -0.86611603698E+01  0.12678950846E+02  0.51100000000E-03 0.  1.
         12    1    3    3    0    0 -0.40722294767E+01 -0.96951600894E+01 -0.27796474283E+02  0.29719070723E+02  0.00000000000E+00 0. -1.
</event>
<event>
 7    1  0.1161807E-013  0.5052886E+02  0.7816164E-02  0.1300439E+00
        -11   -1    0    0    0    0  0.00000000000E+00  0.00000000000E+00  0.45593999997E+02  0.45594000000E+02  0.51100000000E-03 0. -1.
         11   -1    0    0    0    0 -0.00000000000E+00 -0.00000000000E+00 -0.45593999997E+02  0.45594000000E+02  0.51100000000E-03 0.  1.
    9900012    2    1    2    0    0 -0.34549400195E+02  0.11894879196E+02 -0.17833014729E+02  0.50528860569E+02  0.30000002186E+02 0.  0.
         12    1    1    2    0    0  0.34549400195E+02 -0.11894879196E+02  0.17833014729E+02  0.40659139431E+02  0.00000000000E+00 0. -1.
         11    1    3    3    0    0 -0.10630032274E+02  0.11319021700E+02 -0.16500819173E+02  0.22658218642E+02  0.51100000000E-03 0. -1.
        -11    1    3    3    0    0 -0.16330606173E+02 -0.15082647697E+01 -0.73420472469E+01  0.17968561952E+02  0.51100000000E-03 0.  1.
        -12    1    3    3    0    0 -0.75887617481E+01  0.20841222655E+01  0.60098516907E+01  0.99020799750E+01  0.00000000000E+00 0.  1.
</event>
<event>
 7    1  0.1161807E-013  0.5052885E+02  0.7816164E-02  0.1300439E+00
        -11   -1    0    0    0    0  0.00000000000E+00  0.00000000000E+00  0.45593999997E+02  0.45594000000E+02  0.51100000000E-03 0. -1.
         11   -1    0    0    0    0 -0.00000000000E+00 -0.00000000000E+00 -0.45593999997E+02  0.45594000000E+02  0.51100000000E-03 0.  1.
    9900012    2    1    2    0    0 -0.17797118067E+02  0.56875108361E+01 -0.36112063135E+02  0.50528852260E+02  0.29999976931E+02 0.  0.
         12    1    1    2    0    0  0.17797118067E+02 -0.56875108361E+01  0.36112063135E+02  0.40659147740E+02  0.00000000000E+00 0. -1.
         11    1    3    3    0    0 -0.47294848065E+01 -0.41582870025E+00  0.24492398226E+01  0.53422575764E+01  0.51100000000E-03 0. -1.
        -11    1    3    3    0    0 -0.10921724193E+02 -0.46252232740E+01 -0.25673992954E+02  0.28281277626E+02  0.51100000000E-03 0.  1.
        -12    1    3    3    0    0 -0.21459090678E+01  0.10728562810E+02 -0.12887310004E+02  0.16905317058E+02  0.00000000000E+00 0.  1.
</event>
<event>
 7    1  0.1161807E-013  0.5052886E+02  0.7816164E-02  0.1300439E+00
        -11   -1    0    0    0    0  0.00000000000E+00  0.00000000000E+00  0.45593999997E+02  0.45594000000E+02  0.51100000000E-03 0.  1.
         11   -1    0    0    0    0 -0.00000000000E+00 -0.00000000000E+00 -0.45593999997E+02  0.45594000000E+02  0.51100000000E-03 0. -1.
    9900012    2    1    2    0    0 -0.34571270524E+02  0.20244642008E+02 -0.69388540348E+01  0.50528856244E+02  0.29999989039E+02 0.  0.
        -12    1    1    2    0    0  0.34571270524E+02 -0.20244642008E+02  0.69388540348E+01  0.40659143756E+02  0.00000000000E+00 0.  1.
         11    1    3    3    0    0 -0.39552390093E+01  0.14036773007E+01 -0.64414158671E+01  0.76880468403E+01  0.51100000000E-03 0. -1.
        -11    1    3    3    0    0 -0.14485883591E+02  0.15394103965E+02 -0.10446169766E+02  0.23578416472E+02  0.51100000000E-03 0.  1.
        -12    1    3    3    0    0 -0.16130147924E+02  0.34468607418E+01  0.99487315988E+01  0.19262392931E+02  0.00000000000E+00 0.  1.
</event>
