<event>
 7    1  0.3449452E-011  0.5052886E+02  0.7816164E-02  0.1300439E+00
        -11   -1    0    0    0    0  0.00000000000E+00  0.00000000000E+00  0.45593999997E+02  0.45594000000E+02  0.51100000000E-03 0.  1.
         11   -1    0    0    0    0 -0.00000000000E+00 -0.00000000000E+00 -0.45593999997E+02  0.45594000000E+02  0.51100000000E-03 0. -1.
    9900012    2    1    2    0    0  0.38081659159E+02  0.12744697665E+02 -0.63659903952E+01  0.50528856913E+02  0.29999991072E+02 0.  0.
        -12    1    1    2    0    0 -0.38081659159E+02 -0.12744697665E+02  0.63659903952E+01  0.40659143087E+02  0.00000000000E+00 0.  1.
         11    1    3    3    0    0  0.28220615524E+02  0.30263587749E+01 -0.90968595800E+01  0.29804611094E+02  0.51100000000E-03 0. -1.
        -11    1    3    3    0    0  0.11151646364E+01 -0.15410185072E+01 -0.43924957825E+01  0.47866846215E+01  0.51100000000E-03 0.  1.
        -12    1    3    3    0    0  0.87458789986E+01  0.11259357397E+02  0.71233649673E+01  0.15937561197E+02  0.00000000000E+00 0.  1.
</event>
<event>
 7    1  0.3449452E-011  0.5052886E+02  0.7816164E-02  0.1300439E+00
        -11   -1    0    0    0    0  0.00000000000E+00  0.00000000000E+00  0.45593999997E+02  0.45594000000E+02  0.51100000000E-03 0. -1.
         11   -1    0    0    0    0 -0.00000000000E+00 -0.00000000000E+00 -0.45593999997E+02  0.45594000000E+02  0.51100000000E-03 0.  1.
    9900012    2    1    2    0    0  0.89153244125E+01  0.28075955755E+02  0.28025411072E+02  0.50528856296E+02  0.29999989198E+02 0.  0.
        -12    1    1    2    0    0 -0.89153244125E+01 -0.28075955755E+02 -0.28025411072E+02  0.40659143704E+02  0.00000000000E+00 0.  1.
         11    1    3    3    0    0 -0.60329850486E+01  0.18898317462E+02  0.10997977151E+02  0.22682566283E+02  0.51100000000E-03 0. -1.
        -11    1    3    3    0    0 -0.22631297961E+01  0.24379794857E+01  0.41510396198E+01  0.53194577386E+01  0.51100000000E-03 0.  1.
        -12    1    3    3    0    0  0.17211439257E+02  0.67396588076E+01  0.12876394301E+02  0.22526832275E+02  0.00000000000E+00 0.  1.
</event>
<event>
 7    1  0.3449452E-011  0.5052882E+02  0.7816164E-02  0.1300439E+00
        -11   -1    0    0    0    0  0.00000000000E+00  0.00000000000E+00  0.45593999997E+02  0.45594000000E+02  0.51100000000E-03 0.  1.
         11   -1    0    0    0    0 -0.00000000000E+00 -0.00000000000E+00 -0.45593999997E+02  0.45594000000E+02  0.51100000000E-03 0. -1.
    9900012    2    1    2    0    0  0.13958217360E+02  0.20078065719E+02 -0.32483974129E+02  0.50528817395E+02  0.29999870954E+02 0.  0.
        -12    1    1    2    0    0 -0.13958217360E+02 -0.20078065719E+02  0.32483974129E+02  0.40659182605E+02  0.00000000000E+00 0.  1.
         11    1    3    3    0    0  0.72884162155E+01  0.27820369363E+00 -0.18256963420E+02  0.19659987839E+02  0.51100000000E-03 0. -1.
        -11    1    3    3    0    0  0.10205106592E+02  0.16388864313E+02 -0.16555163163E+02  0.25432508756E+02  0.51100000000E-03 0.  1.
         12    1    3    3    0    0 -0.35353054473E+01  0.34109977117E+01  0.23281524539E+01  0.54363208002E+01  0.00000000000E+00 0. -1.
</event>
<event>
 7    1  0.3449452E-011  0.5052884E+02  0.7816164E-02  0.1300439E+00
        -11   -1    0    0    0    0  0.00000000000E+00  0.00000000000E+00  0.45593999997E+02  0.45594000000E+02  0.51100000000E-03 0.  1.
         11   -1    0    0    0    0 -0.00000000000E+00 -0.00000000000E+00 -0.45593999997E+02  0.45594000000E+02  0.51100000000E-03 0. -1.
    9900012    2    1    2    0    0 -0.38421783420E+02 -0.92646493835E+01 -0.95446564157E+01  0.50528835775E+02  0.29999926821E+02 0.  0.
        -12    1    1    2    0    0  0.38421783420E+02  0.92646493835E+01  0.95446564157E+01  0.40659164225E+02  0.00000000000E+00 0.  1.
         11    1    3    3    0    0 -0.23067726719E+02 -0.59513504604E+01 -0.11552448191E+02  0.26476360168E+02  0.51100000000E-03 0. -1.
        -11    1    3    3    0    0 -0.88954020954E+01 -0.81927866258E+01 -0.52469384519E+01  0.13182575413E+02  0.51100000000E-03 0.  1.
        -12    1    3    3    0    0 -0.64586546064E+01  0.48794877027E+01  0.72547302269E+01  0.10869900194E+02  0.00000000000E+00 0.  1.
</event>
<event>
 7    1  0.3449452E-011  0.5052886E+02  0.7816164E-02  0.1300439E+00
        -11   -1    0    0    0    0  0.00000000000E+00  0.00000000000E+00  0.45593999997E+02  0.45594000000E+02  0.51100000000E-03 0.  1.
         11   -1    0    0    0    0 -0.00000000000E+00 -0.00000000000E+00 -0.45593999997E+02  0.45594000000E+02  0.51100000000E-03 0. -1.
    9900012    2    1    2    0    0 -0.46714556704E+01  0.36473658604E+02 -0.17349791653E+02  0.50528861539E+02  0.30000005133E+02 0.  0.
        -12    1    1    2    0    0  0.46714556704E+01 -0.36473658604E+02  0.17349791653E+02  0.40659138461E+02  0.00000000000E+00 0.  1.
         11    1    3    3    0    0  0.18902178059E+00  0.19809452609E+01  0.55555525952E+01  0.59011895631E+01  0.51100000000E-03 0. -1.
        -11    1    3    3    0    0  0.26280949659E+01  0.75901804278E+00  0.64522107942E+00  0.28105697005E+01  0.51100000000E-03 0.  1.
         12    1    3    3    0    0 -0.74885724169E+01  0.33733695300E+02 -0.23550565328E+02  0.41817102275E+02  0.00000000000E+00 0. -1.
</event>
<event>
 7    1  0.3449452E-011  0.5052886E+02  0.7816164E-02  0.1300439E+00
        -11   -1    0    0    0    0  0.00000000000E+00  0.00000000000E+00  0.45593999997E+02  0.45594000000E+02  0.51100000000E-03 0.  1.
         11   -1    0    0    0    0 -0.00000000000E+00 -0.00000000000E+00 -0.45593999997E+02  0.45594000000E+02  0.51100000000E-03 0. -1.
    9900012    2    1    2    0    0  0.29247882008E+02  0.27580671585E+02 -0.60855445943E+01  0.50528857116E+02  0.29999991691E+02 0.  0.
        -12    1    1    2    0    0 -0.29247882008E+02 -0.27580671585E+02  0.60855445943E+01  0.40659142884E+02  0.00000000000E+00 0.  1.
         11    1    3    3    0    0  0.11299662053E+02  0.12786819177E+02  0.69974591486E+01  0.18443143495E+02  0.51100000000E-03 0. -1.
        -11    1    3    3    0    0  0.31560523468E+01  0.75873166589E+01  0.33100269085E+01  0.88591375931E+01  0.51100000000E-03 0.  1.
        -12    1    3    3    0    0  0.14792167609E+02  0.72065357484E+01 -0.16393030651E+02  0.23226576028E+02  0.00000000000E+00 0.  1.
</event>
<event>
 7    1  0.3449452E-011  0.5052887E+02  0.7816164E-02  0.1300439E+00
        -11   -1    0    0    0    0  0.00000000000E+00  0.00000000000E+00  0.45593999997E+02  0.45594000000E+02  0.51100000000E-03 0.  1.
         11   -1    0    0    0    0 -0.00000000000E+00 -0.00000000000E+00 -0.45593999997E+02  0.45594000000E+02  0.51100000000E-03 0. -1.
    9900012    2    1    2    0    0 -0.28213349542E+02 -0.21037952192E+01 -0.29201812912E+02  0.50528869119E+02  0.30000028173E+02 0.  0.
        -12    1    1    2    0    0  0.28213349542E+02  0.21037952192E+01  0.29201812912E+02  0.40659130881E+02  0.00000000000E+00 0.  1.
         11    1    3    3    0    0 -0.25589739776E+01  0.12809062739E+01 -0.78642025567E+01  0.83686767660E+01  0.51100000000E-03 0. -1.
        -11    1    3    3    0    0 -0.20367454833E+02  0.32771490174E+01 -0.25410693775E+02  0.32730357169E+02  0.51100000000E-03 0.  1.
        -12    1    3    3    0    0 -0.52869207317E+01 -0.66618505105E+01  0.40730834198E+01  0.94298351837E+01  0.00000000000E+00 0.  1.
</event>
<event>
 7    1  0.3449452E-011  0.5052886E+02  0.7816164E-02  0.1300439E+00
        -11   -1    0    0    0    0  0.00000000000E+00  0.00000000000E+00  0.45593999997E+02  0.45594000000E+02  0.51100000000E-03 0. -1.
         11   -1    0    0    0    0 -0.00000000000E+00 -0.00000000000E+00 -0.45593999997E+02  0.45594000000E+02  0.51100000000E-03 0.  1.
    9900012    2    1    2    0    0 -0.27878624957E+02 -0.29179376748E+02 -0.49509353930E+01  0.50528861812E+02  0.30000005965E+02 0.  0.
        -12    1    1    2    0    0  0.27878624957E+02  0.29179376748E+02  0.49509353930E+01  0.40659138188E+02  0.00000000000E+00 0.  1.
         11    1    3    3    0    0 -0.10474585785E+02 -0.69535091699E+01  0.99546999273E+01  0.16036342726E+02  0.51100000000E-03 0. -1.
        -11    1    3    3    0    0 -0.95948515134E+01 -0.25511709783E+01 -0.51581543977E+01  0.11188217283E+02  0.51100000000E-03 0.  1.
        -12    1    3    3    0    0 -0.78091876591E+01 -0.19674696600E+02 -0.97474809226E+01  0.23304301803E+02  0.00000000000E+00 0.  1.
</event>
<event>
 7    1  0.3449452E-011  0.5052886E+02  0.7816164E-02  0.1300439E+00
        -11   -1    0    0    0    0  0.00000000000E+00  0.00000000000E+00  0.45593999997E+02  0.45594000000E+02  0.51100000000E-03 0. -1.
         11   -1    0    0    0    0 -0.00000000000E+00 -0.00000000000E+00 -0.45593999997E+02  0.45594000000E+02  0.51100000000E-03 0.  1.
    9900012    2    1    2    0    0 -0.15118767711E+02 -0.10649869047E+01  0.37728693071E+02  0.50528860621E+02  0.30000002342E+02 0.  0.
        -12    1    1    2    0    0  0.15118767711E+02  0.10649869047E+01 -0.37728693071E+02  0.40659139379E+02  0.00000000000E+00 0.  1.
         11    1    3    3    0    0 -0.49906289581E+01  0.11671987685E+02  0.96930799628E+01  0.15971771140E+02  0.51100000000E-03 0. -1.
        -11    1    3    3    0    0  0.62648541377E+00  0.57217334570E+00 -0.70848265986E+00  0.11053570698E+01  0.51100000000E-03 0.  1.
        -12    1    3    3    0    0 -0.10754624167E+02 -0.13309147936E+02  0.28744095768E+02  0.33451732411E+02  0.00000000000E+00 0.  1.
</event>
<event>
 7    1  0.3449452E-011  0.5052884E+02  0.7816164E-02  0.1300439E+00
        -11   -1    0    0    0    0  0.00000000000E+00  0.00000000000E+00  0.45593999997E+02  0.45594000000E+02  0.51100000000E-03 0.  1.
         11   -1    0    0    0    0 -0.00000000000E+00 -0.00000000000E+00 -0.45593999997E+02  0.45594000000E+02  0.51100000000E-03 0. -1.
    9900012    2    1    2    0    0  0.22692825766E+02 -0.26343259543E+02 -0.21076894825E+02  0.50528841621E+02  0.29999944592E+02 0.  0.
        -12    1    1    2    0    0 -0.22692825766E+02  0.26343259543E+02  0.21076894825E+02  0.40659158379E+02  0.00000000000E+00 0.  1.
         11    1    3    3    0    0  0.10980304190E+02 -0.16634394642E+00 -0.53163173179E+01  0.12200736884E+02  0.51100000000E-03 0. -1.
        -11    1    3    3    0    0  0.51973922405E+01  0.22643080525E+01 -0.36122058662E+01  0.67222026554E+01  0.51100000000E-03 0.  1.
         12    1    3    3    0    0  0.65151293355E+01 -0.28441223649E+02 -0.12148371641E+02  0.31605902082E+02  0.00000000000E+00 0. -1.
</event>
<event>
 7    1  0.3449452E-011  0.5052888E+02  0.7816164E-02  0.1300439E+00
        -11   -1    0    0    0    0  0.00000000000E+00  0.00000000000E+00  0.45593999997E+02  0.45594000000E+02  0.51100000000E-03 0. -1.
         11   -1    0    0    0    0 -0.00000000000E+00 -0.00000000000E+00 -0.45593999997E+02  0.45594000000E+02  0.51100000000E-03 0.  1.
    9900012    2    1    2    0    0 -0.20837765435E+02 -0.24975896219E+02  0.24395830878E+02  0.50528875261E+02  0.30000046844E+02 0.  0.
        -12    1    1    2    0    0  0.20837765435E+02  0.24975896219E+02 -0.24395830878E+02  0.40659124739E+02  0.00000000000E+00 0.  1.
         11    1    3    3    0    0 -0.16318891769E+02 -0.47302860393E+01  0.10156113100E+02  0.19794657566E+02  0.51100000000E-03 0. -1.
        -11    1    3    3    0    0 -0.27176466554E+01 -0.24802287139E+00  0.97970829020E+01  0.10170051737E+02  0.51100000000E-03 0.  1.
         12    1    3    3    0    0 -0.18012270103E+01 -0.19997587308E+02  0.44426348761E+01  0.20564165958E+02  0.00000000000E+00 0. -1.
</event>
<event>
 7    1  0.3449452E-011  0.5052886E+02  0.7816164E-02  0.1300439E+00
        -11   -1    0    0    0    0  0.00000000000E+00  0.00000000000E+00  0.45593999997E+02  0.45594000000E+02  0.51100000000E-03 0.  1.
         11   -1    0    0    0    0 -0.00000000000E+00 -0.00000000000E+00 -0.45593999997E+02  0.45594000000E+02  0.51100000000E-03 0. -1.
    9900012    2    1    2    0    0  0.22964566769E+02 -0.16510032643E+01 -0.33512218417E+02  0.50528856847E+02  0.29999990872E+02 0.  0.
        -12    1    1    2    0    0 -0.22964566769E+02  0.16510032643E+01  0.33512218417E+02  0.40659143153E+02  0.00000000000E+00 0.  1.
         11    1    3    3    0    0  0.70218902228E+01  0.12580652839E+01  0.39673594409E+00  0.71447232438E+01  0.51100000000E-03 0. -1.
        -11    1    3    3    0    0 -0.47315254492E+01 -0.38895227599E+01 -0.54777686353E+01  0.82171570424E+01  0.51100000000E-03 0.  1.
         12    1    3    3    0    0  0.20674201996E+02  0.98045421167E+00 -0.28431185726E+02  0.35166976561E+02  0.00000000000E+00 0. -1.
</event>
<event>
 7    1  0.3449452E-011  0.5052885E+02  0.7816164E-02  0.1300439E+00
        -11   -1    0    0    0    0  0.00000000000E+00  0.00000000000E+00  0.45593999997E+02  0.45594000000E+02  0.51100000000E-03 0.  1.
         11   -1    0    0    0    0 -0.00000000000E+00 -0.00000000000E+00 -0.45593999997E+02  0.45594000000E+02  0.51100000000E-03 0. -1.
    9900012    2    1    2    0    0 -0.95071223284E+01  0.35443098736E+01 -0.39372818508E+02  0.50528851648E+02  0.29999975070E+02 0.  0.
        -12    1    1    2    0    0  0.95071223284E+01 -0.35443098736E+01  0.39372818508E+02  0.40659148352E+02  0.00000000000E+00 0.  1.
         11    1    3    3    0    0  0.29179193998E+01  0.49190384381E+01 -0.95030744671E+01  0.11091420890E+02  0.51100000000E-03 0. -1.
        -11    1    3    3    0    0  0.46163592686E+01 -0.63933485314E+01 -0.76233801037E+01  0.10968208733E+02  0.51100000000E-03 0.  1.
         12    1    3    3    0    0 -0.17041400997E+02  0.50186199669E+01 -0.22246363937E+02  0.28469222025E+02  0.00000000000E+00 0. -1.
</event>
<event>
 7    1  0.3449452E-011  0.5052886E+02  0.7816164E-02  0.1300439E+00
        -11   -1    0    0    0    0  0.00000000000E+00  0.00000000000E+00  0.45593999997E+02  0.45594000000E+02  0.51100000000E-03 0.  1.
         11   -1    0    0    0    0 -0.00000000000E+00 -0.00000000000E+00 -0.45593999997E+02  0.45594000000E+02  0.51100000000E-03 0. -1.
    9900012    2    1    2    0    0 -0.19613093008E+02  0.84481881701E+01 -0.34599430392E+02  0.50528857312E+02  0.29999992284E+02 0.  0.
        -12    1    1    2    0    0  0.19613093008E+02 -0.84481881701E+01  0.34599430392E+02  0.40659142688E+02  0.00000000000E+00 0.  1.
         11    1    3    3    0    0 -0.73128323069E+00 -0.12229679566E+01  0.24501041814E+01  0.28343317638E+01  0.51100000000E-03 0. -1.
        -11    1    3    3    0    0 -0.17235970885E+02 -0.13452871647E+00 -0.12750574901E+02  0.21440008183E+02  0.51100000000E-03 0.  1.
         12    1    3    3    0    0 -0.16458388924E+01  0.98056848432E+01 -0.24298959672E+02  0.26254517365E+02  0.00000000000E+00 0. -1.
</event>
<event>
 7    1  0.3449452E-011  0.5052887E+02  0.7816164E-02  0.1300439E+00
        -11   -1    0    0    0    0  0.00000000000E+00  0.00000000000E+00  0.45593999997E+02  0.45594000000E+02  0.51100000000E-03 0.  1.
         11   -1    0    0    0    0 -0.00000000000E+00 -0.00000000000E+00 -0.45593999997E+02  0.45594000000E+02  0.51100000000E-03 0. -1.
    9900012    2    1    2    0    0  0.32447329385E+02 -0.14574802305E+01 -0.24458361743E+02  0.50528869512E+02  0.30000029370E+02 0.  0.
        -12    1    1    2    0    0 -0.32447329385E+02  0.14574802305E+01  0.24458361743E+02  0.40659130488E+02  0.00000000000E+00 0.  1.
         11    1    3    3    0    0  0.64524334881E+01 -0.20043763974E+01 -0.15888088927E+02  0.17265074360E+02  0.51100000000E-03 0. -1.
        -11    1    3    3    0    0  0.91762036301E+01 -0.84237729018E+01 -0.66104434980E+01  0.14101795150E+02  0.51100000000E-03 0.  1.
         12    1    3    3    0    0  0.16818692267E+02  0.89706690687E+01 -0.19598293187E+01  0.19162000002E+02  0.00000000000E+00 0. -1.
</event>
<event>
 7    1  0.3449452E-011  0.5052886E+02  0.7816164E-02  0.1300439E+00
        -11   -1    0    0    0    0  0.00000000000E+00  0.00000000000E+00  0.45593999997E+02  0.45594000000E+02  0.51100000000E-03 0.  1.
         11   -1    0    0    0    0 -0.00000000000E+00 -0.00000000000E+00 -0.45593999997E+02  0.45594000000E+02  0.51100000000E-03 0. -1.
    9900012    2    1    2    0    0  0.39377274797E+02  0.92060768089E+01 -0.42241987559E+01  0.50528862334E+02  0.30000007550E+02 0.  0.
        -12    1    1    2    0    0 -0.39377274797E+02 -0.92060768089E+01  0.42241987559E+01  0.40659137666E+02  0.00000000000E+00 0.  1.
         11    1    3    3    0    0  0.94516683806E+01 -0.54019859642E+01  0.51283806694E+01  0.12033942666E+02  0.51100000000E-03 0. -1.
        -11    1    3    3    0    0  0.40891057840E+01  0.66399624409E+01  0.35127946891E+01  0.85527547679E+01  0.51100000000E-03 0.  1.
         12    1    3    3    0    0  0.25836500632E+02  0.79681003322E+01 -0.12865374114E+02  0.29942164900E+02  0.00000000000E+00 0. -1.
</event>
<event>
 7    1  0.3449452E-011  0.5052884E+02  0.7816164E-02  0.1300439E+00
        -11   -1    0    0    0    0  0.00000000000E+00  0.00000000000E+00  0.45593999997E+02  0.45594000000E+02  0.51100000000E-03 0. -1.
         11   -1    0    0    0    0 -0.00000000000E+00 -0.00000000000E+00 -0.45593999997E+02  0.45594000000E+02  0.51100000000E-03 0.  1.
    9900012    2    1    2    0    0 -0.41007053268E+01  0.66062394537E+01  0.39908755525E+02  0.50528844186E+02  0.29999952388E+02 0.  0.
        -12    1    1    2    0    0  0.41007053268E+01 -0.66062394537E+01 -0.39908755525E+02  0.40659155814E+02  0.00000000000E+00 0.  1.
         11    1    3    3    0    0 -0.37327670185E+01 -0.19613807954E+01  0.43670894167E+00  0.42392545571E+01  0.51100000000E-03 0. -1.
        -11    1    3    3    0    0  0.19793350436E+01  0.10613883938E+02  0.53934836463E+01  0.12069049903E+02  0.51100000000E-03 0.  1.
         12    1    3    3    0    0 -0.23472733519E+01 -0.20462636884E+01  0.34078562938E+02  0.34220539726E+02  0.00000000000E+00 0. -1.
</event>
<event>
 7    1  0.3449452E-011  0.5052886E+02  0.7816164E-02  0.1300439E+00
        -11   -1    0    0    0    0  0.00000000000E+00  0.00000000000E+00  0.45593999997E+02  0.45594000000E+02  0.51100000000E-03 0.  1.
         11   -1    0    0    0    0 -0.00000000000E+00 -0.00000000000E+00 -0.45593999997E+02  0.45594000000E+02  0.51100000000E-03 0. -1.
    9900012    2    1    2    0    0 -0.12874328924E+01  0.40638247742E+02  0.20181240902E+00  0.50528863373E+02  0.30000010709E+02 0.  0.
        -12    1    1    2    0    0  0.12874328924E+01 -0.40638247742E+02 -0.20181240902E+00  0.40659136627E+02  0.00000000000E+00 0.  1.
         11    1    3    3    0    0 -0.73937698449E+01  0.26412712591E+02  0.16514347781E+01  0.27477744740E+02  0.51100000000E-03 0. -1.
        -11    1    3    3    0    0  0.68913893435E+01  0.17408858730E+02 -0.36856299612E+01  0.19082543799E+02  0.51100000000E-03 0.  1.
        -12    1    3    3    0    0 -0.78505239100E+00 -0.31833235786E+01  0.22360075921E+01  0.39685748342E+01  0.00000000000E+00 0.  1.
</event>
<event>
 7    1  0.3449452E-011  0.5052888E+02  0.7816164E-02  0.1300439E+00
        -11   -1    0    0    0    0  0.00000000000E+00  0.00000000000E+00  0.45593999997E+02  0.45594000000E+02  0.51100000000E-03 0.  1.
         11   -1    0    0    0    0 -0.00000000000E+00 -0.00000000000E+00 -0.45593999997E+02  0.45594000000E+02  0.51100000000E-03 0. -1.
    9900012    2    1    2    0    0 -0.13752866037E+02 -0.37168488552E+02 -0.90843924996E+01  0.50528879835E+02  0.30000060747E+02 0.  0.
        -12    1    1    2    0    0  0.13752866037E+02  0.37168488552E+02  0.90843924996E+01  0.40659120165E+02  0.00000000000E+00 0.  1.
         11    1    3    3    0    0  0.59047047232E+01 -0.21186243862E+02 -0.78955785645E+01  0.23367982968E+02  0.51100000000E-03 0. -1.
        -11    1    3    3    0    0 -0.75711871080E+01 -0.47205873175E+01 -0.49710118358E+01  0.10213607481E+02  0.51100000000E-03 0.  1.
        -12    1    3    3    0    0 -0.12086383653E+02 -0.11261657372E+02  0.37821979008E+01  0.16947289386E+02  0.00000000000E+00 0.  1.
</event>
<event>
 7    1  0.3449452E-011  0.5052885E+02  0.7816164E-02  0.1300439E+00
        -11   -1    0    0    0    0  0.00000000000E+00  0.00000000000E+00  0.45593999997E+02  0.45594000000E+02  0.51100000000E-03 0. -1.
         11   -1    0    0    0    0 -0.00000000000E+00 -0.00000000000E+00 -0.45593999997E+02  0.45594000000E+02  0.51100000000E-03 0.  1.
    9900012    2    1    2    0    0 -0.78047789296E+01  0.30916675954E+02 -0.25227182146E+02  0.50528854101E+02  0.29999982526E+02 0.  0.
        -12    1    1    2    0    0  0.78047789296E+01 -0.30916675954E+02  0.25227182146E+02  0.40659145899E+02  0.00000000000E+00 0.  1.
         11    1    3    3    0    0 -0.26759423375E+01  0.29244807580E+01  0.34512458218E+01  0.52558874685E+01  0.51100000000E-03 0. -1.
        -11    1    3    3    0    0  0.36644118840E+01 -0.53802860730E+00 -0.84067883519E+01  0.91864835434E+01  0.51100000000E-03 0.  1.
        -12    1    3    3    0    0 -0.87932484762E+01  0.28530223803E+02 -0.20271639616E+02  0.36086483089E+02  0.00000000000E+00 0.  1.
</event>
<event>
 7    1  0.3449452E-011  0.5052886E+02  0.7816164E-02  0.1300439E+00
        -11   -1    0    0    0    0  0.00000000000E+00  0.00000000000E+00  0.45593999997E+02  0.45594000000E+02  0.51100000000E-03 0.  1.
         11   -1    0    0    0    0 -0.00000000000E+00 -0.00000000000E+00 -0.45593999997E+02  0.45594000000E+02  0.51100000000E-03 0. -1.
    9900012    2    1    2    0    0  0.27480088523E+02 -0.12382612316E+02 -0.27288850170E+02  0.50528859618E+02  0.29999999295E+02 0.  0.
        -12    1    1    2    0    0 -0.27480088523E+02  0.12382612316E+02  0.27288850170E+02  0.40659140382E+02  0.00000000000E+00 0.  1.
         11    1    3    3    0    0  0.21498174500E+01  0.26028140580E+01  0.14889122298E+01  0.36896091904E+01  0.51100000000E-03 0. -1.
        -11    1    3    3    0    0  0.12091800198E+02 -0.10624700495E+02 -0.14492564064E+01  0.16161566664E+02  0.51100000000E-03 0.  1.
         12    1    3    3    0    0  0.13238470875E+02 -0.43607258793E+01 -0.27328505993E+02  0.30677683764E+02  0.00000000000E+00 0. -1.
</event>
<event>
 7    1  0.3449452E-011  0.5052886E+02  0.7816164E-02  0.1300439E+00
        -11   -1    0    0    0    0  0.00000000000E+00  0.00000000000E+00  0.45593999997E+02  0.45594000000E+02  0.51100000000E-03 0.  1.
         11   -1    0    0    0    0 -0.00000000000E+00 -0.00000000000E+00 -0.45593999997E+02  0.45594000000E+02  0.51100000000E-03 0. -1.
    9900012    2    1    2    0    0 -0.34750919733E+01 -0.14586808418E+02 -0.37793052460E+02  0.50528855170E+02  0.29999985775E+02 0.  0.
        -12    1    1    2    0    0  0.34750919733E+01  0.14586808418E+02  0.37793052460E+02  0.40659144830E+02  0.00000000000E+00 0.  1.
         11    1    3    3    0    0  0.77331576534E+01  0.21436576525E+01 -0.12716945345E+02  0.15037210333E+02  0.51100000000E-03 0. -1.
        -11    1    3    3    0    0 -0.62761944050E+01 -0.20302637176E+01 -0.74288912834E+00  0.66381075232E+01  0.51100000000E-03 0.  1.
         12    1    3    3    0    0 -0.49320552218E+01 -0.14700202353E+02 -0.24333217986E+02  0.28853537314E+02  0.00000000000E+00 0. -1.
</event>
<event>
 7    1  0.3449452E-011  0.5052886E+02  0.7816164E-02  0.1300439E+00
        -11   -1    0    0    0    0  0.00000000000E+00  0.00000000000E+00  0.45593999997E+02  0.45594000000E+02  0.51100000000E-03 0. -1.
         11   -1    0    0    0    0 -0.00000000000E+00 -0.00000000000E+00 -0.45593999997E+02  0.45594000000E+02  0.51100000000E-03 0.  1.
    9900012    2    1    2    0    0  0.12681926951E+02 -0.33893734327E+02 -0.18535070532E+02  0.50528864035E+02  0.30000012719E+02 0.  0.
        -12    1    1    2    0    0 -0.12681926951E+02  0.33893734327E+02  0.18535070532E+02  0.40659135965E+02  0.00000000000E+00 0.  1.
         11    1    3    3    0    0  0.63412243643E+01 -0.88797201347E+01 -0.11699103076E+02  0.15997798885E+02  0.51100000000E-03 0. -1.
        -11    1    3    3    0    0 -0.23379765640E+01 -0.11487272604E+02 -0.12829193673E+02  0.17378486034E+02  0.51100000000E-03 0.  1.
         12    1    3    3    0    0  0.86786791511E+01 -0.13526741588E+02  0.59932262176E+01  0.17152579115E+02  0.00000000000E+00 0. -1.
</event>
<event>
 7    1  0.3449452E-011  0.5052876E+02  0.7816164E-02  0.1300439E+00
        -11   -1    0    0    0    0  0.00000000000E+00  0.00000000000E+00  0.45593999997E+02  0.45594000000E+02  0.51100000000E-03 0.  1.
         11   -1    0    0    0    0 -0.00000000000E+00 -0.00000000000E+00 -0.45593999997E+02  0.45594000000E+02  0.51100000000E-03 0. -1.
    9900012    2    1    2    0    0 -0.55188153317E+01  0.46650743877E+01 -0.40011913730E+02  0.50528763877E+02  0.29999708280E+02 0.  0.
        -12    1    1    2    0    0  0.55188153317E+01 -0.46650743877E+01  0.40011913730E+02  0.40659236123E+02  0.00000000000E+00 0.  1.
         11    1    3    3    0    0  0.24775071985E+01 -0.16146040868E+00 -0.17558921418E+02  0.17733579250E+02  0.51100000000E-03 0. -1.
        -11    1    3    3    0    0 -0.10025188388E+02  0.50407168986E+01 -0.26214998080E+02  0.28515598428E+02  0.51100000000E-03 0.  1.
        -12    1    3    3    0    0  0.20288658583E+01 -0.21418210224E+00  0.37620057679E+01  0.42795861998E+01  0.00000000000E+00 0.  1.
</event>
<event>
 7    1  0.3449452E-011  0.5052886E+02  0.7816164E-02  0.1300439E+00
        -11   -1    0    0    0    0  0.00000000000E+00  0.00000000000E+00  0.45593999997E+02  0.45594000000E+02  0.51100000000E-03 0.  1.
         11   -1    0    0    0    0 -0.00000000000E+00 -0.00000000000E+00 -0.45593999997E+02  0.45594000000E+02  0.51100000000E-03 0. -1.
    9900012    2    1    2    0    0 -0.82832411303E+00  0.30316308930E+02 -0.27081382842E+02  0.50528855830E+02  0.29999987782E+02 0.  0.
        -12    1    1    2    0    0  0.82832411303E+00 -0.30316308930E+02  0.27081382842E+02  0.40659144170E+02  0.00000000000E+00 0.  1.
         11    1    3    3    0    0 -0.23525192470E+01  0.17962613174E+02 -0.46079699563E+01  0.18692865116E+02  0.51100000000E-03 0. -1.
        -11    1    3    3    0    0 -0.81282352089E+01  0.59495937747E+01 -0.60891748888E+01  0.11770468333E+02  0.51100000000E-03 0.  1.
         12    1    3    3    0    0  0.96524303428E+01  0.64041019809E+01 -0.16384237997E+02  0.20065522381E+02  0.00000000000E+00 0. -1.
</event>
<event>
 7    1  0.3449452E-011  0.5052886E+02  0.7816164E-02  0.1300439E+00
        -11   -1    0    0    0    0  0.00000000000E+00  0.00000000000E+00  0.45593999997E+02  0.45594000000E+02  0.51100000000E-03 0. -1.
         11   -1    0    0    0    0 -0.00000000000E+00 -0.00000000000E+00 -0.45593999997E+02  0.45594000000E+02  0.51100000000E-03 0.  1.
    9900012    2    1    2    0    0 -0.22699164770E+02 -0.14057607522E+02  0.30664269830E+02  0.50528857674E+02  0.29999993386E+02 0.  0.
        -12    1    1    2    0    0  0.22699164770E+02  0.14057607522E+02 -0.30664269830E+02  0.40659142326E+02  0.00000000000E+00 0.  1.
         11    1    3    3    0    0 -0.42567266586E+01  0.38222839717E+01  0.16057476727E+02  0.17046176572E+02  0.51100000000E-03 0. -1.
        -11    1    3    3    0    0  0.17692318868E+01 -0.27287866990E+01  0.59494567623E+01  0.67803019362E+01  0.51100000000E-03 0.  1.
        -12    1    3    3    0    0 -0.20211669998E+02 -0.15151104795E+02  0.86573363402E+01  0.26702379166E+02  0.00000000000E+00 0.  1.
</event>
<event>
 7    1  0.3449452E-011  0.5052886E+02  0.7816164E-02  0.1300439E+00
        -11   -1    0    0    0    0  0.00000000000E+00  0.00000000000E+00  0.45593999997E+02  0.45594000000E+02  0.51100000000E-03 0. -1.
         11   -1    0    0    0    0 -0.00000000000E+00 -0.00000000000E+00 -0.45593999997E+02  0.45594000000E+02  0.51100000000E-03 0.  1.
    9900012    2    1    2    0    0 -0.23581029154E+02  0.19170350153E+02  0.27011079399E+02  0.50528859929E+02  0.30000000241E+02 0.  0.
        -12    1    1    2    0    0  0.23581029154E+02 -0.19170350153E+02 -0.27011079399E+02  0.40659140071E+02  0.00000000000E+00 0.  1.
         11    1    3    3    0    0  0.30458745648E+01  0.25614640020E+01  0.17738952038E+01  0.43571956754E+01  0.51100000000E-03 0. -1.
        -11    1    3    3    0    0 -0.98119686541E+01  0.39044249034E+00 -0.22738905727E+01  0.10079571063E+02  0.51100000000E-03 0.  1.
         12    1    3    3    0    0 -0.16814935065E+02  0.16218443661E+02  0.27511074768E+02  0.36092093191E+02  0.00000000000E+00 0. -1.
</event>
<event>
 7    1  0.3449452E-011  0.5052886E+02  0.7816164E-02  0.1300439E+00
        -11   -1    0    0    0    0  0.00000000000E+00  0.00000000000E+00  0.45593999997E+02  0.45594000000E+02  0.51100000000E-03 0.  1.
         11   -1    0    0    0    0 -0.00000000000E+00 -0.00000000000E+00 -0.45593999997E+02  0.45594000000E+02  0.51100000000E-03 0. -1.
    9900012    2    1    2    0    0  0.28379838825E+02 -0.22012861324E+02 -0.19057401346E+02  0.50528857591E+02  0.29999993132E+02 0.  0.
        -12    1    1    2    0    0 -0.28379838825E+02  0.22012861324E+02  0.19057401346E+02  0.40659142409E+02  0.00000000000E+00 0.  1.
         11    1    3    3    0    0  0.18589452912E+02 -0.23699780638E+02 -0.18078422769E+02  0.35129428289E+02  0.51100000000E-03 0. -1.
        -11    1    3    3    0    0  0.17237987369E+01 -0.45517832290E+00 -0.55877733252E+01  0.58653116189E+01  0.51100000000E-03 0.  1.
        -12    1    3    3    0    0  0.80665871762E+01  0.21420976366E+01  0.46087947481E+01  0.95341176826E+01  0.00000000000E+00 0.  1.
</event>
<event>
 7    1  0.3449452E-011  0.5052885E+02  0.7816164E-02  0.1300439E+00
        -11   -1    0    0    0    0  0.00000000000E+00  0.00000000000E+00  0.45593999997E+02  0.45594000000E+02  0.51100000000E-03 0.  1.
         11   -1    0    0    0    0 -0.00000000000E+00 -0.00000000000E+00 -0.45593999997E+02  0.45594000000E+02  0.51100000000E-03 0. -1.
    9900012    2    1    2    0    0  0.15485852806E+02 -0.24177710594E+02 -0.28788761023E+02  0.50528854806E+02  0.29999984668E+02 0.  0.
        -12    1    1    2    0    0 -0.15485852806E+02  0.24177710594E+02  0.28788761023E+02  0.40659145194E+02  0.00000000000E+00 0.  1.
         11    1    3    3    0    0 -0.16966944902E+01 -0.17510947723E+02 -0.12198966797E+02  0.21408569628E+02  0.51100000000E-03 0. -1.
        -11    1    3    3    0    0  0.73313774964E+01 -0.55747342222E+01 -0.16852780251E+02  0.19205284692E+02  0.51100000000E-03 0.  1.
        -12    1    3    3    0    0  0.98511697996E+01 -0.10920286491E+01  0.26298602490E+00  0.99150004862E+01  0.00000000000E+00 0.  1.
</event>
<event>
 7    1  0.3449452E-011  0.5052886E+02  0.7816164E-02  0.1300439E+00
        -11   -1    0    0    0    0  0.00000000000E+00  0.00000000000E+00  0.45593999997E+02  0.45594000000E+02  0.51100000000E-03 0. -1.
         11   -1    0    0    0    0 -0.00000000000E+00 -0.00000000000E+00 -0.45593999997E+02  0.45594000000E+02  0.51100000000E-03 0.  1.
    9900012    2    1    2    0    0  0.26632905516E+02  0.20913494133E+02  0.22505106964E+02  0.50528859176E+02  0.29999997951E+02 0.  0.
        -12    1    1    2    0    0 -0.26632905516E+02 -0.20913494133E+02 -0.22505106964E+02  0.40659140824E+02  0.00000000000E+00 0.  1.
         11    1    3    3    0    0  0.24613517162E+02  0.19919092148E+02  0.19131284474E+02  0.36994614540E+02  0.51100000000E-03 0. -1.
        -11    1    3    3    0    0  0.18005447362E+01  0.21341986211E+01  0.81520929629E+01  0.86170403874E+01  0.51100000000E-03 0.  1.
         12    1    3    3    0    0  0.21884361846E+00 -0.11397966364E+01 -0.47782704734E+01  0.49172042482E+01  0.00000000000E+00 0. -1.
</event>
<event>
 7    1  0.3449452E-011  0.5052885E+02  0.7816164E-02  0.1300439E+00
        -11   -1    0    0    0    0  0.00000000000E+00  0.00000000000E+00  0.45593999997E+02  0.45594000000E+02  0.51100000000E-03 0. -1.
         11   -1    0    0    0    0 -0.00000000000E+00 -0.00000000000E+00 -0.45593999997E+02  0.45594000000E+02  0.51100000000E-03 0.  1.
    9900012    2    1    2    0    0 -0.20891880796E+02 -0.16964864650E+01  0.34839884819E+02  0.50528851906E+02  0.29999975853E+02 0.  0.
        -12    1    1    2    0    0  0.20891880796E+02  0.16964864650E+01 -0.34839884819E+02  0.40659148094E+02  0.00000000000E+00 0.  1.
         11    1    3    3    0    0 -0.98701600394E+01 -0.64962632364E+01  0.24188915970E+02  0.26920719739E+02  0.51100000000E-03 0. -1.
        -11    1    3    3    0    0 -0.69583291625E+01  0.24078361897E+01  0.15304317631E+02  0.16983467204E+02  0.51100000000E-03 0.  1.
        -12    1    3    3    0    0 -0.40633915936E+01  0.23919405816E+01 -0.46533487812E+01  0.66246649628E+01  0.00000000000E+00 0.  1.
</event>
<event>
 7    1  0.3449452E-011  0.5052886E+02  0.7816164E-02  0.1300439E+00
        -11   -1    0    0    0    0  0.00000000000E+00  0.00000000000E+00  0.45593999997E+02  0.45594000000E+02  0.51100000000E-03 0.  1.
         11   -1    0    0    0    0 -0.00000000000E+00 -0.00000000000E+00 -0.45593999997E+02  0.45594000000E+02  0.51100000000E-03 0. -1.
    9900012    2    1    2    0    0 -0.16062023547E+02  0.30695206822E+02 -0.21283358091E+02  0.50528860144E+02  0.30000000893E+02 0.  0.
        -12    1    1    2    0    0  0.16062023547E+02 -0.30695206822E+02  0.21283358091E+02  0.40659139856E+02  0.00000000000E+00 0.  1.
         11    1    3    3    0    0  0.75593866298E+01  0.78278271602E+01 -0.39615233321E+01  0.11580711189E+02  0.51100000000E-03 0. -1.
        -11    1    3    3    0    0 -0.22919655318E+01  0.15480220312E+01 -0.62290331426E+01  0.68154480675E+01  0.51100000000E-03 0.  1.
         12    1    3    3    0    0 -0.21329444645E+02  0.21319357630E+02 -0.11092801616E+02  0.32132700887E+02  0.00000000000E+00 0. -1.
</event>
<event>
 7    1  0.3449452E-011  0.5052886E+02  0.7816164E-02  0.1300439E+00
        -11   -1    0    0    0    0  0.00000000000E+00  0.00000000000E+00  0.45593999997E+02  0.45594000000E+02  0.51100000000E-03 0. -1.
         11   -1    0    0    0    0 -0.00000000000E+00 -0.00000000000E+00 -0.45593999997E+02  0.45594000000E+02  0.51100000000E-03 0.  1.
    9900012    2    1    2    0    0 -0.20088417469E+02 -0.33881669035E+02 -0.10082362575E+02  0.50528855296E+02  0.29999986157E+02 0.  0.
        -12    1    1    2    0    0  0.20088417469E+02  0.33881669035E+02  0.10082362575E+02  0.40659144704E+02  0.00000000000E+00 0.  1.
         11    1    3    3    0    0 -0.63124356025E+01 -0.17549264058E+02 -0.14129093319E+02  0.23397751825E+02  0.51100000000E-03 0.  1.
        -11    1    3    3    0    0  0.32113858765E+01 -0.62069790403E+01  0.24465193715E+00  0.69928136601E+01  0.51100000000E-03 0. -1.
        -12    1    3    3    0    0 -0.16987367743E+02 -0.10125425937E+02  0.38020788067E+01  0.20138289810E+02  0.00000000000E+00 0.  1.
</event>
<event>
 7    1  0.3449452E-011  0.5052888E+02  0.7816164E-02  0.1300439E+00
        -11   -1    0    0    0    0  0.00000000000E+00  0.00000000000E+00  0.45593999997E+02  0.45594000000E+02  0.51100000000E-03 0. -1.
         11   -1    0    0    0    0 -0.00000000000E+00 -0.00000000000E+00 -0.45593999997E+02  0.45594000000E+02  0.51100000000E-03 0.  1.
    9900012    2    1    2    0    0 -0.24389763779E+02  0.25765078560E+02 -0.19861130070E+02  0.50528876325E+02  0.30000050077E+02 0.  0.
        -12    1    1    2    0    0  0.24389763779E+02 -0.25765078560E+02  0.19861130070E+02  0.40659123675E+02  0.00000000000E+00 0.  1.
         11    1    3    3    0    0 -0.22335349454E+02  0.16919263310E+02 -0.70834195337E+01  0.28901628652E+02  0.51100000000E-03 0. -1.
        -11    1    3    3    0    0 -0.51350779848E+01  0.11876060594E+02 -0.81293344180E+01  0.15280573271E+02  0.51100000000E-03 0.  1.
        -12    1    3    3    0    0  0.30806636597E+01 -0.30302453446E+01 -0.46483761181E+01  0.63466744022E+01  0.00000000000E+00 0.  1.
</event>
<event>
 7    1  0.3449452E-011  0.5052887E+02  0.7816164E-02  0.1300439E+00
        -11   -1    0    0    0    0  0.00000000000E+00  0.00000000000E+00  0.45593999997E+02  0.45594000000E+02  0.51100000000E-03 0. -1.
         11   -1    0    0    0    0 -0.00000000000E+00 -0.00000000000E+00 -0.45593999997E+02  0.45594000000E+02  0.51100000000E-03 0.  1.
    9900012    2    1    2    0    0  0.10393073636E+02 -0.34740302578E+02  0.18391860619E+02  0.50528866465E+02  0.30000020107E+02 0.  0.
        -12    1    1    2    0    0 -0.10393073636E+02  0.34740302578E+02 -0.18391860619E+02  0.40659133535E+02  0.00000000000E+00 0.  1.
         11    1    3    3    0    0  0.26770369004E+01 -0.21484295351E+02  0.65100299415E+01  0.22608006621E+02  0.51100000000E-03 0. -1.
        -11    1    3    3    0    0  0.11616162780E+02 -0.13228256095E+02  0.25263563712E+01  0.17784950768E+02  0.51100000000E-03 0.  1.
         12    1    3    3    0    0 -0.39001260444E+01 -0.27751131482E-01  0.93554743063E+01  0.10135909075E+02  0.00000000000E+00 0. -1.
</event>
<event>
 7    1  0.3449452E-011  0.5052886E+02  0.7816164E-02  0.1300439E+00
        -11   -1    0    0    0    0  0.00000000000E+00  0.00000000000E+00  0.45593999997E+02  0.45594000000E+02  0.51100000000E-03 0.  1.
         11   -1    0    0    0    0 -0.00000000000E+00 -0.00000000000E+00 -0.45593999997E+02  0.45594000000E+02  0.51100000000E-03 0. -1.
    9900012    2    1    2    0    0  0.34694468464E+02  0.16554199809E+02 -0.13244558368E+02  0.50528855891E+02  0.29999987967E+02 0.  0.
        -12    1    1    2    0    0 -0.34694468464E+02 -0.16554199809E+02  0.13244558368E+02  0.40659144109E+02  0.00000000000E+00 0.  1.
         11    1    3    3    0    0  0.35876022600E+02  0.62728661060E+01 -0.12450358687E+02  0.38489599615E+02  0.51100000000E-03 0. -1.
        -11    1    3    3    0    0  0.14898287483E+00  0.55439581176E+01  0.25353075084E+01  0.60979875312E+01  0.51100000000E-03 0.  1.
        -12    1    3    3    0    0 -0.13305370116E+01  0.47373755854E+01 -0.33295071897E+01  0.59412687452E+01  0.00000000000E+00 0.  1.
</event>
<event>
 7    1  0.3449452E-011  0.5052886E+02  0.7816164E-02  0.1300439E+00
        -11   -1    0    0    0    0  0.00000000000E+00  0.00000000000E+00  0.45593999997E+02  0.45594000000E+02  0.51100000000E-03 0.  1.
         11   -1    0    0    0    0 -0.00000000000E+00 -0.00000000000E+00 -0.45593999997E+02  0.45594000000E+02  0.51100000000E-03 0. -1.
    9900012    2    1    2    0    0 -0.24581681325E+02  0.98471491447E+01 -0.30853535351E+02  0.50528855313E+02  0.29999986208E+02 0.  0.
        -12    1    1    2    0    0  0.24581681325E+02 -0.98471491447E+01  0.30853535351E+02  0.40659144687E+02  0.00000000000E+00 0.  1.
         11    1    3    3    0    0 -0.14943934721E+02  0.13436533891E+02 -0.28004281820E+02  0.34468847217E+02  0.51100000000E-03 0. -1.
        -11    1    3    3    0    0 -0.73066280476E+01  0.36730095571E+01 -0.14795102835E+01  0.83106415861E+01  0.51100000000E-03 0.  1.
        -12    1    3    3    0    0 -0.23311185564E+01 -0.72623943032E+01 -0.13697432477E+01  0.77493665098E+01  0.00000000000E+00 0.  1.
</event>
<event>
 7    1  0.3449452E-011  0.5052886E+02  0.7816164E-02  0.1300439E+00
        -11   -1    0    0    0    0  0.00000000000E+00  0.00000000000E+00  0.45593999997E+02  0.45594000000E+02  0.51100000000E-03 0. -1.
         11   -1    0    0    0    0 -0.00000000000E+00 -0.00000000000E+00 -0.45593999997E+02  0.45594000000E+02  0.51100000000E-03 0.  1.
    9900012    2    1    2    0    0  0.40055888948E+02  0.55338033347E+01  0.42507397169E+01  0.50528855802E+02  0.29999987695E+02 0.  0.
        -12    1    1    2    0    0 -0.40055888948E+02 -0.55338033347E+01 -0.42507397169E+01  0.40659144198E+02  0.00000000000E+00 0.  1.
         11    1    3    3    0    0  0.13514889965E+02 -0.42275400502E+01 -0.25834689613E+01  0.14394396750E+02  0.51100000000E-03 0. -1.
        -11    1    3    3    0    0 -0.26646332637E+01 -0.18715981888E+01 -0.15385659505E+01  0.36014352216E+01  0.51100000000E-03 0.  1.
         12    1    3    3    0    0  0.29205632247E+02  0.11632941574E+02  0.83727746287E+01  0.32533023831E+02  0.00000000000E+00 0. -1.
</event>
<event>
 7    1  0.8471226E-011  0.5052886E+02  0.7816164E-02  0.1300439E+00
        -11   -1    0    0    0    0  0.00000000000E+00  0.00000000000E+00  0.45593999997E+02  0.45594000000E+02  0.51100000000E-03 0. -1.
         11   -1    0    0    0    0 -0.00000000000E+00 -0.00000000000E+00 -0.45593999997E+02  0.45594000000E+02  0.51100000000E-03 0.  1.
    9900012    2    1    2    0    0  0.27142655947E+02  0.28431036481E+02 -0.10397979470E+02  0.50528860999E+02  0.30000003491E+02 0.  0.
        -12    1    1    2    0    0 -0.27142655947E+02 -0.28431036481E+02  0.10397979470E+02  0.40659139001E+02  0.00000000000E+00 0.  1.
         11    1    3    3    0    0  0.96647809142E+01  0.21856817486E+02 -0.85412913877E+01  0.25378773012E+02  0.51100000000E-03 0. -1.
        -11    1    3    3    0    0  0.19872199851E+02  0.79690299751E+01 -0.38272421610E+01  0.21749886172E+02  0.51100000000E-03 0.  1.
        -12    1    3    3    0    0 -0.23943248180E+01 -0.13948109802E+01  0.19705540789E+01  0.34002018150E+01  0.00000000000E+00 0.  1.
</event>
<event>
 7    1  0.3449452E-011  0.5052886E+02  0.7816164E-02  0.1300439E+00
        -11   -1    0    0    0    0  0.00000000000E+00  0.00000000000E+00  0.45593999997E+02  0.45594000000E+02  0.51100000000E-03 0. -1.
         11   -1    0    0    0    0 -0.00000000000E+00 -0.00000000000E+00 -0.45593999997E+02  0.45594000000E+02  0.51100000000E-03 0.  1.
    9900012    2    1    2    0    0  0.25525041694E+02 -0.21405721091E+01  0.31576195853E+02  0.50528856539E+02  0.29999989937E+02 0.  0.
        -12    1    1    2    0    0 -0.25525041694E+02  0.21405721091E+01 -0.31576195853E+02  0.40659143461E+02  0.00000000000E+00 0.  1.
         11    1    3    3    0    0  0.16541884259E+01 -0.70616985963E+01  0.44657039470E+01  0.85174197042E+01  0.51100000000E-03 0. -1.
        -11    1    3    3    0    0  0.69414604762E+01  0.41977318916E+01 -0.19759120207E+01  0.83491948804E+01  0.51100000000E-03 0.  1.
        -12    1    3    3    0    0  0.16929392792E+02  0.72339459564E+00  0.29086403927E+02  0.33662241955E+02  0.00000000000E+00 0.  1.
</event>
<event>
 7    1  0.3582074E-011  0.5052886E+02  0.7816164E-02  0.1300439E+00
        -11   -1    0    0    0    0  0.00000000000E+00  0.00000000000E+00  0.45593999997E+02  0.45594000000E+02  0.51100000000E-03 0. -1.
         11   -1    0    0    0    0 -0.00000000000E+00 -0.00000000000E+00 -0.45593999997E+02  0.45594000000E+02  0.51100000000E-03 0.  1.
    9900012    2    1    2    0    0  0.94807185554E+01 -0.17412898689E+01  0.39499993307E+02  0.50528860979E+02  0.30000003430E+02 0.  0.
        -12    1    1    2    0    0 -0.94807185554E+01  0.17412898689E+01 -0.39499993307E+02  0.40659139021E+02  0.00000000000E+00 0.  1.
         11    1    3    3    0    0  0.78942025043E+01 -0.83090759231E+00  0.17252002430E+02  0.18990535240E+02  0.51100000000E-03 0. -1.
        -11    1    3    3    0    0 -0.16806245799E+01  0.58669441337E+01  0.23168212145E+02  0.23958538910E+02  0.51100000000E-03 0.  1.
        -12    1    3    3    0    0  0.32671406310E+01 -0.67773264103E+01 -0.92022126857E+00  0.75797868280E+01  0.00000000000E+00 0.  1.
</event>
<event>
 7    1  0.3449452E-011  0.5052884E+02  0.7816164E-02  0.1300439E+00
        -11   -1    0    0    0    0  0.00000000000E+00  0.00000000000E+00  0.45593999997E+02  0.45594000000E+02  0.51100000000E-03 0.  1.
         11   -1    0    0    0    0 -0.00000000000E+00 -0.00000000000E+00 -0.45593999997E+02  0.45594000000E+02  0.51100000000E-03 0. -1.
    9900012    2    1    2    0    0 -0.11207390319E+01 -0.21748024554E+02 -0.34335614295E+02  0.50528843134E+02  0.29999949191E+02 0.  0.
        -12    1    1    2    0    0  0.11207390319E+01  0.21748024554E+02  0.34335614295E+02  0.40659156866E+02  0.00000000000E+00 0.  1.
         11    1    3    3    0    0  0.50473667710E+01 -0.12401297008E+02 -0.24229715086E+02  0.27682976217E+02  0.51100000000E-03 0. -1.
        -11    1    3    3    0    0  0.89403854781E+00 -0.12647055774E+02 -0.58283586192E+01  0.13954106533E+02  0.51100000000E-03 0.  1.
        -12    1    3    3    0    0 -0.70621443507E+01  0.33003282276E+01 -0.42775405895E+01  0.88917603845E+01  0.00000000000E+00 0.  1.
</event>
<event>
 7    1  0.3449452E-011  0.5052886E+02  0.7816164E-02  0.1300439E+00
        -11   -1    0    0    0    0  0.00000000000E+00  0.00000000000E+00  0.45593999997E+02  0.45594000000E+02  0.51100000000E-03 0.  1.
         11   -1    0    0    0    0 -0.00000000000E+00 -0.00000000000E+00 -0.45593999997E+02  0.45594000000E+02  0.51100000000E-03 0. -1.
    9900012    2    1    2    0    0 -0.20041470108E+02  0.49429173975E+01 -0.35029598108E+02  0.50528859575E+02  0.29999999165E+02 0.  0.
        -12    1    1    2    0    0  0.20041470108E+02 -0.49429173975E+01  0.35029598108E+02  0.40659140425E+02  0.00000000000E+00 0.  1.
         11    1    3    3    0    0 -0.51049872499E+01  0.23680050463E+01 -0.83327179734E+01  0.10054975475E+02  0.51100000000E-03 0. -1.
        -11    1    3    3    0    0 -0.11145904746E+02  0.59796317409E+01 -0.31204763714E+02  0.33670825162E+02  0.51100000000E-03 0.  1.
        -12    1    3    3    0    0 -0.37905781113E+01 -0.34047193897E+01  0.45078835799E+01  0.68030589378E+01  0.00000000000E+00 0.  1.
</event>
<event>
 7    1  0.3449452E-011  0.5052886E+02  0.7816164E-02  0.1300439E+00
        -11   -1    0    0    0    0  0.00000000000E+00  0.00000000000E+00  0.45593999997E+02  0.45594000000E+02  0.51100000000E-03 0.  1.
         11   -1    0    0    0    0 -0.00000000000E+00 -0.00000000000E+00 -0.45593999997E+02  0.45594000000E+02  0.51100000000E-03 0. -1.
    9900012    2    1    2    0    0  0.35717028804E+02 -0.99048689409E+01 -0.16713858840E+02  0.50528860158E+02  0.30000000936E+02 0.  0.
        -12    1    1    2    0    0 -0.35717028804E+02  0.99048689409E+01  0.16713858840E+02  0.40659139842E+02  0.00000000000E+00 0.  1.
         11    1    3    3    0    0  0.15939076581E+02 -0.14737827827E+02 -0.34044124699E+01  0.21973797028E+02  0.51100000000E-03 0. -1.
        -11    1    3    3    0    0 -0.20442781962E+01 -0.10901109512E+01  0.53537396352E-03  0.23167683909E+01  0.51100000000E-03 0.  1.
        -12    1    3    3    0    0  0.21822230420E+02  0.59230698368E+01 -0.13309981745E+02  0.26238294739E+02  0.00000000000E+00 0.  1.
</event>
<event>
 7    1  0.3449452E-011  0.5052886E+02  0.7816164E-02  0.1300439E+00
        -11   -1    0    0    0    0  0.00000000000E+00  0.00000000000E+00  0.45593999997E+02  0.45594000000E+02  0.51100000000E-03 0. -1.
         11   -1    0    0    0    0 -0.00000000000E+00 -0.00000000000E+00 -0.45593999997E+02  0.45594000000E+02  0.51100000000E-03 0.  1.
    9900012    2    1    2    0    0 -0.80295257987E+01  0.39363895049E+02 -0.62590946772E+01  0.50528858541E+02  0.29999996023E+02 0.  0.
        -12    1    1    2    0    0  0.80295257987E+01 -0.39363895049E+02  0.62590946772E+01  0.40659141459E+02  0.00000000000E+00 0.  1.
         11    1    3    3    0    0 -0.35064739156E+01  0.11692383409E+01 -0.77626215488E+01  0.85977189527E+01  0.51100000000E-03 0.  1.
        -11    1    3    3    0    0  0.61925156037E+01  0.15493012863E+02  0.21275132030E+01  0.16819839766E+02  0.51100000000E-03 0. -1.
         12    1    3    3    0    0 -0.10715567487E+02  0.22701643845E+02 -0.62398633136E+00  0.25111299822E+02  0.00000000000E+00 0. -1.
</event>
<event>
 7    1  0.3449452E-011  0.5052886E+02  0.7816164E-02  0.1300439E+00
        -11   -1    0    0    0    0  0.00000000000E+00  0.00000000000E+00  0.45593999997E+02  0.45594000000E+02  0.51100000000E-03 0.  1.
         11   -1    0    0    0    0 -0.00000000000E+00 -0.00000000000E+00 -0.45593999997E+02  0.45594000000E+02  0.51100000000E-03 0. -1.
    9900012    2    1    2    0    0 -0.31355582497E+01 -0.39024350902E+02  0.10974241565E+02  0.50528859985E+02  0.30000000410E+02 0.  0.
        -12    1    1    2    0    0  0.31355582497E+01  0.39024350902E+02 -0.10974241565E+02  0.40659140015E+02  0.00000000000E+00 0.  1.
         11    1    3    3    0    0 -0.10620118884E+02 -0.24413851848E+02  0.52949726583E+01  0.27145162053E+02  0.51100000000E-03 0. -1.
        -11    1    3    3    0    0  0.16419619465E+01 -0.15568586793E+02  0.73850925946E+00  0.15672342835E+02  0.51100000000E-03 0.  1.
        -12    1    3    3    0    0  0.58425986874E+01  0.95808773905E+00  0.49407596472E+01  0.77113550968E+01  0.00000000000E+00 0.  1.
</event>
<event>
 7    1  0.3449452E-011  0.5052887E+02  0.7816164E-02  0.1300439E+00
        -11   -1    0    0    0    0  0.00000000000E+00  0.00000000000E+00  0.45593999997E+02  0.45594000000E+02  0.51100000000E-03 0. -1.
         11   -1    0    0    0    0 -0.00000000000E+00 -0.00000000000E+00 -0.45593999997E+02  0.45594000000E+02  0.51100000000E-03 0.  1.
    9900012    2    1    2    0    0  0.15418597274E+02  0.23755630961E+02  0.29173650421E+02  0.50528867900E+02  0.30000024468E+02 0.  0.
        -12    1    1    2    0    0 -0.15418597274E+02 -0.23755630961E+02 -0.29173650421E+02  0.40659132100E+02  0.00000000000E+00 0.  1.
         11    1    3    3    0    0 -0.37416949851E+01  0.31814005544E+01 -0.93303407198E+00  0.49992143072E+01  0.51100000000E-03 0. -1.
        -11    1    3    3    0    0  0.12889868174E+02  0.15569999305E+01  0.63306649299E+01  0.14444731533E+02  0.51100000000E-03 0.  1.
         12    1    3    3    0    0  0.62704240845E+01  0.19017230477E+02  0.23776019563E+02  0.31084922060E+02  0.00000000000E+00 0. -1.
</event>
<event>
 7    1  0.3449452E-011  0.5052886E+02  0.7816164E-02  0.1300439E+00
        -11   -1    0    0    0    0  0.00000000000E+00  0.00000000000E+00  0.45593999997E+02  0.45594000000E+02  0.51100000000E-03 0. -1.
         11   -1    0    0    0    0 -0.00000000000E+00 -0.00000000000E+00 -0.45593999997E+02  0.45594000000E+02  0.51100000000E-03 0.  1.
    9900012    2    1    2    0    0 -0.28070501325E+02  0.26335194610E+02  0.13102293969E+02  0.50528860474E+02  0.30000001896E+02 0.  0.
        -12    1    1    2    0    0  0.28070501325E+02 -0.26335194610E+02 -0.13102293969E+02  0.40659139526E+02  0.00000000000E+00 0.  1.
         11    1    3    3    0    0  0.17020301965E+01  0.11009662357E+01  0.32442381604E+01  0.38254561747E+01  0.51100000000E-03 0. -1.
        -11    1    3    3    0    0 -0.41401539455E+01  0.18756022672E+02  0.37981283520E+01  0.19579454548E+02  0.51100000000E-03 0.  1.
        -12    1    3    3    0    0 -0.25632377576E+02  0.64782057018E+01  0.60599274565E+01  0.27123949751E+02  0.00000000000E+00 0.  1.
</event>
<event>
 7    1  0.3449452E-011  0.5052888E+02  0.7816164E-02  0.1300439E+00
        -11   -1    0    0    0    0  0.00000000000E+00  0.00000000000E+00  0.45593999997E+02  0.45594000000E+02  0.51100000000E-03 0. -1.
         11   -1    0    0    0    0 -0.00000000000E+00 -0.00000000000E+00 -0.45593999997E+02  0.45594000000E+02  0.51100000000E-03 0.  1.
    9900012    2    1    2    0    0 -0.33185631320E+02  0.13489754187E+02  0.19232897479E+02  0.50528881225E+02  0.30000064971E+02 0.  0.
        -12    1    1    2    0    0  0.33185631320E+02 -0.13489754187E+02 -0.19232897479E+02  0.40659118775E+02  0.00000000000E+00 0.  1.
         11    1    3    3    0    0 -0.51964708810E+01 -0.25789672979E+01  0.13288119733E+02  0.14499258886E+02  0.51100000000E-03 0. -1.
        -11    1    3    3    0    0 -0.29886840733E+00  0.60942700648E+01  0.11729452864E+01  0.62133123899E+01  0.51100000000E-03 0.  1.
        -12    1    3    3    0    0 -0.27690292032E+02  0.99744514197E+01  0.47718324590E+01  0.29816309949E+02  0.00000000000E+00 0.  1.
</event>
<event>
 7    1  0.3449452E-011  0.5052887E+02  0.7816164E-02  0.1300439E+00
        -11   -1    0    0    0    0  0.00000000000E+00  0.00000000000E+00  0.45593999997E+02  0.45594000000E+02  0.51100000000E-03 0.  1.
         11   -1    0    0    0    0 -0.00000000000E+00 -0.00000000000E+00 -0.45593999997E+02  0.45594000000E+02  0.51100000000E-03 0. -1.
    9900012    2    1    2    0    0  0.24048858476E+02  0.81427534639E+01 -0.31757097271E+02  0.50528865048E+02  0.30000015799E+02 0.  0.
        -12    1    1    2    0    0 -0.24048858476E+02 -0.81427534639E+01  0.31757097271E+02  0.40659134952E+02  0.00000000000E+00 0.  1.
         11    1    3    3    0    0  0.20066336384E+02  0.77393160674E+01 -0.17230211582E+02  0.27557849344E+02  0.51100000000E-03 0. -1.
        -11    1    3    3    0    0  0.34245501684E+01 -0.79277488845E+01 -0.10797505282E+02  0.13826166020E+02  0.51100000000E-03 0.  1.
        -12    1    3    3    0    0  0.55797192384E+00  0.83311862809E+01 -0.37293804073E+01  0.91448496837E+01  0.00000000000E+00 0.  1.
</event>
<event>
 7    1  0.3449452E-011  0.5052887E+02  0.7816164E-02  0.1300439E+00
        -11   -1    0    0    0    0  0.00000000000E+00  0.00000000000E+00  0.45593999997E+02  0.45594000000E+02  0.51100000000E-03 0. -1.
         11   -1    0    0    0    0 -0.00000000000E+00 -0.00000000000E+00 -0.45593999997E+02  0.45594000000E+02  0.51100000000E-03 0.  1.
    9900012    2    1    2    0    0  0.80991134049E+01  0.44272277270E+01  0.39597589632E+02  0.50528867103E+02  0.30000022046E+02 0.  0.
        -12    1    1    2    0    0 -0.80991134049E+01 -0.44272277270E+01 -0.39597589632E+02  0.40659132897E+02  0.00000000000E+00 0.  1.
         11    1    3    3    0    0  0.10422338260E+02 -0.70141951501E+01  0.17603979062E+02  0.21626931070E+02  0.51100000000E-03 0. -1.
        -11    1    3    3    0    0 -0.11113213757E+01  0.39187507501E+01  0.20793055500E+02  0.21188270339E+02  0.51100000000E-03 0.  1.
        -12    1    3    3    0    0 -0.12119034797E+01  0.75226721270E+01  0.12005550697E+01  0.77136656947E+01  0.00000000000E+00 0.  1.
</event>
<event>
 7    1  0.3449452E-011  0.5052887E+02  0.7816164E-02  0.1300439E+00
        -11   -1    0    0    0    0  0.00000000000E+00  0.00000000000E+00  0.45593999997E+02  0.45594000000E+02  0.51100000000E-03 0.  1.
         11   -1    0    0    0    0 -0.00000000000E+00 -0.00000000000E+00 -0.45593999997E+02  0.45594000000E+02  0.51100000000E-03 0. -1.
    9900012    2    1    2    0    0 -0.10005064369E+01  0.11987023888E+02 -0.38839095259E+02  0.50528867258E+02  0.30000022516E+02 0.  0.
        -12    1    1    2    0    0  0.10005064369E+01 -0.11987023888E+02  0.38839095259E+02  0.40659132742E+02  0.00000000000E+00 0.  1.
         11    1    3    3    0    0 -0.44024546188E+01  0.38291742433E+01 -0.17428003195E+02  0.18378777916E+02  0.51100000000E-03 0. -1.
        -11    1    3    3    0    0  0.26780640567E+01 -0.75152291350E+01 -0.97684118442E+01  0.12612397324E+02  0.51100000000E-03 0.  1.
        -12    1    3    3    0    0  0.72388412522E+00  0.15673078780E+02 -0.11642680220E+02  0.19537692018E+02  0.00000000000E+00 0.  1.
</event>
<event>
 7    1  0.3449452E-011  0.5052885E+02  0.7816164E-02  0.1300439E+00
        -11   -1    0    0    0    0  0.00000000000E+00  0.00000000000E+00  0.45593999997E+02  0.45594000000E+02  0.51100000000E-03 0.  1.
         11   -1    0    0    0    0 -0.00000000000E+00 -0.00000000000E+00 -0.45593999997E+02  0.45594000000E+02  0.51100000000E-03 0. -1.
    9900012    2    1    2    0    0 -0.23746274408E+02 -0.17470012639E+02 -0.28001415376E+02  0.50528854007E+02  0.29999982239E+02 0.  0.
        -12    1    1    2    0    0  0.23746274408E+02  0.17470012639E+02  0.28001415376E+02  0.40659145993E+02  0.00000000000E+00 0.  1.
         11    1    3    3    0    0 -0.84250725694E+01 -0.36571394717E+01 -0.45744722647E+00  0.91959651555E+01  0.51100000000E-03 0. -1.
        -11    1    3    3    0    0 -0.17617458129E+02 -0.18452114811E+02 -0.21399181238E+02  0.33298353260E+02  0.51100000000E-03 0.  1.
        -12    1    3    3    0    0  0.22962562902E+01  0.46392416437E+01 -0.61447869115E+01  0.80345355912E+01  0.00000000000E+00 0.  1.
</event>
<event>
 7    1  0.3449452E-011  0.5052886E+02  0.7816164E-02  0.1300439E+00
        -11   -1    0    0    0    0  0.00000000000E+00  0.00000000000E+00  0.45593999997E+02  0.45594000000E+02  0.51100000000E-03 0.  1.
         11   -1    0    0    0    0 -0.00000000000E+00 -0.00000000000E+00 -0.45593999997E+02  0.45594000000E+02  0.51100000000E-03 0. -1.
    9900012    2    1    2    0    0 -0.12114387002E+02 -0.38636645055E+02 -0.36900865605E+01  0.50528862621E+02  0.30000008424E+02 0.  0.
        -12    1    1    2    0    0  0.12114387002E+02  0.38636645055E+02  0.36900865605E+01  0.40659137379E+02  0.00000000000E+00 0.  1.
         11    1    3    3    0    0  0.36249152035E+01 -0.14514786489E+01 -0.77283836356E+00  0.39804622719E+01  0.51100000000E-03 0. -1.
        -11    1    3    3    0    0 -0.23796629628E+01  0.95004839288E+00 -0.54904835322E+01  0.60589435914E+01  0.51100000000E-03 0.  1.
        -12    1    3    3    0    0 -0.13359639243E+02 -0.38135214799E+02  0.25732353353E+01  0.40489456758E+02  0.00000000000E+00 0.  1.
</event>
<event>
 7    1  0.3449452E-011  0.5052886E+02  0.7816164E-02  0.1300439E+00
        -11   -1    0    0    0    0  0.00000000000E+00  0.00000000000E+00  0.45593999997E+02  0.45594000000E+02  0.51100000000E-03 0.  1.
         11   -1    0    0    0    0 -0.00000000000E+00 -0.00000000000E+00 -0.45593999997E+02  0.45594000000E+02  0.51100000000E-03 0. -1.
    9900012    2    1    2    0    0 -0.18141676029E+02 -0.29927986654E+02 -0.20696876698E+02  0.50528862044E+02  0.30000006668E+02 0.  0.
        -12    1    1    2    0    0  0.18141676029E+02  0.29927986654E+02  0.20696876698E+02  0.40659137956E+02  0.00000000000E+00 0.  1.
         11    1    3    3    0    0 -0.11644881727E+02 -0.70607514343E+01 -0.62123224083E+01  0.14968314241E+02  0.51100000000E-03 0. -1.
        -11    1    3    3    0    0 -0.10336285817E+02 -0.22796314725E+02 -0.52715946560E+01  0.25579297880E+02  0.51100000000E-03 0.  1.
         12    1    3    3    0    0  0.38394915152E+01 -0.70920494619E-01 -0.92129596334E+01  0.99812499227E+01  0.00000000000E+00 0. -1.
</event>
<event>
 7    1  0.3449452E-011  0.5052886E+02  0.7816164E-02  0.1300439E+00
        -11   -1    0    0    0    0  0.00000000000E+00  0.00000000000E+00  0.45593999997E+02  0.45594000000E+02  0.51100000000E-03 0. -1.
         11   -1    0    0    0    0 -0.00000000000E+00 -0.00000000000E+00 -0.45593999997E+02  0.45594000000E+02  0.51100000000E-03 0.  1.
    9900012    2    1    2    0    0 -0.27532699422E+01  0.79730608502E+01  0.39774555635E+02  0.50528862396E+02  0.30000007739E+02 0.  0.
        -12    1    1    2    0    0  0.27532699422E+01 -0.79730608502E+01 -0.39774555635E+02  0.40659137604E+02  0.00000000000E+00 0.  1.
         11    1    3    3    0    0 -0.14414324699E+01 -0.14646706986E+01 -0.22980632660E+01  0.30828692571E+01  0.51100000000E-03 0. -1.
        -11    1    3    3    0    0  0.52916465441E+01  0.78229972035E+01  0.70918875051E+01  0.11810828804E+02  0.51100000000E-03 0.  1.
         12    1    3    3    0    0 -0.66034840164E+01  0.16147343453E+01  0.34980731396E+02  0.35635164335E+02  0.00000000000E+00 0. -1.
</event>
<event>
 7    1  0.4562277E-011  0.5052885E+02  0.7816164E-02  0.1300439E+00
        -11   -1    0    0    0    0  0.00000000000E+00  0.00000000000E+00  0.45593999997E+02  0.45594000000E+02  0.51100000000E-03 0. -1.
         11   -1    0    0    0    0 -0.00000000000E+00 -0.00000000000E+00 -0.45593999997E+02  0.45594000000E+02  0.51100000000E-03 0.  1.
    9900012    2    1    2    0    0  0.16788558221E+02  0.14104437223E+02  0.34239966732E+02  0.50528853940E+02  0.29999982035E+02 0.  0.
        -12    1    1    2    0    0 -0.16788558221E+02 -0.14104437223E+02 -0.34239966732E+02  0.40659146060E+02  0.00000000000E+00 0.  1.
         11    1    3    3    0    0  0.73369792950E+01  0.76515201202E+01  0.29848248805E+02  0.31674832002E+02  0.51100000000E-03 0. -1.
        -11    1    3    3    0    0  0.43411767511E+01  0.96357769973E+00  0.90090157805E+01  0.10046724001E+02  0.51100000000E-03 0.  1.
        -12    1    3    3    0    0  0.51104021751E+01  0.54893394030E+01 -0.46172978535E+01  0.88072979364E+01  0.00000000000E+00 0.  1.
</event>
<event>
 7    1  0.3449452E-011  0.5052888E+02  0.7816164E-02  0.1300439E+00
        -11   -1    0    0    0    0  0.00000000000E+00  0.00000000000E+00  0.45593999997E+02  0.45594000000E+02  0.51100000000E-03 0. -1.
         11   -1    0    0    0    0 -0.00000000000E+00 -0.00000000000E+00 -0.45593999997E+02  0.45594000000E+02  0.51100000000E-03 0.  1.
    9900012    2    1    2    0    0 -0.42048640663E+01  0.26941193835E+01  0.40351273568E+02  0.50528875075E+02  0.30000046279E+02 0.  0.
        -12    1    1    2    0    0  0.42048640663E+01 -0.26941193835E+01 -0.40351273568E+02  0.40659124925E+02  0.00000000000E+00 0.  1.
         11    1    3    3    0    0  0.11481199906E+01  0.65400365223E+01  0.45371472883E+01  0.80421367187E+01  0.51100000000E-03 0. -1.
        -11    1    3    3    0    0 -0.41574286988E+01 -0.23396405421E+01 -0.15935485272E+01  0.50296648419E+01  0.51100000000E-03 0.  1.
         12    1    3    3    0    0 -0.11955553581E+01 -0.15062765967E+01  0.37407674807E+02  0.37457073515E+02  0.00000000000E+00 0. -1.
</event>
<event>
 7    1  0.3449452E-011  0.5052885E+02  0.7816164E-02  0.1300439E+00
        -11   -1    0    0    0    0  0.00000000000E+00  0.00000000000E+00  0.45593999997E+02  0.45594000000E+02  0.51100000000E-03 0.  1.
         11   -1    0    0    0    0 -0.00000000000E+00 -0.00000000000E+00 -0.45593999997E+02  0.45594000000E+02  0.51100000000E-03 0. -1.
    9900012    2    1    2    0    0  0.93811077299E+01 -0.33280048478E+02 -0.21391584860E+02  0.50528847134E+02  0.29999961350E+02 0.  0.
        -12    1    1    2    0    0 -0.93811077299E+01  0.33280048478E+02  0.21391584860E+02  0.40659152866E+02  0.00000000000E+00 0.  1.
         11    1    3    3    0    0  0.38345567483E+01 -0.18240183513E+02 -0.45416434093E+01  0.19184229074E+02  0.51100000000E-03 0. -1.
        -11    1    3    3    0    0  0.63092596884E+01 -0.15473013833E+01  0.31399248352E+01  0.72152635168E+01  0.51100000000E-03 0.  1.
         12    1    3    3    0    0 -0.76270870672E+00 -0.13492563582E+02 -0.19989866286E+02  0.24129354544E+02  0.00000000000E+00 0. -1.
</event>
<event>
 7    1  0.3449452E-011  0.5052886E+02  0.7816164E-02  0.1300439E+00
        -11   -1    0    0    0    0  0.00000000000E+00  0.00000000000E+00  0.45593999997E+02  0.45594000000E+02  0.51100000000E-03 0.  1.
         11   -1    0    0    0    0 -0.00000000000E+00 -0.00000000000E+00 -0.45593999997E+02  0.45594000000E+02  0.51100000000E-03 0. -1.
    9900012    2    1    2    0    0 -0.20304295825E+02 -0.26472160027E+02  0.23240610386E+02  0.50528860110E+02  0.30000000791E+02 0.  0.
        -12    1    1    2    0    0  0.20304295825E+02  0.26472160027E+02 -0.23240610386E+02  0.40659139890E+02  0.00000000000E+00 0.  1.
         11    1    3    3    0    0 -0.18571000096E+02 -0.11069781435E+02  0.19589910553E+02  0.29175104135E+02  0.51100000000E-03 0. -1.
        -11    1    3    3    0    0 -0.41409270431E+01  0.71090816449E-01  0.39047331873E+01  0.56920358578E+01  0.51100000000E-03 0.  1.
         12    1    3    3    0    0  0.24076313140E+01 -0.15473469409E+02 -0.25403335361E+00  0.15661720117E+02  0.00000000000E+00 0. -1.
</event>
<event>
 7    1  0.3449452E-011  0.5052893E+02  0.7816164E-02  0.1300439E+00
        -11   -1    0    0    0    0  0.00000000000E+00  0.00000000000E+00  0.45593999997E+02  0.45594000000E+02  0.51100000000E-03 0.  1.
         11   -1    0    0    0    0 -0.00000000000E+00 -0.00000000000E+00 -0.45593999997E+02  0.45594000000E+02  0.51100000000E-03 0. -1.
    9900012    2    1    2    0    0  0.27252013794E+01  0.34663795861E+02 -0.21074964291E+02  0.50528934763E+02  0.30000227706E+02 0.  0.
        -12    1    1    2    0    0 -0.27252013794E+01 -0.34663795861E+02  0.21074964291E+02  0.40659065237E+02  0.00000000000E+00 0.  1.
         11    1    3    3    0    0  0.66541643691E+01  0.80523679051E+01  0.42160475875E+01  0.11264705493E+02  0.51100000000E-03 0.  1.
        -11    1    3    3    0    0 -0.40547210544E+00  0.17730842551E+02 -0.23664235347E+02  0.29572676916E+02  0.51100000000E-03 0. -1.
         12    1    3    3    0    0 -0.35234908843E+01  0.88805854047E+01 -0.16267765322E+01  0.96915523538E+01  0.00000000000E+00 0. -1.
</event>
<event>
 7    1  0.3449452E-011  0.5052888E+02  0.7816164E-02  0.1300439E+00
        -11   -1    0    0    0    0  0.00000000000E+00  0.00000000000E+00  0.45593999997E+02  0.45594000000E+02  0.51100000000E-03 0.  1.
         11   -1    0    0    0    0 -0.00000000000E+00 -0.00000000000E+00 -0.45593999997E+02  0.45594000000E+02  0.51100000000E-03 0. -1.
    9900012    2    1    2    0    0  0.13727191796E+02 -0.35446907911E+02 -0.14430688854E+02  0.50528882255E+02  0.30000068101E+02 0.  0.
        -12    1    1    2    0    0 -0.13727191796E+02  0.35446907911E+02  0.14430688854E+02  0.40659117745E+02  0.00000000000E+00 0.  1.
         11    1    3    3    0    0  0.34736527353E+01 -0.27949941083E+02 -0.18705613195E+02  0.33810729585E+02  0.51100000000E-03 0. -1.
        -11    1    3    3    0    0 -0.30581941055E-01 -0.32444847436E+01  0.45472777850E+01  0.55861750797E+01  0.51100000000E-03 0.  1.
        -12    1    3    3    0    0  0.10284121001E+02 -0.42524820849E+01 -0.27235344390E+00  0.11131977589E+02  0.00000000000E+00 0.  1.
</event>
<event>
 7    1  0.3449452E-011  0.5052887E+02  0.7816164E-02  0.1300439E+00
        -11   -1    0    0    0    0  0.00000000000E+00  0.00000000000E+00  0.45593999997E+02  0.45594000000E+02  0.51100000000E-03 0.  1.
         11   -1    0    0    0    0 -0.00000000000E+00 -0.00000000000E+00 -0.45593999997E+02  0.45594000000E+02  0.51100000000E-03 0. -1.
    9900012    2    1    2    0    0 -0.28101364245E+02  0.29154957659E+02  0.36697376070E+01  0.50528865692E+02  0.30000017758E+02 0.  0.
        -12    1    1    2    0    0  0.28101364245E+02 -0.29154957659E+02 -0.36697376070E+01  0.40659134308E+02  0.00000000000E+00 0.  1.
         11    1    3    3    0    0 -0.16187031891E+02  0.96907217872E+01  0.12044311131E+02  0.22382929234E+02  0.51100000000E-03 0. -1.
        -11    1    3    3    0    0  0.60470225114E+00  0.86936618058E+01  0.15892514607E+01  0.88583938089E+01  0.51100000000E-03 0.  1.
        -12    1    3    3    0    0 -0.12519034604E+02  0.10770574066E+02 -0.99638249842E+01  0.19287542650E+02  0.00000000000E+00 0.  1.
</event>
<event>
 7    1  0.3449452E-011  0.5052886E+02  0.7816164E-02  0.1300439E+00
        -11   -1    0    0    0    0  0.00000000000E+00  0.00000000000E+00  0.45593999997E+02  0.45594000000E+02  0.51100000000E-03 0.  1.
         11   -1    0    0    0    0 -0.00000000000E+00 -0.00000000000E+00 -0.45593999997E+02  0.45594000000E+02  0.51100000000E-03 0. -1.
    9900012    2    1    2    0    0  0.13637802774E+02  0.30768102641E+02 -0.22814463234E+02  0.50528861577E+02  0.30000005249E+02 0.  0.
        -12    1    1    2    0    0 -0.13637802774E+02 -0.30768102641E+02  0.22814463234E+02  0.40659138423E+02  0.00000000000E+00 0.  1.
         11    1    3    3    0    0  0.60399413400E+00  0.52680876690E+01 -0.12751136140E+02  0.13809744014E+02  0.51100000000E-03 0. -1.
        -11    1    3    3    0    0 -0.48368051476E+01  0.47644903224E+01  0.15820953921E+01  0.69712321837E+01  0.51100000000E-03 0.  1.
        -12    1    3    3    0    0  0.17870613788E+02  0.20735524650E+02 -0.11645422486E+02  0.29747885379E+02  0.00000000000E+00 0.  1.
</event>
<event>
 7    1  0.3449452E-011  0.5052885E+02  0.7816164E-02  0.1300439E+00
        -11   -1    0    0    0    0  0.00000000000E+00  0.00000000000E+00  0.45593999997E+02  0.45594000000E+02  0.51100000000E-03 0.  1.
         11   -1    0    0    0    0 -0.00000000000E+00 -0.00000000000E+00 -0.45593999997E+02  0.45594000000E+02  0.51100000000E-03 0. -1.
    9900012    2    1    2    0    0  0.29875533286E+02 -0.25884894162E+02 -0.95179509611E+01  0.50528848196E+02  0.29999964578E+02 0.  0.
        -12    1    1    2    0    0 -0.29875533286E+02  0.25884894162E+02  0.95179509611E+01  0.40659151804E+02  0.00000000000E+00 0.  1.
         11    1    3    3    0    0  0.15526597906E+02 -0.26307326101E+02 -0.76060943537E+01  0.31480205220E+02  0.51100000000E-03 0. -1.
        -11    1    3    3    0    0  0.25913420792E+01 -0.38217875078E+01  0.31210248726E+01  0.55733212758E+01  0.51100000000E-03 0.  1.
         12    1    3    3    0    0  0.11757593301E+02  0.42442194470E+01 -0.50328814800E+01  0.13475321700E+02  0.00000000000E+00 0. -1.
</event>
<event>
 7    1  0.3449452E-011  0.5052886E+02  0.7816164E-02  0.1300439E+00
        -11   -1    0    0    0    0  0.00000000000E+00  0.00000000000E+00  0.45593999997E+02  0.45594000000E+02  0.51100000000E-03 0.  1.
         11   -1    0    0    0    0 -0.00000000000E+00 -0.00000000000E+00 -0.45593999997E+02  0.45594000000E+02  0.51100000000E-03 0. -1.
    9900012    2    1    2    0    0  0.21020276216E+02 -0.41773152822E+01 -0.34552334140E+02  0.50528858720E+02  0.29999996564E+02 0.  0.
        -12    1    1    2    0    0 -0.21020276216E+02  0.41773152822E+01  0.34552334140E+02  0.40659141280E+02  0.00000000000E+00 0.  1.
         11    1    3    3    0    0  0.11743040901E+02  0.56645531648E+01 -0.13960381548E+02  0.19101791157E+02  0.51100000000E-03 0. -1.
        -11    1    3    3    0    0 -0.28614399540E+01 -0.36441128058E+01 -0.16586264912E+02  0.17221253751E+02  0.51100000000E-03 0.  1.
        -12    1    3    3    0    0  0.12138675269E+02 -0.61977556412E+01 -0.40056876786E+01  0.14205813812E+02  0.00000000000E+00 0.  1.
</event>
<event>
 7    1  0.7063639E-011  0.5052886E+02  0.7816164E-02  0.1300439E+00
        -11   -1    0    0    0    0  0.00000000000E+00  0.00000000000E+00  0.45593999997E+02  0.45594000000E+02  0.51100000000E-03 0. -1.
         11   -1    0    0    0    0 -0.00000000000E+00 -0.00000000000E+00 -0.45593999997E+02  0.45594000000E+02  0.51100000000E-03 0.  1.
    9900012    2    1    2    0    0 -0.75830240134E+01  0.38274365801E+02  0.11434012940E+02  0.50528856101E+02  0.29999988606E+02 0.  0.
        -12    1    1    2    0    0  0.75830240134E+01 -0.38274365801E+02 -0.11434012940E+02  0.40659143899E+02  0.00000000000E+00 0.  1.
         11    1    3    3    0    0 -0.57992120552E+01  0.20036526370E+02  0.10718763097E+02  0.23451761811E+02  0.51100000000E-03 0. -1.
        -11    1    3    3    0    0 -0.94279362680E+01  0.16396527827E+02 -0.13055119643E+01  0.18958809794E+02  0.51100000000E-03 0.  1.
        -12    1    3    3    0    0  0.76441243098E+01  0.18413116042E+01  0.20207618068E+01  0.81182844966E+01  0.00000000000E+00 0.  1.
</event>
<event>
 7    1  0.3449452E-011  0.5052888E+02  0.7816164E-02  0.1300439E+00
        -11   -1    0    0    0    0  0.00000000000E+00  0.00000000000E+00  0.45593999997E+02  0.45594000000E+02  0.51100000000E-03 0.  1.
         11   -1    0    0    0    0 -0.00000000000E+00 -0.00000000000E+00 -0.45593999997E+02  0.45594000000E+02  0.51100000000E-03 0. -1.
    9900012    2    1    2    0    0 -0.28670595764E+02 -0.25312232067E+02 -0.13800430761E+02  0.50528879955E+02  0.30000061111E+02 0.  0.
        -12    1    1    2    0    0  0.28670595764E+02  0.25312232067E+02  0.13800430761E+02  0.40659120045E+02  0.00000000000E+00 0.  1.
         11    1    3    3    0    0 -0.15892320135E+02 -0.15652191372E+02 -0.72032403701E+01  0.23440213440E+02  0.51100000000E-03 0. -1.
        -11    1    3    3    0    0 -0.13298241393E+02 -0.15362406423E+02 -0.36329076874E+01  0.20640852060E+02  0.51100000000E-03 0.  1.
        -12    1    3    3    0    0  0.51996576449E+00  0.57023657280E+01 -0.29642827038E+01  0.64478144545E+01  0.00000000000E+00 0.  1.
</event>
<event>
 7    1  0.3449452E-011  0.5052886E+02  0.7816164E-02  0.1300439E+00
        -11   -1    0    0    0    0  0.00000000000E+00  0.00000000000E+00  0.45593999997E+02  0.45594000000E+02  0.51100000000E-03 0.  1.
         11   -1    0    0    0    0 -0.00000000000E+00 -0.00000000000E+00 -0.45593999997E+02  0.45594000000E+02  0.51100000000E-03 0. -1.
    9900012    2    1    2    0    0  0.44916260527E+00 -0.40550606719E+02  0.29346748322E+01  0.50528858731E+02  0.29999996599E+02 0.  0.
        -12    1    1    2    0    0 -0.44916260527E+00  0.40550606719E+02 -0.29346748322E+01  0.40659141269E+02  0.00000000000E+00 0.  1.
         11    1    3    3    0    0  0.10966667805E+02 -0.13193347543E+02  0.68859981687E+00  0.17169926968E+02  0.51100000000E-03 0. -1.
        -11    1    3    3    0    0  0.28243229767E+01 -0.42842478246E+00  0.16528625866E+01  0.33003489303E+01  0.51100000000E-03 0.  1.
        -12    1    3    3    0    0 -0.13341828176E+02 -0.26928834394E+02  0.59321242868E+00  0.30058582832E+02  0.00000000000E+00 0.  1.
</event>
<event>
 7    1  0.3449452E-011  0.5052889E+02  0.7816164E-02  0.1300439E+00
        -11   -1    0    0    0    0  0.00000000000E+00  0.00000000000E+00  0.45593999997E+02  0.45594000000E+02  0.51100000000E-03 0.  1.
         11   -1    0    0    0    0 -0.00000000000E+00 -0.00000000000E+00 -0.45593999997E+02  0.45594000000E+02  0.51100000000E-03 0. -1.
    9900012    2    1    2    0    0 -0.28992769265E+01  0.37119684591E+02 -0.16336667188E+02  0.50528886807E+02  0.30000081938E+02 0.  0.
        -12    1    1    2    0    0  0.28992769265E+01 -0.37119684591E+02  0.16336667188E+02  0.40659113193E+02  0.00000000000E+00 0.  1.
         11    1    3    3    0    0 -0.25070826605E+00 -0.23237396678E+01 -0.18398125750E+01  0.29744799967E+01  0.51100000000E-03 0. -1.
        -11    1    3    3    0    0  0.15199306902E+01  0.37874365417E+01 -0.10704220035E+02  0.11455792931E+02  0.51100000000E-03 0.  1.
         12    1    3    3    0    0 -0.41684993506E+01  0.35655987717E+02 -0.37926345775E+01  0.36098613879E+02  0.00000000000E+00 0. -1.
</event>
<event>
 7    1  0.3449452E-011  0.5052886E+02  0.7816164E-02  0.1300439E+00
        -11   -1    0    0    0    0  0.00000000000E+00  0.00000000000E+00  0.45593999997E+02  0.45594000000E+02  0.51100000000E-03 0.  1.
         11   -1    0    0    0    0 -0.00000000000E+00 -0.00000000000E+00 -0.45593999997E+02  0.45594000000E+02  0.51100000000E-03 0. -1.
    9900012    2    1    2    0    0 -0.27828310905E+02  0.21213967124E+02 -0.20705521187E+02  0.50528857158E+02  0.29999991819E+02 0.  0.
        -12    1    1    2    0    0  0.27828310905E+02 -0.21213967124E+02  0.20705521187E+02  0.40659142842E+02  0.00000000000E+00 0.  1.
         11    1    3    3    0    0 -0.15434947003E+02  0.20811104576E+02 -0.89203945572E+01  0.27402793689E+02  0.51100000000E-03 0. -1.
        -11    1    3    3    0    0 -0.72622590890E+01 -0.14091252067E+01  0.25245754523E+01  0.78166183481E+01  0.51100000000E-03 0.  1.
        -12    1    3    3    0    0 -0.51311048129E+01  0.18119877550E+01 -0.14309702082E+02  0.15309445121E+02  0.00000000000E+00 0.  1.
</event>
<event>
 7    1  0.3449452E-011  0.5052886E+02  0.7816164E-02  0.1300439E+00
        -11   -1    0    0    0    0  0.00000000000E+00  0.00000000000E+00  0.45593999997E+02  0.45594000000E+02  0.51100000000E-03 0.  1.
         11   -1    0    0    0    0 -0.00000000000E+00 -0.00000000000E+00 -0.45593999997E+02  0.45594000000E+02  0.51100000000E-03 0. -1.
    9900012    2    1    2    0    0 -0.19275234128E+02 -0.16598698692E+02 -0.31719307379E+02  0.50528856999E+02  0.29999991335E+02 0.  0.
        -12    1    1    2    0    0  0.19275234128E+02  0.16598698692E+02  0.31719307379E+02  0.40659143001E+02  0.00000000000E+00 0.  1.
         11    1    3    3    0    0  0.71375948742E+00 -0.70330039638E+01 -0.58957484411E+01  0.92050229387E+01  0.51100000000E-03 0. -1.
        -11    1    3    3    0    0 -0.24035940369E+02 -0.12218771214E+02 -0.24168136356E+02  0.36209440959E+02  0.51100000000E-03 0.  1.
         12    1    3    3    0    0  0.40469467537E+01  0.26530764859E+01 -0.16554225822E+01  0.51143931011E+01  0.00000000000E+00 0. -1.
</event>
<event>
 7    1  0.3449452E-011  0.5052885E+02  0.7816164E-02  0.1300439E+00
        -11   -1    0    0    0    0  0.00000000000E+00  0.00000000000E+00  0.45593999997E+02  0.45594000000E+02  0.51100000000E-03 0.  1.
         11   -1    0    0    0    0 -0.00000000000E+00 -0.00000000000E+00 -0.45593999997E+02  0.45594000000E+02  0.51100000000E-03 0. -1.
    9900012    2    1    2    0    0  0.14682703257E+02  0.89851743903E+01 -0.36835463361E+02  0.50528849802E+02  0.29999969459E+02 0.  0.
        -12    1    1    2    0    0 -0.14682703257E+02 -0.89851743903E+01  0.36835463361E+02  0.40659150198E+02  0.00000000000E+00 0.  1.
         11    1    3    3    0    0  0.72759393223E+01 -0.28451032052E+01 -0.29561478593E+02  0.30576378499E+02  0.51100000000E-03 0. -1.
        -11    1    3    3    0    0 -0.32042537576E+01  0.11427436836E+01 -0.49906866525E+00  0.34383389977E+01  0.51100000000E-03 0.  1.
        -12    1    3    3    0    0  0.10611017693E+02  0.10687533912E+02 -0.67749161032E+01  0.16514132305E+02  0.00000000000E+00 0.  1.
</event>
<event>
 7    1  0.3449452E-011  0.5052886E+02  0.7816164E-02  0.1300439E+00
        -11   -1    0    0    0    0  0.00000000000E+00  0.00000000000E+00  0.45593999997E+02  0.45594000000E+02  0.51100000000E-03 0.  1.
         11   -1    0    0    0    0 -0.00000000000E+00 -0.00000000000E+00 -0.45593999997E+02  0.45594000000E+02  0.51100000000E-03 0. -1.
    9900012    2    1    2    0    0  0.22689944255E+02 -0.33710111277E+02  0.14002618606E+01  0.50528857044E+02  0.29999991472E+02 0.  0.
        -12    1    1    2    0    0 -0.22689944255E+02  0.33710111277E+02 -0.14002618606E+01  0.40659142956E+02  0.00000000000E+00 0.  1.
         11    1    3    3    0    0 -0.65114569912E+01 -0.43911208427E+01 -0.38173026822E+01  0.87322857507E+01  0.51100000000E-03 0.  1.
        -11    1    3    3    0    0  0.78443209909E+01 -0.94304003706E+01  0.21317494548E+01  0.12450308388E+02  0.51100000000E-03 0. -1.
        -12    1    3    3    0    0  0.21357080255E+02 -0.19888590064E+02  0.30858150880E+01  0.29346262905E+02  0.00000000000E+00 0.  1.
</event>
<event>
 7    1  0.3449452E-011  0.5052887E+02  0.7816164E-02  0.1300439E+00
        -11   -1    0    0    0    0  0.00000000000E+00  0.00000000000E+00  0.45593999997E+02  0.45594000000E+02  0.51100000000E-03 0.  1.
         11   -1    0    0    0    0 -0.00000000000E+00 -0.00000000000E+00 -0.45593999997E+02  0.45594000000E+02  0.51100000000E-03 0. -1.
    9900012    2    1    2    0    0  0.28540260555E+02  0.38329419859E+00 -0.28956371122E+02  0.50528870452E+02  0.30000032227E+02 0.  0.
        -12    1    1    2    0    0 -0.28540260555E+02 -0.38329419859E+00  0.28956371122E+02  0.40659129548E+02  0.00000000000E+00 0.  1.
         11    1    3    3    0    0  0.19665292901E+02 -0.34044924589E+01 -0.75310083469E+01  0.21331441601E+02  0.51100000000E-03 0. -1.
        -11    1    3    3    0    0  0.69895195868E+01 -0.63925938297E+01 -0.10697970054E+02  0.14288638965E+02  0.51100000000E-03 0.  1.
        -12    1    3    3    0    0  0.18854480670E+01  0.10180380487E+02 -0.10727392721E+02  0.14908789886E+02  0.00000000000E+00 0.  1.
</event>
<event>
 7    1  0.3449452E-011  0.5052886E+02  0.7816164E-02  0.1300439E+00
        -11   -1    0    0    0    0  0.00000000000E+00  0.00000000000E+00  0.45593999997E+02  0.45594000000E+02  0.51100000000E-03 0.  1.
         11   -1    0    0    0    0 -0.00000000000E+00 -0.00000000000E+00 -0.45593999997E+02  0.45594000000E+02  0.51100000000E-03 0. -1.
    9900012    2    1    2    0    0  0.48130816660E+01 -0.24968835001E+02 -0.31726283826E+02  0.50528861275E+02  0.30000004332E+02 0.  0.
        -12    1    1    2    0    0 -0.48130816660E+01  0.24968835001E+02  0.31726283826E+02  0.40659138725E+02  0.00000000000E+00 0.  1.
         11    1    3    3    0    0  0.13045025346E+01 -0.84028997127E+01 -0.10399193442E+02  0.13433304692E+02  0.51100000000E-03 0. -1.
        -11    1    3    3    0    0  0.14348474674E+02 -0.94019196252E+01 -0.14242716842E+02  0.22296407814E+02  0.51100000000E-03 0.  1.
         12    1    3    3    0    0 -0.10839895543E+02 -0.71640156632E+01 -0.70843735422E+01  0.14799148769E+02  0.00000000000E+00 0. -1.
</event>
<event>
 7    1  0.3449452E-011  0.5052886E+02  0.7816164E-02  0.1300439E+00
        -11   -1    0    0    0    0  0.00000000000E+00  0.00000000000E+00  0.45593999997E+02  0.45594000000E+02  0.51100000000E-03 0.  1.
         11   -1    0    0    0    0 -0.00000000000E+00 -0.00000000000E+00 -0.45593999997E+02  0.45594000000E+02  0.51100000000E-03 0. -1.
    9900012    2    1    2    0    0 -0.14777614241E+02  0.90522508222E+01 -0.36781036428E+02  0.50528858737E+02  0.29999996616E+02 0.  0.
        -12    1    1    2    0    0  0.14777614241E+02 -0.90522508222E+01  0.36781036428E+02  0.40659141263E+02  0.00000000000E+00 0.  1.
         11    1    3    3    0    0 -0.12963970033E+02 -0.85842639030E+01 -0.18917015637E+02  0.24486886013E+02  0.51100000000E-03 0. -1.
        -11    1    3    3    0    0 -0.81006075643E+00  0.34093336512E+00 -0.32810506081E+01  0.33967230300E+01  0.51100000000E-03 0.  1.
        -12    1    3    3    0    0 -0.10035834517E+01  0.17295581360E+02 -0.14582970183E+02  0.22645249693E+02  0.00000000000E+00 0.  1.
</event>
<event>
 7    1  0.3449452E-011  0.5052886E+02  0.7816164E-02  0.1300439E+00
        -11   -1    0    0    0    0  0.00000000000E+00  0.00000000000E+00  0.45593999997E+02  0.45594000000E+02  0.51100000000E-03 0. -1.
         11   -1    0    0    0    0 -0.00000000000E+00 -0.00000000000E+00 -0.45593999997E+02  0.45594000000E+02  0.51100000000E-03 0.  1.
    9900012    2    1    2    0    0 -0.29637560703E+00  0.20615211543E+02  0.35044128623E+02  0.50528859128E+02  0.29999997806E+02 0.  0.
        -12    1    1    2    0    0  0.29637560703E+00 -0.20615211543E+02 -0.35044128623E+02  0.40659140872E+02  0.00000000000E+00 0.  1.
         11    1    3    3    0    0  0.55238776770E+01  0.14665049918E+02  0.15715149917E+02  0.22193306442E+02  0.51100000000E-03 0.  1.
        -11    1    3    3    0    0 -0.16988762801E+01  0.45174357614E+01 -0.29345713480E+01  0.56484613596E+01  0.51100000000E-03 0. -1.
         12    1    3    3    0    0 -0.41213770039E+01  0.14327258638E+01  0.22263550055E+02  0.22687091326E+02  0.00000000000E+00 0. -1.
</event>
<event>
 7    1  0.3449452E-011  0.5052885E+02  0.7816164E-02  0.1300439E+00
        -11   -1    0    0    0    0  0.00000000000E+00  0.00000000000E+00  0.45593999997E+02  0.45594000000E+02  0.51100000000E-03 0. -1.
         11   -1    0    0    0    0 -0.00000000000E+00 -0.00000000000E+00 -0.45593999997E+02  0.45594000000E+02  0.51100000000E-03 0.  1.
    9900012    2    1    2    0    0 -0.13189666379E+02  0.25318087400E+02  0.28951567003E+02  0.50528854895E+02  0.29999984938E+02 0.  0.
        -12    1    1    2    0    0  0.13189666379E+02 -0.25318087400E+02 -0.28951567003E+02  0.40659145105E+02  0.00000000000E+00 0.  1.
         11    1    3    3    0    0 -0.11109148104E+02  0.26584502366E+02  0.20292434767E+02  0.35241053427E+02  0.51100000000E-03 0. -1.
        -11    1    3    3    0    0  0.27373087033E+01  0.43368060847E+01  0.27064700879E+01  0.57987693998E+01  0.51100000000E-03 0.  1.
         12    1    3    3    0    0 -0.48178269792E+01 -0.56032210505E+01  0.59526621473E+01  0.94890320677E+01  0.00000000000E+00 0. -1.
</event>
<event>
 7    1  0.3449452E-011  0.5052885E+02  0.7816164E-02  0.1300439E+00
        -11   -1    0    0    0    0  0.00000000000E+00  0.00000000000E+00  0.45593999997E+02  0.45594000000E+02  0.51100000000E-03 0. -1.
         11   -1    0    0    0    0 -0.00000000000E+00 -0.00000000000E+00 -0.45593999997E+02  0.45594000000E+02  0.51100000000E-03 0.  1.
    9900012    2    1    2    0    0  0.21637965315E+02  0.33584317141E+02  0.75537076204E+01  0.50528850973E+02  0.29999973017E+02 0.  0.
        -12    1    1    2    0    0 -0.21637965315E+02 -0.33584317141E+02 -0.75537076204E+01  0.40659149027E+02  0.00000000000E+00 0.  1.
         11    1    3    3    0    0  0.10893919742E+02  0.28601339557E+01  0.89921347377E+01  0.14412367640E+02  0.51100000000E-03 0. -1.
        -11    1    3    3    0    0 -0.17423577140E+01  0.10550254016E+02 -0.55337096770E+01  0.12040166662E+02  0.51100000000E-03 0.  1.
         12    1    3    3    0    0  0.12486403287E+02  0.20173929170E+02  0.40952825597E+01  0.24076316671E+02  0.00000000000E+00 0. -1.
</event>
<event>
 7    1  0.3449452E-011  0.5052885E+02  0.7816164E-02  0.1300439E+00
        -11   -1    0    0    0    0  0.00000000000E+00  0.00000000000E+00  0.45593999997E+02  0.45594000000E+02  0.51100000000E-03 0. -1.
         11   -1    0    0    0    0 -0.00000000000E+00 -0.00000000000E+00 -0.45593999997E+02  0.45594000000E+02  0.51100000000E-03 0.  1.
    9900012    2    1    2    0    0 -0.29689676629E+02 -0.22293959858E+02  0.16573149239E+02  0.50528845801E+02  0.29999957296E+02 0.  0.
        -12    1    1    2    0    0  0.29689676629E+02  0.22293959858E+02 -0.16573149239E+02  0.40659154199E+02  0.00000000000E+00 0.  1.
         11    1    3    3    0    0 -0.77603010503E+01  0.57430350469E+01  0.23198546469E+01  0.99290709427E+01  0.51100000000E-03 0.  1.
        -11    1    3    3    0    0 -0.12474498332E+02 -0.15429744076E+02  0.14922535063E+02  0.24826843614E+02  0.51100000000E-03 0. -1.
        -12    1    3    3    0    0 -0.94548772468E+01 -0.12607250830E+02 -0.66924047037E+00  0.15772931244E+02  0.00000000000E+00 0.  1.
</event>
<event>
 7    1  0.3449452E-011  0.5052886E+02  0.7816164E-02  0.1300439E+00
        -11   -1    0    0    0    0  0.00000000000E+00  0.00000000000E+00  0.45593999997E+02  0.45594000000E+02  0.51100000000E-03 0. -1.
         11   -1    0    0    0    0 -0.00000000000E+00 -0.00000000000E+00 -0.45593999997E+02  0.45594000000E+02  0.51100000000E-03 0.  1.
    9900012    2    1    2    0    0  0.32253830668E+02  0.23135873327E+02 -0.88083589839E+01  0.50528863076E+02  0.30000009807E+02 0.  0.
        -12    1    1    2    0    0 -0.32253830668E+02 -0.23135873327E+02  0.88083589839E+01  0.40659136924E+02  0.00000000000E+00 0.  1.
         11    1    3    3    0    0  0.32236066934E+02  0.22767181848E+02 -0.64921872656E+01  0.39995713226E+02  0.51100000000E-03 0. -1.
        -11    1    3    3    0    0  0.17701868324E+01 -0.35987726782E+01  0.19411134080E+01  0.44556310142E+01  0.51100000000E-03 0.  1.
        -12    1    3    3    0    0 -0.17524230987E+01  0.39674641576E+01 -0.42572851263E+01  0.60775188363E+01  0.00000000000E+00 0.  1.
</event>
<event>
 7    1  0.3449452E-011  0.5052886E+02  0.7816164E-02  0.1300439E+00
        -11   -1    0    0    0    0  0.00000000000E+00  0.00000000000E+00  0.45593999997E+02  0.45594000000E+02  0.51100000000E-03 0.  1.
         11   -1    0    0    0    0 -0.00000000000E+00 -0.00000000000E+00 -0.45593999997E+02  0.45594000000E+02  0.51100000000E-03 0. -1.
    9900012    2    1    2    0    0 -0.19573645551E+01 -0.29353356718E+02 -0.28066258429E+02  0.50528859714E+02  0.29999999586E+02 0.  0.
        -12    1    1    2    0    0  0.19573645551E+01  0.29353356718E+02  0.28066258429E+02  0.40659140286E+02  0.00000000000E+00 0.  1.
         11    1    3    3    0    0 -0.63945886349E+01 -0.11618697505E+02 -0.15194829064E+02  0.20168483484E+02  0.51100000000E-03 0. -1.
        -11    1    3    3    0    0  0.76519652421E+00 -0.21903085077E+02 -0.97383393741E+01  0.23982616948E+02  0.51100000000E-03 0.  1.
         12    1    3    3    0    0  0.36720275556E+01  0.41684258648E+01 -0.31330899915E+01  0.63777592817E+01  0.00000000000E+00 0. -1.
</event>
<event>
 7    1  0.3449452E-011  0.5052887E+02  0.7816164E-02  0.1300439E+00
        -11   -1    0    0    0    0  0.00000000000E+00  0.00000000000E+00  0.45593999997E+02  0.45594000000E+02  0.51100000000E-03 0.  1.
         11   -1    0    0    0    0 -0.00000000000E+00 -0.00000000000E+00 -0.45593999997E+02  0.45594000000E+02  0.51100000000E-03 0. -1.
    9900012    2    1    2    0    0 -0.18783000854E+02 -0.31308492841E+02 -0.17892523187E+02  0.50528865343E+02  0.30000016697E+02 0.  0.
        -12    1    1    2    0    0  0.18783000854E+02  0.31308492841E+02  0.17892523187E+02  0.40659134657E+02  0.00000000000E+00 0.  1.
         11    1    3    3    0    0 -0.10029548012E+02 -0.24420832519E+02 -0.14008304288E+02  0.29886476600E+02  0.51100000000E-03 0. -1.
        -11    1    3    3    0    0 -0.64533867870E+01  0.96443475259E+00 -0.89072460735E+01  0.11041529255E+02  0.51100000000E-03 0.  1.
        -12    1    3    3    0    0 -0.23000660555E+01 -0.78520950744E+01  0.50230271748E+01  0.96008594883E+01  0.00000000000E+00 0.  1.
</event>
<event>
 7    1  0.3449452E-011  0.5052887E+02  0.7816164E-02  0.1300439E+00
        -11   -1    0    0    0    0  0.00000000000E+00  0.00000000000E+00  0.45593999997E+02  0.45594000000E+02  0.51100000000E-03 0.  1.
         11   -1    0    0    0    0 -0.00000000000E+00 -0.00000000000E+00 -0.45593999997E+02  0.45594000000E+02  0.51100000000E-03 0. -1.
    9900012    2    1    2    0    0 -0.36555854139E+02 -0.16353373848E+02 -0.70286284759E+01  0.50528869091E+02  0.30000028088E+02 0.  0.
        -12    1    1    2    0    0  0.36555854139E+02  0.16353373848E+02  0.70286284759E+01  0.40659130909E+02  0.00000000000E+00 0.  1.
         11    1    3    3    0    0 -0.11785624868E+02 -0.30087551432E+01 -0.23523834733E+01  0.12388997914E+02  0.51100000000E-03 0. -1.
        -11    1    3    3    0    0 -0.10417564088E+02 -0.10128827142E+02 -0.14440578645E+02  0.20485338481E+02  0.51100000000E-03 0.  1.
        -12    1    3    3    0    0 -0.14352665183E+02 -0.32157915625E+01  0.97643336426E+01  0.17654532696E+02  0.00000000000E+00 0.  1.
</event>
<event>
 7    1  0.3449452E-011  0.5052887E+02  0.7816164E-02  0.1300439E+00
        -11   -1    0    0    0    0  0.00000000000E+00  0.00000000000E+00  0.45593999997E+02  0.45594000000E+02  0.51100000000E-03 0.  1.
         11   -1    0    0    0    0 -0.00000000000E+00 -0.00000000000E+00 -0.45593999997E+02  0.45594000000E+02  0.51100000000E-03 0. -1.
    9900012    2    1    2    0    0 -0.40576824995E+02 -0.25676344682E+01 -0.30577996250E+00  0.50528868494E+02  0.30000026276E+02 0.  0.
        -12    1    1    2    0    0  0.40576824995E+02  0.25676344682E+01  0.30577996250E+00  0.40659131506E+02  0.00000000000E+00 0.  1.
         11    1    3    3    0    0 -0.18185917939E+01  0.19759007410E+01 -0.75372803182E+01  0.80013783004E+01  0.51100000000E-03 0. -1.
        -11    1    3    3    0    0 -0.58643534989E+01  0.48902636045E+01  0.21469190731E+01  0.79318712703E+01  0.51100000000E-03 0.  1.
         12    1    3    3    0    0 -0.32893879702E+02 -0.94337988137E+01  0.50845812825E+01  0.34595618924E+02  0.00000000000E+00 0. -1.
</event>
<event>
 7    1  0.3449452E-011  0.5052886E+02  0.7816164E-02  0.1300439E+00
        -11   -1    0    0    0    0  0.00000000000E+00  0.00000000000E+00  0.45593999997E+02  0.45594000000E+02  0.51100000000E-03 0.  1.
         11   -1    0    0    0    0 -0.00000000000E+00 -0.00000000000E+00 -0.45593999997E+02  0.45594000000E+02  0.51100000000E-03 0. -1.
    9900012    2    1    2    0    0 -0.31371831967E+02 -0.11206769824E+02 -0.23310555164E+02  0.50528861877E+02  0.30000006161E+02 0.  0.
        -12    1    1    2    0    0  0.31371831967E+02  0.11206769824E+02  0.23310555164E+02  0.40659138123E+02  0.00000000000E+00 0.  1.
         11    1    3    3    0    0 -0.26761590884E+02 -0.15617959877E+02 -0.22444700717E+02  0.38260528066E+02  0.51100000000E-03 0. -1.
        -11    1    3    3    0    0 -0.63065478511E+01  0.32986697041E+01  0.31392940236E+01  0.77787489253E+01  0.51100000000E-03 0.  1.
        -12    1    3    3    0    0  0.16963067676E+01  0.11125203488E+01 -0.40051484707E+01  0.44895848860E+01  0.00000000000E+00 0.  1.
</event>
<event>
 7    1  0.3449452E-011  0.5052886E+02  0.7816164E-02  0.1300439E+00
        -11   -1    0    0    0    0  0.00000000000E+00  0.00000000000E+00  0.45593999997E+02  0.45594000000E+02  0.51100000000E-03 0.  1.
         11   -1    0    0    0    0 -0.00000000000E+00 -0.00000000000E+00 -0.45593999997E+02  0.45594000000E+02  0.51100000000E-03 0. -1.
    9900012    2    1    2    0    0  0.27003896385E+02 -0.29004920293E+02 -0.90923160941E+01  0.50528855480E+02  0.29999986718E+02 0.  0.
        -12    1    1    2    0    0 -0.27003896385E+02  0.29004920293E+02  0.90923160941E+01  0.40659144520E+02  0.00000000000E+00 0.  1.
         11    1    3    3    0    0 -0.17205416308E+01 -0.49385058165E+01 -0.34212892472E+01  0.62493458519E+01  0.51100000000E-03 0. -1.
        -11    1    3    3    0    0  0.19059676739E+01  0.37161362812E+01  0.24190077753E+01  0.48263837924E+01  0.51100000000E-03 0.  1.
         12    1    3    3    0    0  0.26818470341E+02 -0.27782550757E+02 -0.80900346222E+01  0.39453125836E+02  0.00000000000E+00 0. -1.
</event>
<event>
 7    1  0.3449452E-011  0.5052885E+02  0.7816164E-02  0.1300439E+00
        -11   -1    0    0    0    0  0.00000000000E+00  0.00000000000E+00  0.45593999997E+02  0.45594000000E+02  0.51100000000E-03 0. -1.
         11   -1    0    0    0    0 -0.00000000000E+00 -0.00000000000E+00 -0.45593999997E+02  0.45594000000E+02  0.51100000000E-03 0.  1.
    9900012    2    1    2    0    0  0.14287614478E+02  0.35915403778E+02  0.12614042691E+02  0.50528853071E+02  0.29999979393E+02 0.  0.
        -12    1    1    2    0    0 -0.14287614478E+02 -0.35915403778E+02 -0.12614042691E+02  0.40659146929E+02  0.00000000000E+00 0.  1.
         11    1    3    3    0    0 -0.70458066629E+01  0.72079982042E+01  0.88732846612E+01  0.13428842489E+02  0.51100000000E-03 0.  1.
        -11    1    3    3    0    0  0.54498680589E+01  0.14680033653E+02  0.26447744074E+01  0.15880783414E+02  0.51100000000E-03 0. -1.
        -12    1    3    3    0    0  0.15883553082E+02  0.14027371921E+02  0.10959836221E+01  0.21219227168E+02  0.00000000000E+00 0.  1.
</event>
<event>
 7    1  0.3449452E-011  0.5052886E+02  0.7816164E-02  0.1300439E+00
        -11   -1    0    0    0    0  0.00000000000E+00  0.00000000000E+00  0.45593999997E+02  0.45594000000E+02  0.51100000000E-03 0.  1.
         11   -1    0    0    0    0 -0.00000000000E+00 -0.00000000000E+00 -0.45593999997E+02  0.45594000000E+02  0.51100000000E-03 0. -1.
    9900012    2    1    2    0    0  0.34912652143E+02 -0.75503254212E+01 -0.19423313049E+02  0.50528858550E+02  0.29999996049E+02 0.  0.
        -12    1    1    2    0    0 -0.34912652143E+02  0.75503254212E+01  0.19423313049E+02  0.40659141450E+02  0.00000000000E+00 0.  1.
         11    1    3    3    0    0  0.73303020998E+01 -0.57350693568E+01  0.35160459327E+01  0.99492174900E+01  0.51100000000E-03 0. -1.
        -11    1    3    3    0    0  0.15882025779E+02  0.32335036410E+01 -0.23662950293E+01  0.16379671580E+02  0.51100000000E-03 0.  1.
         12    1    3    3    0    0  0.11700324264E+02 -0.50487597054E+01 -0.20573063952E+02  0.24199969480E+02  0.00000000000E+00 0. -1.
</event>
<event>
 7    1  0.3449452E-011  0.5052886E+02  0.7816164E-02  0.1300439E+00
        -11   -1    0    0    0    0  0.00000000000E+00  0.00000000000E+00  0.45593999997E+02  0.45594000000E+02  0.51100000000E-03 0. -1.
         11   -1    0    0    0    0 -0.00000000000E+00 -0.00000000000E+00 -0.45593999997E+02  0.45594000000E+02  0.51100000000E-03 0.  1.
    9900012    2    1    2    0    0 -0.26898301532E+02 -0.16405146176E+02  0.25700552686E+02  0.50528857674E+02  0.29999993385E+02 0.  0.
        -12    1    1    2    0    0  0.26898301532E+02  0.16405146176E+02 -0.25700552686E+02  0.40659142326E+02  0.00000000000E+00 0.  1.
         11    1    3    3    0    0 -0.85503918831E+00 -0.95119152313E+01  0.65967519939E+01  0.11607099574E+02  0.51100000000E-03 0. -1.
        -11    1    3    3    0    0 -0.16922958852E+02 -0.13829073466E+02  0.89649909576E+01  0.23622042087E+02  0.51100000000E-03 0.  1.
         12    1    3    3    0    0 -0.91203034917E+01  0.69358425209E+01  0.10138809734E+02  0.15299716013E+02  0.00000000000E+00 0. -1.
</event>
<event>
 7    1  0.3449452E-011  0.5052886E+02  0.7816164E-02  0.1300439E+00
        -11   -1    0    0    0    0  0.00000000000E+00  0.00000000000E+00  0.45593999997E+02  0.45594000000E+02  0.51100000000E-03 0.  1.
         11   -1    0    0    0    0 -0.00000000000E+00 -0.00000000000E+00 -0.45593999997E+02  0.45594000000E+02  0.51100000000E-03 0. -1.
    9900012    2    1    2    0    0 -0.28688301894E+02  0.11441972918E+02 -0.26442922198E+02  0.50528861492E+02  0.30000004992E+02 0.  0.
        -12    1    1    2    0    0  0.28688301894E+02 -0.11441972918E+02  0.26442922198E+02  0.40659138508E+02  0.00000000000E+00 0.  1.
         11    1    3    3    0    0 -0.18571814861E+01 -0.55085106698E+01  0.18609000889E+01  0.61037498535E+01  0.51100000000E-03 0.  1.
        -11    1    3    3    0    0 -0.81149005383E+01  0.44949956763E+01 -0.14280466292E+01  0.93859423774E+01  0.51100000000E-03 0. -1.
        -12    1    3    3    0    0 -0.18716219870E+02  0.12455487911E+02 -0.26875775658E+02  0.35039169261E+02  0.00000000000E+00 0.  1.
</event>
<event>
 7    1  0.3449452E-011  0.5052885E+02  0.7816164E-02  0.1300439E+00
        -11   -1    0    0    0    0  0.00000000000E+00  0.00000000000E+00  0.45593999997E+02  0.45594000000E+02  0.51100000000E-03 0. -1.
         11   -1    0    0    0    0 -0.00000000000E+00 -0.00000000000E+00 -0.45593999997E+02  0.45594000000E+02  0.51100000000E-03 0.  1.
    9900012    2    1    2    0    0 -0.38796211233E+02 -0.12165516467E+02 -0.14372826464E+00  0.50528850295E+02  0.29999970957E+02 0.  0.
        -12    1    1    2    0    0  0.38796211233E+02  0.12165516467E+02  0.14372826464E+00  0.40659149705E+02  0.00000000000E+00 0.  1.
         11    1    3    3    0    0 -0.11387517103E+02 -0.78044678109E+01  0.43778267349E+01  0.14482770135E+02  0.51100000000E-03 0. -1.
        -11    1    3    3    0    0 -0.17604005010E+02 -0.85012656774E+01  0.66184206985E+01  0.20639186111E+02  0.51100000000E-03 0.  1.
        -12    1    3    3    0    0 -0.98046891195E+01  0.41402170212E+01 -0.11139975698E+02  0.15406894050E+02  0.00000000000E+00 0.  1.
</event>
<event>
 7    1  0.3449452E-011  0.5052886E+02  0.7816164E-02  0.1300439E+00
        -11   -1    0    0    0    0  0.00000000000E+00  0.00000000000E+00  0.45593999997E+02  0.45594000000E+02  0.51100000000E-03 0.  1.
         11   -1    0    0    0    0 -0.00000000000E+00 -0.00000000000E+00 -0.45593999997E+02  0.45594000000E+02  0.51100000000E-03 0. -1.
    9900012    2    1    2    0    0 -0.21664907699E+02 -0.28516440859E+02 -0.19251230149E+02  0.50528862194E+02  0.30000007125E+02 0.  0.
        -12    1    1    2    0    0  0.21664907699E+02  0.28516440859E+02  0.19251230149E+02  0.40659137806E+02  0.00000000000E+00 0.  1.
         11    1    3    3    0    0 -0.39929553552E+01 -0.22887079318E+02 -0.14632116136E+02  0.27456527731E+02  0.51100000000E-03 0. -1.
        -11    1    3    3    0    0  0.40077660782E+00 -0.31546216082E+01 -0.35987765753E+01  0.48024423453E+01  0.51100000000E-03 0.  1.
        -12    1    3    3    0    0 -0.18072728952E+02 -0.24747399333E+01 -0.10203374374E+01  0.18269892118E+02  0.00000000000E+00 0.  1.
</event>
<event>
 7    1  0.3449452E-011  0.5052886E+02  0.7816164E-02  0.1300439E+00
        -11   -1    0    0    0    0  0.00000000000E+00  0.00000000000E+00  0.45593999997E+02  0.45594000000E+02  0.51100000000E-03 0.  1.
         11   -1    0    0    0    0 -0.00000000000E+00 -0.00000000000E+00 -0.45593999997E+02  0.45594000000E+02  0.51100000000E-03 0. -1.
    9900012    2    1    2    0    0  0.34832293217E+02 -0.12673092571E+02 -0.16711369539E+02  0.50528858372E+02  0.29999995507E+02 0.  0.
        -12    1    1    2    0    0 -0.34832293217E+02  0.12673092571E+02  0.16711369539E+02  0.40659141628E+02  0.00000000000E+00 0.  1.
         11    1    3    3    0    0  0.30432110727E+02 -0.10850567668E+02 -0.10351789097E+02  0.33926504679E+02  0.51100000000E-03 0. -1.
        -11    1    3    3    0    0  0.54026378945E+01 -0.48521387077E+01  0.21013834328E+01  0.75596004426E+01  0.51100000000E-03 0.  1.
         12    1    3    3    0    0 -0.10024554043E+01  0.30296138044E+01 -0.84609638750E+01  0.90427532497E+01  0.00000000000E+00 0. -1.
</event>
<event>
 7    1  0.3449452E-011  0.5052886E+02  0.7816164E-02  0.1300439E+00
        -11   -1    0    0    0    0  0.00000000000E+00  0.00000000000E+00  0.45593999997E+02  0.45594000000E+02  0.51100000000E-03 0.  1.
         11   -1    0    0    0    0 -0.00000000000E+00 -0.00000000000E+00 -0.45593999997E+02  0.45594000000E+02  0.51100000000E-03 0. -1.
    9900012    2    1    2    0    0  0.14815438619E+02 -0.12234132059E+02 -0.35832866733E+02  0.50528861458E+02  0.30000004888E+02 0.  0.
        -12    1    1    2    0    0 -0.14815438619E+02  0.12234132059E+02  0.35832866733E+02  0.40659138542E+02  0.00000000000E+00 0.  1.
         11    1    3    3    0    0 -0.30727559224E+01 -0.23297488056E+01 -0.21167980963E+01  0.43989081483E+01  0.51100000000E-03 0. -1.
        -11    1    3    3    0    0 -0.30077480875E+01  0.33221580472E+01 -0.21077939859E+00  0.44863917422E+01  0.51100000000E-03 0.  1.
        -12    1    3    3    0    0  0.20895942629E+02 -0.13226541300E+02 -0.33505289238E+02  0.41643561567E+02  0.00000000000E+00 0.  1.
</event>
<event>
 7    1  0.3449452E-011  0.5052886E+02  0.7816164E-02  0.1300439E+00
        -11   -1    0    0    0    0  0.00000000000E+00  0.00000000000E+00  0.45593999997E+02  0.45594000000E+02  0.51100000000E-03 0.  1.
         11   -1    0    0    0    0 -0.00000000000E+00 -0.00000000000E+00 -0.45593999997E+02  0.45594000000E+02  0.51100000000E-03 0. -1.
    9900012    2    1    2    0    0  0.18793278912E+02  0.22859071965E+02 -0.27882630630E+02  0.50528860877E+02  0.30000003122E+02 0.  0.
        -12    1    1    2    0    0 -0.18793278912E+02 -0.22859071965E+02  0.27882630630E+02  0.40659139123E+02  0.00000000000E+00 0.  1.
         11    1    3    3    0    0  0.45378483348E+01  0.38216528955E+01 -0.43420723312E+01  0.73519174882E+01  0.51100000000E-03 0. -1.
        -11    1    3    3    0    0  0.19633077377E+02  0.49077699760E+01 -0.17972625706E+02  0.27065831013E+02  0.51100000000E-03 0.  1.
        -12    1    3    3    0    0 -0.53776468000E+01  0.14129649094E+02 -0.55679325935E+01  0.16111112376E+02  0.00000000000E+00 0.  1.
</event>
<event>
 7    1  0.3449452E-011  0.5052888E+02  0.7816164E-02  0.1300439E+00
        -11   -1    0    0    0    0  0.00000000000E+00  0.00000000000E+00  0.45593999997E+02  0.45594000000E+02  0.51100000000E-03 0.  1.
         11   -1    0    0    0    0 -0.00000000000E+00 -0.00000000000E+00 -0.45593999997E+02  0.45594000000E+02  0.51100000000E-03 0. -1.
    9900012    2    1    2    0    0  0.38939611122E+01  0.36350322599E+02 -0.17794818168E+02  0.50528875073E+02  0.30000046273E+02 0.  0.
        -12    1    1    2    0    0 -0.38939611122E+01 -0.36350322599E+02  0.17794818168E+02  0.40659124927E+02  0.00000000000E+00 0.  1.
         11    1    3    3    0    0  0.32742013324E+01 -0.16808159453E+01 -0.77319766780E+01  0.85632353826E+01  0.51100000000E-03 0.  1.
        -11    1    3    3    0    0 -0.48733700683E+01  0.49903464301E+01  0.58708316256E-01  0.69754383548E+01  0.51100000000E-03 0. -1.
         12    1    3    3    0    0  0.54931298481E+01  0.33040792114E+02 -0.10121549806E+02  0.34990201336E+02  0.00000000000E+00 0. -1.
</event>
<event>
 7    1  0.3449452E-011  0.5052886E+02  0.7816164E-02  0.1300439E+00
        -11   -1    0    0    0    0  0.00000000000E+00  0.00000000000E+00  0.45593999997E+02  0.45594000000E+02  0.51100000000E-03 0. -1.
         11   -1    0    0    0    0 -0.00000000000E+00 -0.00000000000E+00 -0.45593999997E+02  0.45594000000E+02  0.51100000000E-03 0.  1.
    9900012    2    1    2    0    0  0.37347274984E+02  0.69647182411E+01  0.14485822914E+02  0.50528864318E+02  0.30000013580E+02 0.  0.
        -12    1    1    2    0    0 -0.37347274984E+02 -0.69647182411E+01 -0.14485822914E+02  0.40659135682E+02  0.00000000000E+00 0.  1.
         11    1    3    3    0    0  0.14584597826E+02  0.13787092208E+02  0.86720922078E+01  0.21863201705E+02  0.51100000000E-03 0. -1.
        -11    1    3    3    0    0  0.15543889686E+02  0.14594206427E+01 -0.11560887905E+01  0.15654997820E+02  0.51100000000E-03 0.  1.
        -12    1    3    3    0    0  0.72187874726E+01 -0.82817946097E+01  0.69698194966E+01  0.13010664793E+02  0.00000000000E+00 0.  1.
</event>
<event>
 7    1  0.3449452E-011  0.5052887E+02  0.7816164E-02  0.1300439E+00
        -11   -1    0    0    0    0  0.00000000000E+00  0.00000000000E+00  0.45593999997E+02  0.45594000000E+02  0.51100000000E-03 0.  1.
         11   -1    0    0    0    0 -0.00000000000E+00 -0.00000000000E+00 -0.45593999997E+02  0.45594000000E+02  0.51100000000E-03 0. -1.
    9900012    2    1    2    0    0  0.25595000208E+02  0.28449688125E+02 -0.13735952438E+02  0.50528865978E+02  0.30000018626E+02 0.  0.
        -12    1    1    2    0    0 -0.25595000208E+02 -0.28449688125E+02  0.13735952438E+02  0.40659134022E+02  0.00000000000E+00 0.  1.
         11    1    3    3    0    0  0.99205618623E+01  0.17573753838E+02 -0.49556476604E+01  0.20780106247E+02  0.51100000000E-03 0. -1.
        -11    1    3    3    0    0  0.79698415133E+01  0.80517091455E+01  0.60174681336E+01  0.12828028567E+02  0.51100000000E-03 0.  1.
        -12    1    3    3    0    0  0.77045968328E+01  0.28242251414E+01 -0.14797772911E+02  0.16920731164E+02  0.00000000000E+00 0.  1.
</event>
<event>
 7    1  0.3449452E-011  0.5052881E+02  0.7816164E-02  0.1300439E+00
        -11   -1    0    0    0    0  0.00000000000E+00  0.00000000000E+00  0.45593999997E+02  0.45594000000E+02  0.51100000000E-03 0.  1.
         11   -1    0    0    0    0 -0.00000000000E+00 -0.00000000000E+00 -0.45593999997E+02  0.45594000000E+02  0.51100000000E-03 0. -1.
    9900012    2    1    2    0    0 -0.30481581912E+02 -0.25624798993E+02 -0.82105032983E+01  0.50528812555E+02  0.29999856241E+02 0.  0.
        -12    1    1    2    0    0  0.30481581912E+02  0.25624798993E+02  0.82105032983E+01  0.40659187445E+02  0.00000000000E+00 0.  1.
         11    1    3    3    0    0 -0.12534171645E+02 -0.35249148869E+01 -0.76011825890E+01  0.15076752329E+02  0.51100000000E-03 0. -1.
        -11    1    3    3    0    0 -0.17750015967E+01  0.26538674628E+01  0.44265226560E+01  0.54578151547E+01  0.51100000000E-03 0.  1.
        -12    1    3    3    0    0 -0.16172408671E+02 -0.24753751569E+02 -0.50358433652E+01  0.29994245071E+02  0.00000000000E+00 0.  1.
</event>
<event>
 7    1  0.3449452E-011  0.5052886E+02  0.7816164E-02  0.1300439E+00
        -11   -1    0    0    0    0  0.00000000000E+00  0.00000000000E+00  0.45593999997E+02  0.45594000000E+02  0.51100000000E-03 0.  1.
         11   -1    0    0    0    0 -0.00000000000E+00 -0.00000000000E+00 -0.45593999997E+02  0.45594000000E+02  0.51100000000E-03 0. -1.
    9900012    2    1    2    0    0  0.36951342726E+02 -0.16149568439E+02 -0.51918655629E+01  0.50528858862E+02  0.29999996997E+02 0.  0.
        -12    1    1    2    0    0 -0.36951342726E+02  0.16149568439E+02  0.51918655629E+01  0.40659141138E+02  0.00000000000E+00 0.  1.
         11    1    3    3    0    0  0.19834577552E+02 -0.11076732913E+02  0.76909129403E+00  0.22730947635E+02  0.51100000000E-03 0. -1.
        -11    1    3    3    0    0  0.76931011780E+01 -0.12293201364E+02 -0.65477936588E+01  0.15911637489E+02  0.51100000000E-03 0.  1.
         12    1    3    3    0    0  0.94236639965E+01  0.72203658381E+01  0.58683680189E+00  0.11886273739E+02  0.00000000000E+00 0. -1.
</event>
<event>
 7    1  0.3449452E-011  0.5052886E+02  0.7816164E-02  0.1300439E+00
        -11   -1    0    0    0    0  0.00000000000E+00  0.00000000000E+00  0.45593999997E+02  0.45594000000E+02  0.51100000000E-03 0. -1.
         11   -1    0    0    0    0 -0.00000000000E+00 -0.00000000000E+00 -0.45593999997E+02  0.45594000000E+02  0.51100000000E-03 0.  1.
    9900012    2    1    2    0    0  0.58620752780E+00  0.36860464786E+02  0.17150164363E+02  0.50528860299E+02  0.30000001365E+02 0.  0.
        -12    1    1    2    0    0 -0.58620752780E+00 -0.36860464786E+02 -0.17150164363E+02  0.40659139701E+02  0.00000000000E+00 0.  1.
         11    1    3    3    0    0 -0.24381736104E+01 -0.20674135983E+00  0.49523553206E+01  0.55238805225E+01  0.51100000000E-03 0. -1.
        -11    1    3    3    0    0  0.62300216183E+01  0.13542227682E+02  0.14940067051E+02  0.21104755476E+02  0.51100000000E-03 0.  1.
        -12    1    3    3    0    0 -0.32056404801E+01  0.23524978464E+02 -0.27422580085E+01  0.23900224300E+02  0.00000000000E+00 0.  1.
</event>
<event>
 7    1  0.3449452E-011  0.5052886E+02  0.7816164E-02  0.1300439E+00
        -11   -1    0    0    0    0  0.00000000000E+00  0.00000000000E+00  0.45593999997E+02  0.45594000000E+02  0.51100000000E-03 0. -1.
         11   -1    0    0    0    0 -0.00000000000E+00 -0.00000000000E+00 -0.45593999997E+02  0.45594000000E+02  0.51100000000E-03 0.  1.
    9900012    2    1    2    0    0 -0.33321422583E+02  0.12399971110E+02  0.19725350565E+02  0.50528856607E+02  0.29999990144E+02 0.  0.
        -12    1    1    2    0    0  0.33321422583E+02 -0.12399971110E+02 -0.19725350565E+02  0.40659143393E+02  0.00000000000E+00 0.  1.
         11    1    3    3    0    0 -0.20815243346E+02  0.14995205699E+02  0.86386124984E+01  0.27069469438E+02  0.51100000000E-03 0. -1.
        -11    1    3    3    0    0  0.18781780590E+01  0.42101427250E+01  0.37207598719E+01  0.59242644161E+01  0.51100000000E-03 0.  1.
         12    1    3    3    0    0 -0.14384357296E+02 -0.68053773138E+01  0.73659781946E+01  0.17535122753E+02  0.00000000000E+00 0. -1.
</event>
<event>
 7    1  0.3449452E-011  0.5052887E+02  0.7816164E-02  0.1300439E+00
        -11   -1    0    0    0    0  0.00000000000E+00  0.00000000000E+00  0.45593999997E+02  0.45594000000E+02  0.51100000000E-03 0.  1.
         11   -1    0    0    0    0 -0.00000000000E+00 -0.00000000000E+00 -0.45593999997E+02  0.45594000000E+02  0.51100000000E-03 0. -1.
    9900012    2    1    2    0    0 -0.26775980147E+02  0.27692375627E+02 -0.13013230787E+02  0.50528868722E+02  0.30000026969E+02 0.  0.
        -12    1    1    2    0    0  0.26775980147E+02 -0.27692375627E+02  0.13013230787E+02  0.40659131278E+02  0.00000000000E+00 0.  1.
         11    1    3    3    0    0 -0.85382337816E+01  0.21919372888E+02 -0.80360954728E+01  0.24858382381E+02  0.51100000000E-03 0. -1.
        -11    1    3    3    0    0 -0.71320424296E+01  0.85279763705E+01  0.32441815161E+01  0.11580894791E+02  0.51100000000E-03 0.  1.
         12    1    3    3    0    0 -0.11105703936E+02 -0.27549736311E+01 -0.82213168300E+01  0.14089591550E+02  0.00000000000E+00 0. -1.
</event>
<event>
 7    1  0.3449452E-011  0.5052886E+02  0.7816164E-02  0.1300439E+00
        -11   -1    0    0    0    0  0.00000000000E+00  0.00000000000E+00  0.45593999997E+02  0.45594000000E+02  0.51100000000E-03 0.  1.
         11   -1    0    0    0    0 -0.00000000000E+00 -0.00000000000E+00 -0.45593999997E+02  0.45594000000E+02  0.51100000000E-03 0. -1.
    9900012    2    1    2    0    0  0.43067289968E+01 -0.23304654030E+02 -0.33038020758E+02  0.50528860441E+02  0.30000001795E+02 0.  0.
        -12    1    1    2    0    0 -0.43067289968E+01  0.23304654030E+02  0.33038020758E+02  0.40659139559E+02  0.00000000000E+00 0.  1.
         11    1    3    3    0    0  0.53345241435E+01 -0.12844971378E+02 -0.50322215591E+01  0.14791000359E+02  0.51100000000E-03 0. -1.
        -11    1    3    3    0    0 -0.29240547416E+01  0.48906648844E+01 -0.32852167623E+01  0.65773359789E+01  0.51100000000E-03 0.  1.
         12    1    3    3    0    0  0.18962595949E+01 -0.15350347536E+02 -0.24720582437E+02  0.29160524103E+02  0.00000000000E+00 0. -1.
</event>
<event>
 7    1  0.3449452E-011  0.5052886E+02  0.7816164E-02  0.1300439E+00
        -11   -1    0    0    0    0  0.00000000000E+00  0.00000000000E+00  0.45593999997E+02  0.45594000000E+02  0.51100000000E-03 0.  1.
         11   -1    0    0    0    0 -0.00000000000E+00 -0.00000000000E+00 -0.45593999997E+02  0.45594000000E+02  0.51100000000E-03 0. -1.
    9900012    2    1    2    0    0 -0.73503046467E-01 -0.10971466741E+01 -0.40644266284E+02  0.50528861848E+02  0.30000006073E+02 0.  0.
        -12    1    1    2    0    0  0.73503046467E-01  0.10971466741E+01  0.40644266284E+02  0.40659138152E+02  0.00000000000E+00 0.  1.
         11    1    3    3    0    0  0.56039117948E+01  0.47380195678E+01 -0.12828653658E+02  0.14779276429E+02  0.51100000000E-03 0. -1.
        -11    1    3    3    0    0  0.49179219012E+01 -0.85991112725E+01 -0.66861334777E+01  0.11951361916E+02  0.51100000000E-03 0.  1.
         12    1    3    3    0    0 -0.10595336742E+02  0.27639450306E+01 -0.21129479148E+02  0.23798223503E+02  0.00000000000E+00 0. -1.
</event>
<event>
 7    1  0.3449452E-011  0.5052887E+02  0.7816164E-02  0.1300439E+00
        -11   -1    0    0    0    0  0.00000000000E+00  0.00000000000E+00  0.45593999997E+02  0.45594000000E+02  0.51100000000E-03 0.  1.
         11   -1    0    0    0    0 -0.00000000000E+00 -0.00000000000E+00 -0.45593999997E+02  0.45594000000E+02  0.51100000000E-03 0. -1.
    9900012    2    1    2    0    0 -0.96242412606E+01 -0.65675031564E+00 -0.39498195249E+02  0.50528871028E+02  0.30000033976E+02 0.  0.
        -12    1    1    2    0    0  0.96242412606E+01  0.65675031564E+00  0.39498195249E+02  0.40659128972E+02  0.00000000000E+00 0.  1.
         11    1    3    3    0    0 -0.31105596645E+01 -0.42210813669E+01 -0.21390420564E+01  0.56629153722E+01  0.51100000000E-03 0. -1.
        -11    1    3    3    0    0 -0.98348863259E+00  0.81524340071E+01 -0.15671159867E+01  0.83597417967E+01  0.51100000000E-03 0.  1.
         12    1    3    3    0    0 -0.55301929635E+01 -0.45881029559E+01 -0.35792037206E+02  0.36506213859E+02  0.00000000000E+00 0. -1.
</event>
<event>
 7    1  0.3449452E-011  0.5052875E+02  0.7816164E-02  0.1300439E+00
        -11   -1    0    0    0    0  0.00000000000E+00  0.00000000000E+00  0.45593999997E+02  0.45594000000E+02  0.51100000000E-03 0.  1.
         11   -1    0    0    0    0 -0.00000000000E+00 -0.00000000000E+00 -0.45593999997E+02  0.45594000000E+02  0.51100000000E-03 0. -1.
    9900012    2    1    2    0    0  0.22891124757E+02 -0.29894876510E+02 -0.15344952515E+02  0.50528747647E+02  0.29999658946E+02 0.  0.
        -12    1    1    2    0    0 -0.22891124757E+02  0.29894876510E+02  0.15344952515E+02  0.40659252353E+02  0.00000000000E+00 0.  1.
         11    1    3    3    0    0  0.63675550777E+01 -0.16742412864E+02 -0.92942042518E+01  0.20180098590E+02  0.51100000000E-03 0. -1.
        -11    1    3    3    0    0 -0.39920693575E+01 -0.67083395643E+01  0.62781778517E+00  0.78315128102E+01  0.51100000000E-03 0.  1.
        -12    1    3    3    0    0  0.20515639037E+02 -0.64441240825E+01 -0.66785660484E+01  0.22517136247E+02  0.00000000000E+00 0.  1.
</event>
<event>
 7    1  0.3449452E-011  0.5052886E+02  0.7816164E-02  0.1300439E+00
        -11   -1    0    0    0    0  0.00000000000E+00  0.00000000000E+00  0.45593999997E+02  0.45594000000E+02  0.51100000000E-03 0.  1.
         11   -1    0    0    0    0 -0.00000000000E+00 -0.00000000000E+00 -0.45593999997E+02  0.45594000000E+02  0.51100000000E-03 0. -1.
    9900012    2    1    2    0    0  0.10462770436E+02 -0.30564579872E+02 -0.24688099457E+02  0.50528863724E+02  0.30000011775E+02 0.  0.
        -12    1    1    2    0    0 -0.10462770436E+02  0.30564579872E+02  0.24688099457E+02  0.40659136276E+02  0.00000000000E+00 0.  1.
         11    1    3    3    0    0  0.12896822451E+02 -0.62390840066E+01 -0.16767551822E+02  0.22054591199E+02  0.51100000000E-03 0. -1.
        -11    1    3    3    0    0 -0.12048840581E+01 -0.97103819777E+01 -0.96048363593E+01  0.13711168641E+02  0.51100000000E-03 0.  1.
         12    1    3    3    0    0 -0.12291679566E+01 -0.14615113887E+02  0.16842887245E+01  0.14763103885E+02  0.00000000000E+00 0. -1.
</event>
<event>
 7    1  0.3449452E-011  0.5052886E+02  0.7816164E-02  0.1300439E+00
        -11   -1    0    0    0    0  0.00000000000E+00  0.00000000000E+00  0.45593999997E+02  0.45594000000E+02  0.51100000000E-03 0.  1.
         11   -1    0    0    0    0 -0.00000000000E+00 -0.00000000000E+00 -0.45593999997E+02  0.45594000000E+02  0.51100000000E-03 0. -1.
    9900012    2    1    2    0    0 -0.51209828710E+01  0.22931179531E+02 -0.33182862778E+02  0.50528857825E+02  0.29999993846E+02 0.  0.
        -12    1    1    2    0    0  0.51209828710E+01 -0.22931179531E+02  0.33182862778E+02  0.40659142175E+02  0.00000000000E+00 0.  1.
         11    1    3    3    0    0  0.55377876027E+00  0.15345040166E+02 -0.14084600486E+02  0.20836336043E+02  0.51100000000E-03 0. -1.
        -11    1    3    3    0    0 -0.19175914447E+01  0.32327579517E+01 -0.22632686836E+02  0.22942676273E+02  0.51100000000E-03 0.  1.
        -12    1    3    3    0    0 -0.37571701866E+01  0.43533814129E+01  0.35344245435E+01  0.67498455087E+01  0.00000000000E+00 0.  1.
</event>
<event>
 7    1  0.3449452E-011  0.5052884E+02  0.7816164E-02  0.1300439E+00
        -11   -1    0    0    0    0  0.00000000000E+00  0.00000000000E+00  0.45593999997E+02  0.45594000000E+02  0.51100000000E-03 0.  1.
         11   -1    0    0    0    0 -0.00000000000E+00 -0.00000000000E+00 -0.45593999997E+02  0.45594000000E+02  0.51100000000E-03 0. -1.
    9900012    2    1    2    0    0 -0.39943703132E+02  0.75615956846E+01  0.69998341582E+00  0.50528842040E+02  0.29999945865E+02 0.  0.
        -12    1    1    2    0    0  0.39943703132E+02 -0.75615956846E+01 -0.69998341582E+00  0.40659157960E+02  0.00000000000E+00 0.  1.
         11    1    3    3    0    0 -0.38611811708E+02  0.32550791921E+01 -0.76765001673E+01  0.39501850577E+02  0.51100000000E-03 0. -1.
        -11    1    3    3    0    0  0.75923534222E+00  0.46290678693E-01 -0.53545435550E+00  0.93021113719E+00  0.51100000000E-03 0.  1.
         12    1    3    3    0    0 -0.20911267669E+01  0.42602258138E+01  0.89119379386E+01  0.10096780326E+02  0.00000000000E+00 0. -1.
</event>
<event>
 7    1  0.3449452E-011  0.5052885E+02  0.7816164E-02  0.1300439E+00
        -11   -1    0    0    0    0  0.00000000000E+00  0.00000000000E+00  0.45593999997E+02  0.45594000000E+02  0.51100000000E-03 0.  1.
         11   -1    0    0    0    0 -0.00000000000E+00 -0.00000000000E+00 -0.45593999997E+02  0.45594000000E+02  0.51100000000E-03 0. -1.
    9900012    2    1    2    0    0  0.11136010862E+02 -0.39036208938E+02 -0.23086849502E+01  0.50528851308E+02  0.29999974036E+02 0.  0.
        -12    1    1    2    0    0 -0.11136010862E+02  0.39036208938E+02  0.23086849502E+01  0.40659148692E+02  0.00000000000E+00 0.  1.
         11    1    3    3    0    0  0.45391102805E+01  0.21786291727E+01  0.13364344807E+00  0.50366465077E+01  0.51100000000E-03 0. -1.
        -11    1    3    3    0    0 -0.10463514476E+01  0.15571870088E+01  0.50476114917E+00  0.19427987057E+01  0.51100000000E-03 0.  1.
         12    1    3    3    0    0  0.76432520291E+01 -0.42772025119E+02 -0.29470895474E+01  0.43549406095E+02  0.00000000000E+00 0. -1.
</event>
<event>
 7    1  0.3449452E-011  0.5052886E+02  0.7816164E-02  0.1300439E+00
        -11   -1    0    0    0    0  0.00000000000E+00  0.00000000000E+00  0.45593999997E+02  0.45594000000E+02  0.51100000000E-03 0.  1.
         11   -1    0    0    0    0 -0.00000000000E+00 -0.00000000000E+00 -0.45593999997E+02  0.45594000000E+02  0.51100000000E-03 0. -1.
    9900012    2    1    2    0    0 -0.14994219998E+02 -0.37780000569E+02 -0.10052016590E+01  0.50528861953E+02  0.30000006394E+02 0.  0.
        -12    1    1    2    0    0  0.14994219998E+02  0.37780000569E+02  0.10052016590E+01  0.40659138047E+02  0.00000000000E+00 0.  1.
         11    1    3    3    0    0  0.25112057613E+01 -0.22108627230E+01  0.32956766346E+01  0.46963340061E+01  0.51100000000E-03 0. -1.
        -11    1    3    3    0    0 -0.14968759484E+02 -0.17319011648E+02  0.73381779052E+01  0.24038734996E+02  0.51100000000E-03 0.  1.
         12    1    3    3    0    0 -0.25366662749E+01 -0.18250126198E+02 -0.11639056199E+02  0.21793792952E+02  0.00000000000E+00 0. -1.
</event>
<event>
 7    1  0.3449452E-011  0.5052884E+02  0.7816164E-02  0.1300439E+00
        -11   -1    0    0    0    0  0.00000000000E+00  0.00000000000E+00  0.45593999997E+02  0.45594000000E+02  0.51100000000E-03 0.  1.
         11   -1    0    0    0    0 -0.00000000000E+00 -0.00000000000E+00 -0.45593999997E+02  0.45594000000E+02  0.51100000000E-03 0. -1.
    9900012    2    1    2    0    0 -0.12626545099E+02  0.29888598610E+02 -0.24503244022E+02  0.50528844382E+02  0.29999952982E+02 0.  0.
        -12    1    1    2    0    0  0.12626545099E+02 -0.29888598610E+02  0.24503244022E+02  0.40659155618E+02  0.00000000000E+00 0.  1.
         11    1    3    3    0    0 -0.43333777948E+01  0.82618444973E+01 -0.21542740011E+02  0.23476070477E+02  0.51100000000E-03 0. -1.
        -11    1    3    3    0    0 -0.32347299838E+01  0.66651698189E+01 -0.75782148116E+01  0.10597985977E+02  0.51100000000E-03 0.  1.
        -12    1    3    3    0    0 -0.50584373203E+01  0.14961584294E+02  0.46177108002E+01  0.16454787927E+02  0.00000000000E+00 0.  1.
</event>
<event>
 7    1  0.3449452E-011  0.5052886E+02  0.7816164E-02  0.1300439E+00
        -11   -1    0    0    0    0  0.00000000000E+00  0.00000000000E+00  0.45593999997E+02  0.45594000000E+02  0.51100000000E-03 0.  1.
         11   -1    0    0    0    0 -0.00000000000E+00 -0.00000000000E+00 -0.45593999997E+02  0.45594000000E+02  0.51100000000E-03 0. -1.
    9900012    2    1    2    0    0 -0.13845583125E+02 -0.16027974347E+01 -0.38195506767E+02  0.50528857499E+02  0.29999992855E+02 0.  0.
        -12    1    1    2    0    0  0.13845583125E+02  0.16027974347E+01  0.38195506767E+02  0.40659142501E+02  0.00000000000E+00 0.  1.
         11    1    3    3    0    0  0.23627833772E+01 -0.39391576644E+01 -0.22216391564E+02  0.22686290194E+02  0.51100000000E-03 0. -1.
        -11    1    3    3    0    0 -0.12720362470E+01 -0.52634219402E+01 -0.13109470375E+01  0.55713794639E+01  0.51100000000E-03 0.  1.
         12    1    3    3    0    0 -0.14936330255E+02  0.75997821699E+01 -0.14668168166E+02  0.22271187841E+02  0.00000000000E+00 0. -1.
</event>
<event>
 7    1  0.3449452E-011  0.5052885E+02  0.7816164E-02  0.1300439E+00
        -11   -1    0    0    0    0  0.00000000000E+00  0.00000000000E+00  0.45593999997E+02  0.45594000000E+02  0.51100000000E-03 0.  1.
         11   -1    0    0    0    0 -0.00000000000E+00 -0.00000000000E+00 -0.45593999997E+02  0.45594000000E+02  0.51100000000E-03 0. -1.
    9900012    2    1    2    0    0 -0.17707039863E+02 -0.36588776053E+02 -0.94269004988E+00  0.50528850251E+02  0.29999970823E+02 0.  0.
        -12    1    1    2    0    0  0.17707039863E+02  0.36588776053E+02  0.94269004988E+00  0.40659149749E+02  0.00000000000E+00 0.  1.
         11    1    3    3    0    0 -0.16681233702E+02 -0.25642851213E+02 -0.80852014163E+01  0.31641584322E+02  0.51100000000E-03 0. -1.
        -11    1    3    3    0    0 -0.65346772831E+01 -0.78039229641E+01  0.73289799003E+01  0.12542614060E+02  0.51100000000E-03 0.  1.
        -12    1    3    3    0    0  0.55088711224E+01 -0.31420018757E+01 -0.18646853389E+00  0.63446518694E+01  0.00000000000E+00 0.  1.
</event>
<event>
 7    1  0.3449452E-011  0.5052885E+02  0.7816164E-02  0.1300439E+00
        -11   -1    0    0    0    0  0.00000000000E+00  0.00000000000E+00  0.45593999997E+02  0.45594000000E+02  0.51100000000E-03 0.  1.
         11   -1    0    0    0    0 -0.00000000000E+00 -0.00000000000E+00 -0.45593999997E+02  0.45594000000E+02  0.51100000000E-03 0. -1.
    9900012    2    1    2    0    0  0.76307329118E+01  0.11482835505E+02 -0.38250262030E+02  0.50528854149E+02  0.29999982671E+02 0.  0.
        -12    1    1    2    0    0 -0.76307329118E+01 -0.11482835505E+02  0.38250262030E+02  0.40659145851E+02  0.00000000000E+00 0.  1.
         11    1    3    3    0    0  0.60524893069E+01 -0.35413137429E+01 -0.41028354001E+01  0.81244561921E+01  0.51100000000E-03 0. -1.
        -11    1    3    3    0    0 -0.42515704078E+01 -0.94211968893E+00 -0.10669607587E+00  0.43560101876E+01  0.51100000000E-03 0.  1.
         12    1    3    3    0    0  0.58298140127E+01  0.15966268937E+02 -0.34040730554E+02  0.38048387769E+02  0.00000000000E+00 0. -1.
</event>
<event>
 7    1  0.3449452E-011  0.5052886E+02  0.7816164E-02  0.1300439E+00
        -11   -1    0    0    0    0  0.00000000000E+00  0.00000000000E+00  0.45593999997E+02  0.45594000000E+02  0.51100000000E-03 0. -1.
         11   -1    0    0    0    0 -0.00000000000E+00 -0.00000000000E+00 -0.45593999997E+02  0.45594000000E+02  0.51100000000E-03 0.  1.
    9900012    2    1    2    0    0  0.15801733506E+02 -0.36868504121E+02  0.66471009479E+01  0.50528864140E+02  0.30000013039E+02 0.  0.
        -12    1    1    2    0    0 -0.15801733506E+02  0.36868504121E+02 -0.66471009479E+01  0.40659135860E+02  0.00000000000E+00 0.  1.
         11    1    3    3    0    0  0.13273743045E+02 -0.20426383498E+02  0.44778167477E+01  0.24768533270E+02  0.51100000000E-03 0. -1.
        -11    1    3    3    0    0  0.69150807393E+01 -0.57354223553E+01 -0.66785447457E+01  0.11194479506E+02  0.51100000000E-03 0.  1.
        -12    1    3    3    0    0 -0.43870902786E+01 -0.10706698268E+02  0.88478289460E+01  0.14565851364E+02  0.00000000000E+00 0.  1.
</event>
<event>
 7    1  0.3449452E-011  0.5052885E+02  0.7816164E-02  0.1300439E+00
        -11   -1    0    0    0    0  0.00000000000E+00  0.00000000000E+00  0.45593999997E+02  0.45594000000E+02  0.51100000000E-03 0.  1.
         11   -1    0    0    0    0 -0.00000000000E+00 -0.00000000000E+00 -0.45593999997E+02  0.45594000000E+02  0.51100000000E-03 0. -1.
    9900012    2    1    2    0    0 -0.14826525542E+02  0.35655480806E+02 -0.12728985325E+02  0.50528852954E+02  0.29999979038E+02 0.  0.
        -12    1    1    2    0    0  0.14826525542E+02 -0.35655480806E+02  0.12728985325E+02  0.40659147046E+02  0.00000000000E+00 0.  1.
         11    1    3    3    0    0 -0.86739709838E+01  0.27613614015E+02 -0.63514362286E+01  0.29632586692E+02  0.51100000000E-03 0. -1.
        -11    1    3    3    0    0  0.49230026781E+01  0.49617941380E+01  0.12493722786E+01  0.71004427882E+01  0.51100000000E-03 0.  1.
         12    1    3    3    0    0 -0.11075557237E+02  0.30800726521E+01 -0.76269213753E+01  0.13795823474E+02  0.00000000000E+00 0. -1.
</event>
<event>
 7    1  0.3449452E-011  0.5052887E+02  0.7816164E-02  0.1300439E+00
        -11   -1    0    0    0    0  0.00000000000E+00  0.00000000000E+00  0.45593999997E+02  0.45594000000E+02  0.51100000000E-03 0. -1.
         11   -1    0    0    0    0 -0.00000000000E+00 -0.00000000000E+00 -0.45593999997E+02  0.45594000000E+02  0.51100000000E-03 0.  1.
    9900012    2    1    2    0    0 -0.11955546025E+02  0.15031045341E+02  0.35837091440E+02  0.50528873993E+02  0.30000042989E+02 0.  0.
        -12    1    1    2    0    0  0.11955546025E+02 -0.15031045341E+02 -0.35837091440E+02  0.40659126007E+02  0.00000000000E+00 0.  1.
         11    1    3    3    0    0 -0.48609277272E+01 -0.54508335771E+01  0.17599430213E+02  0.19054662137E+02  0.51100000000E-03 0.  1.
        -11    1    3    3    0    0 -0.22176664347E+01  0.80101305678E+01  0.15814199389E+02  0.17865305446E+02  0.51100000000E-03 0. -1.
        -12    1    3    3    0    0 -0.48769518626E+01  0.12471748351E+02  0.24234618383E+01  0.13608906410E+02  0.00000000000E+00 0.  1.
</event>
<event>
 7    1  0.3990287E-011  0.5052886E+02  0.7816164E-02  0.1300439E+00
        -11   -1    0    0    0    0  0.00000000000E+00  0.00000000000E+00  0.45593999997E+02  0.45594000000E+02  0.51100000000E-03 0. -1.
         11   -1    0    0    0    0 -0.00000000000E+00 -0.00000000000E+00 -0.45593999997E+02  0.45594000000E+02  0.51100000000E-03 0.  1.
    9900012    2    1    2    0    0  0.39658319439E+02  0.33357498098E+01  0.83220060890E+01  0.50528864337E+02  0.30000013638E+02 0.  0.
        -12    1    1    2    0    0 -0.39658319439E+02 -0.33357498098E+01 -0.83220060890E+01  0.40659135663E+02  0.00000000000E+00 0.  1.
         11    1    3    3    0    0  0.18985700470E+02 -0.53517874636E+01  0.59582986831E+01  0.20605818956E+02  0.51100000000E-03 0. -1.
        -11    1    3    3    0    0  0.22990010432E+02  0.80083968906E+01 -0.25199187761E+01  0.24474987054E+02  0.51100000000E-03 0.  1.
        -12    1    3    3    0    0 -0.23173914619E+01  0.67914038273E+00  0.48836261820E+01  0.54480583268E+01  0.00000000000E+00 0.  1.
</event>
<event>
 7    1  0.3449452E-011  0.5052892E+02  0.7816164E-02  0.1300439E+00
        -11   -1    0    0    0    0  0.00000000000E+00  0.00000000000E+00  0.45593999997E+02  0.45594000000E+02  0.51100000000E-03 0.  1.
         11   -1    0    0    0    0 -0.00000000000E+00 -0.00000000000E+00 -0.45593999997E+02  0.45594000000E+02  0.51100000000E-03 0. -1.
    9900012    2    1    2    0    0 -0.24504713075E+02  0.16155774032E+01 -0.32404780439E+02  0.50528919237E+02  0.30000180512E+02 0.  0.
        -12    1    1    2    0    0  0.24504713075E+02 -0.16155774032E+01  0.32404780439E+02  0.40659080763E+02  0.00000000000E+00 0.  1.
         11    1    3    3    0    0 -0.15658292691E+02 -0.12377899923E+02 -0.14009933379E+02  0.24385913352E+02  0.51100000000E-03 0. -1.
        -11    1    3    3    0    0 -0.72773284036E+01  0.64290182648E+01 -0.14603824596E+02  0.17537487780E+02  0.51100000000E-03 0.  1.
        -12    1    3    3    0    0 -0.15690919803E+01  0.75644590612E+01 -0.37910224637E+01  0.86055181047E+01  0.00000000000E+00 0.  1.
</event>
<event>
 7    1  0.3449452E-011  0.5052886E+02  0.7816164E-02  0.1300439E+00
        -11   -1    0    0    0    0  0.00000000000E+00  0.00000000000E+00  0.45593999997E+02  0.45594000000E+02  0.51100000000E-03 0.  1.
         11   -1    0    0    0    0 -0.00000000000E+00 -0.00000000000E+00 -0.45593999997E+02  0.45594000000E+02  0.51100000000E-03 0. -1.
    9900012    2    1    2    0    0  0.17303326307E+02 -0.34176625201E+02 -0.13627884899E+02  0.50528855171E+02  0.29999985777E+02 0.  0.
        -12    1    1    2    0    0 -0.17303326307E+02  0.34176625201E+02  0.13627884899E+02  0.40659144829E+02  0.00000000000E+00 0.  1.
         11    1    3    3    0    0  0.38197373312E+01 -0.88113479911E+01 -0.16765191608E+02  0.19321022142E+02  0.51100000000E-03 0. -1.
        -11    1    3    3    0    0 -0.16422978838E+01 -0.66661059574E+01 -0.49872993552E+00  0.68835196508E+01  0.51100000000E-03 0.  1.
         12    1    3    3    0    0  0.15125886860E+02 -0.18699171252E+02  0.36360366444E+01  0.24324313378E+02  0.00000000000E+00 0. -1.
</event>
<event>
 7    1  0.3449452E-011  0.5052885E+02  0.7816164E-02  0.1300439E+00
        -11   -1    0    0    0    0  0.00000000000E+00  0.00000000000E+00  0.45593999997E+02  0.45594000000E+02  0.51100000000E-03 0. -1.
         11   -1    0    0    0    0 -0.00000000000E+00 -0.00000000000E+00 -0.45593999997E+02  0.45594000000E+02  0.51100000000E-03 0.  1.
    9900012    2    1    2    0    0 -0.55663711921E+00  0.40525403497E+02 -0.32478203988E+01  0.50528849605E+02  0.29999968859E+02 0.  0.
        -12    1    1    2    0    0  0.55663711921E+00 -0.40525403497E+02  0.32478203988E+01  0.40659150395E+02  0.00000000000E+00 0.  1.
         11    1    3    3    0    0  0.10064152640E+01  0.31019067784E+02  0.94839125288E+01  0.32452119114E+02  0.51100000000E-03 0. -1.
        -11    1    3    3    0    0 -0.20593744796E+01 -0.35916513568E+00 -0.17139100131E+00  0.20974741901E+01  0.51100000000E-03 0.  1.
        -12    1    3    3    0    0  0.49632209631E+00  0.98655008490E+01 -0.12560341926E+02  0.15979256301E+02  0.00000000000E+00 0.  1.
</event>
<event>
 7    1  0.3449452E-011  0.5052886E+02  0.7816164E-02  0.1300439E+00
        -11   -1    0    0    0    0  0.00000000000E+00  0.00000000000E+00  0.45593999997E+02  0.45594000000E+02  0.51100000000E-03 0.  1.
         11   -1    0    0    0    0 -0.00000000000E+00 -0.00000000000E+00 -0.45593999997E+02  0.45594000000E+02  0.51100000000E-03 0. -1.
    9900012    2    1    2    0    0 -0.19301616043E+02 -0.19064085264E+00 -0.35785151509E+02  0.50528858416E+02  0.29999995642E+02 0.  0.
        -12    1    1    2    0    0  0.19301616043E+02  0.19064085264E+00  0.35785151509E+02  0.40659141584E+02  0.00000000000E+00 0.  1.
         11    1    3    3    0    0 -0.49634793048E+00  0.59374734173E+01  0.42303423418E+00  0.59731825750E+01  0.51100000000E-03 0. -1.
        -11    1    3    3    0    0 -0.14921765983E+02 -0.24802950922E+01 -0.10778528447E+02  0.18573842886E+02  0.51100000000E-03 0.  1.
         12    1    3    3    0    0 -0.38835021295E+01 -0.36478191777E+01 -0.25429657296E+02  0.25981832956E+02  0.00000000000E+00 0. -1.
</event>
<event>
 7    1  0.3449452E-011  0.5052886E+02  0.7816164E-02  0.1300439E+00
        -11   -1    0    0    0    0  0.00000000000E+00  0.00000000000E+00  0.45593999997E+02  0.45594000000E+02  0.51100000000E-03 0.  1.
         11   -1    0    0    0    0 -0.00000000000E+00 -0.00000000000E+00 -0.45593999997E+02  0.45594000000E+02  0.51100000000E-03 0. -1.
    9900012    2    1    2    0    0 -0.22215435753E+02  0.24254531975E+02 -0.23903085371E+02  0.50528863299E+02  0.30000010484E+02 0.  0.
        -12    1    1    2    0    0  0.22215435753E+02 -0.24254531975E+02  0.23903085371E+02  0.40659136701E+02  0.00000000000E+00 0.  1.
         11    1    3    3    0    0 -0.20844901319E+02  0.15565432852E+02 -0.16113548881E+02  0.30601291944E+02  0.51100000000E-03 0. -1.
        -11    1    3    3    0    0  0.28891007173E+00  0.17764013741E+01 -0.11683897372E+02  0.11821697379E+02  0.51100000000E-03 0.  1.
        -12    1    3    3    0    0 -0.16594445062E+01  0.69126977488E+01  0.38943608815E+01  0.81058739757E+01  0.00000000000E+00 0.  1.
</event>
<event>
 7    1  0.3449452E-011  0.5052886E+02  0.7816164E-02  0.1300439E+00
        -11   -1    0    0    0    0  0.00000000000E+00  0.00000000000E+00  0.45593999997E+02  0.45594000000E+02  0.51100000000E-03 0. -1.
         11   -1    0    0    0    0 -0.00000000000E+00 -0.00000000000E+00 -0.45593999997E+02  0.45594000000E+02  0.51100000000E-03 0.  1.
    9900012    2    1    2    0    0 -0.20273196131E+02  0.15864306629E+02  0.31472001974E+02  0.50528860628E+02  0.30000002365E+02 0.  0.
        -12    1    1    2    0    0  0.20273196131E+02 -0.15864306629E+02 -0.31472001974E+02  0.40659139372E+02  0.00000000000E+00 0.  1.
         11    1    3    3    0    0 -0.79072819076E+01 -0.34943337775E+01  0.80028541629E+01  0.11780541190E+02  0.51100000000E-03 0.  1.
        -11    1    3    3    0    0 -0.81987900532E+01 -0.24955192166E+01  0.70589608077E+01  0.11103004208E+02  0.51100000000E-03 0. -1.
        -12    1    3    3    0    0 -0.41671241705E+01  0.21854159623E+02  0.16410187004E+02  0.27645315230E+02  0.00000000000E+00 0.  1.
</event>
<event>
 7    1  0.3449452E-011  0.5052894E+02  0.7816164E-02  0.1300438E+00
        -11   -1    0    0    0    0  0.00000000000E+00  0.00000000000E+00  0.45593999997E+02  0.45594000000E+02  0.51100000000E-03 0.  1.
         11   -1    0    0    0    0 -0.00000000000E+00 -0.00000000000E+00 -0.45593999997E+02  0.45594000000E+02  0.51100000000E-03 0. -1.
    9900012    2    1    2    0    0 -0.25652967758E+02  0.25094348296E+02  0.19114335876E+02  0.50528943110E+02  0.30000253077E+02 0.  0.
        -12    1    1    2    0    0  0.25652967758E+02 -0.25094348296E+02 -0.19114335876E+02  0.40659056890E+02  0.00000000000E+00 0.  1.
         11    1    3    3    0    0 -0.91754927032E+01  0.74282427052E+00 -0.42913210053E+01  0.10156618063E+02  0.51100000000E-03 0. -1.
        -11    1    3    3    0    0 -0.20657348713E+01  0.17255661134E+01  0.10052656141E+02  0.10406763893E+02  0.51100000000E-03 0.  1.
        -12    1    3    3    0    0 -0.14411740183E+02  0.22625957912E+02  0.13353000740E+02  0.29965561154E+02  0.00000000000E+00 0.  1.
</event>
<event>
 7    1  0.3449452E-011  0.5052886E+02  0.7816164E-02  0.1300439E+00
        -11   -1    0    0    0    0  0.00000000000E+00  0.00000000000E+00  0.45593999997E+02  0.45594000000E+02  0.51100000000E-03 0.  1.
         11   -1    0    0    0    0 -0.00000000000E+00 -0.00000000000E+00 -0.45593999997E+02  0.45594000000E+02  0.51100000000E-03 0. -1.
    9900012    2    1    2    0    0 -0.35822599155E+02 -0.84680223048E+01 -0.17268450832E+02  0.50528863190E+02  0.30000010153E+02 0.  0.
        -12    1    1    2    0    0  0.35822599155E+02  0.84680223048E+01  0.17268450832E+02  0.40659136810E+02  0.00000000000E+00 0.  1.
         11    1    3    3    0    0 -0.21848618041E+02 -0.12401103040E+02 -0.64582442418E+01  0.25939513987E+02  0.51100000000E-03 0. -1.
        -11    1    3    3    0    0 -0.13093111582E+02  0.59580946425E+00  0.14066036723E+00  0.13107415665E+02  0.51100000000E-03 0.  1.
        -12    1    3    3    0    0 -0.88086953205E+00  0.33372712708E+01 -0.10950866957E+02  0.11481933538E+02  0.00000000000E+00 0.  1.
</event>
<event>
 7    1  0.3449452E-011  0.5052886E+02  0.7816164E-02  0.1300439E+00
        -11   -1    0    0    0    0  0.00000000000E+00  0.00000000000E+00  0.45593999997E+02  0.45594000000E+02  0.51100000000E-03 0.  1.
         11   -1    0    0    0    0 -0.00000000000E+00 -0.00000000000E+00 -0.45593999997E+02  0.45594000000E+02  0.51100000000E-03 0. -1.
    9900012    2    1    2    0    0  0.28420461906E+02  0.27135089763E+02 -0.10446531836E+02  0.50528858607E+02  0.29999996222E+02 0.  0.
        -12    1    1    2    0    0 -0.28420461906E+02 -0.27135089763E+02  0.10446531836E+02  0.40659141393E+02  0.00000000000E+00 0.  1.
         11    1    3    3    0    0  0.14116249580E+02  0.16267537840E+02 -0.17100501795E+02  0.27501426354E+02  0.51100000000E-03 0. -1.
        -11    1    3    3    0    0  0.12361752439E+02  0.15914317099E+01  0.48824981975E+01  0.13385976511E+02  0.51100000000E-03 0.  1.
        -12    1    3    3    0    0  0.19424598876E+01  0.92761202132E+01  0.17714717621E+01  0.96414557422E+01  0.00000000000E+00 0.  1.
</event>
<event>
 7    1  0.3637784E-011  0.5052886E+02  0.7816164E-02  0.1300439E+00
        -11   -1    0    0    0    0  0.00000000000E+00  0.00000000000E+00  0.45593999997E+02  0.45594000000E+02  0.51100000000E-03 0.  1.
         11   -1    0    0    0    0 -0.00000000000E+00 -0.00000000000E+00 -0.45593999997E+02  0.45594000000E+02  0.51100000000E-03 0. -1.
    9900012    2    1    2    0    0  0.30159695297E+02  0.22686082192E+02 -0.15129445392E+02  0.50528860025E+02  0.30000000531E+02 0.  0.
        -12    1    1    2    0    0 -0.30159695297E+02 -0.22686082192E+02  0.15129445392E+02  0.40659139975E+02  0.00000000000E+00 0.  1.
         11    1    3    3    0    0  0.22364461045E+02  0.14918713576E+02 -0.99548389220E+01  0.28667681295E+02  0.51100000000E-03 0. -1.
        -11    1    3    3    0    0 -0.17249757974E+00  0.96731600533E+01 -0.86350873994E+01  0.12967826167E+02  0.51100000000E-03 0.  1.
        -12    1    3    3    0    0  0.79677318324E+01 -0.19057914371E+01  0.34604809299E+01  0.88933525636E+01  0.00000000000E+00 0.  1.
</event>
<event>
 7    1  0.3449452E-011  0.5052887E+02  0.7816164E-02  0.1300439E+00
        -11   -1    0    0    0    0  0.00000000000E+00  0.00000000000E+00  0.45593999997E+02  0.45594000000E+02  0.51100000000E-03 0.  1.
         11   -1    0    0    0    0 -0.00000000000E+00 -0.00000000000E+00 -0.45593999997E+02  0.45594000000E+02  0.51100000000E-03 0. -1.
    9900012    2    1    2    0    0 -0.16397193433E+02 -0.36894237011E+02 -0.48075014713E+01  0.50528871290E+02  0.30000034772E+02 0.  0.
        -12    1    1    2    0    0  0.16397193433E+02  0.36894237011E+02  0.48075014713E+01  0.40659128710E+02  0.00000000000E+00 0.  1.
         11    1    3    3    0    0 -0.17508294130E+02 -0.15004724958E+02 -0.29293670685E+00  0.23060094245E+02  0.51100000000E-03 0. -1.
        -11    1    3    3    0    0 -0.12908171014E+01 -0.15535668900E+02  0.44588429549E+01  0.16214330011E+02  0.51100000000E-03 0.  1.
         12    1    3    3    0    0  0.24019177988E+01 -0.63538431524E+01 -0.89734077194E+01  0.11254447033E+02  0.00000000000E+00 0. -1.
</event>
<event>
 7    1  0.3449452E-011  0.5052886E+02  0.7816164E-02  0.1300439E+00
        -11   -1    0    0    0    0  0.00000000000E+00  0.00000000000E+00  0.45593999997E+02  0.45594000000E+02  0.51100000000E-03 0.  1.
         11   -1    0    0    0    0 -0.00000000000E+00 -0.00000000000E+00 -0.45593999997E+02  0.45594000000E+02  0.51100000000E-03 0. -1.
    9900012    2    1    2    0    0 -0.75493979767E+00 -0.33966883492E+02 -0.22334871675E+02  0.50528860793E+02  0.30000002868E+02 0.  0.
        -12    1    1    2    0    0  0.75493979767E+00  0.33966883492E+02  0.22334871675E+02  0.40659139207E+02  0.00000000000E+00 0.  1.
         11    1    3    3    0    0 -0.33996396716E+01 -0.36105162720E+01  0.14419067402E+01  0.51645399559E+01  0.51100000000E-03 0. -1.
        -11    1    3    3    0    0  0.13061925148E+02 -0.15232372588E+02 -0.10085480682E+02  0.22457871316E+02  0.51100000000E-03 0.  1.
         12    1    3    3    0    0 -0.10417225274E+02 -0.15123994632E+02 -0.13691297733E+02  0.22906449521E+02  0.00000000000E+00 0. -1.
</event>
<event>
 7    1  0.3546167E-011  0.5052885E+02  0.7816164E-02  0.1300439E+00
        -11   -1    0    0    0    0  0.00000000000E+00  0.00000000000E+00  0.45593999997E+02  0.45594000000E+02  0.51100000000E-03 0. -1.
         11   -1    0    0    0    0 -0.00000000000E+00 -0.00000000000E+00 -0.45593999997E+02  0.45594000000E+02  0.51100000000E-03 0.  1.
    9900012    2    1    2    0    0 -0.12531233726E+02 -0.12426618408E+02  0.36629406895E+02  0.50528854495E+02  0.29999983722E+02 0.  0.
        -12    1    1    2    0    0  0.12531233726E+02  0.12426618408E+02 -0.36629406895E+02  0.40659145505E+02  0.00000000000E+00 0.  1.
         11    1    3    3    0    0 -0.10220276404E+02 -0.11198011253E+02  0.30880987893E+02  0.34401815640E+02  0.51100000000E-03 0. -1.
        -11    1    3    3    0    0  0.27375310071E+01 -0.46089058245E+01  0.80149480618E+01  0.96423794578E+01  0.51100000000E-03 0.  1.
        -12    1    3    3    0    0 -0.50484883294E+01  0.33802986703E+01 -0.22665290603E+01  0.64846593969E+01  0.00000000000E+00 0.  1.
</event>
<event>
 7    1  0.3449452E-011  0.5052886E+02  0.7816164E-02  0.1300439E+00
        -11   -1    0    0    0    0  0.00000000000E+00  0.00000000000E+00  0.45593999997E+02  0.45594000000E+02  0.51100000000E-03 0.  1.
         11   -1    0    0    0    0 -0.00000000000E+00 -0.00000000000E+00 -0.45593999997E+02  0.45594000000E+02  0.51100000000E-03 0. -1.
    9900012    2    1    2    0    0 -0.69537003990E+01 -0.79618503012E+01 -0.39260929544E+02  0.50528860829E+02  0.30000002976E+02 0.  0.
        -12    1    1    2    0    0  0.69537003990E+01  0.79618503012E+01  0.39260929544E+02  0.40659139171E+02  0.00000000000E+00 0.  1.
         11    1    3    3    0    0  0.22419930928E+01 -0.77055661533E+01 -0.22158467403E+02  0.23566925143E+02  0.51100000000E-03 0. -1.
        -11    1    3    3    0    0 -0.85001443859E+00  0.39173297802E+01 -0.17168869094E+02  0.17630600199E+02  0.51100000000E-03 0.  1.
        -12    1    3    3    0    0 -0.83456790532E+01 -0.41736139281E+01  0.66406953287E-01  0.93313354866E+01  0.00000000000E+00 0.  1.
</event>
<event>
 7    1  0.3449452E-011  0.5052886E+02  0.7816164E-02  0.1300439E+00
        -11   -1    0    0    0    0  0.00000000000E+00  0.00000000000E+00  0.45593999997E+02  0.45594000000E+02  0.51100000000E-03 0.  1.
         11   -1    0    0    0    0 -0.00000000000E+00 -0.00000000000E+00 -0.45593999997E+02  0.45594000000E+02  0.51100000000E-03 0. -1.
    9900012    2    1    2    0    0 -0.38829090940E+02 -0.80683601354E+01 -0.89648684069E+01  0.50528860756E+02  0.30000002753E+02 0.  0.
        -12    1    1    2    0    0  0.38829090940E+02  0.80683601354E+01  0.89648684069E+01  0.40659139244E+02  0.00000000000E+00 0.  1.
         11    1    3    3    0    0 -0.51629030106E+01  0.75247659691E+01 -0.24251028195E+01  0.94423934642E+01  0.51100000000E-03 0.  1.
        -11    1    3    3    0    0 -0.21837218525E+02 -0.32270788777E+01  0.16084843500E+01  0.22132902502E+02  0.51100000000E-03 0. -1.
         12    1    3    3    0    0 -0.11828969404E+02 -0.12366047227E+02 -0.81482499374E+01  0.18953564789E+02  0.00000000000E+00 0. -1.
</event>
<event>
 7    1  0.3449452E-011  0.5052886E+02  0.7816164E-02  0.1300439E+00
        -11   -1    0    0    0    0  0.00000000000E+00  0.00000000000E+00  0.45593999997E+02  0.45594000000E+02  0.51100000000E-03 0.  1.
         11   -1    0    0    0    0 -0.00000000000E+00 -0.00000000000E+00 -0.45593999997E+02  0.45594000000E+02  0.51100000000E-03 0. -1.
    9900012    2    1    2    0    0 -0.37666701760E+02 -0.18957112719E+01 -0.15191820267E+02  0.50528861474E+02  0.30000004935E+02 0.  0.
        -12    1    1    2    0    0  0.37666701760E+02  0.18957112719E+01  0.15191820267E+02  0.40659138526E+02  0.00000000000E+00 0.  1.
         11    1    3    3    0    0 -0.15704041687E+02 -0.94386575993E+01 -0.79725339426E+01  0.19981653593E+02  0.51100000000E-03 0. -1.
        -11    1    3    3    0    0 -0.21615681485E+02  0.11424440277E+01 -0.10819433722E+01  0.21672873971E+02  0.51100000000E-03 0.  1.
        -12    1    3    3    0    0 -0.34697858710E+00  0.64005022997E+01 -0.61373429518E+01  0.88743339094E+01  0.00000000000E+00 0.  1.
</event>
<event>
 7    1  0.3449452E-011  0.5052886E+02  0.7816164E-02  0.1300439E+00
        -11   -1    0    0    0    0  0.00000000000E+00  0.00000000000E+00  0.45593999997E+02  0.45594000000E+02  0.51100000000E-03 0. -1.
         11   -1    0    0    0    0 -0.00000000000E+00 -0.00000000000E+00 -0.45593999997E+02  0.45594000000E+02  0.51100000000E-03 0.  1.
    9900012    2    1    2    0    0  0.37240942639E+02 -0.15599653508E+02 -0.47884136218E+01  0.50528857077E+02  0.29999991572E+02 0.  0.
        -12    1    1    2    0    0 -0.37240942639E+02  0.15599653508E+02  0.47884136218E+01  0.40659142923E+02  0.00000000000E+00 0.  1.
         11    1    3    3    0    0 -0.31447750547E+00  0.79714397270E-01 -0.27667158003E+01  0.27856717444E+01  0.51100000000E-03 0. -1.
        -11    1    3    3    0    0  0.13329462252E+02  0.47340974385E+01  0.55099497536E+01  0.15180441003E+02  0.51100000000E-03 0.  1.
         12    1    3    3    0    0  0.24225957892E+02 -0.20413465344E+02 -0.75316475751E+01  0.32562744330E+02  0.00000000000E+00 0. -1.
</event>
<event>
 7    1  0.3449452E-011  0.5052885E+02  0.7816164E-02  0.1300439E+00
        -11   -1    0    0    0    0  0.00000000000E+00  0.00000000000E+00  0.45593999997E+02  0.45594000000E+02  0.51100000000E-03 0.  1.
         11   -1    0    0    0    0 -0.00000000000E+00 -0.00000000000E+00 -0.45593999997E+02  0.45594000000E+02  0.51100000000E-03 0. -1.
    9900012    2    1    2    0    0 -0.28203977753E+02 -0.14178489043E+02 -0.25625618809E+02  0.50528852788E+02  0.29999978535E+02 0.  0.
        -12    1    1    2    0    0  0.28203977753E+02  0.14178489043E+02  0.25625618809E+02  0.40659147212E+02  0.00000000000E+00 0.  1.
         11    1    3    3    0    0 -0.14588065648E+02 -0.30668201002E+01 -0.14225190896E+02  0.20605171709E+02  0.51100000000E-03 0. -1.
        -11    1    3    3    0    0 -0.80687029256E+01  0.41254131480E+00 -0.14647689092E+02  0.16728088750E+02  0.51100000000E-03 0.  1.
        -12    1    3    3    0    0 -0.55472091795E+01 -0.11524210258E+02  0.32472611792E+01  0.13195592329E+02  0.00000000000E+00 0.  1.
</event>
<event>
 7    1  0.3449452E-011  0.5052886E+02  0.7816164E-02  0.1300439E+00
        -11   -1    0    0    0    0  0.00000000000E+00  0.00000000000E+00  0.45593999997E+02  0.45594000000E+02  0.51100000000E-03 0. -1.
         11   -1    0    0    0    0 -0.00000000000E+00 -0.00000000000E+00 -0.45593999997E+02  0.45594000000E+02  0.51100000000E-03 0.  1.
    9900012    2    1    2    0    0 -0.38909072848E+02 -0.56577915223E+01 -0.10355634361E+02  0.50528859357E+02  0.29999998502E+02 0.  0.
        -12    1    1    2    0    0  0.38909072848E+02  0.56577915223E+01  0.10355634361E+02  0.40659140643E+02  0.00000000000E+00 0.  1.
         11    1    3    3    0    0 -0.29734892188E+02 -0.73498496980E+01 -0.60683812277E+01  0.31225139791E+02  0.51100000000E-03 0. -1.
        -11    1    3    3    0    0 -0.15554668202E+01 -0.66372711042E+01 -0.42157731186E+01  0.80153345524E+01  0.51100000000E-03 0.  1.
        -12    1    3    3    0    0 -0.76187138398E+01  0.83293292798E+01 -0.71480015032E-01  0.11288385014E+02  0.00000000000E+00 0.  1.
</event>
<event>
 7    1  0.3449452E-011  0.5052886E+02  0.7816164E-02  0.1300439E+00
        -11   -1    0    0    0    0  0.00000000000E+00  0.00000000000E+00  0.45593999997E+02  0.45594000000E+02  0.51100000000E-03 0.  1.
         11   -1    0    0    0    0 -0.00000000000E+00 -0.00000000000E+00 -0.45593999997E+02  0.45594000000E+02  0.51100000000E-03 0. -1.
    9900012    2    1    2    0    0 -0.38203197720E+02 -0.12220372814E+02 -0.66590983881E+01  0.50528863031E+02  0.30000009669E+02 0.  0.
        -12    1    1    2    0    0  0.38203197720E+02  0.12220372814E+02  0.66590983881E+01  0.40659136969E+02  0.00000000000E+00 0.  1.
         11    1    3    3    0    0 -0.15489946177E+02 -0.41509752520E+01  0.45281785384E+01  0.16663535916E+02  0.51100000000E-03 0. -1.
        -11    1    3    3    0    0 -0.53155133348E+01  0.61460459124E+01  0.11934769823E+01  0.82129744878E+01  0.51100000000E-03 0.  1.
        -12    1    3    3    0    0 -0.17397738209E+02 -0.14215443474E+02 -0.12380753909E+02  0.25652352627E+02  0.00000000000E+00 0.  1.
</event>
<event>
 7    1  0.3894787E-011  0.5052886E+02  0.7816164E-02  0.1300439E+00
        -11   -1    0    0    0    0  0.00000000000E+00  0.00000000000E+00  0.45593999997E+02  0.45594000000E+02  0.51100000000E-03 0.  1.
         11   -1    0    0    0    0 -0.00000000000E+00 -0.00000000000E+00 -0.45593999997E+02  0.45594000000E+02  0.51100000000E-03 0. -1.
    9900012    2    1    2    0    0 -0.15301287510E+02  0.16097423255E+02 -0.34057443018E+02  0.50528857610E+02  0.29999993193E+02 0.  0.
        -12    1    1    2    0    0  0.15301287510E+02 -0.16097423255E+02  0.34057443018E+02  0.40659142390E+02  0.00000000000E+00 0.  1.
         11    1    3    3    0    0 -0.40206802824E+01  0.95850868145E+01 -0.17008501344E+02  0.19933110078E+02  0.51100000000E-03 0. -1.
        -11    1    3    3    0    0  0.52507846660E+01  0.55431904873E+01 -0.13044753177E+01  0.77459251547E+01  0.51100000000E-03 0.  1.
        -12    1    3    3    0    0 -0.16531391894E+02  0.96914595360E+00 -0.15744466357E+02  0.22849822377E+02  0.00000000000E+00 0.  1.
</event>
<event>
 7    1  0.3449452E-011  0.5052886E+02  0.7816164E-02  0.1300439E+00
        -11   -1    0    0    0    0  0.00000000000E+00  0.00000000000E+00  0.45593999997E+02  0.45594000000E+02  0.51100000000E-03 0.  1.
         11   -1    0    0    0    0 -0.00000000000E+00 -0.00000000000E+00 -0.45593999997E+02  0.45594000000E+02  0.51100000000E-03 0. -1.
    9900012    2    1    2    0    0  0.31794346067E+02 -0.24544617736E+02 -0.63124453538E+01  0.50528859970E+02  0.30000000364E+02 0.  0.
        -12    1    1    2    0    0 -0.31794346067E+02  0.24544617736E+02  0.63124453538E+01  0.40659140030E+02  0.00000000000E+00 0.  1.
         11    1    3    3    0    0  0.45099040614E+01 -0.56572882878E+01 -0.13889553098E+02  0.15660901345E+02  0.51100000000E-03 0. -1.
        -11    1    3    3    0    0  0.80010140858E+01 -0.47256299972E+01  0.56278188172E+01  0.10863707938E+02  0.51100000000E-03 0.  1.
        -12    1    3    3    0    0  0.19283427920E+02 -0.14161699451E+02  0.19492889266E+01  0.24004250686E+02  0.00000000000E+00 0.  1.
</event>
<event>
 7    1  0.3449452E-011  0.5052886E+02  0.7816164E-02  0.1300439E+00
        -11   -1    0    0    0    0  0.00000000000E+00  0.00000000000E+00  0.45593999997E+02  0.45594000000E+02  0.51100000000E-03 0.  1.
         11   -1    0    0    0    0 -0.00000000000E+00 -0.00000000000E+00 -0.45593999997E+02  0.45594000000E+02  0.51100000000E-03 0. -1.
    9900012    2    1    2    0    0 -0.30708299766E+01 -0.12440554550E+02 -0.38587149836E+02  0.50528861707E+02  0.30000005645E+02 0.  0.
        -12    1    1    2    0    0  0.30708299766E+01  0.12440554550E+02  0.38587149836E+02  0.40659138293E+02  0.00000000000E+00 0.  1.
         11    1    3    3    0    0  0.50386496960E+00  0.20883505751E+01 -0.35630391151E-02  0.21482786106E+01  0.51100000000E-03 0. -1.
        -11    1    3    3    0    0  0.53583025036E+01 -0.18175779688E+02 -0.20723751679E+02  0.28081030197E+02  0.51100000000E-03 0.  1.
         12    1    3    3    0    0 -0.89329974498E+01  0.36468745626E+01 -0.17859835118E+02  0.20299552900E+02  0.00000000000E+00 0. -1.
</event>
<event>
 7    1  0.3449452E-011  0.5052887E+02  0.7816164E-02  0.1300439E+00
        -11   -1    0    0    0    0  0.00000000000E+00  0.00000000000E+00  0.45593999997E+02  0.45594000000E+02  0.51100000000E-03 0. -1.
         11   -1    0    0    0    0 -0.00000000000E+00 -0.00000000000E+00 -0.45593999997E+02  0.45594000000E+02  0.51100000000E-03 0.  1.
    9900012    2    1    2    0    0  0.90407304104E+01 -0.19907127904E+02  0.34280263438E+02  0.50528868072E+02  0.30000024991E+02 0.  0.
        -12    1    1    2    0    0 -0.90407304104E+01  0.19907127904E+02 -0.34280263438E+02  0.40659131928E+02  0.00000000000E+00 0.  1.
         11    1    3    3    0    0  0.59048061524E+00 -0.53201335342E+01  0.19058428188E+01  0.56819649145E+01  0.51100000000E-03 0. -1.
        -11    1    3    3    0    0  0.56109433889E+01 -0.96862779463E+01 -0.77146453643E+00  0.11220598200E+02  0.51100000000E-03 0.  1.
        -12    1    3    3    0    0  0.28393064063E+01 -0.49007164235E+01  0.33145885156E+02  0.33626304958E+02  0.00000000000E+00 0.  1.
</event>
<event>
 7    1  0.3449452E-011  0.5052885E+02  0.7816164E-02  0.1300439E+00
        -11   -1    0    0    0    0  0.00000000000E+00  0.00000000000E+00  0.45593999997E+02  0.45594000000E+02  0.51100000000E-03 0. -1.
         11   -1    0    0    0    0 -0.00000000000E+00 -0.00000000000E+00 -0.45593999997E+02  0.45594000000E+02  0.51100000000E-03 0.  1.
    9900012    2    1    2    0    0  0.38734369693E+01  0.95065859293E+01  0.39341929564E+02  0.50528854512E+02  0.29999983775E+02 0.  0.
        -12    1    1    2    0    0 -0.38734369693E+01 -0.95065859293E+01 -0.39341929564E+02  0.40659145488E+02  0.00000000000E+00 0.  1.
         11    1    3    3    0    0 -0.27833067996E+01  0.12140679241E+02  0.15545289035E+02  0.19919811762E+02  0.51100000000E-03 0. -1.
        -11    1    3    3    0    0 -0.38469535888E+01 -0.62240119577E+01  0.14032151562E+02  0.15825253694E+02  0.51100000000E-03 0.  1.
         12    1    3    3    0    0  0.10503697358E+02  0.35899186460E+01  0.97644889668E+01  0.14783789056E+02  0.00000000000E+00 0. -1.
</event>
<event>
 7    1  0.3483013E-011  0.5052885E+02  0.7816164E-02  0.1300439E+00
        -11   -1    0    0    0    0  0.00000000000E+00  0.00000000000E+00  0.45593999997E+02  0.45594000000E+02  0.51100000000E-03 0. -1.
         11   -1    0    0    0    0 -0.00000000000E+00 -0.00000000000E+00 -0.45593999997E+02  0.45594000000E+02  0.51100000000E-03 0.  1.
    9900012    2    1    2    0    0  0.82964688726E+01 -0.32283219597E+02  0.23283666270E+02  0.50528846316E+02  0.29999958862E+02 0.  0.
        -12    1    1    2    0    0 -0.82964688726E+01  0.32283219597E+02 -0.23283666270E+02  0.40659153684E+02  0.00000000000E+00 0.  1.
         11    1    3    3    0    0  0.14572493932E+02 -0.22996915894E+02  0.19816006385E+02  0.33673280644E+02  0.51100000000E-03 0. -1.
        -11    1    3    3    0    0  0.16551213977E+01 -0.53044648353E+01 -0.25696717345E+01  0.61220900937E+01  0.51100000000E-03 0.  1.
        -12    1    3    3    0    0 -0.79311464575E+01 -0.39818388686E+01  0.60373316196E+01  0.10733475578E+02  0.00000000000E+00 0.  1.
</event>
<event>
 7    1  0.3449452E-011  0.5052886E+02  0.7816164E-02  0.1300439E+00
        -11   -1    0    0    0    0  0.00000000000E+00  0.00000000000E+00  0.45593999997E+02  0.45594000000E+02  0.51100000000E-03 0.  1.
         11   -1    0    0    0    0 -0.00000000000E+00 -0.00000000000E+00 -0.45593999997E+02  0.45594000000E+02  0.51100000000E-03 0. -1.
    9900012    2    1    2    0    0 -0.11073754456E+02  0.17761570395E+02 -0.34857768574E+02  0.50528862643E+02  0.30000008490E+02 0.  0.
        -12    1    1    2    0    0  0.11073754456E+02 -0.17761570395E+02  0.34857768574E+02  0.40659137357E+02  0.00000000000E+00 0.  1.
         11    1    3    3    0    0  0.13494156736E+01  0.30561279518E+01 -0.27034712458E+02  0.27240347256E+02  0.51100000000E-03 0. -1.
        -11    1    3    3    0    0 -0.23668307461E+00  0.62717670953E+01  0.49125005009E+00  0.62954275668E+01  0.51100000000E-03 0.  1.
        -12    1    3    3    0    0 -0.12186487055E+02  0.84336753481E+01 -0.83143061662E+01  0.16993087820E+02  0.00000000000E+00 0.  1.
</event>
<event>
 7    1 -0.3449452E-011  0.5052889E+02  0.7816164E-02  0.1300439E+00
        -11   -1    0    0    0    0  0.00000000000E+00  0.00000000000E+00  0.45593999997E+02  0.45594000000E+02  0.51100000000E-03 0.  1.
         11   -1    0    0    0    0 -0.00000000000E+00 -0.00000000000E+00 -0.45593999997E+02  0.45594000000E+02  0.51100000000E-03 0. -1.
    9900012    2    1    2    0    0 -0.28524854322E+02  0.38100550372E+01 -0.28722453088E+02  0.50528890998E+02  0.30000094677E+02 0.  0.
        -12    1    1    2    0    0  0.28524854322E+02 -0.38100550372E+01  0.28722453088E+02  0.40659109002E+02  0.00000000000E+00 0.  1.
         11    1    3    3    0    0 -0.25330922125E+02  0.35239940502E+01 -0.21751538812E+02  0.33573852783E+02  0.51100000000E-03 0. -1.
        -11    1    3    3    0    0 -0.87229572554E+01 -0.25257524107E+01 -0.28898785995E+01  0.95299951260E+01  0.51100000000E-03 0.  1.
        -12    1    3    3    0    0  0.55290250581E+01  0.28118133977E+01 -0.40810356764E+01  0.74250430887E+01  0.00000000000E+00 0.  1.
</event>
<event>
 7    1  0.3449452E-011  0.5052886E+02  0.7816164E-02  0.1300439E+00
        -11   -1    0    0    0    0  0.00000000000E+00  0.00000000000E+00  0.45593999997E+02  0.45594000000E+02  0.51100000000E-03 0. -1.
         11   -1    0    0    0    0 -0.00000000000E+00 -0.00000000000E+00 -0.45593999997E+02  0.45594000000E+02  0.51100000000E-03 0.  1.
    9900012    2    1    2    0    0  0.17082834097E+02 -0.29920620993E+02  0.21589327767E+02  0.50528857672E+02  0.29999993379E+02 0.  0.
        -12    1    1    2    0    0 -0.17082834097E+02  0.29920620993E+02 -0.21589327767E+02  0.40659142328E+02  0.00000000000E+00 0.  1.
         11    1    3    3    0    0 -0.57907066049E+01 -0.76188745987E+01  0.73089994658E+01  0.12041636375E+02  0.51100000000E-03 0. -1.
        -11    1    3    3    0    0  0.48628457943E+01  0.27434687500E+00 -0.20786975958E+01  0.52956132207E+01  0.51100000000E-03 0.  1.
         12    1    3    3    0    0  0.18010694908E+02 -0.22576093270E+02  0.16359025897E+02  0.33191608076E+02  0.00000000000E+00 0. -1.
</event>
<event>
 7    1  0.3449452E-011  0.5052886E+02  0.7816164E-02  0.1300439E+00
        -11   -1    0    0    0    0  0.00000000000E+00  0.00000000000E+00  0.45593999997E+02  0.45594000000E+02  0.51100000000E-03 0.  1.
         11   -1    0    0    0    0 -0.00000000000E+00 -0.00000000000E+00 -0.45593999997E+02  0.45594000000E+02  0.51100000000E-03 0. -1.
    9900012    2    1    2    0    0  0.27435344586E+02  0.24740623735E+02 -0.16981432350E+02  0.50528860314E+02  0.30000001410E+02 0.  0.
        -12    1    1    2    0    0 -0.27435344586E+02 -0.24740623735E+02  0.16981432350E+02  0.40659139686E+02  0.00000000000E+00 0.  1.
         11    1    3    3    0    0  0.22224754710E+02  0.23634959072E+01 -0.68640483256E+01  0.23380354884E+02  0.51100000000E-03 0. -1.
        -11    1    3    3    0    0  0.20456168787E+01  0.31623749616E+01  0.19477807291E+01  0.42401667233E+01  0.51100000000E-03 0.  1.
        -12    1    3    3    0    0  0.31649729977E+01  0.19214752866E+02 -0.12065164753E+02  0.22908338707E+02  0.00000000000E+00 0.  1.
</event>
<event>
 7    1  0.3449452E-011  0.5052886E+02  0.7816164E-02  0.1300439E+00
        -11   -1    0    0    0    0  0.00000000000E+00  0.00000000000E+00  0.45593999997E+02  0.45594000000E+02  0.51100000000E-03 0.  1.
         11   -1    0    0    0    0 -0.00000000000E+00 -0.00000000000E+00 -0.45593999997E+02  0.45594000000E+02  0.51100000000E-03 0. -1.
    9900012    2    1    2    0    0  0.56011065665E+01 -0.25367387310E+02 -0.31277617159E+02  0.50528855041E+02  0.29999985381E+02 0.  0.
        -12    1    1    2    0    0 -0.56011065665E+01  0.25367387310E+02  0.31277617159E+02  0.40659144959E+02  0.00000000000E+00 0.  1.
         11    1    3    3    0    0 -0.33045316894E+01 -0.26942785156E+02 -0.17741342434E+02  0.32428210454E+02  0.51100000000E-03 0. -1.
        -11    1    3    3    0    0 -0.59298139239E+00  0.43651967874E+00 -0.56632503995E+01  0.57109177642E+01  0.51100000000E-03 0.  1.
        -12    1    3    3    0    0  0.94986196483E+01  0.11388781670E+01 -0.78730243258E+01  0.12389726823E+02  0.00000000000E+00 0.  1.
</event>
<event>
 7    1  0.3449452E-011  0.5052886E+02  0.7816164E-02  0.1300439E+00
        -11   -1    0    0    0    0  0.00000000000E+00  0.00000000000E+00  0.45593999997E+02  0.45594000000E+02  0.51100000000E-03 0.  1.
         11   -1    0    0    0    0 -0.00000000000E+00 -0.00000000000E+00 -0.45593999997E+02  0.45594000000E+02  0.51100000000E-03 0. -1.
    9900012    2    1    2    0    0  0.10362430152E+02 -0.37782278323E+02  0.10875886370E+02  0.50528863040E+02  0.30000009698E+02 0.  0.
        -12    1    1    2    0    0 -0.10362430152E+02  0.37782278323E+02 -0.10875886370E+02  0.40659136960E+02  0.00000000000E+00 0.  1.
         11    1    3    3    0    0  0.24551882625E+00 -0.16886226833E+02  0.44240928506E+01  0.17457878850E+02  0.51100000000E-03 0. -1.
        -11    1    3    3    0    0  0.22896891849E+01 -0.22542839244E+02 -0.21266408400E+00  0.22659821359E+02  0.51100000000E-03 0.  1.
        -12    1    3    3    0    0  0.78272221412E+01  0.16467877534E+01  0.66644576031E+01  0.10411162831E+02  0.00000000000E+00 0.  1.
</event>
<event>
 7    1  0.3449452E-011  0.5052886E+02  0.7816164E-02  0.1300439E+00
        -11   -1    0    0    0    0  0.00000000000E+00  0.00000000000E+00  0.45593999997E+02  0.45594000000E+02  0.51100000000E-03 0.  1.
         11   -1    0    0    0    0 -0.00000000000E+00 -0.00000000000E+00 -0.45593999997E+02  0.45594000000E+02  0.51100000000E-03 0. -1.
    9900012    2    1    2    0    0  0.24953125418E+02 -0.48565113049E+01 -0.31732023883E+02  0.50528861914E+02  0.30000006273E+02 0.  0.
        -12    1    1    2    0    0 -0.24953125418E+02  0.48565113049E+01  0.31732023883E+02  0.40659138086E+02  0.00000000000E+00 0.  1.
         11    1    3    3    0    0  0.84860487682E+01 -0.11235133836E+01 -0.41069162215E+01  0.94943176233E+01  0.51100000000E-03 0. -1.
        -11    1    3    3    0    0  0.93892385284E+00 -0.48595568197E+01  0.36155541425E+01  0.61293639559E+01  0.51100000000E-03 0.  1.
         12    1    3    3    0    0  0.15528152797E+02  0.11265588983E+01 -0.31240661804E+02  0.34905180335E+02  0.00000000000E+00 0. -1.
</event>
<event>
 7    1  0.3449452E-011  0.5052886E+02  0.7816164E-02  0.1300439E+00
        -11   -1    0    0    0    0  0.00000000000E+00  0.00000000000E+00  0.45593999997E+02  0.45594000000E+02  0.51100000000E-03 0.  1.
         11   -1    0    0    0    0 -0.00000000000E+00 -0.00000000000E+00 -0.45593999997E+02  0.45594000000E+02  0.51100000000E-03 0. -1.
    9900012    2    1    2    0    0  0.15161648515E+02  0.18665529817E+02 -0.32785480468E+02  0.50528864267E+02  0.30000013425E+02 0.  0.
        -12    1    1    2    0    0 -0.15161648515E+02 -0.18665529817E+02  0.32785480468E+02  0.40659135733E+02  0.00000000000E+00 0.  1.
         11    1    3    3    0    0  0.23141900167E+01  0.12093091310E+02 -0.12038306466E+02  0.17219731580E+02  0.51100000000E-03 0. -1.
        -11    1    3    3    0    0  0.16108744632E+02  0.11747559177E+02 -0.15617524352E+02  0.25325952448E+02  0.51100000000E-03 0.  1.
         12    1    3    3    0    0 -0.32612861333E+01 -0.51751206700E+01 -0.51296496491E+01  0.79831802381E+01  0.00000000000E+00 0. -1.
</event>
<event>
 7    1  0.3449452E-011  0.5052886E+02  0.7816164E-02  0.1300439E+00
        -11   -1    0    0    0    0  0.00000000000E+00  0.00000000000E+00  0.45593999997E+02  0.45594000000E+02  0.51100000000E-03 0.  1.
         11   -1    0    0    0    0 -0.00000000000E+00 -0.00000000000E+00 -0.45593999997E+02  0.45594000000E+02  0.51100000000E-03 0. -1.
    9900012    2    1    2    0    0 -0.26446072885E+02 -0.28217400962E+01 -0.30754001895E+02  0.50528860551E+02  0.30000002129E+02 0.  0.
        -12    1    1    2    0    0  0.26446072885E+02  0.28217400962E+01  0.30754001895E+02  0.40659139449E+02  0.00000000000E+00 0.  1.
         11    1    3    3    0    0 -0.21096437226E+01  0.48227400485E+01  0.15836930966E+01  0.54970448695E+01  0.51100000000E-03 0. -1.
        -11    1    3    3    0    0 -0.87602047122E+00 -0.76464861982E+01 -0.59878441823E+01  0.97514327797E+01  0.51100000000E-03 0.  1.
         12    1    3    3    0    0 -0.23460408692E+02  0.20060534530E-02 -0.26349850809E+02  0.35280382901E+02  0.00000000000E+00 0. -1.
</event>
<event>
 7    1  0.3449452E-011  0.5052886E+02  0.7816164E-02  0.1300439E+00
        -11   -1    0    0    0    0  0.00000000000E+00  0.00000000000E+00  0.45593999997E+02  0.45594000000E+02  0.51100000000E-03 0.  1.
         11   -1    0    0    0    0 -0.00000000000E+00 -0.00000000000E+00 -0.45593999997E+02  0.45594000000E+02  0.51100000000E-03 0. -1.
    9900012    2    1    2    0    0 -0.25465487854E+02  0.25595018086E+02 -0.18696774736E+02  0.50528863167E+02  0.30000010084E+02 0.  0.
        -12    1    1    2    0    0  0.25465487854E+02 -0.25595018086E+02  0.18696774736E+02  0.40659136833E+02  0.00000000000E+00 0.  1.
         11    1    3    3    0    0 -0.12566045927E+02  0.20652436537E+02 -0.41870393685E+01  0.24534872001E+02  0.51100000000E-03 0. -1.
        -11    1    3    3    0    0 -0.55881905330E+01  0.63092397623E+01  0.12944726955E+01  0.85270182146E+01  0.51100000000E-03 0.  1.
         12    1    3    3    0    0 -0.73112513938E+01 -0.13666582134E+01 -0.15804208063E+02  0.17466972952E+02  0.00000000000E+00 0. -1.
</event>
<event>
 7    1  0.3449452E-011  0.5052884E+02  0.7816164E-02  0.1300439E+00
        -11   -1    0    0    0    0  0.00000000000E+00  0.00000000000E+00  0.45593999997E+02  0.45594000000E+02  0.51100000000E-03 0.  1.
         11   -1    0    0    0    0 -0.00000000000E+00 -0.00000000000E+00 -0.45593999997E+02  0.45594000000E+02  0.51100000000E-03 0. -1.
    9900012    2    1    2    0    0 -0.56574130398E+01  0.16342982334E+02 -0.36797659526E+02  0.50528841862E+02  0.29999945324E+02 0.  0.
        -12    1    1    2    0    0  0.56574130398E+01 -0.16342982334E+02  0.36797659526E+02  0.40659158138E+02  0.00000000000E+00 0.  1.
         11    1    3    3    0    0 -0.85502092050E+01  0.50232501790E+01 -0.21818838895E+02  0.23966661236E+02  0.51100000000E-03 0. -1.
        -11    1    3    3    0    0 -0.25553347617E+01  0.13745338616E+02 -0.15124807673E+02  0.20596695774E+02  0.51100000000E-03 0.  1.
        -12    1    3    3    0    0  0.54481309269E+01 -0.24256064611E+01  0.14598704195E+00  0.59654848518E+01  0.00000000000E+00 0.  1.
</event>
<event>
 7    1  0.3449452E-011  0.5052886E+02  0.7816164E-02  0.1300439E+00
        -11   -1    0    0    0    0  0.00000000000E+00  0.00000000000E+00  0.45593999997E+02  0.45594000000E+02  0.51100000000E-03 0.  1.
         11   -1    0    0    0    0 -0.00000000000E+00 -0.00000000000E+00 -0.45593999997E+02  0.45594000000E+02  0.51100000000E-03 0. -1.
    9900012    2    1    2    0    0 -0.39710293548E+02 -0.36730665513E+01 -0.79225360872E+01  0.50528863147E+02  0.30000010022E+02 0.  0.
        -12    1    1    2    0    0  0.39710293548E+02  0.36730665513E+01  0.79225360872E+01  0.40659136853E+02  0.00000000000E+00 0.  1.
         11    1    3    3    0    0  0.27314458155E+00  0.39211581131E+00 -0.18181156034E+01  0.18798689795E+01  0.51100000000E-03 0. -1.
        -11    1    3    3    0    0 -0.35300637367E+02 -0.25413280758E+00 -0.14620847601E+02  0.38209537642E+02  0.51100000000E-03 0.  1.
        -12    1    3    3    0    0 -0.46828007625E+01 -0.38110495550E+01  0.85164271176E+01  0.10439456525E+02  0.00000000000E+00 0.  1.
</event>
<event>
 7    1  0.3449452E-011  0.5052888E+02  0.7816164E-02  0.1300439E+00
        -11   -1    0    0    0    0  0.00000000000E+00  0.00000000000E+00  0.45593999997E+02  0.45594000000E+02  0.51100000000E-03 0. -1.
         11   -1    0    0    0    0 -0.00000000000E+00 -0.00000000000E+00 -0.45593999997E+02  0.45594000000E+02  0.51100000000E-03 0.  1.
    9900012    2    1    2    0    0  0.21448599602E+02  0.15323646398E+02  0.30956544748E+02  0.50528877696E+02  0.30000054245E+02 0.  0.
        -12    1    1    2    0    0 -0.21448599602E+02 -0.15323646398E+02 -0.30956544748E+02  0.40659122304E+02  0.00000000000E+00 0.  1.
         11    1    3    3    0    0 -0.87183740463E+00  0.36935759388E+01  0.89228559462E+01  0.96963891307E+01  0.51100000000E-03 0. -1.
        -11    1    3    3    0    0  0.47800093669E+01  0.10042526097E+02 -0.17278608263E+01  0.11255501910E+02  0.51100000000E-03 0.  1.
         12    1    3    3    0    0  0.17540427639E+02  0.15875443623E+01  0.23761549628E+02  0.29576986655E+02  0.00000000000E+00 0. -1.
</event>
<event>
 7    1  0.3449452E-011  0.5052886E+02  0.7816164E-02  0.1300439E+00
        -11   -1    0    0    0    0  0.00000000000E+00  0.00000000000E+00  0.45593999997E+02  0.45594000000E+02  0.51100000000E-03 0. -1.
         11   -1    0    0    0    0 -0.00000000000E+00 -0.00000000000E+00 -0.45593999997E+02  0.45594000000E+02  0.51100000000E-03 0.  1.
    9900012    2    1    2    0    0  0.28696645524E+02  0.25105757009E+02 -0.14119813614E+02  0.50528860365E+02  0.30000001566E+02 0.  0.
        -12    1    1    2    0    0 -0.28696645524E+02 -0.25105757009E+02  0.14119813614E+02  0.40659139635E+02  0.00000000000E+00 0.  1.
         11    1    3    3    0    0 -0.40013231452E+01 -0.20481882430E+01 -0.60364037351E-01  0.44954761782E+01  0.51100000000E-03 0. -1.
        -11    1    3    3    0    0  0.22792120953E+01  0.68662133355E+01 -0.30198851937E+01  0.78396045939E+01  0.51100000000E-03 0.  1.
        -12    1    3    3    0    0  0.30418756574E+02  0.20287731917E+02 -0.11039564383E+02  0.38193779593E+02  0.00000000000E+00 0.  1.
</event>
<event>
 7    1  0.3449452E-011  0.5052886E+02  0.7816164E-02  0.1300439E+00
        -11   -1    0    0    0    0  0.00000000000E+00  0.00000000000E+00  0.45593999997E+02  0.45594000000E+02  0.51100000000E-03 0. -1.
         11   -1    0    0    0    0 -0.00000000000E+00 -0.00000000000E+00 -0.45593999997E+02  0.45594000000E+02  0.51100000000E-03 0.  1.
    9900012    2    1    2    0    0 -0.27079508018E+02 -0.30133609574E+02  0.34397386865E+01  0.50528856100E+02  0.29999988601E+02 0.  0.
        -12    1    1    2    0    0  0.27079508018E+02  0.30133609574E+02 -0.34397386865E+01  0.40659143900E+02  0.00000000000E+00 0.  1.
         11    1    3    3    0    0 -0.76559987012E+01 -0.47817423887E+01 -0.45347883551E+01  0.10101667292E+02  0.51100000000E-03 0. -1.
        -11    1    3    3    0    0 -0.21970873956E+02 -0.11418818325E+02  0.86990747876E+01  0.26244668349E+02  0.51100000000E-03 0.  1.
        -12    1    3    3    0    0  0.25473646389E+01 -0.13933048860E+02 -0.72454774606E+00  0.14182520459E+02  0.00000000000E+00 0.  1.
</event>
<event>
 7    1  0.3449452E-011  0.5052888E+02  0.7816164E-02  0.1300439E+00
        -11   -1    0    0    0    0  0.00000000000E+00  0.00000000000E+00  0.45593999997E+02  0.45594000000E+02  0.51100000000E-03 0.  1.
         11   -1    0    0    0    0 -0.00000000000E+00 -0.00000000000E+00 -0.45593999997E+02  0.45594000000E+02  0.51100000000E-03 0. -1.
    9900012    2    1    2    0    0 -0.24904426772E+02  0.19136344875E+02  0.25821186256E+02  0.50528882600E+02  0.30000069152E+02 0.  0.
        -12    1    1    2    0    0  0.24904426772E+02 -0.19136344875E+02 -0.25821186256E+02  0.40659117400E+02  0.00000000000E+00 0.  1.
         11    1    3    3    0    0 -0.21244936512E+02  0.64267483573E+01  0.26944481734E+01  0.22358677802E+02  0.51100000000E-03 0. -1.
        -11    1    3    3    0    0 -0.63597640952E+01  0.77046825211E+01  0.11544132632E+02  0.15266817959E+02  0.51100000000E-03 0.  1.
        -12    1    3    3    0    0  0.27002738347E+01  0.50049139971E+01  0.11582605450E+02  0.12903386839E+02  0.00000000000E+00 0.  1.
</event>
<event>
 7    1  0.3449452E-011  0.5052886E+02  0.7816164E-02  0.1300439E+00
        -11   -1    0    0    0    0  0.00000000000E+00  0.00000000000E+00  0.45593999997E+02  0.45594000000E+02  0.51100000000E-03 0. -1.
         11   -1    0    0    0    0 -0.00000000000E+00 -0.00000000000E+00 -0.45593999997E+02  0.45594000000E+02  0.51100000000E-03 0.  1.
    9900012    2    1    2    0    0 -0.28901081416E+02  0.17048493678E+02  0.22961757226E+02  0.50528856642E+02  0.29999990248E+02 0.  0.
        -12    1    1    2    0    0  0.28901081416E+02 -0.17048493678E+02 -0.22961757226E+02  0.40659143358E+02  0.00000000000E+00 0.  1.
         11    1    3    3    0    0 -0.13654612798E+02  0.10002526320E+02  0.35089408380E+01  0.17286169312E+02  0.51100000000E-03 0. -1.
        -11    1    3    3    0    0  0.40674098988E+01 -0.24347603437E+01  0.88345063282E+00  0.48220707687E+01  0.51100000000E-03 0.  1.
         12    1    3    3    0    0 -0.19313878517E+02  0.94807277022E+01  0.18569365755E+02  0.28420616561E+02  0.00000000000E+00 0. -1.
</event>
<event>
 7    1  0.3449452E-011  0.5052886E+02  0.7816164E-02  0.1300439E+00
        -11   -1    0    0    0    0  0.00000000000E+00  0.00000000000E+00  0.45593999997E+02  0.45594000000E+02  0.51100000000E-03 0.  1.
         11   -1    0    0    0    0 -0.00000000000E+00 -0.00000000000E+00 -0.45593999997E+02  0.45594000000E+02  0.51100000000E-03 0. -1.
    9900012    2    1    2    0    0  0.13190012187E+02 -0.57388967716E+01 -0.38029649018E+02  0.50528861273E+02  0.30000004324E+02 0.  0.
        -12    1    1    2    0    0 -0.13190012187E+02  0.57388967716E+01  0.38029649018E+02  0.40659138727E+02  0.00000000000E+00 0.  1.
         11    1    3    3    0    0 -0.65875882964E-01 -0.85133629794E+01 -0.15453072007E+02  0.17643104136E+02  0.51100000000E-03 0. -1.
        -11    1    3    3    0    0  0.17277979601E+02 -0.34392123112E+00 -0.11677305053E+02  0.20856804992E+02  0.51100000000E-03 0.  1.
         12    1    3    3    0    0 -0.40220915305E+01  0.31183874389E+01 -0.10899271958E+02  0.12028952145E+02  0.00000000000E+00 0. -1.
</event>
<event>
 7    1  0.3449452E-011  0.5052886E+02  0.7816164E-02  0.1300439E+00
        -11   -1    0    0    0    0  0.00000000000E+00  0.00000000000E+00  0.45593999997E+02  0.45594000000E+02  0.51100000000E-03 0. -1.
         11   -1    0    0    0    0 -0.00000000000E+00 -0.00000000000E+00 -0.45593999997E+02  0.45594000000E+02  0.51100000000E-03 0.  1.
    9900012    2    1    2    0    0 -0.87930238644E+01  0.39674009027E+02 -0.13496706438E+01  0.50528857464E+02  0.29999992747E+02 0.  0.
        -12    1    1    2    0    0  0.87930238644E+01 -0.39674009027E+02  0.13496706438E+01  0.40659142536E+02  0.00000000000E+00 0.  1.
         11    1    3    3    0    0 -0.38459487614E+01  0.30337603810E+02 -0.56921060682E+01  0.31105652197E+02  0.51100000000E-03 0. -1.
        -11    1    3    3    0    0 -0.85361025883E+01  0.38058028077E+01 -0.27474206479E+01  0.97415349348E+01  0.51100000000E-03 0.  1.
        -12    1    3    3    0    0  0.35890274853E+01  0.55306024088E+01  0.70898560723E+01  0.96816703322E+01  0.00000000000E+00 0.  1.
</event>
<event>
 7    1  0.3449452E-011  0.5052884E+02  0.7816164E-02  0.1300439E+00
        -11   -1    0    0    0    0  0.00000000000E+00  0.00000000000E+00  0.45593999997E+02  0.45594000000E+02  0.51100000000E-03 0.  1.
         11   -1    0    0    0    0 -0.00000000000E+00 -0.00000000000E+00 -0.45593999997E+02  0.45594000000E+02  0.51100000000E-03 0. -1.
    9900012    2    1    2    0    0 -0.24221652011E+02  0.23335518595E+02 -0.22845838373E+02  0.50528841312E+02  0.29999943652E+02 0.  0.
        -12    1    1    2    0    0  0.24221652011E+02 -0.23335518595E+02  0.22845838373E+02  0.40659158688E+02  0.00000000000E+00 0.  1.
         11    1    3    3    0    0  0.99161593839E+00 -0.73057839768E+00  0.12481896013E+01  0.17535747792E+01  0.51100000000E-03 0. -1.
        -11    1    3    3    0    0 -0.12971526278E+02 -0.91197027761E+00 -0.14192642306E+02  0.19248981263E+02  0.51100000000E-03 0.  1.
        -12    1    3    3    0    0 -0.12241741671E+02  0.24978067270E+02 -0.99013856686E+01  0.29526285270E+02  0.00000000000E+00 0.  1.
</event>
<event>
 7    1  0.3449452E-011  0.5052886E+02  0.7816164E-02  0.1300439E+00
        -11   -1    0    0    0    0  0.00000000000E+00  0.00000000000E+00  0.45593999997E+02  0.45594000000E+02  0.51100000000E-03 0.  1.
         11   -1    0    0    0    0 -0.00000000000E+00 -0.00000000000E+00 -0.45593999997E+02  0.45594000000E+02  0.51100000000E-03 0. -1.
    9900012    2    1    2    0    0 -0.91271231556E+01 -0.14064030841E+02 -0.37041382167E+02  0.50528864084E+02  0.30000012871E+02 0.  0.
        -12    1    1    2    0    0  0.91271231556E+01  0.14064030841E+02  0.37041382167E+02  0.40659135916E+02  0.00000000000E+00 0.  1.
         11    1    3    3    0    0 -0.48223739125E+00  0.37876251569E+01 -0.17713380955E+02  0.18120224125E+02  0.51100000000E-03 0. -1.
        -11    1    3    3    0    0 -0.51721578599E+01  0.34823834631E+00  0.57571373560E+00  0.52157390119E+01  0.51100000000E-03 0.  1.
        -12    1    3    3    0    0 -0.34727279044E+01 -0.18199894344E+02 -0.19903714947E+02  0.27192900947E+02  0.00000000000E+00 0.  1.
</event>
<event>
 7    1  0.3449452E-011  0.5052886E+02  0.7816164E-02  0.1300439E+00
        -11   -1    0    0    0    0  0.00000000000E+00  0.00000000000E+00  0.45593999997E+02  0.45594000000E+02  0.51100000000E-03 0. -1.
         11   -1    0    0    0    0 -0.00000000000E+00 -0.00000000000E+00 -0.45593999997E+02  0.45594000000E+02  0.51100000000E-03 0.  1.
    9900012    2    1    2    0    0 -0.59417432281E+00 -0.31516352373E+01  0.40532450900E+02  0.50528862973E+02  0.30000009493E+02 0.  0.
        -12    1    1    2    0    0  0.59417432281E+00  0.31516352373E+01 -0.40532450900E+02  0.40659137027E+02  0.00000000000E+00 0.  1.
         11    1    3    3    0    0 -0.29655029676E+01 -0.11111835920E+02  0.91916957593E+01  0.14722580499E+02  0.51100000000E-03 0. -1.
        -11    1    3    3    0    0  0.40695684438E+01  0.11186210619E+01  0.59436114806E+00  0.42621550693E+01  0.51100000000E-03 0.  1.
         12    1    3    3    0    0 -0.16982397990E+01  0.68415796212E+01  0.30746393993E+02  0.31544127404E+02  0.00000000000E+00 0. -1.
</event>
<event>
 7    1  0.3449452E-011  0.5052887E+02  0.7816164E-02  0.1300439E+00
        -11   -1    0    0    0    0  0.00000000000E+00  0.00000000000E+00  0.45593999997E+02  0.45594000000E+02  0.51100000000E-03 0.  1.
         11   -1    0    0    0    0 -0.00000000000E+00 -0.00000000000E+00 -0.45593999997E+02  0.45594000000E+02  0.51100000000E-03 0. -1.
    9900012    2    1    2    0    0  0.29579120251E+02  0.97117022180E+01 -0.26151933452E+02  0.50528866486E+02  0.30000020171E+02 0.  0.
        -12    1    1    2    0    0 -0.29579120251E+02 -0.97117022180E+01  0.26151933452E+02  0.40659133514E+02  0.00000000000E+00 0.  1.
         11    1    3    3    0    0  0.12643840954E+02  0.83766909007E+01 -0.21431775012E+02  0.26255602163E+02  0.51100000000E-03 0. -1.
        -11    1    3    3    0    0  0.16694512750E+02  0.69874821838E+01 -0.42899370543E+01  0.18599333951E+02  0.51100000000E-03 0.  1.
        -12    1    3    3    0    0  0.24076654676E+00 -0.56524708665E+01 -0.43022138667E+00  0.56739303722E+01  0.00000000000E+00 0.  1.
</event>
<event>
 7    1  0.3449452E-011  0.5052885E+02  0.7816164E-02  0.1300439E+00
        -11   -1    0    0    0    0  0.00000000000E+00  0.00000000000E+00  0.45593999997E+02  0.45594000000E+02  0.51100000000E-03 0.  1.
         11   -1    0    0    0    0 -0.00000000000E+00 -0.00000000000E+00 -0.45593999997E+02  0.45594000000E+02  0.51100000000E-03 0. -1.
    9900012    2    1    2    0    0 -0.29255684166E+02  0.69637708343E+01 -0.27363796344E+02  0.50528849608E+02  0.29999968869E+02 0.  0.
        -12    1    1    2    0    0  0.29255684166E+02 -0.69637708343E+01  0.27363796344E+02  0.40659150392E+02  0.00000000000E+00 0.  1.
         11    1    3    3    0    0 -0.17424404436E+02  0.46380937079E+01 -0.95465840700E+01  0.20402427573E+02  0.51100000000E-03 0. -1.
        -11    1    3    3    0    0 -0.98146299406E+01 -0.26895185186E+01  0.13004858824E+01  0.10259226800E+02  0.51100000000E-03 0.  1.
        -12    1    3    3    0    0 -0.20166497887E+01  0.50151956450E+01 -0.19117698157E+02  0.19867195236E+02  0.00000000000E+00 0.  1.
</event>
<event>
 7    1  0.3449452E-011  0.5052886E+02  0.7816164E-02  0.1300439E+00
        -11   -1    0    0    0    0  0.00000000000E+00  0.00000000000E+00  0.45593999997E+02  0.45594000000E+02  0.51100000000E-03 0.  1.
         11   -1    0    0    0    0 -0.00000000000E+00 -0.00000000000E+00 -0.45593999997E+02  0.45594000000E+02  0.51100000000E-03 0. -1.
    9900012    2    1    2    0    0 -0.17454077736E+02  0.36678307724E+02  0.17950574042E+01  0.50528864272E+02  0.30000013440E+02 0.  0.
        -12    1    1    2    0    0  0.17454077736E+02 -0.36678307724E+02 -0.17950574042E+01  0.40659135728E+02  0.00000000000E+00 0.  1.
         11    1    3    3    0    0 -0.80204938499E+01  0.85657838058E+01 -0.11362875412E+02  0.16334500657E+02  0.51100000000E-03 0. -1.
        -11    1    3    3    0    0 -0.43966740799E+01  0.18931272659E+01  0.28739715134E+01  0.55834027556E+01  0.51100000000E-03 0.  1.
         12    1    3    3    0    0 -0.50369098058E+01  0.26219396652E+02  0.10283961303E+02  0.28610960859E+02  0.00000000000E+00 0. -1.
</event>
<event>
 7    1  0.3449452E-011  0.5052886E+02  0.7816164E-02  0.1300439E+00
        -11   -1    0    0    0    0  0.00000000000E+00  0.00000000000E+00  0.45593999997E+02  0.45594000000E+02  0.51100000000E-03 0.  1.
         11   -1    0    0    0    0 -0.00000000000E+00 -0.00000000000E+00 -0.45593999997E+02  0.45594000000E+02  0.51100000000E-03 0. -1.
    9900012    2    1    2    0    0 -0.21620244254E+02 -0.17114501151E+02 -0.29880167106E+02  0.50528862066E+02  0.30000006736E+02 0.  0.
        -12    1    1    2    0    0  0.21620244254E+02  0.17114501151E+02  0.29880167106E+02  0.40659137934E+02  0.00000000000E+00 0.  1.
         11    1    3    3    0    0 -0.41929661859E+01  0.41029631491E+01 -0.12597748437E+02  0.13896709610E+02  0.51100000000E-03 0. -1.
        -11    1    3    3    0    0 -0.15287372687E+02 -0.52823823147E+01 -0.96515720216E+01  0.18835078161E+02  0.51100000000E-03 0.  1.
        -12    1    3    3    0    0 -0.21399053811E+01 -0.15935081985E+02 -0.76308466477E+01  0.17797074295E+02  0.00000000000E+00 0.  1.
</event>
<event>
 7    1  0.3449452E-011  0.5052890E+02  0.7816164E-02  0.1300439E+00
        -11   -1    0    0    0    0  0.00000000000E+00  0.00000000000E+00  0.45593999997E+02  0.45594000000E+02  0.51100000000E-03 0.  1.
         11   -1    0    0    0    0 -0.00000000000E+00 -0.00000000000E+00 -0.45593999997E+02  0.45594000000E+02  0.51100000000E-03 0. -1.
    9900012    2    1    2    0    0  0.15646086159E+02 -0.43830637044E+01 -0.37271316502E+02  0.50528901469E+02  0.30000126505E+02 0.  0.
        -12    1    1    2    0    0 -0.15646086159E+02  0.43830637044E+01  0.37271316502E+02  0.40659098531E+02  0.00000000000E+00 0.  1.
         11    1    3    3    0    0  0.20350005068E+02  0.33817074827E+01 -0.25521696569E+02  0.32816392973E+02  0.51100000000E-03 0. -1.
        -11    1    3    3    0    0 -0.50266006867E+00  0.22895793549E+01 -0.23929782917E+01  0.33498038947E+01  0.51100000000E-03 0.  1.
        -12    1    3    3    0    0 -0.42012588396E+01 -0.10054350542E+02 -0.93566416410E+01  0.14362704601E+02  0.00000000000E+00 0.  1.
</event>
<event>
 7    1  0.3449452E-011  0.5052887E+02  0.7816164E-02  0.1300439E+00
        -11   -1    0    0    0    0  0.00000000000E+00  0.00000000000E+00  0.45593999997E+02  0.45594000000E+02  0.51100000000E-03 0.  1.
         11   -1    0    0    0    0 -0.00000000000E+00 -0.00000000000E+00 -0.45593999997E+02  0.45594000000E+02  0.51100000000E-03 0. -1.
    9900012    2    1    2    0    0  0.29447039211E+02  0.10883308331E+02 -0.25837776161E+02  0.50528865781E+02  0.30000018028E+02 0.  0.
        -12    1    1    2    0    0 -0.29447039211E+02 -0.10883308331E+02  0.25837776161E+02  0.40659134219E+02  0.00000000000E+00 0.  1.
         11    1    3    3    0    0  0.61985905492E+01 -0.25534121434E+01  0.31783286667E+01  0.74191786435E+01  0.51100000000E-03 0. -1.
        -11    1    3    3    0    0  0.12417851892E+01  0.86401820134E+01 -0.45096313183E+01  0.98250471026E+01  0.51100000000E-03 0.  1.
         12    1    3    3    0    0  0.22006663473E+02  0.47965384606E+01 -0.24506473509E+02  0.33284640035E+02  0.00000000000E+00 0. -1.
</event>
<event>
 7    1  0.3449452E-011  0.5052886E+02  0.7816164E-02  0.1300439E+00
        -11   -1    0    0    0    0  0.00000000000E+00  0.00000000000E+00  0.45593999997E+02  0.45594000000E+02  0.51100000000E-03 0. -1.
         11   -1    0    0    0    0 -0.00000000000E+00 -0.00000000000E+00 -0.45593999997E+02  0.45594000000E+02  0.51100000000E-03 0.  1.
    9900012    2    1    2    0    0 -0.13647898543E+02  0.22273371012E+02  0.31157618292E+02  0.50528863652E+02  0.30000011558E+02 0.  0.
        -12    1    1    2    0    0  0.13647898543E+02 -0.22273371012E+02 -0.31157618292E+02  0.40659136348E+02  0.00000000000E+00 0.  1.
         11    1    3    3    0    0 -0.12302570777E+02  0.10580143827E+02 -0.69234230086E-01  0.16226443996E+02  0.51100000000E-03 0. -1.
        -11    1    3    3    0    0 -0.10044159283E+01 -0.88507429206E+00  0.55365019375E+01  0.56960566908E+01  0.51100000000E-03 0.  1.
        -12    1    3    3    0    0 -0.34091183752E+00  0.12578301477E+02  0.25690350585E+02  0.28606362965E+02  0.00000000000E+00 0.  1.
</event>
<event>
 7    1  0.3449452E-011  0.5052886E+02  0.7816164E-02  0.1300439E+00
        -11   -1    0    0    0    0  0.00000000000E+00  0.00000000000E+00  0.45593999997E+02  0.45594000000E+02  0.51100000000E-03 0. -1.
         11   -1    0    0    0    0 -0.00000000000E+00 -0.00000000000E+00 -0.45593999997E+02  0.45594000000E+02  0.51100000000E-03 0.  1.
    9900012    2    1    2    0    0 -0.30390386876E+02  0.24479757632E+02  0.11416281891E+02  0.50528860309E+02  0.30000001395E+02 0.  0.
        -12    1    1    2    0    0  0.30390386876E+02 -0.24479757632E+02 -0.11416281891E+02  0.40659139691E+02  0.00000000000E+00 0.  1.
         11    1    3    3    0    0 -0.10038513558E+02 -0.28313182765E+01  0.23000906497E+01  0.10680755352E+02  0.51100000000E-03 0. -1.
        -11    1    3    3    0    0  0.41081403718E+00  0.33297155496E+01 -0.42600716542E+01  0.54225441054E+01  0.51100000000E-03 0.  1.
         12    1    3    3    0    0 -0.20762687355E+02  0.23981360359E+02  0.13376262895E+02  0.34425560851E+02  0.00000000000E+00 0. -1.
</event>
<event>
 7    1  0.3449452E-011  0.5052884E+02  0.7816164E-02  0.1300439E+00
        -11   -1    0    0    0    0  0.00000000000E+00  0.00000000000E+00  0.45593999997E+02  0.45594000000E+02  0.51100000000E-03 0.  1.
         11   -1    0    0    0    0 -0.00000000000E+00 -0.00000000000E+00 -0.45593999997E+02  0.45594000000E+02  0.51100000000E-03 0. -1.
    9900012    2    1    2    0    0  0.18001360008E+02 -0.28749575841E+02 -0.22418301523E+02  0.50528839700E+02  0.29999938751E+02 0.  0.
        -12    1    1    2    0    0 -0.18001360008E+02  0.28749575841E+02  0.22418301523E+02  0.40659160300E+02  0.00000000000E+00 0.  1.
         11    1    3    3    0    0 -0.66823191083E+00 -0.86192415784E+01 -0.38285397435E+01  0.94549233790E+01  0.51100000000E-03 0. -1.
        -11    1    3    3    0    0  0.47298945788E+01 -0.10626864299E+02 -0.21024887824E+02  0.24028068083E+02  0.51100000000E-03 0.  1.
         12    1    3    3    0    0  0.13939697340E+02 -0.95034699638E+01  0.24351260445E+01  0.17045848237E+02  0.00000000000E+00 0. -1.
</event>
<event>
 7    1  0.3449452E-011  0.5052886E+02  0.7816164E-02  0.1300439E+00
        -11   -1    0    0    0    0  0.00000000000E+00  0.00000000000E+00  0.45593999997E+02  0.45594000000E+02  0.51100000000E-03 0. -1.
         11   -1    0    0    0    0 -0.00000000000E+00 -0.00000000000E+00 -0.45593999997E+02  0.45594000000E+02  0.51100000000E-03 0.  1.
    9900012    2    1    2    0    0  0.39768339498E+02  0.82183484579E+01  0.20258165153E+01  0.50528855759E+02  0.29999987566E+02 0.  0.
        -12    1    1    2    0    0 -0.39768339498E+02 -0.82183484579E+01 -0.20258165153E+01  0.40659144241E+02  0.00000000000E+00 0.  1.
         11    1    3    3    0    0  0.17055284781E+02 -0.35464538187E+01  0.11739306730E+02  0.21006460825E+02  0.51100000000E-03 0. -1.
        -11    1    3    3    0    0  0.11666208002E+02  0.70347389400E+01  0.67188575360E+00  0.13639625795E+02  0.51100000000E-03 0.  1.
        -12    1    3    3    0    0  0.11046846716E+02  0.47300633366E+01 -0.10385375968E+02  0.15882769139E+02  0.00000000000E+00 0.  1.
</event>
<event>
 7    1  0.3449452E-011  0.5052886E+02  0.7816164E-02  0.1300439E+00
        -11   -1    0    0    0    0  0.00000000000E+00  0.00000000000E+00  0.45593999997E+02  0.45594000000E+02  0.51100000000E-03 0.  1.
         11   -1    0    0    0    0 -0.00000000000E+00 -0.00000000000E+00 -0.45593999997E+02  0.45594000000E+02  0.51100000000E-03 0. -1.
    9900012    2    1    2    0    0  0.75313675198E+01 -0.24878558938E+02 -0.31265024718E+02  0.50528856352E+02  0.29999989368E+02 0.  0.
        -12    1    1    2    0    0 -0.75313675198E+01  0.24878558938E+02  0.31265024718E+02  0.40659143648E+02  0.00000000000E+00 0.  1.
         11    1    3    3    0    0  0.31686022308E+00 -0.74742602518E+01 -0.31424121130E+01  0.81141679093E+01  0.51100000000E-03 0. -1.
        -11    1    3    3    0    0 -0.29959287411E+01 -0.20725642257E+02 -0.17210142536E+02  0.27105660707E+02  0.51100000000E-03 0.  1.
        -12    1    3    3    0    0  0.10210436038E+02  0.33213435714E+01 -0.10912470069E+02  0.15309027736E+02  0.00000000000E+00 0.  1.
</event>
<event>
 7    1  0.3449452E-011  0.5052886E+02  0.7816164E-02  0.1300439E+00
        -11   -1    0    0    0    0  0.00000000000E+00  0.00000000000E+00  0.45593999997E+02  0.45594000000E+02  0.51100000000E-03 0.  1.
         11   -1    0    0    0    0 -0.00000000000E+00 -0.00000000000E+00 -0.45593999997E+02  0.45594000000E+02  0.51100000000E-03 0. -1.
    9900012    2    1    2    0    0  0.35023759486E+02  0.75951958907E+01 -0.19204557469E+02  0.50528858879E+02  0.29999997048E+02 0.  0.
        -12    1    1    2    0    0 -0.35023759486E+02 -0.75951958907E+01  0.19204557469E+02  0.40659141121E+02  0.00000000000E+00 0.  1.
         11    1    3    3    0    0  0.10494049744E+02  0.28842662211E+01 -0.20829230905E+01  0.11080732852E+02  0.51100000000E-03 0. -1.
        -11    1    3    3    0    0  0.85383176811E+01 -0.74235723142E+01  0.22674423733E+01  0.11539219640E+02  0.51100000000E-03 0.  1.
        -12    1    3    3    0    0  0.15991392061E+02  0.12134501984E+02 -0.19389076752E+02  0.27908906387E+02  0.00000000000E+00 0.  1.
</event>
<event>
 7    1  0.3449452E-011  0.5052888E+02  0.7816164E-02  0.1300439E+00
        -11   -1    0    0    0    0  0.00000000000E+00  0.00000000000E+00  0.45593999997E+02  0.45594000000E+02  0.51100000000E-03 0.  1.
         11   -1    0    0    0    0 -0.00000000000E+00 -0.00000000000E+00 -0.45593999997E+02  0.45594000000E+02  0.51100000000E-03 0. -1.
    9900012    2    1    2    0    0 -0.34760557070E+02  0.14702198499E+02 -0.15123260032E+02  0.50528880942E+02  0.30000064113E+02 0.  0.
        -12    1    1    2    0    0  0.34760557070E+02 -0.14702198499E+02  0.15123260032E+02  0.40659119058E+02  0.00000000000E+00 0.  1.
         11    1    3    3    0    0 -0.99834577729E+00  0.98534494014E+01  0.55985542279E+00  0.99197075437E+01  0.51100000000E-03 0. -1.
        -11    1    3    3    0    0 -0.30535410139E+02  0.78864441451E+01 -0.93776028672E+01  0.32902077585E+02  0.51100000000E-03 0.  1.
        -12    1    3    3    0    0 -0.32268011540E+01 -0.30376950477E+01 -0.63055125874E+01  0.77070958137E+01  0.00000000000E+00 0.  1.
</event>
<event>
 7    1  0.3449452E-011  0.5052894E+02  0.7816164E-02  0.1300439E+00
        -11   -1    0    0    0    0  0.00000000000E+00  0.00000000000E+00  0.45593999997E+02  0.45594000000E+02  0.51100000000E-03 0. -1.
         11   -1    0    0    0    0 -0.00000000000E+00 -0.00000000000E+00 -0.45593999997E+02  0.45594000000E+02  0.51100000000E-03 0.  1.
    9900012    2    1    2    0    0  0.25146467995E+02 -0.31793506139E+02  0.31602748364E+01  0.50528939236E+02  0.30000241299E+02 0.  0.
        -12    1    1    2    0    0 -0.25146467995E+02  0.31793506139E+02 -0.31602748364E+01  0.40659060764E+02  0.00000000000E+00 0.  1.
         11    1    3    3    0    0 -0.95287898891E+00 -0.31068843940E+00 -0.25584651361E+01  0.27477717860E+01  0.51100000000E-03 0. -1.
        -11    1    3    3    0    0  0.13377802857E+01 -0.17636488184E+02  0.78089274579E+01  0.19334288709E+02  0.51100000000E-03 0.  1.
         12    1    3    3    0    0  0.24761566698E+02 -0.13846329515E+02 -0.20901874854E+01  0.28446878741E+02  0.00000000000E+00 0. -1.
</event>
<event>
 7    1  0.3449452E-011  0.5052888E+02  0.7816164E-02  0.1300439E+00
        -11   -1    0    0    0    0  0.00000000000E+00  0.00000000000E+00  0.45593999997E+02  0.45594000000E+02  0.51100000000E-03 0. -1.
         11   -1    0    0    0    0 -0.00000000000E+00 -0.00000000000E+00 -0.45593999997E+02  0.45594000000E+02  0.51100000000E-03 0.  1.
    9900012    2    1    2    0    0 -0.35177492574E+02  0.81947895245E+01  0.18669595495E+02  0.50528876115E+02  0.30000049440E+02 0.  0.
        -12    1    1    2    0    0  0.35177492574E+02 -0.81947895245E+01 -0.18669595495E+02  0.40659123885E+02  0.00000000000E+00 0.  1.
         11    1    3    3    0    0 -0.41788255302E+01  0.10541443363E+02  0.71446841525E+01  0.13402653577E+02  0.51100000000E-03 0.  1.
        -11    1    3    3    0    0 -0.63025724194E+01 -0.42243844728E+00 -0.43818343922E+01  0.76877399959E+01  0.51100000000E-03 0. -1.
        -12    1    3    3    0    0 -0.24696094624E+02 -0.19242153916E+01  0.15906745734E+02  0.29438482543E+02  0.00000000000E+00 0.  1.
</event>
<event>
 7    1  0.3449452E-011  0.5052886E+02  0.7816164E-02  0.1300439E+00
        -11   -1    0    0    0    0  0.00000000000E+00  0.00000000000E+00  0.45593999997E+02  0.45594000000E+02  0.51100000000E-03 0. -1.
         11   -1    0    0    0    0 -0.00000000000E+00 -0.00000000000E+00 -0.45593999997E+02  0.45594000000E+02  0.51100000000E-03 0.  1.
    9900012    2    1    2    0    0  0.98306081690E+01 -0.25781250097E+02  0.29863893275E+02  0.50528857915E+02  0.29999994119E+02 0.  0.
        -12    1    1    2    0    0 -0.98306081690E+01  0.25781250097E+02 -0.29863893275E+02  0.40659142085E+02  0.00000000000E+00 0.  1.
         11    1    3    3    0    0  0.15888850095E+01 -0.17034661754E+02  0.28885281647E+01  0.17350730586E+02  0.51100000000E-03 0. -1.
        -11    1    3    3    0    0 -0.28908236395E+01 -0.33813678098E+01  0.12223691444E+01  0.46135340213E+01  0.51100000000E-03 0.  1.
         12    1    3    3    0    0  0.11132546799E+02 -0.53652205329E+01  0.25752995966E+02  0.28564593308E+02  0.00000000000E+00 0. -1.
</event>
<event>
 7    1  0.3449452E-011  0.5052885E+02  0.7816164E-02  0.1300439E+00
        -11   -1    0    0    0    0  0.00000000000E+00  0.00000000000E+00  0.45593999997E+02  0.45594000000E+02  0.51100000000E-03 0. -1.
         11   -1    0    0    0    0 -0.00000000000E+00 -0.00000000000E+00 -0.45593999997E+02  0.45594000000E+02  0.51100000000E-03 0.  1.
    9900012    2    1    2    0    0 -0.12214608914E+02 -0.38714481770E+02  0.22712684462E+01  0.50528850599E+02  0.29999971881E+02 0.  0.
        -12    1    1    2    0    0  0.12214608914E+02  0.38714481770E+02 -0.22712684462E+01  0.40659149401E+02  0.00000000000E+00 0.  1.
         11    1    3    3    0    0 -0.43680989839E+01 -0.17748657819E+02 -0.27546239779E+00  0.18280345262E+02  0.51100000000E-03 0.  1.
        -11    1    3    3    0    0 -0.15392778599E+02 -0.15196065067E+02  0.54674822980E+01  0.22310342657E+02  0.51100000000E-03 0. -1.
        -12    1    3    3    0    0  0.75462686690E+01 -0.57697588837E+01 -0.29207514540E+01  0.99381626801E+01  0.00000000000E+00 0.  1.
</event>
<event>
 7    1  0.3449452E-011  0.5052886E+02  0.7816164E-02  0.1300439E+00
        -11   -1    0    0    0    0  0.00000000000E+00  0.00000000000E+00  0.45593999997E+02  0.45594000000E+02  0.51100000000E-03 0. -1.
         11   -1    0    0    0    0 -0.00000000000E+00 -0.00000000000E+00 -0.45593999997E+02  0.45594000000E+02  0.51100000000E-03 0.  1.
    9900012    2    1    2    0    0 -0.26747572051E+02 -0.30116997814E+02  0.55406838065E+01  0.50528863942E+02  0.30000012439E+02 0.  0.
        -12    1    1    2    0    0  0.26747572051E+02  0.30116997814E+02 -0.55406838065E+01  0.40659136058E+02  0.00000000000E+00 0.  1.
         11    1    3    3    0    0 -0.10085283512E+02  0.23279243684E+01 -0.25000034840E+00  0.10353486167E+02  0.51100000000E-03 0.  1.
        -11    1    3    3    0    0 -0.12027950588E+02 -0.15793324977E+02 -0.40859214178E+01  0.20268089778E+02  0.51100000000E-03 0. -1.
         12    1    3    3    0    0 -0.46343379507E+01 -0.16651597205E+02  0.98766055727E+01  0.19907287996E+02  0.00000000000E+00 0. -1.
</event>
<event>
 7    1  0.3449452E-011  0.5052885E+02  0.7816164E-02  0.1300439E+00
        -11   -1    0    0    0    0  0.00000000000E+00  0.00000000000E+00  0.45593999997E+02  0.45594000000E+02  0.51100000000E-03 0.  1.
         11   -1    0    0    0    0 -0.00000000000E+00 -0.00000000000E+00 -0.45593999997E+02  0.45594000000E+02  0.51100000000E-03 0. -1.
    9900012    2    1    2    0    0  0.11610906451E+01  0.26066619645E+02 -0.31182518777E+02  0.50528852585E+02  0.29999977917E+02 0.  0.
        -12    1    1    2    0    0 -0.11610906451E+01 -0.26066619645E+02  0.31182518777E+02  0.40659147415E+02  0.00000000000E+00 0.  1.
         11    1    3    3    0    0  0.67105670090E+00  0.41310083768E+00  0.28831249887E+01  0.29888759357E+01  0.51100000000E-03 0. -1.
        -11    1    3    3    0    0 -0.10004232919E+02  0.10428927047E+02 -0.17668488723E+02  0.22825921441E+02  0.51100000000E-03 0.  1.
         12    1    3    3    0    0  0.10494266864E+02  0.15224591761E+02 -0.16397155043E+02  0.24714055208E+02  0.00000000000E+00 0. -1.
</event>
<event>
 7    1  0.3449452E-011  0.5052886E+02  0.7816164E-02  0.1300439E+00
        -11   -1    0    0    0    0  0.00000000000E+00  0.00000000000E+00  0.45593999997E+02  0.45594000000E+02  0.51100000000E-03 0.  1.
         11   -1    0    0    0    0 -0.00000000000E+00 -0.00000000000E+00 -0.45593999997E+02  0.45594000000E+02  0.51100000000E-03 0. -1.
    9900012    2    1    2    0    0 -0.11437500884E+02 -0.53474069817E+01 -0.38649124606E+02  0.50528855632E+02  0.29999987180E+02 0.  0.
        -12    1    1    2    0    0  0.11437500884E+02  0.53474069817E+01  0.38649124606E+02  0.40659144368E+02  0.00000000000E+00 0.  1.
         11    1    3    3    0    0 -0.58960737449E+01 -0.13024343500E+02 -0.16660400098E+02  0.21953727266E+02  0.51100000000E-03 0. -1.
        -11    1    3    3    0    0  0.52423511900E+01  0.33692615358E+01 -0.49638059685E+01  0.79670282571E+01  0.51100000000E-03 0.  1.
         12    1    3    3    0    0 -0.10783778329E+02  0.43076749823E+01 -0.17024918540E+02  0.20608100109E+02  0.00000000000E+00 0. -1.
</event>
<event>
 7    1  0.3449452E-011  0.5052885E+02  0.7816164E-02  0.1300439E+00
        -11   -1    0    0    0    0  0.00000000000E+00  0.00000000000E+00  0.45593999997E+02  0.45594000000E+02  0.51100000000E-03 0.  1.
         11   -1    0    0    0    0 -0.00000000000E+00 -0.00000000000E+00 -0.45593999997E+02  0.45594000000E+02  0.51100000000E-03 0. -1.
    9900012    2    1    2    0    0 -0.14000320578E+02 -0.10279438254E+02 -0.36762627310E+02  0.50528848584E+02  0.29999965756E+02 0.  0.
        -12    1    1    2    0    0  0.14000320578E+02  0.10279438254E+02  0.36762627310E+02  0.40659151416E+02  0.00000000000E+00 0.  1.
         11    1    3    3    0    0  0.22120810525E+01 -0.79299974317E+01 -0.69974144747E+01  0.10804719869E+02  0.51100000000E-03 0. -1.
        -11    1    3    3    0    0  0.20999006065E+00  0.39765406607E+01  0.11551992088E+01  0.41462581836E+01  0.51100000000E-03 0.  1.
         12    1    3    3    0    0 -0.16422391691E+02 -0.63259814831E+01 -0.30920412044E+02  0.35577870532E+02  0.00000000000E+00 0. -1.
</event>
<event>
 7    1  0.3449452E-011  0.5052886E+02  0.7816164E-02  0.1300439E+00
        -11   -1    0    0    0    0  0.00000000000E+00  0.00000000000E+00  0.45593999997E+02  0.45594000000E+02  0.51100000000E-03 0. -1.
         11   -1    0    0    0    0 -0.00000000000E+00 -0.00000000000E+00 -0.45593999997E+02  0.45594000000E+02  0.51100000000E-03 0.  1.
    9900012    2    1    2    0    0  0.27535002327E+02 -0.27628078421E+02  0.11475122910E+02  0.50528861837E+02  0.30000006039E+02 0.  0.
        -12    1    1    2    0    0 -0.27535002327E+02  0.27628078421E+02 -0.11475122910E+02  0.40659138163E+02  0.00000000000E+00 0.  1.
         11    1    3    3    0    0  0.11480600603E+02 -0.55785471930E+00  0.87915552129E+01  0.14470896151E+02  0.51100000000E-03 0. -1.
        -11    1    3    3    0    0 -0.74089650948E+00 -0.70833668489E+01  0.65385062329E+01  0.96682510090E+01  0.51100000000E-03 0.  1.
        -12    1    3    3    0    0  0.16795298234E+02 -0.19986856852E+02 -0.38549385356E+01  0.26389714677E+02  0.00000000000E+00 0.  1.
</event>
<event>
 7    1  0.3449452E-011  0.5052887E+02  0.7816164E-02  0.1300439E+00
        -11   -1    0    0    0    0  0.00000000000E+00  0.00000000000E+00  0.45593999997E+02  0.45594000000E+02  0.51100000000E-03 0. -1.
         11   -1    0    0    0    0 -0.00000000000E+00 -0.00000000000E+00 -0.45593999997E+02  0.45594000000E+02  0.51100000000E-03 0.  1.
    9900012    2    1    2    0    0 -0.44054215357E+01 -0.11365281227E+02  0.38789013439E+02  0.50528869170E+02  0.30000028328E+02 0.  0.
        -12    1    1    2    0    0  0.44054215357E+01  0.11365281227E+02 -0.38789013439E+02  0.40659130830E+02  0.00000000000E+00 0.  1.
         11    1    3    3    0    0 -0.73063691051E+01 -0.15787531889E+02  0.26288630012E+02  0.31523344696E+02  0.51100000000E-03 0. -1.
        -11    1    3    3    0    0 -0.50337583274E+00  0.33720473686E+01  0.14516829663E+02  0.14911821968E+02  0.51100000000E-03 0.  1.
        -12    1    3    3    0    0  0.34043234022E+01  0.10502032929E+01 -0.20164462356E+01  0.40937025056E+01  0.00000000000E+00 0.  1.
</event>
<event>
 7    1  0.3449452E-011  0.5052886E+02  0.7816164E-02  0.1300439E+00
        -11   -1    0    0    0    0  0.00000000000E+00  0.00000000000E+00  0.45593999997E+02  0.45594000000E+02  0.51100000000E-03 0.  1.
         11   -1    0    0    0    0 -0.00000000000E+00 -0.00000000000E+00 -0.45593999997E+02  0.45594000000E+02  0.51100000000E-03 0. -1.
    9900012    2    1    2    0    0  0.18824050452E+01  0.37965027844E+02 -0.14431866213E+02  0.50528861417E+02  0.30000004763E+02 0.  0.
        -12    1    1    2    0    0 -0.18824050452E+01 -0.37965027844E+02  0.14431866213E+02  0.40659138583E+02  0.00000000000E+00 0.  1.
         11    1    3    3    0    0  0.34041999572E+01  0.18324100509E+02 -0.21310408148E+02  0.28310682304E+02  0.51100000000E-03 0. -1.
        -11    1    3    3    0    0  0.27381827050E+01  0.43588698182E+01  0.26987057915E+01  0.58120911751E+01  0.51100000000E-03 0.  1.
        -12    1    3    3    0    0 -0.42599776170E+01  0.15282057516E+02  0.41798361441E+01  0.16406087938E+02  0.00000000000E+00 0.  1.
</event>
<event>
 7    1  0.3449452E-011  0.5052885E+02  0.7816164E-02  0.1300439E+00
        -11   -1    0    0    0    0  0.00000000000E+00  0.00000000000E+00  0.45593999997E+02  0.45594000000E+02  0.51100000000E-03 0.  1.
         11   -1    0    0    0    0 -0.00000000000E+00 -0.00000000000E+00 -0.45593999997E+02  0.45594000000E+02  0.51100000000E-03 0. -1.
    9900012    2    1    2    0    0 -0.49077980687E+01  0.18918143418E+02 -0.35653664553E+02  0.50528850620E+02  0.29999971944E+02 0.  0.
        -12    1    1    2    0    0  0.49077980687E+01 -0.18918143418E+02  0.35653664553E+02  0.40659149380E+02  0.00000000000E+00 0.  1.
         11    1    3    3    0    0 -0.39636095445E-01  0.19902251865E+01  0.31149456441E+01  0.36966814767E+01  0.51100000000E-03 0. -1.
        -11    1    3    3    0    0 -0.53871633792E+01  0.31633634089E+01 -0.62593487076E+00  0.62785501554E+01  0.51100000000E-03 0.  1.
         12    1    3    3    0    0  0.51900140593E+00  0.13764554822E+02 -0.38142675327E+02  0.40553618988E+02  0.00000000000E+00 0. -1.
</event>
<event>
 7    1  0.3449452E-011  0.5052885E+02  0.7816164E-02  0.1300439E+00
        -11   -1    0    0    0    0  0.00000000000E+00  0.00000000000E+00  0.45593999997E+02  0.45594000000E+02  0.51100000000E-03 0.  1.
         11   -1    0    0    0    0 -0.00000000000E+00 -0.00000000000E+00 -0.45593999997E+02  0.45594000000E+02  0.51100000000E-03 0. -1.
    9900012    2    1    2    0    0 -0.27526176867E+02 -0.94975150786E+01 -0.28377331269E+02  0.50528854220E+02  0.29999982886E+02 0.  0.
        -12    1    1    2    0    0  0.27526176867E+02  0.94975150786E+01  0.28377331269E+02  0.40659145780E+02  0.00000000000E+00 0.  1.
         11    1    3    3    0    0 -0.95349823166E+01 -0.28699480249E+01 -0.79241865130E+01  0.12725769981E+02  0.51100000000E-03 0. -1.
        -11    1    3    3    0    0  0.56195806787E+01 -0.47968925026E+01 -0.16651404659E+01  0.75738073462E+01  0.51100000000E-03 0.  1.
         12    1    3    3    0    0 -0.23610775230E+02 -0.18306745512E+01 -0.18788004291E+02  0.30229276893E+02  0.00000000000E+00 0. -1.
</event>
<event>
 7    1  0.3449452E-011  0.5052886E+02  0.7816164E-02  0.1300439E+00
        -11   -1    0    0    0    0  0.00000000000E+00  0.00000000000E+00  0.45593999997E+02  0.45594000000E+02  0.51100000000E-03 0.  1.
         11   -1    0    0    0    0 -0.00000000000E+00 -0.00000000000E+00 -0.45593999997E+02  0.45594000000E+02  0.51100000000E-03 0. -1.
    9900012    2    1    2    0    0 -0.60389168847E+01 -0.39170259140E+02 -0.90767939485E+01  0.50528857035E+02  0.29999991445E+02 0.  0.
        -12    1    1    2    0    0  0.60389168847E+01  0.39170259140E+02  0.90767939485E+01  0.40659142965E+02  0.00000000000E+00 0.  1.
         11    1    3    3    0    0  0.89505969411E+01 -0.13907044612E+02 -0.10346592275E+01  0.16570745168E+02  0.51100000000E-03 0. -1.
        -11    1    3    3    0    0 -0.19825151618E+01 -0.14776337205E+02  0.10331622228E+01  0.14944495040E+02  0.51100000000E-03 0.  1.
         12    1    3    3    0    0 -0.13006998664E+02 -0.10486877323E+02 -0.90752969438E+01  0.19013616827E+02  0.00000000000E+00 0. -1.
</event>
<event>
 7    1  0.3449452E-011  0.5052886E+02  0.7816164E-02  0.1300439E+00
        -11   -1    0    0    0    0  0.00000000000E+00  0.00000000000E+00  0.45593999997E+02  0.45594000000E+02  0.51100000000E-03 0.  1.
         11   -1    0    0    0    0 -0.00000000000E+00 -0.00000000000E+00 -0.45593999997E+02  0.45594000000E+02  0.51100000000E-03 0. -1.
    9900012    2    1    2    0    0 -0.17567572143E+02  0.11885523592E+02 -0.34688332913E+02  0.50528859547E+02  0.29999999080E+02 0.  0.
        -12    1    1    2    0    0  0.17567572143E+02 -0.11885523592E+02  0.34688332913E+02  0.40659140453E+02  0.00000000000E+00 0.  1.
         11    1    3    3    0    0 -0.66352355066E+01 -0.17397231837E+01 -0.21849535726E+01  0.71990978156E+01  0.51100000000E-03 0.  1.
        -11    1    3    3    0    0 -0.71374489631E+01  0.11665072449E+02 -0.36393153952E+01  0.14151385435E+02  0.51100000000E-03 0. -1.
         12    1    3    3    0    0 -0.37948876730E+01  0.19601743273E+01 -0.28864063945E+02  0.29178376296E+02  0.00000000000E+00 0. -1.
</event>
<event>
 7    1  0.3449452E-011  0.5052887E+02  0.7816164E-02  0.1300439E+00
        -11   -1    0    0    0    0  0.00000000000E+00  0.00000000000E+00  0.45593999997E+02  0.45594000000E+02  0.51100000000E-03 0. -1.
         11   -1    0    0    0    0 -0.00000000000E+00 -0.00000000000E+00 -0.45593999997E+02  0.45594000000E+02  0.51100000000E-03 0.  1.
    9900012    2    1    2    0    0 -0.31205474845E+02  0.25235546082E+02 -0.65230903011E+01  0.50528866298E+02  0.30000019600E+02 0.  0.
        -12    1    1    2    0    0  0.31205474845E+02 -0.25235546082E+02  0.65230903011E+01  0.40659133702E+02  0.00000000000E+00 0.  1.
         11    1    3    3    0    0 -0.11509837039E+02  0.34105550111E+01  0.31001546356E+01  0.12398354454E+02  0.51100000000E-03 0. -1.
        -11    1    3    3    0    0  0.40525964607E+01 -0.76002736504E+00 -0.10530015303E+01  0.42555836442E+01  0.51100000000E-03 0.  1.
         12    1    3    3    0    0 -0.23748234266E+02  0.22585018436E+02 -0.85702434064E+01  0.33874928200E+02  0.00000000000E+00 0. -1.
</event>
<event>
 7    1  0.3449452E-011  0.5052884E+02  0.7816164E-02  0.1300439E+00
        -11   -1    0    0    0    0  0.00000000000E+00  0.00000000000E+00  0.45593999997E+02  0.45594000000E+02  0.51100000000E-03 0. -1.
         11   -1    0    0    0    0 -0.00000000000E+00 -0.00000000000E+00 -0.45593999997E+02  0.45594000000E+02  0.51100000000E-03 0.  1.
    9900012    2    1    2    0    0 -0.21371098036E+02  0.25805601813E+02  0.23032891163E+02  0.50528843694E+02  0.29999950892E+02 0.  0.
        -12    1    1    2    0    0  0.21371098036E+02 -0.25805601813E+02 -0.23032891163E+02  0.40659156306E+02  0.00000000000E+00 0.  1.
         11    1    3    3    0    0 -0.38787225652E+01 -0.33719603819E+01  0.80868359136E+00  0.52027468675E+01  0.51100000000E-03 0. -1.
        -11    1    3    3    0    0  0.20661363584E+01  0.20548495164E+01  0.88399245328E+01  0.93078242352E+01  0.51100000000E-03 0.  1.
         12    1    3    3    0    0 -0.19558511829E+02  0.27122712679E+02  0.13384283039E+02  0.36018272591E+02  0.00000000000E+00 0. -1.
</event>
<event>
 7    1  0.3449452E-011  0.5052883E+02  0.7816164E-02  0.1300439E+00
        -11   -1    0    0    0    0  0.00000000000E+00  0.00000000000E+00  0.45593999997E+02  0.45594000000E+02  0.51100000000E-03 0. -1.
         11   -1    0    0    0    0 -0.00000000000E+00 -0.00000000000E+00 -0.45593999997E+02  0.45594000000E+02  0.51100000000E-03 0.  1.
    9900012    2    1    2    0    0 -0.38264540912E+02 -0.12201124825E+02  0.63344680251E+01  0.50528831005E+02  0.29999912321E+02 0.  0.
        -12    1    1    2    0    0  0.38264540912E+02  0.12201124825E+02 -0.63344680251E+01  0.40659168995E+02  0.00000000000E+00 0.  1.
         11    1    3    3    0    0 -0.23016252190E+02 -0.19010582063E+02  0.80757095643E+01  0.30925186830E+02  0.51100000000E-03 0. -1.
        -11    1    3    3    0    0 -0.21203608185E+01 -0.18367340351E+01 -0.26486469489E+01  0.38580892729E+01  0.51100000000E-03 0.  1.
         12    1    3    3    0    0 -0.13127927904E+02  0.86461912728E+01  0.90740540975E+00  0.15745554901E+02  0.00000000000E+00 0. -1.
</event>
<event>
 7    1  0.3449452E-011  0.5052888E+02  0.7816164E-02  0.1300439E+00
        -11   -1    0    0    0    0  0.00000000000E+00  0.00000000000E+00  0.45593999997E+02  0.45594000000E+02  0.51100000000E-03 0. -1.
         11   -1    0    0    0    0 -0.00000000000E+00 -0.00000000000E+00 -0.45593999997E+02  0.45594000000E+02  0.51100000000E-03 0.  1.
    9900012    2    1    2    0    0 -0.22630501990E+02  0.30645294237E+02 -0.14208818743E+02  0.50528877908E+02  0.30000054890E+02 0.  0.
        -12    1    1    2    0    0  0.22630501990E+02 -0.30645294237E+02  0.14208818743E+02  0.40659122092E+02  0.00000000000E+00 0.  1.
         11    1    3    3    0    0 -0.45178203848E+01  0.32364285134E+01  0.57506996592E+01  0.79972318575E+01  0.51100000000E-03 0. -1.
        -11    1    3    3    0    0  0.34466441520E+01  0.36245839138E+01 -0.51492487225E+01  0.71785602404E+01  0.51100000000E-03 0.  1.
        -12    1    3    3    0    0 -0.21559325758E+02  0.23784281810E+02 -0.14810269680E+02  0.35353085810E+02  0.00000000000E+00 0.  1.
</event>
<event>
 7    1  0.3449452E-011  0.5052884E+02  0.7816164E-02  0.1300439E+00
        -11   -1    0    0    0    0  0.00000000000E+00  0.00000000000E+00  0.45593999997E+02  0.45594000000E+02  0.51100000000E-03 0.  1.
         11   -1    0    0    0    0 -0.00000000000E+00 -0.00000000000E+00 -0.45593999997E+02  0.45594000000E+02  0.51100000000E-03 0. -1.
    9900012    2    1    2    0    0 -0.24784609754E+02  0.70557574867E+01 -0.31450064935E+02  0.50528841391E+02  0.29999943892E+02 0.  0.
        -12    1    1    2    0    0  0.24784609754E+02 -0.70557574867E+01  0.31450064935E+02  0.40659158609E+02  0.00000000000E+00 0.  1.
         11    1    3    3    0    0 -0.11670658831E+01  0.57045778683E+01  0.29327741791E+00  0.58301169230E+01  0.51100000000E-03 0.  1.
        -11    1    3    3    0    0 -0.19116389174E+02 -0.19069851166E+01 -0.88699605818E+01  0.21160083371E+02  0.51100000000E-03 0. -1.
         12    1    3    3    0    0 -0.45011546969E+01  0.32581647350E+01 -0.22873381771E+02  0.23538641097E+02  0.00000000000E+00 0. -1.
</event>
<event>
 7    1  0.3449452E-011  0.5052886E+02  0.7816164E-02  0.1300439E+00
        -11   -1    0    0    0    0  0.00000000000E+00  0.00000000000E+00  0.45593999997E+02  0.45594000000E+02  0.51100000000E-03 0.  1.
         11   -1    0    0    0    0 -0.00000000000E+00 -0.00000000000E+00 -0.45593999997E+02  0.45594000000E+02  0.51100000000E-03 0. -1.
    9900012    2    1    2    0    0  0.74529690093E+01  0.33288386069E+02 -0.22124694173E+02  0.50528862203E+02  0.30000007152E+02 0.  0.
        -12    1    1    2    0    0 -0.74529690093E+01 -0.33288386069E+02  0.22124694173E+02  0.40659137797E+02  0.00000000000E+00 0.  1.
         11    1    3    3    0    0 -0.15373614551E+01  0.15901621417E+02 -0.30055598719E+01  0.16256027631E+02  0.51100000000E-03 0. -1.
        -11    1    3    3    0    0  0.58230105898E+01  0.51798854524E+01  0.33685729847E+01  0.84903445068E+01  0.51100000000E-03 0.  1.
         12    1    3    3    0    0  0.31673198746E+01  0.12206879200E+02 -0.22487707286E+02  0.25782490065E+02  0.00000000000E+00 0. -1.
</event>
<event>
 7    1  0.3601697E-011  0.5052887E+02  0.7816164E-02  0.1300439E+00
        -11   -1    0    0    0    0  0.00000000000E+00  0.00000000000E+00  0.45593999997E+02  0.45594000000E+02  0.51100000000E-03 0.  1.
         11   -1    0    0    0    0 -0.00000000000E+00 -0.00000000000E+00 -0.45593999997E+02  0.45594000000E+02  0.51100000000E-03 0. -1.
    9900012    2    1    2    0    0  0.14720392956E+02  0.29221746596E+02 -0.24136375252E+02  0.50528867530E+02  0.30000023344E+02 0.  0.
        -12    1    1    2    0    0 -0.14720392956E+02 -0.29221746596E+02  0.24136375252E+02  0.40659132470E+02  0.00000000000E+00 0.  1.
         11    1    3    3    0    0  0.69584149739E+01  0.11345665256E+02 -0.19049574989E+02  0.23238544846E+02  0.51100000000E-03 0. -1.
        -11    1    3    3    0    0 -0.60997338017E+01  0.57329182599E+01 -0.11997484099E+01  0.84565064143E+01  0.51100000000E-03 0.  1.
        -12    1    3    3    0    0  0.13861711784E+02  0.12143163081E+02 -0.38870518532E+01  0.18833816270E+02  0.00000000000E+00 0.  1.
</event>
<event>
 7    1  0.3449452E-011  0.5052888E+02  0.7816164E-02  0.1300439E+00
        -11   -1    0    0    0    0  0.00000000000E+00  0.00000000000E+00  0.45593999997E+02  0.45594000000E+02  0.51100000000E-03 0.  1.
         11   -1    0    0    0    0 -0.00000000000E+00 -0.00000000000E+00 -0.45593999997E+02  0.45594000000E+02  0.51100000000E-03 0. -1.
    9900012    2    1    2    0    0 -0.72712286612E+01 -0.28826437558E+02 -0.27736800935E+02  0.50528875629E+02  0.30000047963E+02 0.  0.
        -12    1    1    2    0    0  0.72712286612E+01  0.28826437558E+02  0.27736800935E+02  0.40659124371E+02  0.00000000000E+00 0.  1.
         11    1    3    3    0    0  0.65963527308E+01 -0.62376610932E+01 -0.49917883863E+01  0.10360416826E+02  0.51100000000E-03 0. -1.
        -11    1    3    3    0    0 -0.10949837861E+02 -0.39285711384E+01 -0.14800526807E+01  0.11727027610E+02  0.51100000000E-03 0.  1.
         12    1    3    3    0    0 -0.29177435308E+01 -0.18660205326E+02 -0.21264959868E+02  0.28441431193E+02  0.00000000000E+00 0. -1.
</event>
<event>
 7    1  0.3449452E-011  0.5052886E+02  0.7816164E-02  0.1300439E+00
        -11   -1    0    0    0    0  0.00000000000E+00  0.00000000000E+00  0.45593999997E+02  0.45594000000E+02  0.51100000000E-03 0.  1.
         11   -1    0    0    0    0 -0.00000000000E+00 -0.00000000000E+00 -0.45593999997E+02  0.45594000000E+02  0.51100000000E-03 0. -1.
    9900012    2    1    2    0    0  0.80267560220E+01 -0.32857785560E+02 -0.22563310707E+02  0.50528857434E+02  0.29999992656E+02 0.  0.
        -12    1    1    2    0    0 -0.80267560220E+01  0.32857785560E+02  0.22563310707E+02  0.40659142566E+02  0.00000000000E+00 0.  1.
         11    1    3    3    0    0  0.13379904942E+01 -0.22497818167E+01 -0.14761134007E+02  0.14991424689E+02  0.51100000000E-03 0. -1.
        -11    1    3    3    0    0 -0.41963432512E+01 -0.13591932885E+02 -0.11539462311E+01  0.14271703766E+02  0.51100000000E-03 0.  1.
        -12    1    3    3    0    0  0.10885108779E+02 -0.17016070859E+02 -0.66482304689E+01  0.21265728978E+02  0.00000000000E+00 0.  1.
</event>
<event>
 7    1  0.3449452E-011  0.5052887E+02  0.7816164E-02  0.1300439E+00
        -11   -1    0    0    0    0  0.00000000000E+00  0.00000000000E+00  0.45593999997E+02  0.45594000000E+02  0.51100000000E-03 0.  1.
         11   -1    0    0    0    0 -0.00000000000E+00 -0.00000000000E+00 -0.45593999997E+02  0.45594000000E+02  0.51100000000E-03 0. -1.
    9900012    2    1    2    0    0  0.20032595930E+02 -0.35324189540E+02 -0.20152669836E+01  0.50528873504E+02  0.30000041504E+02 0.  0.
        -12    1    1    2    0    0 -0.20032595930E+02  0.35324189540E+02  0.20152669836E+01  0.40659126496E+02  0.00000000000E+00 0.  1.
         11    1    3    3    0    0  0.45542927248E+01 -0.11092316811E+02  0.97750945453E+01  0.15470408788E+02  0.51100000000E-03 0. -1.
        -11    1    3    3    0    0  0.50971662865E+01 -0.34640866745E+01  0.36618438461E+01  0.71686889495E+01  0.51100000000E-03 0.  1.
         12    1    3    3    0    0  0.10381136919E+02 -0.20767786055E+02 -0.15452205375E+02  0.27889775767E+02  0.00000000000E+00 0. -1.
</event>
<event>
 7    1  0.3449452E-011  0.5052886E+02  0.7816164E-02  0.1300439E+00
        -11   -1    0    0    0    0  0.00000000000E+00  0.00000000000E+00  0.45593999997E+02  0.45594000000E+02  0.51100000000E-03 0.  1.
         11   -1    0    0    0    0 -0.00000000000E+00 -0.00000000000E+00 -0.45593999997E+02  0.45594000000E+02  0.51100000000E-03 0. -1.
    9900012    2    1    2    0    0  0.20520045632E+02  0.32611407875E+02 -0.12984208944E+02  0.50528857385E+02  0.29999992507E+02 0.  0.
        -12    1    1    2    0    0 -0.20520045632E+02 -0.32611407875E+02  0.12984208944E+02  0.40659142615E+02  0.00000000000E+00 0.  1.
         11    1    3    3    0    0 -0.17147909826E+01  0.86895524333E+01 -0.32686481504E+01  0.94410216924E+01  0.51100000000E-03 0.  1.
        -11    1    3    3    0    0  0.15962963764E+02  0.10989569925E+01 -0.61964314181E+01  0.17158661987E+02  0.51100000000E-03 0. -1.
         12    1    3    3    0    0  0.62718728510E+01  0.22822898449E+02 -0.35191293751E+01  0.23929173705E+02  0.00000000000E+00 0. -1.
</event>
<event>
 7    1  0.3449452E-011  0.5052886E+02  0.7816164E-02  0.1300439E+00
        -11   -1    0    0    0    0  0.00000000000E+00  0.00000000000E+00  0.45593999997E+02  0.45594000000E+02  0.51100000000E-03 0. -1.
         11   -1    0    0    0    0 -0.00000000000E+00 -0.00000000000E+00 -0.45593999997E+02  0.45594000000E+02  0.51100000000E-03 0.  1.
    9900012    2    1    2    0    0 -0.39331893983E+02 -0.53755485492E+01 -0.87903927588E+01  0.50528863125E+02  0.30000009956E+02 0.  0.
        -12    1    1    2    0    0  0.39331893983E+02  0.53755485492E+01  0.87903927588E+01  0.40659136875E+02  0.00000000000E+00 0.  1.
         11    1    3    3    0    0 -0.56895916963E+01 -0.24746663330E+01  0.71495342371E+01  0.94663227918E+01  0.51100000000E-03 0.  1.
        -11    1    3    3    0    0 -0.12003252748E+02  0.57004395200E+01 -0.85091466507E+00  0.13315297341E+02  0.51100000000E-03 0. -1.
        -12    1    3    3    0    0 -0.21639049539E+02 -0.86013217362E+01 -0.15089012331E+02  0.27747242993E+02  0.00000000000E+00 0.  1.
</event>
<event>
 7    1  0.3449452E-011  0.5052886E+02  0.7816164E-02  0.1300439E+00
        -11   -1    0    0    0    0  0.00000000000E+00  0.00000000000E+00  0.45593999997E+02  0.45594000000E+02  0.51100000000E-03 0. -1.
         11   -1    0    0    0    0 -0.00000000000E+00 -0.00000000000E+00 -0.45593999997E+02  0.45594000000E+02  0.51100000000E-03 0.  1.
    9900012    2    1    2    0    0  0.20796460226E+02  0.25019648483E+02  0.24386262963E+02  0.50528863395E+02  0.30000010777E+02 0.  0.
        -12    1    1    2    0    0 -0.20796460226E+02 -0.25019648483E+02 -0.24386262963E+02  0.40659136605E+02  0.00000000000E+00 0.  1.
         11    1    3    3    0    0 -0.23974737379E+01  0.16559460725E+02  0.83074552568E+01  0.18680937689E+02  0.51100000000E-03 0. -1.
        -11    1    3    3    0    0  0.11239941193E+02  0.89186492561E+01  0.13304783347E+02  0.19567724516E+02  0.51100000000E-03 0.  1.
        -12    1    3    3    0    0  0.11953992772E+02 -0.45846149875E+00  0.27740243591E+01  0.12280201190E+02  0.00000000000E+00 0.  1.
</event>
<event>
 7    1  0.3449452E-011  0.5052884E+02  0.7816164E-02  0.1300439E+00
        -11   -1    0    0    0    0  0.00000000000E+00  0.00000000000E+00  0.45593999997E+02  0.45594000000E+02  0.51100000000E-03 0.  1.
         11   -1    0    0    0    0 -0.00000000000E+00 -0.00000000000E+00 -0.45593999997E+02  0.45594000000E+02  0.51100000000E-03 0. -1.
    9900012    2    1    2    0    0 -0.34206600093E+02 -0.15541832442E+02 -0.15541134291E+02  0.50528844811E+02  0.29999954289E+02 0.  0.
        -12    1    1    2    0    0  0.34206600093E+02  0.15541832442E+02  0.15541134291E+02  0.40659155189E+02  0.00000000000E+00 0.  1.
         11    1    3    3    0    0 -0.33881909578E+01 -0.41242115335E+01 -0.21879590043E+01  0.57685460565E+01  0.51100000000E-03 0. -1.
        -11    1    3    3    0    0 -0.10969427776E+02 -0.18385316802E+02 -0.92769499266E+01  0.23332595652E+02  0.51100000000E-03 0.  1.
         12    1    3    3    0    0 -0.19848981359E+02  0.69676958943E+01 -0.40762253602E+01  0.21427703103E+02  0.00000000000E+00 0. -1.
</event>
<event>
 7    1  0.3449452E-011  0.5052887E+02  0.7816164E-02  0.1300439E+00
        -11   -1    0    0    0    0  0.00000000000E+00  0.00000000000E+00  0.45593999997E+02  0.45594000000E+02  0.51100000000E-03 0.  1.
         11   -1    0    0    0    0 -0.00000000000E+00 -0.00000000000E+00 -0.45593999997E+02  0.45594000000E+02  0.51100000000E-03 0. -1.
    9900012    2    1    2    0    0 -0.37785331953E+02  0.14984148478E+02 -0.95349329925E+00  0.50528866144E+02  0.30000019131E+02 0.  0.
        -12    1    1    2    0    0  0.37785331953E+02 -0.14984148478E+02  0.95349329925E+00  0.40659133856E+02  0.00000000000E+00 0.  1.
         11    1    3    3    0    0 -0.89417461809E+01 -0.12515884580E+01 -0.10982153763E+02  0.14217207882E+02  0.51100000000E-03 0. -1.
        -11    1    3    3    0    0 -0.17762727521E+02  0.37303112715E+01  0.43453342123E+01  0.18663109088E+02  0.51100000000E-03 0.  1.
        -12    1    3    3    0    0 -0.11080858252E+02  0.12505425665E+02  0.56833262513E+01  0.17648549174E+02  0.00000000000E+00 0.  1.
</event>
<event>
 7    1  0.3449452E-011  0.5052887E+02  0.7816164E-02  0.1300439E+00
        -11   -1    0    0    0    0  0.00000000000E+00  0.00000000000E+00  0.45593999997E+02  0.45594000000E+02  0.51100000000E-03 0.  1.
         11   -1    0    0    0    0 -0.00000000000E+00 -0.00000000000E+00 -0.45593999997E+02  0.45594000000E+02  0.51100000000E-03 0. -1.
    9900012    2    1    2    0    0  0.34377623879E+02  0.87721919281E+00 -0.21692716875E+02  0.50528874302E+02  0.30000043929E+02 0.  0.
        -12    1    1    2    0    0 -0.34377623879E+02 -0.87721919281E+00  0.21692716875E+02  0.40659125698E+02  0.00000000000E+00 0.  1.
         11    1    3    3    0    0  0.26375869741E+01 -0.41522087406E+01 -0.80713287576E+01  0.94521981912E+01  0.51100000000E-03 0. -1.
        -11    1    3    3    0    0  0.12598732879E+02  0.64968322933E+01 -0.16402287489E+02  0.21678836111E+02  0.51100000000E-03 0.  1.
        -12    1    3    3    0    0  0.19141304026E+02 -0.14674043598E+01  0.27808993707E+01  0.19397840000E+02  0.00000000000E+00 0.  1.
</event>
<event>
 7    1  0.3449452E-011  0.5052871E+02  0.7816164E-02  0.1300439E+00
        -11   -1    0    0    0    0  0.00000000000E+00  0.00000000000E+00  0.45593999997E+02  0.45594000000E+02  0.51100000000E-03 0.  1.
         11   -1    0    0    0    0 -0.00000000000E+00 -0.00000000000E+00 -0.45593999997E+02  0.45594000000E+02  0.51100000000E-03 0. -1.
    9900012    2    1    2    0    0 -0.81904118943E+01 -0.39499015352E+02  0.50914044055E+01  0.50528714965E+02  0.29999559603E+02 0.  0.
        -12    1    1    2    0    0  0.81904118943E+01  0.39499015352E+02 -0.50914044055E+01  0.40659285035E+02  0.00000000000E+00 0.  1.
         11    1    3    3    0    0 -0.96934643708E+01 -0.18069513753E+02 -0.87568513396E+00  0.20524068883E+02  0.51100000000E-03 0. -1.
        -11    1    3    3    0    0 -0.37792868047E+01 -0.22604348905E+02  0.79254250733E+01  0.24249782701E+02  0.51100000000E-03 0.  1.
        -12    1    3    3    0    0  0.52823392811E+01  0.11748473062E+01 -0.19583355339E+01  0.57548633813E+01  0.00000000000E+00 0.  1.
</event>
<event>
 7    1  0.3449452E-011  0.5052887E+02  0.7816164E-02  0.1300439E+00
        -11   -1    0    0    0    0  0.00000000000E+00  0.00000000000E+00  0.45593999997E+02  0.45594000000E+02  0.51100000000E-03 0.  1.
         11   -1    0    0    0    0 -0.00000000000E+00 -0.00000000000E+00 -0.45593999997E+02  0.45594000000E+02  0.51100000000E-03 0. -1.
    9900012    2    1    2    0    0  0.32753535991E+02 -0.16579140051E+02 -0.17478636958E+02  0.50528871201E+02  0.30000034503E+02 0.  0.
        -12    1    1    2    0    0 -0.32753535991E+02  0.16579140051E+02  0.17478636958E+02  0.40659128799E+02  0.00000000000E+00 0.  1.
         11    1    3    3    0    0  0.43975771923E+01 -0.46246530894E+01 -0.11909770390E+02  0.13511799745E+02  0.51100000000E-03 0. -1.
        -11    1    3    3    0    0  0.17364731747E+02 -0.16354280706E+02 -0.75357194372E+01  0.25015664567E+02  0.51100000000E-03 0.  1.
         12    1    3    3    0    0  0.10991227052E+02  0.43997937437E+01  0.19668528687E+01  0.12001406888E+02  0.00000000000E+00 0. -1.
</event>
<event>
 7    1  0.3449452E-011  0.5052885E+02  0.7816164E-02  0.1300439E+00
        -11   -1    0    0    0    0  0.00000000000E+00  0.00000000000E+00  0.45593999997E+02  0.45594000000E+02  0.51100000000E-03 0.  1.
         11   -1    0    0    0    0 -0.00000000000E+00 -0.00000000000E+00 -0.45593999997E+02  0.45594000000E+02  0.51100000000E-03 0. -1.
    9900012    2    1    2    0    0 -0.27776763309E+01 -0.16120593671E+02 -0.37223344289E+02  0.50528851138E+02  0.29999973520E+02 0.  0.
        -12    1    1    2    0    0  0.27776763309E+01  0.16120593671E+02  0.37223344289E+02  0.40659148862E+02  0.00000000000E+00 0.  1.
         11    1    3    3    0    0  0.42686108256E+01 -0.83424122537E+01 -0.15352469443E+02  0.17986528260E+02  0.51100000000E-03 0. -1.
        -11    1    3    3    0    0 -0.47965056567E+01 -0.14879145320E+02 -0.10098097622E+02  0.18610937854E+02  0.51100000000E-03 0.  1.
        -12    1    3    3    0    0 -0.22497814998E+01  0.71009639020E+01 -0.11772777223E+02  0.13931385024E+02  0.00000000000E+00 0.  1.
</event>
<event>
 7    1  0.3449452E-011  0.5052885E+02  0.7816164E-02  0.1300439E+00
        -11   -1    0    0    0    0  0.00000000000E+00  0.00000000000E+00  0.45593999997E+02  0.45594000000E+02  0.51100000000E-03 0. -1.
         11   -1    0    0    0    0 -0.00000000000E+00 -0.00000000000E+00 -0.45593999997E+02  0.45594000000E+02  0.51100000000E-03 0.  1.
    9900012    2    1    2    0    0  0.21431681390E+02 -0.30343255653E+02 -0.16526849457E+02  0.50528845019E+02  0.29999954919E+02 0.  0.
        -12    1    1    2    0    0 -0.21431681390E+02  0.30343255653E+02  0.16526849457E+02  0.40659154981E+02  0.00000000000E+00 0.  1.
         11    1    3    3    0    0  0.61075853102E+01  0.23959840074E+00 -0.42068522451E+01  0.74200816564E+01  0.51100000000E-03 0.  1.
        -11    1    3    3    0    0  0.12630581719E+02 -0.24331203373E+02 -0.19169789869E+02  0.33451754753E+02  0.51100000000E-03 0. -1.
         12    1    3    3    0    0  0.26935143608E+01 -0.62516506802E+01  0.68497926571E+01  0.96570086096E+01  0.00000000000E+00 0. -1.
</event>
<event>
 7    1  0.3449452E-011  0.5052887E+02  0.7816164E-02  0.1300439E+00
        -11   -1    0    0    0    0  0.00000000000E+00  0.00000000000E+00  0.45593999997E+02  0.45594000000E+02  0.51100000000E-03 0.  1.
         11   -1    0    0    0    0 -0.00000000000E+00 -0.00000000000E+00 -0.45593999997E+02  0.45594000000E+02  0.51100000000E-03 0. -1.
    9900012    2    1    2    0    0  0.11264616400E+02  0.38353113099E+02 -0.74372024665E+01  0.50528870059E+02  0.30000031031E+02 0.  0.
        -12    1    1    2    0    0 -0.11264616400E+02 -0.38353113099E+02  0.74372024665E+01  0.40659129941E+02  0.00000000000E+00 0.  1.
         11    1    3    3    0    0  0.11662689260E+02  0.12466081296E+02  0.11005922783E+01  0.17106513593E+02  0.51100000000E-03 0. -1.
        -11    1    3    3    0    0 -0.14066544018E+01 -0.23437294371E+00  0.41332876131E+01  0.43723762460E+01  0.51100000000E-03 0.  1.
         12    1    3    3    0    0  0.10085815409E+01  0.26121404747E+02 -0.12671082358E+02  0.29049980220E+02  0.00000000000E+00 0. -1.
</event>
<event>
 7    1  0.3449452E-011  0.5052886E+02  0.7816164E-02  0.1300439E+00
        -11   -1    0    0    0    0  0.00000000000E+00  0.00000000000E+00  0.45593999997E+02  0.45594000000E+02  0.51100000000E-03 0.  1.
         11   -1    0    0    0    0 -0.00000000000E+00 -0.00000000000E+00 -0.45593999997E+02  0.45594000000E+02  0.51100000000E-03 0. -1.
    9900012    2    1    2    0    0 -0.63127181162E+00  0.17038734651E+02 -0.36911362130E+02  0.50528860352E+02  0.30000001527E+02 0.  0.
        -12    1    1    2    0    0  0.63127181162E+00 -0.17038734651E+02  0.36911362130E+02  0.40659139648E+02  0.00000000000E+00 0.  1.
         11    1    3    3    0    0 -0.44649328902E+01  0.26764249381E+01 -0.23904236552E+02  0.24464492669E+02  0.51100000000E-03 0. -1.
        -11    1    3    3    0    0 -0.67906887892E+01  0.57051972702E+01 -0.46831473407E+01  0.10029685907E+02  0.51100000000E-03 0.  1.
         12    1    3    3    0    0  0.10624349868E+02  0.86571124427E+01 -0.83239782373E+01  0.16034681776E+02  0.00000000000E+00 0. -1.
</event>
<event>
 7    1  0.3449452E-011  0.5052874E+02  0.7816164E-02  0.1300439E+00
        -11   -1    0    0    0    0  0.00000000000E+00  0.00000000000E+00  0.45593999997E+02  0.45594000000E+02  0.51100000000E-03 0.  1.
         11   -1    0    0    0    0 -0.00000000000E+00 -0.00000000000E+00 -0.45593999997E+02  0.45594000000E+02  0.51100000000E-03 0. -1.
    9900012    2    1    2    0    0  0.10189703665E+02  0.55574099189E+01 -0.38967429021E+02  0.50528740411E+02  0.29999636951E+02 0.  0.
        -12    1    1    2    0    0 -0.10189703665E+02 -0.55574099189E+01  0.38967429021E+02  0.40659259589E+02  0.00000000000E+00 0.  1.
         11    1    3    3    0    0  0.46184250142E+01 -0.47210642206E+00  0.20219852885E+01  0.50637099891E+01  0.51100000000E-03 0. -1.
        -11    1    3    3    0    0 -0.80228141943E+00 -0.59877817495E+01 -0.13717306381E+02  0.14988718437E+02  0.51100000000E-03 0.  1.
         12    1    3    3    0    0  0.63735600705E+01  0.12017298090E+02 -0.27272107929E+02  0.30476311985E+02  0.00000000000E+00 0. -1.
</event>
<event>
 7    1  0.3449452E-011  0.5052886E+02  0.7816164E-02  0.1300439E+00
        -11   -1    0    0    0    0  0.00000000000E+00  0.00000000000E+00  0.45593999997E+02  0.45594000000E+02  0.51100000000E-03 0.  1.
         11   -1    0    0    0    0 -0.00000000000E+00 -0.00000000000E+00 -0.45593999997E+02  0.45594000000E+02  0.51100000000E-03 0. -1.
    9900012    2    1    2    0    0 -0.24770850642E+02 -0.49202429061E+00 -0.32238622016E+02  0.50528857376E+02  0.29999992480E+02 0.  0.
        -12    1    1    2    0    0  0.24770850642E+02  0.49202429061E+00  0.32238622016E+02  0.40659142624E+02  0.00000000000E+00 0.  1.
         11    1    3    3    0    0 -0.46779686459E+01  0.56702557177E+01 -0.15485568186E+02  0.17141703907E+02  0.51100000000E-03 0. -1.
        -11    1    3    3    0    0 -0.18284943226E+02  0.38643090776E+01 -0.10627917945E+02  0.21499411004E+02  0.51100000000E-03 0.  1.
         12    1    3    3    0    0 -0.18079387703E+01 -0.10026589086E+02 -0.61251358850E+01  0.11887742465E+02  0.00000000000E+00 0. -1.
</event>
<event>
 7    1  0.3449452E-011  0.5052886E+02  0.7816164E-02  0.1300439E+00
        -11   -1    0    0    0    0  0.00000000000E+00  0.00000000000E+00  0.45593999997E+02  0.45594000000E+02  0.51100000000E-03 0. -1.
         11   -1    0    0    0    0 -0.00000000000E+00 -0.00000000000E+00 -0.45593999997E+02  0.45594000000E+02  0.51100000000E-03 0.  1.
    9900012    2    1    2    0    0 -0.31327798730E+02 -0.21170122301E+02  0.14951952296E+02  0.50528856761E+02  0.29999990609E+02 0.  0.
        -12    1    1    2    0    0  0.31327798730E+02  0.21170122301E+02 -0.14951952296E+02  0.40659143239E+02  0.00000000000E+00 0.  1.
         11    1    3    3    0    0 -0.16286991359E+02 -0.14019286647E+02  0.12180964535E+02  0.24701870028E+02  0.51100000000E-03 0. -1.
        -11    1    3    3    0    0 -0.25032672410E+01 -0.11859551280E+02 -0.13998678913E+00  0.12121670677E+02  0.51100000000E-03 0.  1.
         12    1    3    3    0    0 -0.12537540130E+02  0.47087156255E+01  0.29109745503E+01  0.13705316056E+02  0.00000000000E+00 0. -1.
</event>
<event>
 7    1  0.3449452E-011  0.5052888E+02  0.7816164E-02  0.1300439E+00
        -11   -1    0    0    0    0  0.00000000000E+00  0.00000000000E+00  0.45593999997E+02  0.45594000000E+02  0.51100000000E-03 0.  1.
         11   -1    0    0    0    0 -0.00000000000E+00 -0.00000000000E+00 -0.45593999997E+02  0.45594000000E+02  0.51100000000E-03 0. -1.
    9900012    2    1    2    0    0  0.24143783464E+01 -0.40038397262E+02  0.66529530160E+01  0.50528877261E+02  0.30000052921E+02 0.  0.
        -12    1    1    2    0    0 -0.24143783464E+01  0.40038397262E+02 -0.66529530160E+01  0.40659122739E+02  0.00000000000E+00 0.  1.
         11    1    3    3    0    0  0.21945544354E+01 -0.21326786328E+02  0.89811055239E+01  0.23244529269E+02  0.51100000000E-03 0. -1.
        -11    1    3    3    0    0 -0.97494307891E+01 -0.92889570682E+01 -0.10289065032E+01  0.13505360898E+02  0.51100000000E-03 0.  1.
        -12    1    3    3    0    0  0.99692547001E+01 -0.94226538660E+01 -0.12992460046E+01  0.13778987094E+02  0.00000000000E+00 0.  1.
</event>
<event>
 7    1  0.3449452E-011  0.5052886E+02  0.7816164E-02  0.1300439E+00
        -11   -1    0    0    0    0  0.00000000000E+00  0.00000000000E+00  0.45593999997E+02  0.45594000000E+02  0.51100000000E-03 0. -1.
         11   -1    0    0    0    0 -0.00000000000E+00 -0.00000000000E+00 -0.45593999997E+02  0.45594000000E+02  0.51100000000E-03 0.  1.
    9900012    2    1    2    0    0  0.20027052065E+01 -0.15394740666E+02  0.37578677942E+02  0.50528857066E+02  0.29999991537E+02 0.  0.
        -12    1    1    2    0    0 -0.20027052065E+01  0.15394740666E+02 -0.37578677942E+02  0.40659142934E+02  0.00000000000E+00 0.  1.
         11    1    3    3    0    0 -0.10864927431E+01  0.19780656526E+01  0.53227336934E+01  0.57814102465E+01  0.51100000000E-03 0. -1.
        -11    1    3    3    0    0 -0.58976264807E+01 -0.95438320864E+00 -0.14909198999E+01  0.61575715849E+01  0.51100000000E-03 0.  1.
        -12    1    3    3    0    0  0.89868244303E+01 -0.16418423110E+02  0.33746864148E+02  0.38589875234E+02  0.00000000000E+00 0.  1.
</event>
<event>
 7    1  0.3449452E-011  0.5052886E+02  0.7816164E-02  0.1300439E+00
        -11   -1    0    0    0    0  0.00000000000E+00  0.00000000000E+00  0.45593999997E+02  0.45594000000E+02  0.51100000000E-03 0. -1.
         11   -1    0    0    0    0 -0.00000000000E+00 -0.00000000000E+00 -0.45593999997E+02  0.45594000000E+02  0.51100000000E-03 0.  1.
    9900012    2    1    2    0    0  0.32455492531E+02  0.16633607246E+02 -0.17975808727E+02  0.50528860993E+02  0.30000003474E+02 0.  0.
        -12    1    1    2    0    0 -0.32455492531E+02 -0.16633607246E+02  0.17975808727E+02  0.40659139007E+02  0.00000000000E+00 0.  1.
         11    1    3    3    0    0 -0.22178916757E+01  0.15930659990E+01  0.14674876668E+01  0.31000682373E+01  0.51100000000E-03 0. -1.
        -11    1    3    3    0    0  0.63246998710E+01  0.57483452292E+01 -0.15004128200E+02  0.17267575528E+02  0.51100000000E-03 0.  1.
         12    1    3    3    0    0  0.28348684335E+02  0.92921960181E+01 -0.44391681939E+01  0.30161217227E+02  0.00000000000E+00 0. -1.
</event>
<event>
 7    1  0.3449452E-011  0.5052886E+02  0.7816164E-02  0.1300439E+00
        -11   -1    0    0    0    0  0.00000000000E+00  0.00000000000E+00  0.45593999997E+02  0.45594000000E+02  0.51100000000E-03 0.  1.
         11   -1    0    0    0    0 -0.00000000000E+00 -0.00000000000E+00 -0.45593999997E+02  0.45594000000E+02  0.51100000000E-03 0. -1.
    9900012    2    1    2    0    0  0.11320860707E+02 -0.42494398670E+01 -0.38819408047E+02  0.50528855058E+02  0.29999985433E+02 0.  0.
        -12    1    1    2    0    0 -0.11320860707E+02  0.42494398670E+01  0.38819408047E+02  0.40659144942E+02  0.00000000000E+00 0.  1.
         11    1    3    3    0    0 -0.27713122335E+01  0.49685257420E+01  0.27161908921E+00  0.56956296171E+01  0.51100000000E-03 0. -1.
        -11    1    3    3    0    0  0.17436287332E+01 -0.76560048254E+01 -0.74166059673E+01  0.10800958077E+02  0.51100000000E-03 0.  1.
         12    1    3    3    0    0  0.12348544207E+02 -0.15619607837E+01 -0.31674421169E+02  0.34032267364E+02  0.00000000000E+00 0. -1.
</event>
<event>
 7    1  0.3449452E-011  0.5052885E+02  0.7816164E-02  0.1300439E+00
        -11   -1    0    0    0    0  0.00000000000E+00  0.00000000000E+00  0.45593999997E+02  0.45594000000E+02  0.51100000000E-03 0. -1.
         11   -1    0    0    0    0 -0.00000000000E+00 -0.00000000000E+00 -0.45593999997E+02  0.45594000000E+02  0.51100000000E-03 0.  1.
    9900012    2    1    2    0    0  0.21153470509E+02 -0.24712872633E+02 -0.24392030795E+02  0.50528849066E+02  0.29999967222E+02 0.  0.
        -12    1    1    2    0    0 -0.21153470509E+02  0.24712872633E+02  0.24392030795E+02  0.40659150934E+02  0.00000000000E+00 0.  1.
         11    1    3    3    0    0  0.14374045744E+02 -0.28747131135E+01 -0.30531821977E+01  0.14973279144E+02  0.51100000000E-03 0. -1.
        -11    1    3    3    0    0 -0.31044255828E+01  0.55360654237E+00 -0.10924005908E+00  0.31552927051E+01  0.51100000000E-03 0.  1.
        -12    1    3    3    0    0  0.98838503477E+01 -0.22391766061E+02 -0.21229608538E+02  0.32400277217E+02  0.00000000000E+00 0.  1.
</event>
<event>
 7    1  0.3449452E-011  0.5052888E+02  0.7816164E-02  0.1300439E+00
        -11   -1    0    0    0    0  0.00000000000E+00  0.00000000000E+00  0.45593999997E+02  0.45594000000E+02  0.51100000000E-03 0. -1.
         11   -1    0    0    0    0 -0.00000000000E+00 -0.00000000000E+00 -0.45593999997E+02  0.45594000000E+02  0.51100000000E-03 0.  1.
    9900012    2    1    2    0    0  0.12938528983E+02  0.37564543779E+02  0.86407903505E+01  0.50528883686E+02  0.30000072452E+02 0.  0.
        -12    1    1    2    0    0 -0.12938528983E+02 -0.37564543779E+02 -0.86407903505E+01  0.40659116314E+02  0.00000000000E+00 0.  1.
         11    1    3    3    0    0  0.13509992210E+01  0.63523657308E+01  0.96250465964E+01  0.11611170118E+02  0.51100000000E-03 0. -1.
        -11    1    3    3    0    0  0.62900330261E+01  0.18502027727E+02  0.93863833592E+01  0.21679338973E+02  0.51100000000E-03 0.  1.
        -12    1    3    3    0    0  0.52974967355E+01  0.12710150321E+02 -0.10370639605E+02  0.17238374595E+02  0.00000000000E+00 0.  1.
</event>
<event>
 7    1  0.3449452E-011  0.5052886E+02  0.7816164E-02  0.1300439E+00
        -11   -1    0    0    0    0  0.00000000000E+00  0.00000000000E+00  0.45593999997E+02  0.45594000000E+02  0.51100000000E-03 0.  1.
         11   -1    0    0    0    0 -0.00000000000E+00 -0.00000000000E+00 -0.45593999997E+02  0.45594000000E+02  0.51100000000E-03 0. -1.
    9900012    2    1    2    0    0 -0.28204869381E+02 -0.10735514275E+02 -0.27247014333E+02  0.50528859409E+02  0.29999998660E+02 0.  0.
        -12    1    1    2    0    0  0.28204869381E+02  0.10735514275E+02  0.27247014333E+02  0.40659140591E+02  0.00000000000E+00 0.  1.
         11    1    3    3    0    0 -0.81686337182E+01 -0.80297286218E+01 -0.15681502053E+01  0.11561237559E+02  0.51100000000E-03 0.  1.
        -11    1    3    3    0    0 -0.21922572077E+02 -0.39576742664E+01 -0.12396776652E+02  0.25493968379E+02  0.51100000000E-03 0. -1.
         12    1    3    3    0    0  0.18863364143E+01  0.12518886136E+01 -0.13282087475E+02  0.13473653472E+02  0.00000000000E+00 0. -1.
</event>
<event>
 7    1  0.3449452E-011  0.5052900E+02  0.7816164E-02  0.1300438E+00
        -11   -1    0    0    0    0  0.00000000000E+00  0.00000000000E+00  0.45593999997E+02  0.45594000000E+02  0.51100000000E-03 0.  1.
         11   -1    0    0    0    0 -0.00000000000E+00 -0.00000000000E+00 -0.45593999997E+02  0.45594000000E+02  0.51100000000E-03 0. -1.
    9900012    2    1    2    0    0  0.21984679302E+01  0.18212353249E+02 -0.36285418515E+02  0.50528995229E+02  0.30000411496E+02 0.  0.
        -12    1    1    2    0    0 -0.21984679302E+01 -0.18212353249E+02  0.36285418515E+02  0.40659004771E+02  0.00000000000E+00 0.  1.
         11    1    3    3    0    0 -0.22639955663E+00  0.12055288578E+02 -0.30736515566E+02  0.33016883996E+02  0.51100000000E-03 0. -1.
        -11    1    3    3    0    0  0.72166943808E+01  0.86003097265E+01 -0.39302044046E+01  0.11895062509E+02  0.51100000000E-03 0.  1.
        -12    1    3    3    0    0 -0.47918268939E+01 -0.24432450553E+01 -0.16186985451E+01  0.56170487235E+01  0.00000000000E+00 0.  1.
</event>
<event>
 7    1  0.3449452E-011  0.5052886E+02  0.7816164E-02  0.1300439E+00
        -11   -1    0    0    0    0  0.00000000000E+00  0.00000000000E+00  0.45593999997E+02  0.45594000000E+02  0.51100000000E-03 0. -1.
         11   -1    0    0    0    0 -0.00000000000E+00 -0.00000000000E+00 -0.45593999997E+02  0.45594000000E+02  0.51100000000E-03 0.  1.
    9900012    2    1    2    0    0 -0.26489940462E+01  0.20468622739E+02  0.35031184807E+02  0.50528860864E+02  0.30000003083E+02 0.  0.
        -12    1    1    2    0    0  0.26489940462E+01 -0.20468622739E+02 -0.35031184807E+02  0.40659139136E+02  0.00000000000E+00 0.  1.
         11    1    3    3    0    0  0.96660473410E+01  0.98658213066E+01  0.30056162333E+02  0.33077784021E+02  0.51100000000E-03 0. -1.
        -11    1    3    3    0    0 -0.24755374440E+01  0.40377232492E+01  0.34551332952E+00  0.47487760945E+01  0.51100000000E-03 0.  1.
        -12    1    3    3    0    0 -0.98395039433E+01  0.65650781834E+01  0.46295091438E+01  0.12702300749E+02  0.00000000000E+00 0.  1.
</event>
<event>
 7    1  0.3449452E-011  0.5052886E+02  0.7816164E-02  0.1300439E+00
        -11   -1    0    0    0    0  0.00000000000E+00  0.00000000000E+00  0.45593999997E+02  0.45594000000E+02  0.51100000000E-03 0.  1.
         11   -1    0    0    0    0 -0.00000000000E+00 -0.00000000000E+00 -0.45593999997E+02  0.45594000000E+02  0.51100000000E-03 0. -1.
    9900012    2    1    2    0    0  0.28730506294E+02  0.88363750856E+01 -0.27379596012E+02  0.50528858416E+02  0.29999995642E+02 0.  0.
        -12    1    1    2    0    0 -0.28730506294E+02 -0.88363750856E+01  0.27379596012E+02  0.40659141584E+02  0.00000000000E+00 0.  1.
         11    1    3    3    0    0  0.19251983951E+02  0.83096986227E+01 -0.33943423800E+01  0.21241740459E+02  0.51100000000E-03 0. -1.
        -11    1    3    3    0    0  0.37123595204E+01  0.44403873831E+01 -0.18431092141E+01  0.60741834972E+01  0.51100000000E-03 0.  1.
        -12    1    3    3    0    0  0.57661628222E+01 -0.39137109202E+01 -0.22142144418E+02  0.23212934460E+02  0.00000000000E+00 0.  1.
</event>
<event>
 7    1  0.3449452E-011  0.5052886E+02  0.7816164E-02  0.1300439E+00
        -11   -1    0    0    0    0  0.00000000000E+00  0.00000000000E+00  0.45593999997E+02  0.45594000000E+02  0.51100000000E-03 0.  1.
         11   -1    0    0    0    0 -0.00000000000E+00 -0.00000000000E+00 -0.45593999997E+02  0.45594000000E+02  0.51100000000E-03 0. -1.
    9900012    2    1    2    0    0 -0.41549425194E+01 -0.22118778140E+02 -0.33862395801E+02  0.50528859046E+02  0.29999997555E+02 0.  0.
        -12    1    1    2    0    0  0.41549425194E+01  0.22118778140E+02  0.33862395801E+02  0.40659140954E+02  0.00000000000E+00 0.  1.
         11    1    3    3    0    0 -0.18284702996E+01 -0.15145792683E+00 -0.69937797451E+01  0.72304355694E+01  0.51100000000E-03 0. -1.
        -11    1    3    3    0    0 -0.79278045636E+01 -0.57837365752E+01  0.17296387621E+01  0.99646045821E+01  0.51100000000E-03 0.  1.
         12    1    3    3    0    0  0.56013323438E+01 -0.16183583638E+02 -0.28598254818E+02  0.33333818894E+02  0.00000000000E+00 0. -1.
</event>
<event>
 7    1  0.3449452E-011  0.5052887E+02  0.7816164E-02  0.1300439E+00
        -11   -1    0    0    0    0  0.00000000000E+00  0.00000000000E+00  0.45593999997E+02  0.45594000000E+02  0.51100000000E-03 0. -1.
         11   -1    0    0    0    0 -0.00000000000E+00 -0.00000000000E+00 -0.45593999997E+02  0.45594000000E+02  0.51100000000E-03 0.  1.
    9900012    2    1    2    0    0 -0.30367199389E+02  0.27029183598E+02 -0.64935341285E+00  0.50528865423E+02  0.30000016939E+02 0.  0.
        -12    1    1    2    0    0  0.30367199389E+02 -0.27029183598E+02  0.64935341285E+00  0.40659134577E+02  0.00000000000E+00 0.  1.
         11    1    3    3    0    0 -0.54034195626E+01  0.13603844092E+02  0.26515484433E+01  0.14875894140E+02  0.51100000000E-03 0. -1.
        -11    1    3    3    0    0 -0.78129201406E+01 -0.57318415314E+01 -0.20828609497E+01  0.99113086150E+01  0.51100000000E-03 0.  1.
         12    1    3    3    0    0 -0.17150859686E+02  0.19157181037E+02 -0.12180409064E+01  0.25741662668E+02  0.00000000000E+00 0. -1.
</event>
<event>
 7    1  0.3449452E-011  0.5052887E+02  0.7816164E-02  0.1300439E+00
        -11   -1    0    0    0    0  0.00000000000E+00  0.00000000000E+00  0.45593999997E+02  0.45594000000E+02  0.51100000000E-03 0. -1.
         11   -1    0    0    0    0 -0.00000000000E+00 -0.00000000000E+00 -0.45593999997E+02  0.45594000000E+02  0.51100000000E-03 0.  1.
    9900012    2    1    2    0    0 -0.36199580627E+02 -0.14440226054E+02 -0.11586003619E+02  0.50528865161E+02  0.30000016142E+02 0.  0.
        -12    1    1    2    0    0  0.36199580627E+02  0.14440226054E+02  0.11586003619E+02  0.40659134839E+02  0.00000000000E+00 0.  1.
         11    1    3    3    0    0 -0.19920134809E+02 -0.35823289145E+01  0.28039717381E+01  0.20432990702E+02  0.51100000000E-03 0. -1.
        -11    1    3    3    0    0 -0.19450603329E+02 -0.61565884493E+01 -0.13205724481E+02  0.24302689368E+02  0.51100000000E-03 0.  1.
        -12    1    3    3    0    0  0.31711575111E+01 -0.47013086902E+01 -0.11842508759E+01  0.57931850909E+01  0.00000000000E+00 0.  1.
</event>
<event>
 7    1  0.3449452E-011  0.5052887E+02  0.7816164E-02  0.1300439E+00
        -11   -1    0    0    0    0  0.00000000000E+00  0.00000000000E+00  0.45593999997E+02  0.45594000000E+02  0.51100000000E-03 0. -1.
         11   -1    0    0    0    0 -0.00000000000E+00 -0.00000000000E+00 -0.45593999997E+02  0.45594000000E+02  0.51100000000E-03 0.  1.
    9900012    2    1    2    0    0  0.39266990232E+01 -0.12567248057E+02  0.38468304187E+02  0.50528866759E+02  0.30000021000E+02 0.  0.
        -12    1    1    2    0    0 -0.39266990232E+01  0.12567248057E+02 -0.38468304187E+02  0.40659133241E+02  0.00000000000E+00 0.  1.
         11    1    3    3    0    0 -0.81925556852E+00 -0.18797136692E+01  0.35998611845E+02  0.36056962687E+02  0.51100000000E-03 0. -1.
        -11    1    3    3    0    0 -0.16440997065E+01 -0.48357918151E+01 -0.87895059879E+00  0.51827117169E+01  0.51100000000E-03 0.  1.
        -12    1    3    3    0    0  0.63900542982E+01 -0.58517425723E+01  0.33486429406E+01  0.92891923551E+01  0.00000000000E+00 0.  1.
</event>
<event>
 7    1  0.6279771E-011  0.5052895E+02  0.7816164E-02  0.1300438E+00
        -11   -1    0    0    0    0  0.00000000000E+00  0.00000000000E+00  0.45593999997E+02  0.45594000000E+02  0.51100000000E-03 0. -1.
         11   -1    0    0    0    0 -0.00000000000E+00 -0.00000000000E+00 -0.45593999997E+02  0.45594000000E+02  0.51100000000E-03 0.  1.
    9900012    2    1    2    0    0  0.23157331602E+02 -0.27449069614E+02  0.19064220773E+02  0.50528954964E+02  0.30000289107E+02 0.  0.
        -12    1    1    2    0    0 -0.23157331602E+02  0.27449069614E+02 -0.19064220773E+02  0.40659045036E+02  0.00000000000E+00 0.  1.
         11    1    3    3    0    0  0.10735966741E+02 -0.15158438427E+02  0.13819847515E+02  0.23152266045E+02  0.51100000000E-03 0. -1.
        -11    1    3    3    0    0  0.14948566571E+02 -0.16187791179E+02  0.30661948784E+01  0.22246477858E+02  0.51100000000E-03 0.  1.
        -12    1    3    3    0    0 -0.25272017102E+01  0.38971599920E+01  0.21781783789E+01  0.51302110617E+01  0.00000000000E+00 0.  1.
</event>
<event>
 7    1  0.3449452E-011  0.5052886E+02  0.7816164E-02  0.1300439E+00
        -11   -1    0    0    0    0  0.00000000000E+00  0.00000000000E+00  0.45593999997E+02  0.45594000000E+02  0.51100000000E-03 0. -1.
         11   -1    0    0    0    0 -0.00000000000E+00 -0.00000000000E+00 -0.45593999997E+02  0.45594000000E+02  0.51100000000E-03 0.  1.
    9900012    2    1    2    0    0  0.29267762058E+02  0.25233569859E+02 -0.12642410315E+02  0.50528862253E+02  0.30000007305E+02 0.  0.
        -12    1    1    2    0    0 -0.29267762058E+02 -0.25233569859E+02  0.12642410315E+02  0.40659137747E+02  0.00000000000E+00 0.  1.
         11    1    3    3    0    0  0.51103937785E+01  0.76057816697E+01  0.27372318994E+01  0.95632880387E+01  0.51100000000E-03 0. -1.
        -11    1    3    3    0    0  0.21269205010E+00  0.12607073697E+02 -0.95445109528E+01  0.15813956959E+02  0.51100000000E-03 0.  1.
        -12    1    3    3    0    0  0.23944676229E+02  0.50207144927E+01 -0.58351312618E+01  0.25151617256E+02  0.00000000000E+00 0.  1.
</event>
<event>
 7    1  0.3449452E-011  0.5052890E+02  0.7816164E-02  0.1300439E+00
        -11   -1    0    0    0    0  0.00000000000E+00  0.00000000000E+00  0.45593999997E+02  0.45594000000E+02  0.51100000000E-03 0.  1.
         11   -1    0    0    0    0 -0.00000000000E+00 -0.00000000000E+00 -0.45593999997E+02  0.45594000000E+02  0.51100000000E-03 0. -1.
    9900012    2    1    2    0    0  0.34176253498E+02  0.97193276126E+01 -0.19765645677E+02  0.50528900386E+02  0.30000123212E+02 0.  0.
        -12    1    1    2    0    0 -0.34176253498E+02 -0.97193276126E+01  0.19765645677E+02  0.40659099614E+02  0.00000000000E+00 0.  1.
         11    1    3    3    0    0  0.73682849046E+01 -0.51534328378E+01 -0.12704734092E+02  0.15564695983E+02  0.51100000000E-03 0. -1.
        -11    1    3    3    0    0  0.48080725645E+00 -0.15381836288E+00  0.29864756918E+01  0.30288402113E+01  0.51100000000E-03 0.  1.
         12    1    3    3    0    0  0.26327161337E+02  0.15026578813E+02 -0.10047387277E+02  0.31935364191E+02  0.00000000000E+00 0. -1.
</event>
<event>
 7    1  0.3449452E-011  0.5052886E+02  0.7816164E-02  0.1300439E+00
        -11   -1    0    0    0    0  0.00000000000E+00  0.00000000000E+00  0.45593999997E+02  0.45594000000E+02  0.51100000000E-03 0. -1.
         11   -1    0    0    0    0 -0.00000000000E+00 -0.00000000000E+00 -0.45593999997E+02  0.45594000000E+02  0.51100000000E-03 0.  1.
    9900012    2    1    2    0    0 -0.19364484231E+01  0.40606071117E+02  0.75018130689E+00  0.50528860609E+02  0.30000002307E+02 0.  0.
        -12    1    1    2    0    0  0.19364484231E+01 -0.40606071117E+02 -0.75018130689E+00  0.40659139391E+02  0.00000000000E+00 0.  1.
         11    1    3    3    0    0 -0.45732266518E+01  0.24489983957E+01  0.37107582260E+01  0.63782224815E+01  0.51100000000E-03 0.  1.
        -11    1    3    3    0    0 -0.22226419771E+01  0.17322741873E+01  0.57335736176E+01  0.63886444500E+01  0.51100000000E-03 0. -1.
         12    1    3    3    0    0  0.48594202057E+01  0.36424798534E+02 -0.86941505368E+01  0.37761993678E+02  0.00000000000E+00 0. -1.
</event>
<event>
 7    1  0.3449452E-011  0.5052887E+02  0.7816164E-02  0.1300439E+00
        -11   -1    0    0    0    0  0.00000000000E+00  0.00000000000E+00  0.45593999997E+02  0.45594000000E+02  0.51100000000E-03 0. -1.
         11   -1    0    0    0    0 -0.00000000000E+00 -0.00000000000E+00 -0.45593999997E+02  0.45594000000E+02  0.51100000000E-03 0.  1.
    9900012    2    1    2    0    0 -0.33662066892E+02 -0.81990451775E+01  0.21279230571E+02  0.50528871345E+02  0.30000034941E+02 0.  0.
        -12    1    1    2    0    0  0.33662066892E+02  0.81990451775E+01 -0.21279230571E+02  0.40659128655E+02  0.00000000000E+00 0.  1.
         11    1    3    3    0    0 -0.11254498824E+02  0.15011504839E+01  0.11973199159E+02  0.16500748314E+02  0.51100000000E-03 0. -1.
        -11    1    3    3    0    0 -0.10623413804E+02 -0.37341566377E+01 -0.68342388136E+01  0.13172230907E+02  0.51100000000E-03 0.  1.
         12    1    3    3    0    0 -0.11784154264E+02 -0.59660390237E+01  0.16140270225E+02  0.20855892124E+02  0.00000000000E+00 0. -1.
</event>
<event>
 7    1  0.5893409E-011  0.5052886E+02  0.7816164E-02  0.1300439E+00
        -11   -1    0    0    0    0  0.00000000000E+00  0.00000000000E+00  0.45593999997E+02  0.45594000000E+02  0.51100000000E-03 0. -1.
         11   -1    0    0    0    0 -0.00000000000E+00 -0.00000000000E+00 -0.45593999997E+02  0.45594000000E+02  0.51100000000E-03 0.  1.
    9900012    2    1    2    0    0 -0.17583757540E+02 -0.61804457507E+01  0.36135572739E+02  0.50528855198E+02  0.29999985858E+02 0.  0.
        -12    1    1    2    0    0  0.17583757540E+02  0.61804457507E+01 -0.36135572739E+02  0.40659144802E+02  0.00000000000E+00 0.  1.
         11    1    3    3    0    0 -0.18045807852E+02  0.11440358666E+01  0.28865432324E+02  0.34061315045E+02  0.51100000000E-03 0. -1.
        -11    1    3    3    0    0  0.87332635804E+00 -0.65374547113E+01  0.10894801769E+02  0.12735686824E+02  0.51100000000E-03 0.  1.
        -12    1    3    3    0    0 -0.41127604614E+00 -0.78702690595E+00 -0.36246613538E+01  0.37318533287E+01  0.00000000000E+00 0.  1.
</event>
<event>
 7    1  0.3449452E-011  0.5052886E+02  0.7816164E-02  0.1300439E+00
        -11   -1    0    0    0    0  0.00000000000E+00  0.00000000000E+00  0.45593999997E+02  0.45594000000E+02  0.51100000000E-03 0.  1.
         11   -1    0    0    0    0 -0.00000000000E+00 -0.00000000000E+00 -0.45593999997E+02  0.45594000000E+02  0.51100000000E-03 0. -1.
    9900012    2    1    2    0    0  0.33037949237E+02 -0.77602294648E+01 -0.22392827537E+02  0.50528856179E+02  0.29999988842E+02 0.  0.
        -12    1    1    2    0    0 -0.33037949237E+02  0.77602294648E+01  0.22392827537E+02  0.40659143821E+02  0.00000000000E+00 0.  1.
         11    1    3    3    0    0  0.25258375474E+02 -0.16598384349E+01 -0.14450484710E+02  0.29147162878E+02  0.51100000000E-03 0. -1.
        -11    1    3    3    0    0  0.81493128238E+01 -0.94790939013E+01 -0.11118498096E+02  0.16729779462E+02  0.51100000000E-03 0.  1.
        -12    1    3    3    0    0 -0.36973906135E+00  0.33787028714E+01  0.31761552691E+01  0.46519138384E+01  0.00000000000E+00 0.  1.
</event>
<event>
 7    1  0.3449452E-011  0.5052887E+02  0.7816164E-02  0.1300439E+00
        -11   -1    0    0    0    0  0.00000000000E+00  0.00000000000E+00  0.45593999997E+02  0.45594000000E+02  0.51100000000E-03 0.  1.
         11   -1    0    0    0    0 -0.00000000000E+00 -0.00000000000E+00 -0.45593999997E+02  0.45594000000E+02  0.51100000000E-03 0. -1.
    9900012    2    1    2    0    0 -0.29259909066E+02 -0.24102626310E+02 -0.14699868619E+02  0.50528868049E+02  0.30000024922E+02 0.  0.
        -12    1    1    2    0    0  0.29259909066E+02  0.24102626310E+02  0.14699868619E+02  0.40659131951E+02  0.00000000000E+00 0.  1.
         11    1    3    3    0    0 -0.11694194256E+01 -0.45069233549E+01 -0.95312891869E+01  0.10607797780E+02  0.51100000000E-03 0. -1.
        -11    1    3    3    0    0 -0.53676822712E+01 -0.44467221148E+01  0.71289592297E+01  0.99703264987E+01  0.51100000000E-03 0.  1.
         12    1    3    3    0    0 -0.22722807369E+02 -0.15148980841E+02 -0.12297538662E+02  0.29950743770E+02  0.00000000000E+00 0. -1.
</event>
<event>
 7    1  0.3449452E-011  0.5052887E+02  0.7816164E-02  0.1300439E+00
        -11   -1    0    0    0    0  0.00000000000E+00  0.00000000000E+00  0.45593999997E+02  0.45594000000E+02  0.51100000000E-03 0. -1.
         11   -1    0    0    0    0 -0.00000000000E+00 -0.00000000000E+00 -0.45593999997E+02  0.45594000000E+02  0.51100000000E-03 0.  1.
    9900012    2    1    2    0    0  0.13170128246E+02  0.28738350853E+02  0.25569906532E+02  0.50528865629E+02  0.30000017565E+02 0.  0.
        -12    1    1    2    0    0 -0.13170128246E+02 -0.28738350853E+02 -0.25569906532E+02  0.40659134371E+02  0.00000000000E+00 0.  1.
         11    1    3    3    0    0  0.13810723732E+02  0.13628567518E+02  0.19653583419E+02  0.27617698747E+02  0.51100000000E-03 0. -1.
        -11    1    3    3    0    0  0.57798357931E+01  0.45661403529E+01 -0.27128077518E+01  0.78495519412E+01  0.51100000000E-03 0.  1.
         12    1    3    3    0    0 -0.64204312793E+01  0.10543642982E+02  0.86291308642E+01  0.15061614940E+02  0.00000000000E+00 0. -1.
</event>
<event>
 7    1  0.3947256E-011  0.5052887E+02  0.7816164E-02  0.1300439E+00
        -11   -1    0    0    0    0  0.00000000000E+00  0.00000000000E+00  0.45593999997E+02  0.45594000000E+02  0.51100000000E-03 0. -1.
         11   -1    0    0    0    0 -0.00000000000E+00 -0.00000000000E+00 -0.45593999997E+02  0.45594000000E+02  0.51100000000E-03 0.  1.
    9900012    2    1    2    0    0  0.15593301282E+02  0.14701053510E+02  0.34552759497E+02  0.50528865626E+02  0.30000017557E+02 0.  0.
        -12    1    1    2    0    0 -0.15593301282E+02 -0.14701053510E+02 -0.34552759497E+02  0.40659134374E+02  0.00000000000E+00 0.  1.
         11    1    3    3    0    0 -0.28608129026E+01  0.34179615960E+00  0.14848580572E+02  0.15125522151E+02  0.51100000000E-03 0. -1.
        -11    1    3    3    0    0  0.41099376165E+01  0.13307112398E+02  0.14507370139E+02  0.20110559818E+02  0.51100000000E-03 0.  1.
        -12    1    3    3    0    0  0.14344176568E+02  0.10521449518E+01  0.51968087862E+01  0.15292783657E+02  0.00000000000E+00 0.  1.
</event>
<event>
 7    1  0.3449452E-011  0.5052882E+02  0.7816164E-02  0.1300439E+00
        -11   -1    0    0    0    0  0.00000000000E+00  0.00000000000E+00  0.45593999997E+02  0.45594000000E+02  0.51100000000E-03 0. -1.
         11   -1    0    0    0    0 -0.00000000000E+00 -0.00000000000E+00 -0.45593999997E+02  0.45594000000E+02  0.51100000000E-03 0.  1.
    9900012    2    1    2    0    0 -0.33383580308E+02 -0.21941989854E+02  0.75666696299E+01  0.50528820935E+02  0.29999881715E+02 0.  0.
        -12    1    1    2    0    0  0.33383580308E+02  0.21941989854E+02 -0.75666696299E+01  0.40659179065E+02  0.00000000000E+00 0.  1.
         11    1    3    3    0    0 -0.13237169072E+02 -0.64561039375E+01  0.13284668980E+02  0.19833969680E+02  0.51100000000E-03 0. -1.
        -11    1    3    3    0    0 -0.17077947551E+02 -0.12841045040E+02  0.25196089704E+01  0.21515044966E+02  0.51100000000E-03 0.  1.
        -12    1    3    3    0    0 -0.30684636844E+01 -0.26448408763E+01 -0.82376083210E+01  0.91798062885E+01  0.00000000000E+00 0.  1.
</event>
<event>
 7    1  0.3449452E-011  0.5052886E+02  0.7816164E-02  0.1300439E+00
        -11   -1    0    0    0    0  0.00000000000E+00  0.00000000000E+00  0.45593999997E+02  0.45594000000E+02  0.51100000000E-03 0.  1.
         11   -1    0    0    0    0 -0.00000000000E+00 -0.00000000000E+00 -0.45593999997E+02  0.45594000000E+02  0.51100000000E-03 0. -1.
    9900012    2    1    2    0    0  0.18648007810E+02  0.64114449962E+01 -0.35557146033E+02  0.50528862573E+02  0.30000008278E+02 0.  0.
        -12    1    1    2    0    0 -0.18648007810E+02 -0.64114449962E+01  0.35557146033E+02  0.40659137427E+02  0.00000000000E+00 0.  1.
         11    1    3    3    0    0  0.20014965638E+02  0.54737774039E+01 -0.24207099067E+02  0.31883298669E+02  0.51100000000E-03 0. -1.
        -11    1    3    3    0    0  0.44052930442E+01  0.45841437107E+01 -0.97389573561E+01  0.11630488855E+02  0.51100000000E-03 0.  1.
        -12    1    3    3    0    0 -0.57722508717E+01 -0.36464761184E+01 -0.16110896105E+01  0.70150750488E+01  0.00000000000E+00 0.  1.
</event>
<event>
 7    1  0.3449452E-011  0.5052886E+02  0.7816164E-02  0.1300439E+00
        -11   -1    0    0    0    0  0.00000000000E+00  0.00000000000E+00  0.45593999997E+02  0.45594000000E+02  0.51100000000E-03 0.  1.
         11   -1    0    0    0    0 -0.00000000000E+00 -0.00000000000E+00 -0.45593999997E+02  0.45594000000E+02  0.51100000000E-03 0. -1.
    9900012    2    1    2    0    0  0.22018143746E+02  0.61164722221E+01 -0.33629683369E+02  0.50528862159E+02  0.30000007020E+02 0.  0.
        -12    1    1    2    0    0 -0.22018143746E+02 -0.61164722221E+01  0.33629683369E+02  0.40659137841E+02  0.00000000000E+00 0.  1.
         11    1    3    3    0    0  0.11858028455E+02 -0.34386532424E+01 -0.10571350037E+02  0.16253941578E+02  0.51100000000E-03 0. -1.
        -11    1    3    3    0    0 -0.63914227094E+01  0.36568619397E+01 -0.41081101402E+01  0.84320515108E+01  0.51100000000E-03 0.  1.
         12    1    3    3    0    0  0.16551538000E+02  0.58982635248E+01 -0.18950223191E+02  0.25842869070E+02  0.00000000000E+00 0. -1.
</event>
<event>
 7    1  0.3449452E-011  0.5052885E+02  0.7816164E-02  0.1300439E+00
        -11   -1    0    0    0    0  0.00000000000E+00  0.00000000000E+00  0.45593999997E+02  0.45594000000E+02  0.51100000000E-03 0.  1.
         11   -1    0    0    0    0 -0.00000000000E+00 -0.00000000000E+00 -0.45593999997E+02  0.45594000000E+02  0.51100000000E-03 0. -1.
    9900012    2    1    2    0    0 -0.19790229695E+01 -0.22584953387E+01 -0.40548112550E+02  0.50528846486E+02  0.29999959378E+02 0.  0.
        -12    1    1    2    0    0  0.19790229695E+01  0.22584953387E+01  0.40548112550E+02  0.40659153514E+02  0.00000000000E+00 0.  1.
         11    1    3    3    0    0 -0.11346960007E+01  0.65294941777E+01 -0.39401677107E+01  0.77101719229E+01  0.51100000000E-03 0. -1.
        -11    1    3    3    0    0 -0.26599846942E+01 -0.33729131996E+01  0.12960133848E+01  0.44868377484E+01  0.51100000000E-03 0.  1.
         12    1    3    3    0    0  0.18156577254E+01 -0.54150763168E+01 -0.37903958224E+02  0.38331836814E+02  0.00000000000E+00 0. -1.
</event>
<event>
 7    1  0.3449452E-011  0.5052886E+02  0.7816164E-02  0.1300439E+00
        -11   -1    0    0    0    0  0.00000000000E+00  0.00000000000E+00  0.45593999997E+02  0.45594000000E+02  0.51100000000E-03 0.  1.
         11   -1    0    0    0    0 -0.00000000000E+00 -0.00000000000E+00 -0.45593999997E+02  0.45594000000E+02  0.51100000000E-03 0. -1.
    9900012    2    1    2    0    0  0.22305291698E+01  0.23289854570E+02 -0.33253168995E+02  0.50528857922E+02  0.29999994141E+02 0.  0.
        -12    1    1    2    0    0 -0.22305291698E+01 -0.23289854570E+02  0.33253168995E+02  0.40659142078E+02  0.00000000000E+00 0.  1.
         11    1    3    3    0    0 -0.46279842112E+01  0.87285315739E+01 -0.14665291259E+01  0.99878030234E+01  0.51100000000E-03 0. -1.
        -11    1    3    3    0    0  0.88415955646E+01 -0.40610589910E+00 -0.18163408058E+02  0.20205150994E+02  0.51100000000E-03 0.  1.
         12    1    3    3    0    0 -0.19830821837E+01  0.14967428895E+02 -0.13623231811E+02  0.20335903906E+02  0.00000000000E+00 0. -1.
</event>
<event>
 7    1  0.3449452E-011  0.5052886E+02  0.7816164E-02  0.1300439E+00
        -11   -1    0    0    0    0  0.00000000000E+00  0.00000000000E+00  0.45593999997E+02  0.45594000000E+02  0.51100000000E-03 0.  1.
         11   -1    0    0    0    0 -0.00000000000E+00 -0.00000000000E+00 -0.45593999997E+02  0.45594000000E+02  0.51100000000E-03 0. -1.
    9900012    2    1    2    0    0  0.27164530974E+01  0.38425856725E+02 -0.13009223515E+02  0.50528862295E+02  0.30000007431E+02 0.  0.
        -12    1    1    2    0    0 -0.27164530974E+01 -0.38425856725E+02  0.13009223515E+02  0.40659137705E+02  0.00000000000E+00 0.  1.
         11    1    3    3    0    0  0.65449702730E+01  0.30051175711E+02 -0.15014285789E+02  0.34224823966E+02  0.51100000000E-03 0. -1.
        -11    1    3    3    0    0 -0.19227510769E+00  0.10966904641E+02  0.36274117205E+01  0.11552838749E+02  0.51100000000E-03 0.  1.
        -12    1    3    3    0    0 -0.36362420679E+01 -0.25922236273E+01 -0.16223494471E+01  0.47511995789E+01  0.00000000000E+00 0.  1.
</event>
<event>
 7    1  0.3449452E-011  0.5052886E+02  0.7816164E-02  0.1300439E+00
        -11   -1    0    0    0    0  0.00000000000E+00  0.00000000000E+00  0.45593999997E+02  0.45594000000E+02  0.51100000000E-03 0.  1.
         11   -1    0    0    0    0 -0.00000000000E+00 -0.00000000000E+00 -0.45593999997E+02  0.45594000000E+02  0.51100000000E-03 0. -1.
    9900012    2    1    2    0    0 -0.29380475038E+02  0.25144805012E+02  0.12557543330E+02  0.50528862933E+02  0.30000009372E+02 0.  0.
        -12    1    1    2    0    0  0.29380475038E+02 -0.25144805012E+02 -0.12557543330E+02  0.40659137067E+02  0.00000000000E+00 0.  1.
         11    1    3    3    0    0 -0.68587335196E+00  0.95373759483E+01  0.49687276845E+01  0.10775909117E+02  0.51100000000E-03 0.  1.
        -11    1    3    3    0    0 -0.27125681989E+02  0.15022679806E+02  0.13345473835E+02  0.33757742875E+02  0.51100000000E-03 0. -1.
         12    1    3    3    0    0 -0.15689196975E+01  0.58474925727E+00 -0.57566581896E+01  0.59952109406E+01  0.00000000000E+00 0. -1.
</event>
<event>
 7    1  0.3449452E-011  0.5052886E+02  0.7816164E-02  0.1300439E+00
        -11   -1    0    0    0    0  0.00000000000E+00  0.00000000000E+00  0.45593999997E+02  0.45594000000E+02  0.51100000000E-03 0.  1.
         11   -1    0    0    0    0 -0.00000000000E+00 -0.00000000000E+00 -0.45593999997E+02  0.45594000000E+02  0.51100000000E-03 0. -1.
    9900012    2    1    2    0    0  0.29695215208E+02  0.26196747638E+02 -0.92244308274E+01  0.50528861825E+02  0.30000006004E+02 0.  0.
        -12    1    1    2    0    0 -0.29695215208E+02 -0.26196747638E+02  0.92244308274E+01  0.40659138175E+02  0.00000000000E+00 0.  1.
         11    1    3    3    0    0  0.63122062250E+01  0.11965190885E+01 -0.37828332781E+01  0.74555639108E+01  0.51100000000E-03 0. -1.
        -11    1    3    3    0    0  0.16773647370E+02  0.56040217006E+01  0.70905275667E+01  0.19053500643E+02  0.51100000000E-03 0.  1.
        -12    1    3    3    0    0  0.66093616126E+01  0.19396206849E+02 -0.12532125116E+02  0.24019797272E+02  0.00000000000E+00 0.  1.
</event>
<event>
 7    1  0.3449452E-011  0.5052886E+02  0.7816164E-02  0.1300439E+00
        -11   -1    0    0    0    0  0.00000000000E+00  0.00000000000E+00  0.45593999997E+02  0.45594000000E+02  0.51100000000E-03 0. -1.
         11   -1    0    0    0    0 -0.00000000000E+00 -0.00000000000E+00 -0.45593999997E+02  0.45594000000E+02  0.51100000000E-03 0.  1.
    9900012    2    1    2    0    0 -0.32088248491E+02  0.13875932532E+02  0.20759772150E+02  0.50528864070E+02  0.30000012827E+02 0.  0.
        -12    1    1    2    0    0  0.32088248491E+02 -0.13875932532E+02 -0.20759772150E+02  0.40659135930E+02  0.00000000000E+00 0.  1.
         11    1    3    3    0    0 -0.16222300696E+02  0.15362201545E+02  0.23794087803E+01  0.22468241199E+02  0.51100000000E-03 0. -1.
        -11    1    3    3    0    0 -0.22359710349E+01  0.29919878403E+01  0.11610946486E+02  0.12196951925E+02  0.51100000000E-03 0.  1.
        -12    1    3    3    0    0 -0.13629976761E+02 -0.44782568534E+01  0.67694168836E+01  0.15863670946E+02  0.00000000000E+00 0.  1.
</event>
<event>
 7    1  0.3449452E-011  0.5052891E+02  0.7816164E-02  0.1300439E+00
        -11   -1    0    0    0    0  0.00000000000E+00  0.00000000000E+00  0.45593999997E+02  0.45594000000E+02  0.51100000000E-03 0. -1.
         11   -1    0    0    0    0 -0.00000000000E+00 -0.00000000000E+00 -0.45593999997E+02  0.45594000000E+02  0.51100000000E-03 0.  1.
    9900012    2    1    2    0    0 -0.57599744868E+01  0.30245579214E+02  0.26555399539E+02  0.50528909839E+02  0.30000151945E+02 0.  0.
        -12    1    1    2    0    0  0.57599744868E+01 -0.30245579214E+02 -0.26555399539E+02  0.40659090161E+02  0.00000000000E+00 0.  1.
         11    1    3    3    0    0 -0.29135501687E+01  0.15548232088E+01 -0.10857543923E+01  0.34763648626E+01  0.51100000000E-03 0. -1.
        -11    1    3    3    0    0 -0.12006764791E+02  0.83833632651E+01  0.54978649498E+01  0.15641921226E+02  0.51100000000E-03 0.  1.
         12    1    3    3    0    0  0.91603404724E+01  0.20307392740E+02  0.22143288982E+02  0.31410623750E+02  0.00000000000E+00 0. -1.
</event>
<event>
 7    1  0.3449452E-011  0.5052886E+02  0.7816164E-02  0.1300439E+00
        -11   -1    0    0    0    0  0.00000000000E+00  0.00000000000E+00  0.45593999997E+02  0.45594000000E+02  0.51100000000E-03 0.  1.
         11   -1    0    0    0    0 -0.00000000000E+00 -0.00000000000E+00 -0.45593999997E+02  0.45594000000E+02  0.51100000000E-03 0. -1.
    9900012    2    1    2    0    0 -0.29882234898E+02 -0.15953903590E+02 -0.22487570635E+02  0.50528857912E+02  0.29999994110E+02 0.  0.
        -12    1    1    2    0    0  0.29882234898E+02  0.15953903590E+02  0.22487570635E+02  0.40659142088E+02  0.00000000000E+00 0.  1.
         11    1    3    3    0    0 -0.29851284157E+02 -0.75586336815E+01 -0.19501253160E+02  0.36449018972E+02  0.51100000000E-03 0. -1.
        -11    1    3    3    0    0 -0.26521508410E+01 -0.84908695343E+01 -0.54905030034E+01  0.10453439292E+02  0.51100000000E-03 0.  1.
        -12    1    3    3    0    0  0.26212001004E+01  0.95599625611E-01  0.25041855281E+01  0.36263996489E+01  0.00000000000E+00 0.  1.
</event>
<event>
 7    1  0.3449452E-011  0.5052886E+02  0.7816164E-02  0.1300439E+00
        -11   -1    0    0    0    0  0.00000000000E+00  0.00000000000E+00  0.45593999997E+02  0.45594000000E+02  0.51100000000E-03 0. -1.
         11   -1    0    0    0    0 -0.00000000000E+00 -0.00000000000E+00 -0.45593999997E+02  0.45594000000E+02  0.51100000000E-03 0.  1.
    9900012    2    1    2    0    0  0.18045011196E+02 -0.30085885765E+02  0.20551960167E+02  0.50528855666E+02  0.29999987281E+02 0.  0.
        -12    1    1    2    0    0 -0.18045011196E+02  0.30085885765E+02 -0.20551960167E+02  0.40659144334E+02  0.00000000000E+00 0.  1.
         11    1    3    3    0    0  0.14856250545E+02 -0.61523490920E+01  0.51334506329E+01  0.16879333377E+02  0.51100000000E-03 0. -1.
        -11    1    3    3    0    0  0.86449127257E+01 -0.12706350606E+02  0.14506499846E+02  0.21133490006E+02  0.51100000000E-03 0.  1.
        -12    1    3    3    0    0 -0.54561520750E+01 -0.11227186066E+02  0.91200968809E+00  0.12516032283E+02  0.00000000000E+00 0.  1.
</event>
<event>
 7    1  0.3449452E-011  0.5052886E+02  0.7816164E-02  0.1300439E+00
        -11   -1    0    0    0    0  0.00000000000E+00  0.00000000000E+00  0.45593999997E+02  0.45594000000E+02  0.51100000000E-03 0.  1.
         11   -1    0    0    0    0 -0.00000000000E+00 -0.00000000000E+00 -0.45593999997E+02  0.45594000000E+02  0.51100000000E-03 0. -1.
    9900012    2    1    2    0    0 -0.39083143819E+02  0.66529704234E+01 -0.90228491016E+01  0.50528856476E+02  0.29999989743E+02 0.  0.
        -12    1    1    2    0    0  0.39083143819E+02 -0.66529704234E+01  0.90228491016E+01  0.40659143524E+02  0.00000000000E+00 0.  1.
         11    1    3    3    0    0 -0.27972591326E+02  0.36666993584E+01 -0.81517350956E+01  0.29365989426E+02  0.51100000000E-03 0. -1.
        -11    1    3    3    0    0 -0.11294976855E+02  0.53915843452E+01  0.60006474003E+01  0.13879965900E+02  0.51100000000E-03 0.  1.
         12    1    3    3    0    0  0.18442436163E+00 -0.24053132802E+01 -0.68717614063E+01  0.72829011490E+01  0.00000000000E+00 0. -1.
</event>
<event>
 7    1  0.4794868E-011  0.5052886E+02  0.7816164E-02  0.1300439E+00
        -11   -1    0    0    0    0  0.00000000000E+00  0.00000000000E+00  0.45593999997E+02  0.45594000000E+02  0.51100000000E-03 0. -1.
         11   -1    0    0    0    0 -0.00000000000E+00 -0.00000000000E+00 -0.45593999997E+02  0.45594000000E+02  0.51100000000E-03 0.  1.
    9900012    2    1    2    0    0  0.16458376698E+02  0.36936497814E+02  0.42405913528E+01  0.50528860200E+02  0.30000001063E+02 0.  0.
        -12    1    1    2    0    0 -0.16458376698E+02 -0.36936497814E+02 -0.42405913528E+01  0.40659139800E+02  0.00000000000E+00 0.  1.
         11    1    3    3    0    0  0.71006433079E+01  0.18790597640E+02  0.73654913029E+01  0.21395236794E+02  0.51100000000E-03 0. -1.
        -11    1    3    3    0    0  0.14071649949E+02  0.19494207966E+02 -0.21855937952E+01  0.24141505691E+02  0.51100000000E-03 0.  1.
        -12    1    3    3    0    0 -0.47139165590E+01 -0.13483077930E+01 -0.93930615490E+00  0.49921177152E+01  0.00000000000E+00 0.  1.
</event>
<event>
 7    1  0.3449452E-011  0.5052886E+02  0.7816164E-02  0.1300439E+00
        -11   -1    0    0    0    0  0.00000000000E+00  0.00000000000E+00  0.45593999997E+02  0.45594000000E+02  0.51100000000E-03 0.  1.
         11   -1    0    0    0    0 -0.00000000000E+00 -0.00000000000E+00 -0.45593999997E+02  0.45594000000E+02  0.51100000000E-03 0. -1.
    9900012    2    1    2    0    0  0.56850969890E+01 -0.29051905669E+02 -0.27871710071E+02  0.50528858677E+02  0.29999996436E+02 0.  0.
        -12    1    1    2    0    0 -0.56850969890E+01  0.29051905669E+02  0.27871710071E+02  0.40659141323E+02  0.00000000000E+00 0.  1.
         11    1    3    3    0    0 -0.69381120366E+01 -0.10727798119E+02 -0.64316332482E+01  0.14303459638E+02  0.51100000000E-03 0. -1.
        -11    1    3    3    0    0  0.79588376285E+01 -0.50976144931E+01  0.12673745302E+01  0.95359849191E+01  0.51100000000E-03 0.  1.
        -12    1    3    3    0    0  0.46643713971E+01 -0.13226493057E+02 -0.22707451353E+02  0.26689414120E+02  0.00000000000E+00 0.  1.
</event>
<event>
 7    1  0.3449452E-011  0.5052886E+02  0.7816164E-02  0.1300439E+00
        -11   -1    0    0    0    0  0.00000000000E+00  0.00000000000E+00  0.45593999997E+02  0.45594000000E+02  0.51100000000E-03 0. -1.
         11   -1    0    0    0    0 -0.00000000000E+00 -0.00000000000E+00 -0.45593999997E+02  0.45594000000E+02  0.51100000000E-03 0.  1.
    9900012    2    1    2    0    0  0.28691066636E+02  0.16885363102E+02  0.23342509936E+02  0.50528861275E+02  0.30000004330E+02 0.  0.
        -12    1    1    2    0    0 -0.28691066636E+02 -0.16885363102E+02 -0.23342509936E+02  0.40659138725E+02  0.00000000000E+00 0.  1.
         11    1    3    3    0    0  0.29211567737E+01  0.44787217864E+01  0.18583930628E+01  0.56608948740E+01  0.51100000000E-03 0. -1.
        -11    1    3    3    0    0  0.63924856020E+01 -0.64674610078E+01 -0.16889769357E+01  0.92490306200E+01  0.51100000000E-03 0.  1.
        -12    1    3    3    0    0  0.19377424260E+02  0.18874102324E+02  0.23173093809E+02  0.35618935781E+02  0.00000000000E+00 0.  1.
</event>
<event>
 7    1  0.3449452E-011  0.5052886E+02  0.7816164E-02  0.1300439E+00
        -11   -1    0    0    0    0  0.00000000000E+00  0.00000000000E+00  0.45593999997E+02  0.45594000000E+02  0.51100000000E-03 0.  1.
         11   -1    0    0    0    0 -0.00000000000E+00 -0.00000000000E+00 -0.45593999997E+02  0.45594000000E+02  0.51100000000E-03 0. -1.
    9900012    2    1    2    0    0  0.30693435450E+02  0.86363613270E+01 -0.25228791979E+02  0.50528860051E+02  0.30000000611E+02 0.  0.
        -12    1    1    2    0    0 -0.30693435450E+02 -0.86363613270E+01  0.25228791979E+02  0.40659139949E+02  0.00000000000E+00 0.  1.
         11    1    3    3    0    0  0.17068316430E+02  0.63208835325E+01 -0.30103902054E+02  0.35178486516E+02  0.51100000000E-03 0. -1.
        -11    1    3    3    0    0  0.59730795788E+01  0.20169001720E+01  0.60404213380E-01  0.63046978428E+01  0.51100000000E-03 0.  1.
         12    1    3    3    0    0  0.76520394406E+01  0.29857762241E+00  0.48147058617E+01  0.90456756923E+01  0.00000000000E+00 0. -1.
</event>
<event>
 7    1  0.3449452E-011  0.5052887E+02  0.7816164E-02  0.1300439E+00
        -11   -1    0    0    0    0  0.00000000000E+00  0.00000000000E+00  0.45593999997E+02  0.45594000000E+02  0.51100000000E-03 0.  1.
         11   -1    0    0    0    0 -0.00000000000E+00 -0.00000000000E+00 -0.45593999997E+02  0.45594000000E+02  0.51100000000E-03 0. -1.
    9900012    2    1    2    0    0  0.27962808792E+02  0.59900233072E+01 -0.28902701380E+02  0.50528865702E+02  0.30000017789E+02 0.  0.
        -12    1    1    2    0    0 -0.27962808792E+02 -0.59900233072E+01  0.28902701380E+02  0.40659134298E+02  0.00000000000E+00 0.  1.
         11    1    3    3    0    0  0.80394113562E+01  0.74584392606E+01 -0.12933157899E+02  0.16956621853E+02  0.51100000000E-03 0. -1.
        -11    1    3    3    0    0 -0.27830904094E+01 -0.57316526844E+01 -0.43204759043E+01  0.76983080623E+01  0.51100000000E-03 0.  1.
        -12    1    3    3    0    0  0.22706487845E+02  0.42632367310E+01 -0.11649067576E+02  0.25873935787E+02  0.00000000000E+00 0.  1.
</event>
<event>
 7    1  0.3449452E-011  0.5052886E+02  0.7816164E-02  0.1300439E+00
        -11   -1    0    0    0    0  0.00000000000E+00  0.00000000000E+00  0.45593999997E+02  0.45594000000E+02  0.51100000000E-03 0.  1.
         11   -1    0    0    0    0 -0.00000000000E+00 -0.00000000000E+00 -0.45593999997E+02  0.45594000000E+02  0.51100000000E-03 0. -1.
    9900012    2    1    2    0    0 -0.39398101078E+02  0.21574826946E+01 -0.98132901508E+01  0.50528858793E+02  0.29999996787E+02 0.  0.
        -12    1    1    2    0    0  0.39398101078E+02 -0.21574826946E+01  0.98132901508E+01  0.40659141207E+02  0.00000000000E+00 0.  1.
         11    1    3    3    0    0 -0.20577570192E+01  0.57550277191E+01 -0.77755069441E+01  0.98900564455E+01  0.51100000000E-03 0. -1.
        -11    1    3    3    0    0 -0.81038627177E+01 -0.98996947104E+00  0.60858694247E+01  0.10182850162E+02  0.51100000000E-03 0.  1.
         12    1    3    3    0    0 -0.29236481341E+02 -0.26075755534E+01 -0.81236526314E+01  0.30455952186E+02  0.00000000000E+00 0. -1.
</event>
<event>
 7    1  0.3619781E-011  0.5052887E+02  0.7816164E-02  0.1300439E+00
        -11   -1    0    0    0    0  0.00000000000E+00  0.00000000000E+00  0.45593999997E+02  0.45594000000E+02  0.51100000000E-03 0.  1.
         11   -1    0    0    0    0 -0.00000000000E+00 -0.00000000000E+00 -0.45593999997E+02  0.45594000000E+02  0.51100000000E-03 0. -1.
    9900012    2    1    2    0    0 -0.27938600485E+02 -0.76790881642E+01 -0.28524221489E+02  0.50528868139E+02  0.30000025195E+02 0.  0.
        -12    1    1    2    0    0  0.27938600485E+02  0.76790881642E+01  0.28524221489E+02  0.40659131861E+02  0.00000000000E+00 0.  1.
         11    1    3    3    0    0 -0.13747201378E+02  0.44902804716E+01 -0.15489078472E+02  0.21191029154E+02  0.51100000000E-03 0. -1.
        -11    1    3    3    0    0 -0.18204711579E+02 -0.76959899540E+01 -0.12309438568E+02  0.23284373798E+02  0.51100000000E-03 0.  1.
        -12    1    3    3    0    0  0.40133124711E+01 -0.44733786817E+01 -0.72570444878E+00  0.60534651868E+01  0.00000000000E+00 0.  1.
</event>
<event>
 7    1  0.3449452E-011  0.5052886E+02  0.7816164E-02  0.1300439E+00
        -11   -1    0    0    0    0  0.00000000000E+00  0.00000000000E+00  0.45593999997E+02  0.45594000000E+02  0.51100000000E-03 0.  1.
         11   -1    0    0    0    0 -0.00000000000E+00 -0.00000000000E+00 -0.45593999997E+02  0.45594000000E+02  0.51100000000E-03 0. -1.
    9900012    2    1    2    0    0  0.30553928217E+02  0.26066328238E+02 -0.63379523658E+01  0.50528860345E+02  0.30000001505E+02 0.  0.
        -12    1    1    2    0    0 -0.30553928217E+02 -0.26066328238E+02  0.63379523658E+01  0.40659139655E+02  0.00000000000E+00 0.  1.
         11    1    3    3    0    0  0.29071849188E+01  0.19609420886E+01  0.66031665793E+01  0.74765518230E+01  0.51100000000E-03 0. -1.
        -11    1    3    3    0    0  0.13690666920E+01 -0.25456204915E+01 -0.33326281225E+01  0.44114552880E+01  0.51100000000E-03 0.  1.
         12    1    3    3    0    0  0.26277676606E+02  0.26651006641E+02 -0.96084908226E+01  0.38640853234E+02  0.00000000000E+00 0. -1.
</event>
<event>
 7    1  0.3449452E-011  0.5052884E+02  0.7816164E-02  0.1300439E+00
        -11   -1    0    0    0    0  0.00000000000E+00  0.00000000000E+00  0.45593999997E+02  0.45594000000E+02  0.51100000000E-03 0.  1.
         11   -1    0    0    0    0 -0.00000000000E+00 -0.00000000000E+00 -0.45593999997E+02  0.45594000000E+02  0.51100000000E-03 0. -1.
    9900012    2    1    2    0    0 -0.13266594286E+02 -0.77519484105E+01 -0.37644013624E+02  0.50528843715E+02  0.29999950956E+02 0.  0.
        -12    1    1    2    0    0  0.13266594286E+02  0.77519484105E+01  0.37644013624E+02  0.40659156285E+02  0.00000000000E+00 0.  1.
         11    1    3    3    0    0 -0.36770844523E+01 -0.12760433315E+02 -0.68104838296E+01  0.14924218529E+02  0.51100000000E-03 0.  1.
        -11    1    3    3    0    0 -0.55423057894E+01 -0.42726922521E+01 -0.17612203654E+02  0.18951590181E+02  0.51100000000E-03 0. -1.
         12    1    3    3    0    0 -0.40472040440E+01  0.92811771566E+01 -0.13221326140E+02  0.16653035005E+02  0.00000000000E+00 0. -1.
</event>
<event>
 7    1  0.3449452E-011  0.5052886E+02  0.7816164E-02  0.1300439E+00
        -11   -1    0    0    0    0  0.00000000000E+00  0.00000000000E+00  0.45593999997E+02  0.45594000000E+02  0.51100000000E-03 0.  1.
         11   -1    0    0    0    0 -0.00000000000E+00 -0.00000000000E+00 -0.45593999997E+02  0.45594000000E+02  0.51100000000E-03 0. -1.
    9900012    2    1    2    0    0 -0.33442582924E+02 -0.73529759963E+01 -0.21924721112E+02  0.50528855832E+02  0.29999987787E+02 0.  0.
        -12    1    1    2    0    0  0.33442582924E+02  0.73529759963E+01  0.21924721112E+02  0.40659144168E+02  0.00000000000E+00 0.  1.
         11    1    3    3    0    0 -0.23926019839E+02 -0.55275755891E+01 -0.13961917207E+02  0.28247896374E+02  0.51100000000E-03 0. -1.
        -11    1    3    3    0    0  0.27028109403E+01 -0.51845907566E+01 -0.76186458729E+01  0.96035896148E+01  0.51100000000E-03 0.  1.
         12    1    3    3    0    0 -0.12219374026E+02  0.33591903494E+01 -0.34415803180E+00  0.12677369843E+02  0.00000000000E+00 0. -1.
</event>
<event>
 7    1  0.3449452E-011  0.5052886E+02  0.7816164E-02  0.1300439E+00
        -11   -1    0    0    0    0  0.00000000000E+00  0.00000000000E+00  0.45593999997E+02  0.45594000000E+02  0.51100000000E-03 0.  1.
         11   -1    0    0    0    0 -0.00000000000E+00 -0.00000000000E+00 -0.45593999997E+02  0.45594000000E+02  0.51100000000E-03 0. -1.
    9900012    2    1    2    0    0 -0.16915720164E+01  0.27753864645E+02 -0.29665247395E+02  0.50528864230E+02  0.30000013312E+02 0.  0.
        -12    1    1    2    0    0  0.16915720164E+01 -0.27753864645E+02  0.29665247395E+02  0.40659135770E+02  0.00000000000E+00 0.  1.
         11    1    3    3    0    0 -0.25803120184E+00  0.46426576446E+01  0.31862100650E+01  0.56367353091E+01  0.51100000000E-03 0. -1.
        -11    1    3    3    0    0 -0.22907876544E+01  0.17469041315E+02 -0.79218232526E+01  0.19317618809E+02  0.51100000000E-03 0.  1.
         12    1    3    3    0    0  0.85724683984E+00  0.56421656856E+01 -0.24929634207E+02  0.25574510112E+02  0.00000000000E+00 0. -1.
</event>
<event>
 7    1  0.3449452E-011  0.5052888E+02  0.7816164E-02  0.1300439E+00
        -11   -1    0    0    0    0  0.00000000000E+00  0.00000000000E+00  0.45593999997E+02  0.45594000000E+02  0.51100000000E-03 0. -1.
         11   -1    0    0    0    0 -0.00000000000E+00 -0.00000000000E+00 -0.45593999997E+02  0.45594000000E+02  0.51100000000E-03 0.  1.
    9900012    2    1    2    0    0 -0.29922680144E+02 -0.24260475721E+02  0.13008698946E+02  0.50528883956E+02  0.30000073273E+02 0.  0.
        -12    1    1    2    0    0  0.29922680144E+02  0.24260475721E+02 -0.13008698946E+02  0.40659116044E+02  0.00000000000E+00 0.  1.
         11    1    3    3    0    0  0.40108880596E+01 -0.48511694518E+01  0.24882191278E+01  0.67684786153E+01  0.51100000000E-03 0. -1.
        -11    1    3    3    0    0 -0.59291941625E+01  0.17803877203E+01 -0.19558884409E+01  0.64923511693E+01  0.51100000000E-03 0.  1.
         12    1    3    3    0    0 -0.28004374041E+02 -0.21189693990E+02  0.12476368260E+02  0.37268054172E+02  0.00000000000E+00 0. -1.
</event>
<event>
 7    1  0.3708489E-011  0.5052885E+02  0.7816164E-02  0.1300439E+00
        -11   -1    0    0    0    0  0.00000000000E+00  0.00000000000E+00  0.45593999997E+02  0.45594000000E+02  0.51100000000E-03 0. -1.
         11   -1    0    0    0    0 -0.00000000000E+00 -0.00000000000E+00 -0.45593999997E+02  0.45594000000E+02  0.51100000000E-03 0.  1.
    9900012    2    1    2    0    0  0.15764684137E+02  0.35377727514E+02 -0.12371650515E+02  0.50528848429E+02  0.29999965285E+02 0.  0.
        -12    1    1    2    0    0 -0.15764684137E+02 -0.35377727514E+02  0.12371650515E+02  0.40659151571E+02  0.00000000000E+00 0.  1.
         11    1    3    3    0    0  0.57262331426E+01  0.20093360918E+02 -0.10866644596E+02  0.23550304967E+02  0.51100000000E-03 0. -1.
        -11    1    3    3    0    0 -0.13409972708E+01  0.15430502779E+02  0.76086646193E-01  0.15488850155E+02  0.51100000000E-03 0.  1.
        -12    1    3    3    0    0  0.11379448265E+02 -0.14613618308E+00 -0.15810925656E+01  0.11489693307E+02  0.00000000000E+00 0.  1.
</event>
<event>
 7    1  0.3449452E-011  0.5052886E+02  0.7816164E-02  0.1300439E+00
        -11   -1    0    0    0    0  0.00000000000E+00  0.00000000000E+00  0.45593999997E+02  0.45594000000E+02  0.51100000000E-03 0. -1.
         11   -1    0    0    0    0 -0.00000000000E+00 -0.00000000000E+00 -0.45593999997E+02  0.45594000000E+02  0.51100000000E-03 0.  1.
    9900012    2    1    2    0    0  0.34700675306E+02  0.18016073645E+02  0.11155715720E+02  0.50528858722E+02  0.29999996570E+02 0.  0.
        -12    1    1    2    0    0 -0.34700675306E+02 -0.18016073645E+02 -0.11155715720E+02  0.40659141278E+02  0.00000000000E+00 0.  1.
         11    1    3    3    0    0  0.27872734199E+01  0.43884684835E+01 -0.22219431393E+01  0.56537226960E+01  0.51100000000E-03 0.  1.
        -11    1    3    3    0    0  0.52802764576E+01  0.70857134793E+01  0.14992340401E+02  0.17402842467E+02  0.51100000000E-03 0. -1.
         12    1    3    3    0    0  0.26633125429E+02  0.65418916819E+01 -0.16146815416E+01  0.27472293558E+02  0.00000000000E+00 0. -1.
</event>
<event>
 7    1  0.3449452E-011  0.5052886E+02  0.7816164E-02  0.1300439E+00
        -11   -1    0    0    0    0  0.00000000000E+00  0.00000000000E+00  0.45593999997E+02  0.45594000000E+02  0.51100000000E-03 0. -1.
         11   -1    0    0    0    0 -0.00000000000E+00 -0.00000000000E+00 -0.45593999997E+02  0.45594000000E+02  0.51100000000E-03 0.  1.
    9900012    2    1    2    0    0 -0.30328012827E+02  0.23672389167E+02  0.13152781141E+02  0.50528855608E+02  0.29999987107E+02 0.  0.
        -12    1    1    2    0    0  0.30328012827E+02 -0.23672389167E+02 -0.13152781141E+02  0.40659144392E+02  0.00000000000E+00 0.  1.
         11    1    3    3    0    0 -0.34614924315E+02  0.16371120091E+02  0.92218602354E+01  0.39385901853E+02  0.51100000000E-03 0. -1.
        -11    1    3    3    0    0  0.81336352957E+00  0.43810508575E+00  0.32978821160E+01  0.34248391217E+01  0.51100000000E-03 0.  1.
        -12    1    3    3    0    0  0.34735479579E+01  0.68631639909E+01  0.63303878938E+00  0.77181146332E+01  0.00000000000E+00 0.  1.
</event>
<event>
 7    1  0.3449452E-011  0.5052881E+02  0.7816164E-02  0.1300439E+00
        -11   -1    0    0    0    0  0.00000000000E+00  0.00000000000E+00  0.45593999997E+02  0.45594000000E+02  0.51100000000E-03 0. -1.
         11   -1    0    0    0    0 -0.00000000000E+00 -0.00000000000E+00 -0.45593999997E+02  0.45594000000E+02  0.51100000000E-03 0.  1.
    9900012    2    1    2    0    0 -0.31900947766E+02  0.10784900526E+02  0.22785642130E+02  0.50528806267E+02  0.29999837129E+02 0.  0.
        -12    1    1    2    0    0  0.31900947766E+02 -0.10784900526E+02 -0.22785642130E+02  0.40659193733E+02  0.00000000000E+00 0.  1.
         11    1    3    3    0    0 -0.22777060715E+02  0.10846283578E+02  0.16577741274E+02  0.30187048022E+02  0.51100000000E-03 0. -1.
        -11    1    3    3    0    0 -0.14689812001E+01  0.19815555127E+01  0.10871796701E+02  0.11148113374E+02  0.51100000000E-03 0.  1.
         12    1    3    3    0    0 -0.76549058509E+01 -0.20429385647E+01 -0.46638958454E+01  0.91936448714E+01  0.00000000000E+00 0. -1.
</event>
<event>
 7    1  0.3449452E-011  0.5052886E+02  0.7816164E-02  0.1300439E+00
        -11   -1    0    0    0    0  0.00000000000E+00  0.00000000000E+00  0.45593999997E+02  0.45594000000E+02  0.51100000000E-03 0. -1.
         11   -1    0    0    0    0 -0.00000000000E+00 -0.00000000000E+00 -0.45593999997E+02  0.45594000000E+02  0.51100000000E-03 0.  1.
    9900012    2    1    2    0    0 -0.10180465884E+01 -0.40480256134E+02 -0.36712366946E+01  0.50528861612E+02  0.30000005357E+02 0.  0.
        -12    1    1    2    0    0  0.10180465884E+01  0.40480256134E+02  0.36712366946E+01  0.40659138388E+02  0.00000000000E+00 0.  1.
         11    1    3    3    0    0  0.24434072336E+01 -0.13930613991E+02  0.50984425496E+01  0.15034173132E+02  0.51100000000E-03 0. -1.
        -11    1    3    3    0    0 -0.93983490598E+01 -0.78320361532E+01  0.30060914091E+01  0.12597870502E+02  0.51100000000E-03 0.  1.
        -12    1    3    3    0    0  0.59368952379E+01 -0.18717605990E+02 -0.11775770653E+02  0.22896817979E+02  0.00000000000E+00 0.  1.
</event>
<event>
 7    1  0.3449452E-011  0.5052886E+02  0.7816164E-02  0.1300439E+00
        -11   -1    0    0    0    0  0.00000000000E+00  0.00000000000E+00  0.45593999997E+02  0.45594000000E+02  0.51100000000E-03 0.  1.
         11   -1    0    0    0    0 -0.00000000000E+00 -0.00000000000E+00 -0.45593999997E+02  0.45594000000E+02  0.51100000000E-03 0. -1.
    9900012    2    1    2    0    0  0.39763796020E+02 -0.82866142802E+01  0.18270032231E+01  0.50528863377E+02  0.30000010719E+02 0.  0.
        -12    1    1    2    0    0 -0.39763796020E+02  0.82866142802E+01 -0.18270032231E+01  0.40659136623E+02  0.00000000000E+00 0.  1.
         11    1    3    3    0    0  0.30997706425E+02 -0.71199764324E+01  0.13307344854E+02  0.34476619546E+02  0.51100000000E-03 0. -1.
        -11    1    3    3    0    0  0.13513646990E+00  0.15482103000E+01 -0.16283794186E+00  0.15626047021E+01  0.51100000000E-03 0.  1.
         12    1    3    3    0    0  0.86309531254E+01 -0.27148481478E+01 -0.11317503689E+02  0.14489639128E+02  0.00000000000E+00 0. -1.
</event>
<event>
 7    1  0.3449452E-011  0.5052886E+02  0.7816164E-02  0.1300439E+00
        -11   -1    0    0    0    0  0.00000000000E+00  0.00000000000E+00  0.45593999997E+02  0.45594000000E+02  0.51100000000E-03 0. -1.
         11   -1    0    0    0    0 -0.00000000000E+00 -0.00000000000E+00 -0.45593999997E+02  0.45594000000E+02  0.51100000000E-03 0.  1.
    9900012    2    1    2    0    0  0.22281898058E+02 -0.10588745611E+02  0.32319675273E+02  0.50528856817E+02  0.29999990780E+02 0.  0.
        -12    1    1    2    0    0 -0.22281898058E+02  0.10588745611E+02 -0.32319675273E+02  0.40659143183E+02  0.00000000000E+00 0.  1.
         11    1    3    3    0    0  0.11475148241E+02 -0.10572151321E+02  0.43497705578E+01  0.16197836734E+02  0.51100000000E-03 0. -1.
        -11    1    3    3    0    0  0.72904210946E+01  0.21448400733E+01  0.17631721195E+01  0.78012405976E+01  0.51100000000E-03 0.  1.
         12    1    3    3    0    0  0.35163287224E+01 -0.21614343626E+01  0.26206732596E+02  0.26529779485E+02  0.00000000000E+00 0. -1.
</event>
<event>
 7    1  0.3449452E-011  0.5052886E+02  0.7816164E-02  0.1300439E+00
        -11   -1    0    0    0    0  0.00000000000E+00  0.00000000000E+00  0.45593999997E+02  0.45594000000E+02  0.51100000000E-03 0.  1.
         11   -1    0    0    0    0 -0.00000000000E+00 -0.00000000000E+00 -0.45593999997E+02  0.45594000000E+02  0.51100000000E-03 0. -1.
    9900012    2    1    2    0    0  0.26806974946E+02 -0.16378960626E+02 -0.25812426185E+02  0.50528860776E+02  0.30000002813E+02 0.  0.
        -12    1    1    2    0    0 -0.26806974946E+02  0.16378960626E+02  0.25812426185E+02  0.40659139224E+02  0.00000000000E+00 0.  1.
         11    1    3    3    0    0  0.14913875861E+02 -0.14177262043E+02 -0.10302470534E+02  0.23012156605E+02  0.51100000000E-03 0. -1.
        -11    1    3    3    0    0  0.74497130889E+01 -0.46843975332E+01  0.22156829428E+01  0.90747482896E+01  0.51100000000E-03 0.  1.
         12    1    3    3    0    0  0.44433859961E+01  0.24826989502E+01 -0.17725638593E+02  0.18441955881E+02  0.00000000000E+00 0. -1.
</event>
<event>
 7    1  0.3449452E-011  0.5052886E+02  0.7816164E-02  0.1300439E+00
        -11   -1    0    0    0    0  0.00000000000E+00  0.00000000000E+00  0.45593999997E+02  0.45594000000E+02  0.51100000000E-03 0. -1.
         11   -1    0    0    0    0 -0.00000000000E+00 -0.00000000000E+00 -0.45593999997E+02  0.45594000000E+02  0.51100000000E-03 0.  1.
    9900012    2    1    2    0    0  0.37138254501E+02 -0.13627774421E+01  0.16494205882E+02  0.50528856656E+02  0.29999990292E+02 0.  0.
        -12    1    1    2    0    0 -0.37138254501E+02  0.13627774421E+01 -0.16494205882E+02  0.40659143344E+02  0.00000000000E+00 0.  1.
         11    1    3    3    0    0  0.13162119450E+02  0.52807667851E+01 -0.25543896261E+00  0.14184256610E+02  0.51100000000E-03 0. -1.
        -11    1    3    3    0    0 -0.23441641379E+01 -0.56760608570E+00 -0.22666654731E+01  0.33098421114E+01  0.51100000000E-03 0.  1.
         12    1    3    3    0    0  0.26320299189E+02 -0.60759381416E+01  0.19016310318E+02  0.33034757935E+02  0.00000000000E+00 0. -1.
</event>
<event>
 7    1  0.3449452E-011  0.5052887E+02  0.7816164E-02  0.1300439E+00
        -11   -1    0    0    0    0  0.00000000000E+00  0.00000000000E+00  0.45593999997E+02  0.45594000000E+02  0.51100000000E-03 0. -1.
         11   -1    0    0    0    0 -0.00000000000E+00 -0.00000000000E+00 -0.45593999997E+02  0.45594000000E+02  0.51100000000E-03 0.  1.
    9900012    2    1    2    0    0 -0.15940528752E+02 -0.35651880820E+02 -0.11314045154E+02  0.50528872111E+02  0.30000037269E+02 0.  0.
        -12    1    1    2    0    0  0.15940528752E+02  0.35651880820E+02  0.11314045154E+02  0.40659127889E+02  0.00000000000E+00 0.  1.
         11    1    3    3    0    0 -0.14980243974E+02 -0.26881005265E+02 -0.89701504426E+01  0.32054013053E+02  0.51100000000E-03 0. -1.
        -11    1    3    3    0    0 -0.80888886926E+01 -0.37215569031E+01  0.13212391654E+01  0.90014320671E+01  0.51100000000E-03 0.  1.
        -12    1    3    3    0    0  0.71286039144E+01 -0.50493186524E+01 -0.36651338771E+01  0.94734269913E+01  0.00000000000E+00 0.  1.
</event>
<event>
 7    1  0.3449452E-011  0.5052885E+02  0.7816164E-02  0.1300439E+00
        -11   -1    0    0    0    0  0.00000000000E+00  0.00000000000E+00  0.45593999997E+02  0.45594000000E+02  0.51100000000E-03 0.  1.
         11   -1    0    0    0    0 -0.00000000000E+00 -0.00000000000E+00 -0.45593999997E+02  0.45594000000E+02  0.51100000000E-03 0. -1.
    9900012    2    1    2    0    0  0.68942737354E+01  0.38493073632E+02 -0.11131869972E+02  0.50528852726E+02  0.29999978346E+02 0.  0.
        -12    1    1    2    0    0 -0.68942737354E+01 -0.38493073632E+02  0.11131869972E+02  0.40659147274E+02  0.00000000000E+00 0.  1.
         11    1    3    3    0    0 -0.15868767496E+01  0.18689299641E+02 -0.18950775870E+01  0.18852040160E+02  0.51100000000E-03 0. -1.
        -11    1    3    3    0    0  0.15303524634E+02  0.13832539598E+02 -0.34340885086E+01  0.20912436063E+02  0.51100000000E-03 0.  1.
         12    1    3    3    0    0 -0.68223741491E+01  0.59712343929E+01 -0.58027038765E+01  0.10764376502E+02  0.00000000000E+00 0. -1.
</event>
<event>
 7    1  0.3449452E-011  0.5052886E+02  0.7816164E-02  0.1300439E+00
        -11   -1    0    0    0    0  0.00000000000E+00  0.00000000000E+00  0.45593999997E+02  0.45594000000E+02  0.51100000000E-03 0. -1.
         11   -1    0    0    0    0 -0.00000000000E+00 -0.00000000000E+00 -0.45593999997E+02  0.45594000000E+02  0.51100000000E-03 0.  1.
    9900012    2    1    2    0    0  0.27544861755E+02  0.25949271786E+02  0.14868801860E+02  0.50528863461E+02  0.30000010977E+02 0.  0.
        -12    1    1    2    0    0 -0.27544861755E+02 -0.25949271786E+02 -0.14868801860E+02  0.40659136539E+02  0.00000000000E+00 0.  1.
         11    1    3    3    0    0  0.13351133810E+02  0.16882936418E+02  0.59728178149E+01  0.22337432015E+02  0.51100000000E-03 0. -1.
        -11    1    3    3    0    0  0.54349306107E+00  0.10490155782E+02 -0.19688201031E+01  0.10687142083E+02  0.51100000000E-03 0.  1.
         12    1    3    3    0    0  0.13650234884E+02 -0.14238204137E+01  0.10864804149E+02  0.17504289364E+02  0.00000000000E+00 0. -1.
</event>
<event>
 7    1  0.3449452E-011  0.5052885E+02  0.7816164E-02  0.1300439E+00
        -11   -1    0    0    0    0  0.00000000000E+00  0.00000000000E+00  0.45593999997E+02  0.45594000000E+02  0.51100000000E-03 0.  1.
         11   -1    0    0    0    0 -0.00000000000E+00 -0.00000000000E+00 -0.45593999997E+02  0.45594000000E+02  0.51100000000E-03 0. -1.
    9900012    2    1    2    0    0  0.35148170998E+02 -0.19383068211E+02  0.64860593161E+01  0.50528853142E+02  0.29999979609E+02 0.  0.
        -12    1    1    2    0    0 -0.35148170998E+02  0.19383068211E+02 -0.64860593161E+01  0.40659146858E+02  0.00000000000E+00 0.  1.
         11    1    3    3    0    0  0.88043155077E+01 -0.53823815076E+00 -0.92979971681E+01  0.12816334244E+02  0.51100000000E-03 0. -1.
        -11    1    3    3    0    0  0.15622999503E+02 -0.50727531605E+01  0.48890937955E+01  0.17138091390E+02  0.51100000000E-03 0.  1.
        -12    1    3    3    0    0  0.10720855988E+02 -0.13772076900E+02  0.10894962689E+02  0.20574427507E+02  0.00000000000E+00 0.  1.
</event>
<event>
 7    1  0.3449452E-011  0.5052886E+02  0.7816164E-02  0.1300439E+00
        -11   -1    0    0    0    0  0.00000000000E+00  0.00000000000E+00  0.45593999997E+02  0.45594000000E+02  0.51100000000E-03 0. -1.
         11   -1    0    0    0    0 -0.00000000000E+00 -0.00000000000E+00 -0.45593999997E+02  0.45594000000E+02  0.51100000000E-03 0.  1.
    9900012    2    1    2    0    0  0.71845164289E+01  0.25139893027E+02  0.31137343285E+02  0.50528860258E+02  0.30000001239E+02 0.  0.
        -12    1    1    2    0    0 -0.71845164289E+01 -0.25139893027E+02 -0.31137343285E+02  0.40659139742E+02  0.00000000000E+00 0.  1.
         11    1    3    3    0    0 -0.17775540085E+01  0.27542103280E+01  0.67862268000E+00  0.33475217381E+01  0.51100000000E-03 0.  1.
        -11    1    3    3    0    0 -0.13536075377E+01 -0.46516110941E+01 -0.41914283798E+00  0.48626556651E+01  0.51100000000E-03 0. -1.
         12    1    3    3    0    0  0.10315677975E+02  0.27037293793E+02  0.30877863443E+02  0.42318682855E+02  0.00000000000E+00 0. -1.
</event>
<event>
 7    1  0.3449452E-011  0.5052885E+02  0.7816164E-02  0.1300439E+00
        -11   -1    0    0    0    0  0.00000000000E+00  0.00000000000E+00  0.45593999997E+02  0.45594000000E+02  0.51100000000E-03 0.  1.
         11   -1    0    0    0    0 -0.00000000000E+00 -0.00000000000E+00 -0.45593999997E+02  0.45594000000E+02  0.51100000000E-03 0. -1.
    9900012    2    1    2    0    0 -0.60339452643E+01 -0.32861026867E+02 -0.23171332999E+02  0.50528852749E+02  0.29999978416E+02 0.  0.
        -12    1    1    2    0    0  0.60339452643E+01  0.32861026867E+02  0.23171332999E+02  0.40659147251E+02  0.00000000000E+00 0.  1.
         11    1    3    3    0    0 -0.42067088361E+01 -0.30241664420E+01 -0.86415216097E+00  0.52524985597E+01  0.51100000000E-03 0. -1.
        -11    1    3    3    0    0  0.57522035529E+01 -0.25770085833E+02 -0.63632596050E+01  0.27160195924E+02  0.51100000000E-03 0.  1.
         12    1    3    3    0    0 -0.75794399811E+01 -0.40667745923E+01 -0.15943921233E+02  0.18116158266E+02  0.00000000000E+00 0. -1.
</event>
<event>
 7    1  0.3449452E-011  0.5052885E+02  0.7816164E-02  0.1300439E+00
        -11   -1    0    0    0    0  0.00000000000E+00  0.00000000000E+00  0.45593999997E+02  0.45594000000E+02  0.51100000000E-03 0.  1.
         11   -1    0    0    0    0 -0.00000000000E+00 -0.00000000000E+00 -0.45593999997E+02  0.45594000000E+02  0.51100000000E-03 0. -1.
    9900012    2    1    2    0    0 -0.35961720732E+02  0.13662573000E+02 -0.13162647456E+02  0.50528849160E+02  0.29999967506E+02 0.  0.
        -12    1    1    2    0    0  0.35961720732E+02 -0.13662573000E+02  0.13162647456E+02  0.40659150840E+02  0.00000000000E+00 0.  1.
         11    1    3    3    0    0 -0.14137892087E+02 -0.33197636778E+01 -0.85971604593E+01  0.16876373774E+02  0.51100000000E-03 0. -1.
        -11    1    3    3    0    0  0.19312130331E+01  0.70758343306E+01 -0.28108818934E+01  0.78548120622E+01  0.51100000000E-03 0.  1.
        -12    1    3    3    0    0 -0.23755041678E+02  0.99065023469E+01 -0.17546051033E+01  0.25797663324E+02  0.00000000000E+00 0.  1.
</event>
<event>
 7    1  0.3449452E-011  0.5052885E+02  0.7816164E-02  0.1300439E+00
        -11   -1    0    0    0    0  0.00000000000E+00  0.00000000000E+00  0.45593999997E+02  0.45594000000E+02  0.51100000000E-03 0.  1.
         11   -1    0    0    0    0 -0.00000000000E+00 -0.00000000000E+00 -0.45593999997E+02  0.45594000000E+02  0.51100000000E-03 0. -1.
    9900012    2    1    2    0    0 -0.30796884588E+02  0.86210335245E+00 -0.26532530117E+02  0.50528850023E+02  0.29999970129E+02 0.  0.
        -12    1    1    2    0    0  0.30796884588E+02 -0.86210335245E+00  0.26532530117E+02  0.40659149977E+02  0.00000000000E+00 0.  1.
         11    1    3    3    0    0 -0.17584741507E+02 -0.11955888472E+01 -0.11229283090E+02  0.20898549364E+02  0.51100000000E-03 0. -1.
        -11    1    3    3    0    0 -0.98992427536E+01 -0.29460990162E+01 -0.19664471857E+02  0.22211842791E+02  0.51100000000E-03 0.  1.
         12    1    3    3    0    0 -0.33129003272E+01  0.50037912159E+01  0.43612248302E+01  0.74184578673E+01  0.00000000000E+00 0. -1.
</event>
<event>
 7    1  0.3449452E-011  0.5052887E+02  0.7816164E-02  0.1300439E+00
        -11   -1    0    0    0    0  0.00000000000E+00  0.00000000000E+00  0.45593999997E+02  0.45594000000E+02  0.51100000000E-03 0. -1.
         11   -1    0    0    0    0 -0.00000000000E+00 -0.00000000000E+00 -0.45593999997E+02  0.45594000000E+02  0.51100000000E-03 0.  1.
    9900012    2    1    2    0    0 -0.35717229484E+02  0.15016103392E+02 -0.12327262373E+02  0.50528865225E+02  0.30000016337E+02 0.  0.
        -12    1    1    2    0    0  0.35717229484E+02 -0.15016103392E+02  0.12327262373E+02  0.40659134775E+02  0.00000000000E+00 0.  1.
         11    1    3    3    0    0 -0.24623367564E+02  0.20615978956E+01 -0.56853338827E+01  0.25355146178E+02  0.51100000000E-03 0. -1.
        -11    1    3    3    0    0 -0.11330031550E+02  0.70752350328E+01 -0.11435652804E+02  0.17584161084E+02  0.51100000000E-03 0.  1.
        -12    1    3    3    0    0  0.23616963034E+00  0.58792704637E+01  0.47937243141E+01  0.75895579634E+01  0.00000000000E+00 0.  1.
</event>
<event>
 7    1  0.3449452E-011  0.5052886E+02  0.7816164E-02  0.1300439E+00
        -11   -1    0    0    0    0  0.00000000000E+00  0.00000000000E+00  0.45593999997E+02  0.45594000000E+02  0.51100000000E-03 0.  1.
         11   -1    0    0    0    0 -0.00000000000E+00 -0.00000000000E+00 -0.45593999997E+02  0.45594000000E+02  0.51100000000E-03 0. -1.
    9900012    2    1    2    0    0 -0.20608403331E+02  0.29079539841E+02 -0.19566290349E+02  0.50528860274E+02  0.30000001289E+02 0.  0.
        -12    1    1    2    0    0  0.20608403331E+02 -0.29079539841E+02  0.19566290349E+02  0.40659139726E+02  0.00000000000E+00 0.  1.
         11    1    3    3    0    0 -0.36667421052E+01  0.14990148467E+02 -0.36309094014E+00  0.15436365635E+02  0.51100000000E-03 0. -1.
        -11    1    3    3    0    0  0.41773889065E+01  0.45403211360E+01 -0.34581307005E+01  0.70727478604E+01  0.51100000000E-03 0.  1.
         12    1    3    3    0    0 -0.21119050132E+02  0.95490702382E+01 -0.15745068709E+02  0.28019746778E+02  0.00000000000E+00 0. -1.
</event>
<event>
 7    1  0.3449452E-011  0.5052885E+02  0.7816164E-02  0.1300439E+00
        -11   -1    0    0    0    0  0.00000000000E+00  0.00000000000E+00  0.45593999997E+02  0.45594000000E+02  0.51100000000E-03 0. -1.
         11   -1    0    0    0    0 -0.00000000000E+00 -0.00000000000E+00 -0.45593999997E+02  0.45594000000E+02  0.51100000000E-03 0.  1.
    9900012    2    1    2    0    0  0.82224054884E+01 -0.39774753209E+02  0.18780902350E+01  0.50528853824E+02  0.29999981683E+02 0.  0.
        -12    1    1    2    0    0 -0.82224054884E+01  0.39774753209E+02 -0.18780902350E+01  0.40659146176E+02  0.00000000000E+00 0.  1.
         11    1    3    3    0    0  0.45453269064E+00 -0.14107732243E+02 -0.25954111429E+01  0.14351685206E+02  0.51100000000E-03 0. -1.
        -11    1    3    3    0    0 -0.78691339059E+01 -0.11217711668E+02  0.57231016312E+01  0.14849721076E+02  0.51100000000E-03 0.  1.
        -12    1    3    3    0    0  0.15637006704E+02 -0.14449309298E+02 -0.12496002533E+01  0.21327447541E+02  0.00000000000E+00 0.  1.
</event>
<event>
 7    1  0.3449452E-011  0.5052885E+02  0.7816164E-02  0.1300439E+00
        -11   -1    0    0    0    0  0.00000000000E+00  0.00000000000E+00  0.45593999997E+02  0.45594000000E+02  0.51100000000E-03 0.  1.
         11   -1    0    0    0    0 -0.00000000000E+00 -0.00000000000E+00 -0.45593999997E+02  0.45594000000E+02  0.51100000000E-03 0. -1.
    9900012    2    1    2    0    0  0.67042106242E+01 -0.35774059649E+02 -0.18122818196E+02  0.50528851912E+02  0.29999975873E+02 0.  0.
        -12    1    1    2    0    0 -0.67042106242E+01  0.35774059649E+02  0.18122818196E+02  0.40659148088E+02  0.00000000000E+00 0.  1.
         11    1    3    3    0    0 -0.65214444409E+01 -0.61589021574E+01 -0.10064125910E+02  0.13481392509E+02  0.51100000000E-03 0. -1.
        -11    1    3    3    0    0  0.65482808002E+01 -0.93580780896E+00 -0.25550217244E+01  0.70911109120E+01  0.51100000000E-03 0.  1.
        -12    1    3    3    0    0  0.66773742649E+01 -0.28679349683E+02 -0.55036705612E+01  0.29956348491E+02  0.00000000000E+00 0.  1.
</event>
<event>
 7    1  0.3449452E-011  0.5052886E+02  0.7816164E-02  0.1300439E+00
        -11   -1    0    0    0    0  0.00000000000E+00  0.00000000000E+00  0.45593999997E+02  0.45594000000E+02  0.51100000000E-03 0.  1.
         11   -1    0    0    0    0 -0.00000000000E+00 -0.00000000000E+00 -0.45593999997E+02  0.45594000000E+02  0.51100000000E-03 0. -1.
    9900012    2    1    2    0    0 -0.10932825867E+02  0.11834866147E+01 -0.39143817035E+02  0.50528859157E+02  0.29999997895E+02 0.  0.
        -12    1    1    2    0    0  0.10932825867E+02 -0.11834866147E+01  0.39143817035E+02  0.40659140843E+02  0.00000000000E+00 0.  1.
         11    1    3    3    0    0 -0.19364286396E+01  0.53228374068E+01 -0.11159463056E+02  0.12514630234E+02  0.51100000000E-03 0.  1.
        -11    1    3    3    0    0  0.57891621649E+01  0.22642633361E+01 -0.18037461063E+02  0.19078555734E+02  0.51100000000E-03 0. -1.
         12    1    3    3    0    0 -0.14785559393E+02 -0.64036141281E+01 -0.99468929147E+01  0.18935673189E+02  0.00000000000E+00 0. -1.
</event>
<event>
 7    1  0.3449452E-011  0.5052887E+02  0.7816164E-02  0.1300439E+00
        -11   -1    0    0    0    0  0.00000000000E+00  0.00000000000E+00  0.45593999997E+02  0.45594000000E+02  0.51100000000E-03 0. -1.
         11   -1    0    0    0    0 -0.00000000000E+00 -0.00000000000E+00 -0.45593999997E+02  0.45594000000E+02  0.51100000000E-03 0.  1.
    9900012    2    1    2    0    0  0.34836801551E+02  0.76911113613E+01  0.19504071167E+02  0.50528871525E+02  0.30000035486E+02 0.  0.
        -12    1    1    2    0    0 -0.34836801551E+02 -0.76911113613E+01 -0.19504071167E+02  0.40659128475E+02  0.00000000000E+00 0.  1.
         11    1    3    3    0    0 -0.21352012248E+01 -0.10900628029E+00  0.56515691708E+01  0.60424499164E+01  0.51100000000E-03 0. -1.
        -11    1    3    3    0    0  0.52080935369E+01 -0.42521151123E+00 -0.44955947394E+01  0.68931426389E+01  0.51100000000E-03 0.  1.
         12    1    3    3    0    0  0.31763909239E+02  0.82253291528E+01  0.18348096736E+02  0.37593278969E+02  0.00000000000E+00 0. -1.
</event>
<event>
 7    1  0.3449452E-011  0.5052886E+02  0.7816164E-02  0.1300439E+00
        -11   -1    0    0    0    0  0.00000000000E+00  0.00000000000E+00  0.45593999997E+02  0.45594000000E+02  0.51100000000E-03 0. -1.
         11   -1    0    0    0    0 -0.00000000000E+00 -0.00000000000E+00 -0.45593999997E+02  0.45594000000E+02  0.51100000000E-03 0.  1.
    9900012    2    1    2    0    0 -0.11157781607E+02 -0.37625109553E+02 -0.10631117278E+02  0.50528860636E+02  0.30000002388E+02 0.  0.
        -12    1    1    2    0    0  0.11157781607E+02  0.37625109553E+02  0.10631117278E+02  0.40659139364E+02  0.00000000000E+00 0.  1.
         11    1    3    3    0    0 -0.94106544178E+00 -0.27955050377E+02  0.94100601366E+00  0.27986710031E+02  0.51100000000E-03 0. -1.
        -11    1    3    3    0    0 -0.16951710174E+01  0.42514453869E+00  0.26221818920E+01  0.31512205243E+01  0.51100000000E-03 0.  1.
        -12    1    3    3    0    0 -0.85215451482E+01 -0.10095203714E+02 -0.14194305184E+02  0.19390930081E+02  0.00000000000E+00 0.  1.
</event>
<event>
 7    1  0.3449452E-011  0.5052886E+02  0.7816164E-02  0.1300439E+00
        -11   -1    0    0    0    0  0.00000000000E+00  0.00000000000E+00  0.45593999997E+02  0.45594000000E+02  0.51100000000E-03 0.  1.
         11   -1    0    0    0    0 -0.00000000000E+00 -0.00000000000E+00 -0.45593999997E+02  0.45594000000E+02  0.51100000000E-03 0. -1.
    9900012    2    1    2    0    0 -0.34286574189E+02 -0.21493763444E+02  0.39515578974E+01  0.50528857775E+02  0.29999993694E+02 0.  0.
        -12    1    1    2    0    0  0.34286574189E+02  0.21493763444E+02 -0.39515578974E+01  0.40659142225E+02  0.00000000000E+00 0.  1.
         11    1    3    3    0    0 -0.10638570966E+02 -0.10249498013E+02  0.42114918569E+01  0.15361252085E+02  0.51100000000E-03 0. -1.
        -11    1    3    3    0    0 -0.63572039136E+01 -0.76191439149E+01 -0.10743180688E+02  0.14624682121E+02  0.51100000000E-03 0.  1.
         12    1    3    3    0    0 -0.17290799310E+02 -0.36251215164E+01  0.10483246728E+02  0.20542923569E+02  0.00000000000E+00 0. -1.
</event>
<event>
 7    1  0.3449452E-011  0.5052888E+02  0.7816164E-02  0.1300439E+00
        -11   -1    0    0    0    0  0.00000000000E+00  0.00000000000E+00  0.45593999997E+02  0.45594000000E+02  0.51100000000E-03 0.  1.
         11   -1    0    0    0    0 -0.00000000000E+00 -0.00000000000E+00 -0.45593999997E+02  0.45594000000E+02  0.51100000000E-03 0. -1.
    9900012    2    1    2    0    0 -0.92411049555E+01 -0.35223024032E+02 -0.18086023472E+02  0.50528884321E+02  0.30000074383E+02 0.  0.
        -12    1    1    2    0    0  0.92411049555E+01  0.35223024032E+02  0.18086023472E+02  0.40659115679E+02  0.00000000000E+00 0.  1.
         11    1    3    3    0    0 -0.56226628405E+01 -0.11346175940E+02 -0.48022634326E+01  0.13542960541E+02  0.51100000000E-03 0. -1.
        -11    1    3    3    0    0 -0.86429143932E+01 -0.27166412138E+02 -0.10746451257E+02  0.30466377083E+02  0.51100000000E-03 0.  1.
        -12    1    3    3    0    0  0.50244722782E+01  0.32895640462E+01 -0.25373087818E+01  0.65195466976E+01  0.00000000000E+00 0.  1.
</event>
<event>
 7    1  0.3449452E-011  0.5052886E+02  0.7816164E-02  0.1300439E+00
        -11   -1    0    0    0    0  0.00000000000E+00  0.00000000000E+00  0.45593999997E+02  0.45594000000E+02  0.51100000000E-03 0.  1.
         11   -1    0    0    0    0 -0.00000000000E+00 -0.00000000000E+00 -0.45593999997E+02  0.45594000000E+02  0.51100000000E-03 0. -1.
    9900012    2    1    2    0    0  0.30487180407E+01 -0.93249004346E+01 -0.39457788841E+02  0.50528861421E+02  0.30000004775E+02 0.  0.
        -12    1    1    2    0    0 -0.30487180407E+01  0.93249004346E+01  0.39457788841E+02  0.40659138579E+02  0.00000000000E+00 0.  1.
         11    1    3    3    0    0  0.89690938388E+00 -0.55947089909E+01  0.13989510893E+01  0.58362898786E+01  0.51100000000E-03 0.  1.
        -11    1    3    3    0    0 -0.28630119890E+01  0.59304465403E+01 -0.10011844199E+02  0.11983491075E+02  0.51100000000E-03 0. -1.
         12    1    3    3    0    0  0.50148206458E+01 -0.96606379839E+01 -0.30844895731E+02  0.32709080467E+02  0.00000000000E+00 0. -1.
</event>
<event>
 7    1  0.3449452E-011  0.5052888E+02  0.7816164E-02  0.1300439E+00
        -11   -1    0    0    0    0  0.00000000000E+00  0.00000000000E+00  0.45593999997E+02  0.45594000000E+02  0.51100000000E-03 0.  1.
         11   -1    0    0    0    0 -0.00000000000E+00 -0.00000000000E+00 -0.45593999997E+02  0.45594000000E+02  0.51100000000E-03 0. -1.
    9900012    2    1    2    0    0  0.24536595402E+02 -0.16262780666E+02 -0.28047125639E+02  0.50528882873E+02  0.30000069981E+02 0.  0.
        -12    1    1    2    0    0 -0.24536595402E+02  0.16262780666E+02  0.28047125639E+02  0.40659117127E+02  0.00000000000E+00 0.  1.
         11    1    3    3    0    0 -0.12641472840E+01 -0.33530964107E+01  0.40887175866E+01  0.54368130057E+01  0.51100000000E-03 0. -1.
        -11    1    3    3    0    0  0.28425812138E-02  0.88490141665E-01 -0.64081481546E+01  0.64087597566E+01  0.51100000000E-03 0.  1.
         12    1    3    3    0    0  0.25797900105E+02 -0.12998174397E+02 -0.25727695071E+02  0.38683310111E+02  0.00000000000E+00 0. -1.
</event>
<event>
 7    1  0.3449452E-011  0.5052886E+02  0.7816164E-02  0.1300439E+00
        -11   -1    0    0    0    0  0.00000000000E+00  0.00000000000E+00  0.45593999997E+02  0.45594000000E+02  0.51100000000E-03 0. -1.
         11   -1    0    0    0    0 -0.00000000000E+00 -0.00000000000E+00 -0.45593999997E+02  0.45594000000E+02  0.51100000000E-03 0.  1.
    9900012    2    1    2    0    0 -0.13302333962E+02 -0.36858351844E+02  0.10847838290E+02  0.50528858530E+02  0.29999995989E+02 0.  0.
        -12    1    1    2    0    0  0.13302333962E+02  0.36858351844E+02 -0.10847838290E+02  0.40659141470E+02  0.00000000000E+00 0.  1.
         11    1    3    3    0    0 -0.60202898108E+01  0.66907676989E+00  0.65648350295E+01  0.89324471650E+01  0.51100000000E-03 0. -1.
        -11    1    3    3    0    0 -0.23376719553E+01 -0.32123629451E+01  0.56418758173E+01  0.69003441118E+01  0.51100000000E-03 0.  1.
         12    1    3    3    0    0 -0.49443721964E+01 -0.34315065668E+02 -0.13588725568E+01  0.34696067254E+02  0.00000000000E+00 0. -1.
</event>
<event>
 7    1  0.3449452E-011  0.5052885E+02  0.7816164E-02  0.1300439E+00
        -11   -1    0    0    0    0  0.00000000000E+00  0.00000000000E+00  0.45593999997E+02  0.45594000000E+02  0.51100000000E-03 0.  1.
         11   -1    0    0    0    0 -0.00000000000E+00 -0.00000000000E+00 -0.45593999997E+02  0.45594000000E+02  0.51100000000E-03 0. -1.
    9900012    2    1    2    0    0  0.32725836682E+02 -0.16463457946E+02 -0.17639182902E+02  0.50528848416E+02  0.29999965245E+02 0.  0.
        -12    1    1    2    0    0 -0.32725836682E+02  0.16463457946E+02  0.17639182902E+02  0.40659151584E+02  0.00000000000E+00 0.  1.
         11    1    3    3    0    0  0.14142758386E+02 -0.12528737160E+02 -0.84984531509E+01  0.20717397901E+02  0.51100000000E-03 0. -1.
        -11    1    3    3    0    0  0.57707440313E+01  0.41055880759E+01 -0.12453753340E+02  0.14326664393E+02  0.51100000000E-03 0.  1.
         12    1    3    3    0    0  0.12812334266E+02 -0.80403088624E+01  0.33130235890E+01  0.15484786122E+02  0.00000000000E+00 0. -1.
</event>
<event>
 7    1  0.3449452E-011  0.5052886E+02  0.7816164E-02  0.1300439E+00
        -11   -1    0    0    0    0  0.00000000000E+00  0.00000000000E+00  0.45593999997E+02  0.45594000000E+02  0.51100000000E-03 0.  1.
         11   -1    0    0    0    0 -0.00000000000E+00 -0.00000000000E+00 -0.45593999997E+02  0.45594000000E+02  0.51100000000E-03 0. -1.
    9900012    2    1    2    0    0 -0.20352471084E+02  0.20525719554E+02 -0.28594357925E+02  0.50528861451E+02  0.30000004867E+02 0.  0.
        -12    1    1    2    0    0  0.20352471084E+02 -0.20525719554E+02  0.28594357925E+02  0.40659138549E+02  0.00000000000E+00 0.  1.
         11    1    3    3    0    0 -0.11502954284E+02  0.19688145896E+02 -0.25520444118E+02  0.34223297829E+02  0.51100000000E-03 0. -1.
        -11    1    3    3    0    0 -0.63570187479E+01  0.62827450856E+01 -0.47026784922E+01  0.10099492979E+02  0.51100000000E-03 0.  1.
        -12    1    3    3    0    0 -0.24924980525E+01 -0.54451714277E+01  0.16287646859E+01  0.62060706426E+01  0.00000000000E+00 0.  1.
</event>
<event>
 7    1  0.3449452E-011  0.5052886E+02  0.7816164E-02  0.1300439E+00
        -11   -1    0    0    0    0  0.00000000000E+00  0.00000000000E+00  0.45593999997E+02  0.45594000000E+02  0.51100000000E-03 0. -1.
         11   -1    0    0    0    0 -0.00000000000E+00 -0.00000000000E+00 -0.45593999997E+02  0.45594000000E+02  0.51100000000E-03 0.  1.
    9900012    2    1    2    0    0  0.84140079002E+01  0.38293282694E+02  0.10770077363E+02  0.50528860870E+02  0.30000003101E+02 0.  0.
        -12    1    1    2    0    0 -0.84140079002E+01 -0.38293282694E+02 -0.10770077363E+02  0.40659139130E+02  0.00000000000E+00 0.  1.
         11    1    3    3    0    0  0.30623119406E-02  0.76539679444E+01 -0.14408120400E+01  0.77883999812E+01  0.51100000000E-03 0. -1.
        -11    1    3    3    0    0  0.10967806017E+01  0.29071095666E+02  0.80808016765E+00  0.29102998552E+02  0.51100000000E-03 0.  1.
         12    1    3    3    0    0  0.73141649866E+01  0.15682190834E+01  0.11402809235E+02  0.13637462337E+02  0.00000000000E+00 0. -1.
</event>
<event>
 7    1  0.3449452E-011  0.5052883E+02  0.7816164E-02  0.1300439E+00
        -11   -1    0    0    0    0  0.00000000000E+00  0.00000000000E+00  0.45593999997E+02  0.45594000000E+02  0.51100000000E-03 0.  1.
         11   -1    0    0    0    0 -0.00000000000E+00 -0.00000000000E+00 -0.45593999997E+02  0.45594000000E+02  0.51100000000E-03 0. -1.
    9900012    2    1    2    0    0  0.35467476834E+02  0.98737680911E+00 -0.19855758554E+02  0.50528831616E+02  0.29999914179E+02 0.  0.
        -12    1    1    2    0    0 -0.35467476834E+02 -0.98737680911E+00  0.19855758554E+02  0.40659168384E+02  0.00000000000E+00 0.  1.
         11    1    3    3    0    0  0.25720880115E+02  0.28083868263E+01 -0.21140270039E+02  0.33411999761E+02  0.51100000000E-03 0.  1.
        -11    1    3    3    0    0  0.61743298821E+01  0.52861446310E+01 -0.22182502404E+01  0.84253373193E+01  0.51100000000E-03 0. -1.
        -12    1    3    3    0    0  0.35722668369E+01 -0.71071546482E+01  0.35027617254E+01  0.86914945350E+01  0.00000000000E+00 0.  1.
</event>
<event>
 7    1  0.3449452E-011  0.5052888E+02  0.7816164E-02  0.1300439E+00
        -11   -1    0    0    0    0  0.00000000000E+00  0.00000000000E+00  0.45593999997E+02  0.45594000000E+02  0.51100000000E-03 0. -1.
         11   -1    0    0    0    0 -0.00000000000E+00 -0.00000000000E+00 -0.45593999997E+02  0.45594000000E+02  0.51100000000E-03 0.  1.
    9900012    2    1    2    0    0 -0.19788890893E+02  0.30821693500E+02  0.17651832300E+02  0.50528878311E+02  0.30000056115E+02 0.  0.
        -12    1    1    2    0    0  0.19788890893E+02 -0.30821693500E+02 -0.17651832300E+02  0.40659121689E+02  0.00000000000E+00 0.  1.
         11    1    3    3    0    0 -0.69998842736E+01  0.22972157188E+01 -0.14372938060E+01  0.75060904370E+01  0.51100000000E-03 0. -1.
        -11    1    3    3    0    0  0.64740014821E+01  0.56834844311E+01  0.32727529908E+01  0.92155088231E+01  0.51100000000E-03 0.  1.
         12    1    3    3    0    0 -0.19263008101E+02  0.22840993350E+02  0.15816373116E+02  0.33807279051E+02  0.00000000000E+00 0. -1.
</event>
<event>
 7    1  0.3449452E-011  0.5052886E+02  0.7816164E-02  0.1300439E+00
        -11   -1    0    0    0    0  0.00000000000E+00  0.00000000000E+00  0.45593999997E+02  0.45594000000E+02  0.51100000000E-03 0.  1.
         11   -1    0    0    0    0 -0.00000000000E+00 -0.00000000000E+00 -0.45593999997E+02  0.45594000000E+02  0.51100000000E-03 0. -1.
    9900012    2    1    2    0    0 -0.37888102030E+02  0.94864311311E+01 -0.11298891692E+02  0.50528860750E+02  0.30000002737E+02 0.  0.
        -12    1    1    2    0    0  0.37888102030E+02 -0.94864311311E+01  0.11298891692E+02  0.40659139250E+02  0.00000000000E+00 0.  1.
         11    1    3    3    0    0 -0.74905002148E+01  0.92429409423E+01 -0.87377466226E+00  0.11929083500E+02  0.51100000000E-03 0. -1.
        -11    1    3    3    0    0 -0.26493482638E+02  0.84609193749E+01 -0.97724830789E+01  0.29478690689E+02  0.51100000000E-03 0.  1.
        -12    1    3    3    0    0 -0.39041191773E+01 -0.82174291861E+01 -0.65263395110E+00  0.91210865609E+01  0.00000000000E+00 0.  1.
</event>
<event>
 7    1  0.3449452E-011  0.5052886E+02  0.7816164E-02  0.1300439E+00
        -11   -1    0    0    0    0  0.00000000000E+00  0.00000000000E+00  0.45593999997E+02  0.45594000000E+02  0.51100000000E-03 0. -1.
         11   -1    0    0    0    0 -0.00000000000E+00 -0.00000000000E+00 -0.45593999997E+02  0.45594000000E+02  0.51100000000E-03 0.  1.
    9900012    2    1    2    0    0  0.25710938383E+01 -0.52700909365E+01  0.40234081456E+02  0.50528859667E+02  0.29999999445E+02 0.  0.
        -12    1    1    2    0    0 -0.25710938383E+01  0.52700909365E+01 -0.40234081456E+02  0.40659140333E+02  0.00000000000E+00 0.  1.
         11    1    3    3    0    0  0.20762772431E+01  0.65162123471E+01  0.43955156314E+01  0.81297299137E+01  0.51100000000E-03 0.  1.
        -11    1    3    3    0    0 -0.49401971316E+01 -0.37228213344E+01  0.30861399544E+02  0.31475243104E+02  0.51100000000E-03 0. -1.
        -12    1    3    3    0    0  0.54350137268E+01 -0.80634819492E+01  0.49771662805E+01  0.10923886650E+02  0.00000000000E+00 0.  1.
</event>
<event>
 7    1  0.3449452E-011  0.5052887E+02  0.7816164E-02  0.1300439E+00
        -11   -1    0    0    0    0  0.00000000000E+00  0.00000000000E+00  0.45593999997E+02  0.45594000000E+02  0.51100000000E-03 0. -1.
         11   -1    0    0    0    0 -0.00000000000E+00 -0.00000000000E+00 -0.45593999997E+02  0.45594000000E+02  0.51100000000E-03 0.  1.
    9900012    2    1    2    0    0  0.41286277594E+01  0.26158085104E+02  0.30852451106E+02  0.50528871594E+02  0.30000035699E+02 0.  0.
        -12    1    1    2    0    0 -0.41286277594E+01 -0.26158085104E+02 -0.30852451106E+02  0.40659128406E+02  0.00000000000E+00 0.  1.
         11    1    3    3    0    0  0.19254826641E+01  0.18741473281E+02  0.13757184573E+02  0.23328318239E+02  0.51100000000E-03 0. -1.
        -11    1    3    3    0    0  0.26256741941E+00  0.33590026237E+01 -0.42290265976E+01  0.54070792948E+01  0.51100000000E-03 0.  1.
         12    1    3    3    0    0  0.19405776759E+01  0.40576091995E+01  0.21324293130E+02  0.21793474061E+02  0.00000000000E+00 0. -1.
</event>
<event>
 7    1  0.3449452E-011  0.5052886E+02  0.7816164E-02  0.1300439E+00
        -11   -1    0    0    0    0  0.00000000000E+00  0.00000000000E+00  0.45593999997E+02  0.45594000000E+02  0.51100000000E-03 0. -1.
         11   -1    0    0    0    0 -0.00000000000E+00 -0.00000000000E+00 -0.45593999997E+02  0.45594000000E+02  0.51100000000E-03 0.  1.
    9900012    2    1    2    0    0 -0.28846901779E+02  0.28290372840E+02  0.45471907166E+01  0.50528857349E+02  0.29999992399E+02 0.  0.
        -12    1    1    2    0    0  0.28846901779E+02 -0.28290372840E+02 -0.45471907166E+01  0.40659142651E+02  0.00000000000E+00 0.  1.
         11    1    3    3    0    0  0.15371244206E+01 -0.18945399427E+01  0.17315861831E+01  0.29917259316E+01  0.51100000000E-03 0. -1.
        -11    1    3    3    0    0 -0.46903884755E+01  0.16750999661E+02 -0.37834155122E+01  0.17801965253E+02  0.51100000000E-03 0.  1.
         12    1    3    3    0    0 -0.25693637724E+02  0.13433913122E+02  0.65990200457E+01  0.29735166164E+02  0.00000000000E+00 0. -1.
</event>
<event>
 7    1  0.3449452E-011  0.5052886E+02  0.7816164E-02  0.1300439E+00
        -11   -1    0    0    0    0  0.00000000000E+00  0.00000000000E+00  0.45593999997E+02  0.45594000000E+02  0.51100000000E-03 0.  1.
         11   -1    0    0    0    0 -0.00000000000E+00 -0.00000000000E+00 -0.45593999997E+02  0.45594000000E+02  0.51100000000E-03 0. -1.
    9900012    2    1    2    0    0 -0.85988611442E+01 -0.29718462771E+02 -0.26382534517E+02  0.50528861175E+02  0.30000004027E+02 0.  0.
        -12    1    1    2    0    0  0.85988611442E+01  0.29718462771E+02  0.26382534517E+02  0.40659138825E+02  0.00000000000E+00 0.  1.
         11    1    3    3    0    0 -0.63399305971E+01 -0.22025420529E+02 -0.26361500602E+02  0.34931970796E+02  0.51100000000E-03 0. -1.
        -11    1    3    3    0    0  0.77190653168E+00  0.20009836843E+01 -0.41195159904E+01  0.46443716103E+01  0.51100000000E-03 0.  1.
         12    1    3    3    0    0 -0.30308370788E+01 -0.96940259268E+01  0.40984820748E+01  0.10952518769E+02  0.00000000000E+00 0. -1.
</event>
<event>
 7    1  0.3449452E-011  0.5052886E+02  0.7816164E-02  0.1300439E+00
        -11   -1    0    0    0    0  0.00000000000E+00  0.00000000000E+00  0.45593999997E+02  0.45594000000E+02  0.51100000000E-03 0. -1.
         11   -1    0    0    0    0 -0.00000000000E+00 -0.00000000000E+00 -0.45593999997E+02  0.45594000000E+02  0.51100000000E-03 0.  1.
    9900012    2    1    2    0    0 -0.47581584586E+01  0.10347030582E+02  0.39031580759E+02  0.50528863139E+02  0.30000009996E+02 0.  0.
        -12    1    1    2    0    0  0.47581584586E+01 -0.10347030582E+02 -0.39031580759E+02  0.40659136861E+02  0.00000000000E+00 0.  1.
         11    1    3    3    0    0 -0.12206816766E+02  0.12336004155E+01  0.13571147206E+02  0.18294922309E+02  0.51100000000E-03 0. -1.
        -11    1    3    3    0    0 -0.46333671898E+01  0.20052608626E+01  0.33661619714E+01  0.60679658306E+01  0.51100000000E-03 0.  1.
         12    1    3    3    0    0  0.12082025497E+02  0.71081693043E+01  0.22094271581E+02  0.26165974999E+02  0.00000000000E+00 0. -1.
</event>
<event>
 7    1  0.3449452E-011  0.5052886E+02  0.7816164E-02  0.1300439E+00
        -11   -1    0    0    0    0  0.00000000000E+00  0.00000000000E+00  0.45593999997E+02  0.45594000000E+02  0.51100000000E-03 0.  1.
         11   -1    0    0    0    0 -0.00000000000E+00 -0.00000000000E+00 -0.45593999997E+02  0.45594000000E+02  0.51100000000E-03 0. -1.
    9900012    2    1    2    0    0  0.62079995085E+01  0.20979375913E+02 -0.34270863249E+02  0.50528861550E+02  0.30000005168E+02 0.  0.
        -12    1    1    2    0    0 -0.62079995085E+01 -0.20979375913E+02  0.34270863249E+02  0.40659138450E+02  0.00000000000E+00 0.  1.
         11    1    3    3    0    0  0.11774806929E+02  0.30810413162E+01 -0.13821180659E+02  0.18416403799E+02  0.51100000000E-03 0.  1.
        -11    1    3    3    0    0  0.86197786763E+00  0.16115803697E+01  0.25927493444E+01  0.31721517234E+01  0.51100000000E-03 0. -1.
         12    1    3    3    0    0 -0.64287852877E+01  0.16286754228E+02 -0.23042431935E+02  0.28940306028E+02  0.00000000000E+00 0. -1.
</event>
<event>
 7    1  0.3449452E-011  0.5052886E+02  0.7816164E-02  0.1300439E+00
        -11   -1    0    0    0    0  0.00000000000E+00  0.00000000000E+00  0.45593999997E+02  0.45594000000E+02  0.51100000000E-03 0.  1.
         11   -1    0    0    0    0 -0.00000000000E+00 -0.00000000000E+00 -0.45593999997E+02  0.45594000000E+02  0.51100000000E-03 0. -1.
    9900012    2    1    2    0    0 -0.35750346338E+02 -0.60120799608E+00 -0.19357605863E+02  0.50528860571E+02  0.30000002192E+02 0.  0.
        -12    1    1    2    0    0  0.35750346338E+02  0.60120799608E+00  0.19357605863E+02  0.40659139429E+02  0.00000000000E+00 0.  1.
         11    1    3    3    0    0 -0.12729901336E+02 -0.11751743074E+02 -0.86796520421E+01  0.19377569846E+02  0.51100000000E-03 0.  1.
        -11    1    3    3    0    0 -0.12080717366E+02  0.91707602718E-01 -0.98258845514E+01  0.15572416314E+02  0.51100000000E-03 0. -1.
        -12    1    3    3    0    0 -0.10939727636E+02  0.11058827476E+02 -0.85206926939E+00  0.15578874411E+02  0.00000000000E+00 0.  1.
</event>
<event>
 7    1  0.3449452E-011  0.5052885E+02  0.7816164E-02  0.1300439E+00
        -11   -1    0    0    0    0  0.00000000000E+00  0.00000000000E+00  0.45593999997E+02  0.45594000000E+02  0.51100000000E-03 0.  1.
         11   -1    0    0    0    0 -0.00000000000E+00 -0.00000000000E+00 -0.45593999997E+02  0.45594000000E+02  0.51100000000E-03 0. -1.
    9900012    2    1    2    0    0 -0.31988556606E+02 -0.22242948069E+02 -0.11625416803E+02  0.50528845947E+02  0.29999957739E+02 0.  0.
        -12    1    1    2    0    0  0.31988556606E+02  0.22242948069E+02  0.11625416803E+02  0.40659154053E+02  0.00000000000E+00 0.  1.
         11    1    3    3    0    0 -0.20078843227E+02 -0.11930678672E+02  0.32896985559E+01  0.23586503678E+02  0.51100000000E-03 0. -1.
        -11    1    3    3    0    0  0.68883711272E+00 -0.79023327967E+01 -0.96394212185E+00  0.79906535948E+01  0.51100000000E-03 0.  1.
        -12    1    3    3    0    0 -0.12598550492E+02 -0.24099366000E+01 -0.13951173237E+02  0.18951688674E+02  0.00000000000E+00 0.  1.
</event>
<event>
 7    1  0.3449452E-011  0.5052887E+02  0.7816164E-02  0.1300439E+00
        -11   -1    0    0    0    0  0.00000000000E+00  0.00000000000E+00  0.45593999997E+02  0.45594000000E+02  0.51100000000E-03 0. -1.
         11   -1    0    0    0    0 -0.00000000000E+00 -0.00000000000E+00 -0.45593999997E+02  0.45594000000E+02  0.51100000000E-03 0.  1.
    9900012    2    1    2    0    0  0.97108287465E+01  0.15968231807E+02  0.36109286923E+02  0.50528865429E+02  0.30000016957E+02 0.  0.
        -12    1    1    2    0    0 -0.97108287465E+01 -0.15968231807E+02 -0.36109286923E+02  0.40659134571E+02  0.00000000000E+00 0.  1.
         11    1    3    3    0    0 -0.39302801683E+01 -0.22413404225E+01 -0.11048489378E+00  0.45258055928E+01  0.51100000000E-03 0.  1.
        -11    1    3    3    0    0  0.69878256830E+01 -0.17177323584E+01  0.72241714783E+01  0.10196517349E+02  0.51100000000E-03 0. -1.
         12    1    3    3    0    0  0.66532832318E+01  0.19927304588E+02  0.28995600339E+02  0.35806542487E+02  0.00000000000E+00 0. -1.
</event>
<event>
 7    1  0.3449452E-011  0.5052885E+02  0.7816164E-02  0.1300439E+00
        -11   -1    0    0    0    0  0.00000000000E+00  0.00000000000E+00  0.45593999997E+02  0.45594000000E+02  0.51100000000E-03 0.  1.
         11   -1    0    0    0    0 -0.00000000000E+00 -0.00000000000E+00 -0.45593999997E+02  0.45594000000E+02  0.51100000000E-03 0. -1.
    9900012    2    1    2    0    0 -0.18673293265E+02  0.29087771075E+02 -0.21409720030E+02  0.50528850732E+02  0.29999972284E+02 0.  0.
        -12    1    1    2    0    0  0.18673293265E+02 -0.29087771075E+02  0.21409720030E+02  0.40659149268E+02  0.00000000000E+00 0.  1.
         11    1    3    3    0    0 -0.21839052547E+01  0.76885536396E+01  0.10374378260E+01  0.80597504139E+01  0.51100000000E-03 0.  1.
        -11    1    3    3    0    0 -0.13650687648E+02  0.14605709976E+02 -0.27162098218E+02  0.33726067322E+02  0.51100000000E-03 0. -1.
         12    1    3    3    0    0 -0.28387003619E+01  0.67935074598E+01  0.47149403619E+01  0.87430329959E+01  0.00000000000E+00 0. -1.
</event>
<event>
 7    1  0.3449452E-011  0.5052884E+02  0.7816164E-02  0.1300439E+00
        -11   -1    0    0    0    0  0.00000000000E+00  0.00000000000E+00  0.45593999997E+02  0.45594000000E+02  0.51100000000E-03 0.  1.
         11   -1    0    0    0    0 -0.00000000000E+00 -0.00000000000E+00 -0.45593999997E+02  0.45594000000E+02  0.51100000000E-03 0. -1.
    9900012    2    1    2    0    0  0.39097244786E+02  0.10923752943E+02 -0.22900500335E+01  0.50528840425E+02  0.29999940955E+02 0.  0.
        -12    1    1    2    0    0 -0.39097244786E+02 -0.10923752943E+02  0.22900500335E+01  0.40659159575E+02  0.00000000000E+00 0.  1.
         11    1    3    3    0    0  0.16868450689E+02  0.15391612561E+02 -0.82827633613E+01  0.24290955828E+02  0.51100000000E-03 0. -1.
        -11    1    3    3    0    0  0.19484709076E+02 -0.22419387200E+00  0.76287020994E+01  0.20926090095E+02  0.51100000000E-03 0.  1.
         12    1    3    3    0    0  0.27440850216E+01 -0.42436657465E+01 -0.16359887716E+01  0.53117945023E+01  0.00000000000E+00 0. -1.
</event>
<event>
 7    1  0.3449452E-011  0.5052886E+02  0.7816164E-02  0.1300439E+00
        -11   -1    0    0    0    0  0.00000000000E+00  0.00000000000E+00  0.45593999997E+02  0.45594000000E+02  0.51100000000E-03 0.  1.
         11   -1    0    0    0    0 -0.00000000000E+00 -0.00000000000E+00 -0.45593999997E+02  0.45594000000E+02  0.51100000000E-03 0. -1.
    9900012    2    1    2    0    0  0.26526691188E+02 -0.29468289935E+02 -0.90066631038E+01  0.50528862807E+02  0.30000008987E+02 0.  0.
        -12    1    1    2    0    0 -0.26526691188E+02  0.29468289935E+02  0.90066631038E+01  0.40659137193E+02  0.00000000000E+00 0.  1.
         11    1    3    3    0    0  0.96981551284E+01  0.17876745501E+01  0.78214218902E+00  0.98925092801E+01  0.51100000000E-03 0. -1.
        -11    1    3    3    0    0  0.16163659891E+02 -0.11992244501E+02 -0.41084946344E+01  0.20541605528E+02  0.51100000000E-03 0.  1.
        -12    1    3    3    0    0  0.66487616795E+00 -0.19263719984E+02 -0.56803106585E+01  0.20094747998E+02  0.00000000000E+00 0.  1.
</event>
<event>
 7    1  0.3449452E-011  0.5052886E+02  0.7816164E-02  0.1300439E+00
        -11   -1    0    0    0    0  0.00000000000E+00  0.00000000000E+00  0.45593999997E+02  0.45594000000E+02  0.51100000000E-03 0.  1.
         11   -1    0    0    0    0 -0.00000000000E+00 -0.00000000000E+00 -0.45593999997E+02  0.45594000000E+02  0.51100000000E-03 0. -1.
    9900012    2    1    2    0    0  0.20490909367E+02 -0.34913950122E+02  0.37821334196E+01  0.50528858187E+02  0.29999994944E+02 0.  0.
        -12    1    1    2    0    0 -0.20490909367E+02  0.34913950122E+02 -0.37821334196E+01  0.40659141813E+02  0.00000000000E+00 0.  1.
         11    1    3    3    0    0  0.74188467105E+01 -0.11033135011E+02 -0.68423260358E+01  0.14952818481E+02  0.51100000000E-03 0. -1.
        -11    1    3    3    0    0  0.17735625837E+02 -0.14889122307E+02  0.40715313735E+01  0.23512034257E+02  0.51100000000E-03 0.  1.
        -12    1    3    3    0    0 -0.46635631808E+01 -0.89916928040E+01  0.65529280819E+01  0.12064005449E+02  0.00000000000E+00 0.  1.
</event>
<event>
 7    1  0.3449452E-011  0.5052886E+02  0.7816164E-02  0.1300439E+00
        -11   -1    0    0    0    0  0.00000000000E+00  0.00000000000E+00  0.45593999997E+02  0.45594000000E+02  0.51100000000E-03 0.  1.
         11   -1    0    0    0    0 -0.00000000000E+00 -0.00000000000E+00 -0.45593999997E+02  0.45594000000E+02  0.51100000000E-03 0. -1.
    9900012    2    1    2    0    0  0.34650874836E+02  0.12963991592E+02  0.16864684516E+02  0.50528858486E+02  0.29999995853E+02 0.  0.
        -12    1    1    2    0    0 -0.34650874836E+02 -0.12963991592E+02 -0.16864684516E+02  0.40659141514E+02  0.00000000000E+00 0.  1.
         11    1    3    3    0    0  0.20721087143E+01 -0.15243588413E+01 -0.24991216519E+01  0.35864904423E+01  0.51100000000E-03 0. -1.
        -11    1    3    3    0    0 -0.98864114145E+00  0.33256298428E+01  0.96549723137E+01  0.10259420831E+02  0.51100000000E-03 0.  1.
        -12    1    3    3    0    0  0.33567407263E+02  0.11162720590E+02  0.97088338540E+01  0.36682947212E+02  0.00000000000E+00 0.  1.
</event>
<event>
 7    1  0.3449452E-011  0.5052886E+02  0.7816164E-02  0.1300439E+00
        -11   -1    0    0    0    0  0.00000000000E+00  0.00000000000E+00  0.45593999997E+02  0.45594000000E+02  0.51100000000E-03 0. -1.
         11   -1    0    0    0    0 -0.00000000000E+00 -0.00000000000E+00 -0.45593999997E+02  0.45594000000E+02  0.51100000000E-03 0.  1.
    9900012    2    1    2    0    0  0.30236516566E+02 -0.25556109785E+02 -0.92630327955E+01  0.50528862553E+02  0.30000008215E+02 0.  0.
        -12    1    1    2    0    0 -0.30236516566E+02  0.25556109785E+02  0.92630327955E+01  0.40659137447E+02  0.00000000000E+00 0.  1.
         11    1    3    3    0    0  0.12016633844E+02 -0.18067788475E+02  0.55851056162E+01  0.22406201694E+02  0.51100000000E-03 0. -1.
        -11    1    3    3    0    0  0.15114453744E+02 -0.57602450269E+01 -0.39367062916E+01  0.16647065550E+02  0.51100000000E-03 0.  1.
        -12    1    3    3    0    0  0.31054289782E+01 -0.17280762828E+01 -0.10911432120E+02  0.11475595309E+02  0.00000000000E+00 0.  1.
</event>
<event>
 7    1  0.3449452E-011  0.5052887E+02  0.7816164E-02  0.1300439E+00
        -11   -1    0    0    0    0  0.00000000000E+00  0.00000000000E+00  0.45593999997E+02  0.45594000000E+02  0.51100000000E-03 0. -1.
         11   -1    0    0    0    0 -0.00000000000E+00 -0.00000000000E+00 -0.45593999997E+02  0.45594000000E+02  0.51100000000E-03 0.  1.
    9900012    2    1    2    0    0 -0.33027409598E+02  0.20900911785E+01  0.23621744527E+02  0.50528867196E+02  0.30000022329E+02 0.  0.
        -12    1    1    2    0    0  0.33027409598E+02 -0.20900911785E+01 -0.23621744527E+02  0.40659132804E+02  0.00000000000E+00 0.  1.
         11    1    3    3    0    0 -0.25936924396E+02  0.24015607996E+01  0.16697399362E+02  0.30940179171E+02  0.51100000000E-03 0. -1.
        -11    1    3    3    0    0 -0.54609866415E+01  0.30529842975E+01  0.11852903602E+02  0.13402776290E+02  0.51100000000E-03 0.  1.
        -12    1    3    3    0    0 -0.16294985600E+01 -0.33644539186E+01 -0.49285584371E+01  0.61859117352E+01  0.00000000000E+00 0.  1.
</event>
<event>
 7    1  0.3449452E-011  0.5052892E+02  0.7816164E-02  0.1300439E+00
        -11   -1    0    0    0    0  0.00000000000E+00  0.00000000000E+00  0.45593999997E+02  0.45594000000E+02  0.51100000000E-03 0.  1.
         11   -1    0    0    0    0 -0.00000000000E+00 -0.00000000000E+00 -0.45593999997E+02  0.45594000000E+02  0.51100000000E-03 0. -1.
    9900012    2    1    2    0    0 -0.37310608186E+02  0.61043157129E+01 -0.14960490216E+02  0.50528924493E+02  0.30000196490E+02 0.  0.
        -12    1    1    2    0    0  0.37310608186E+02 -0.61043157129E+01  0.14960490216E+02  0.40659075507E+02  0.00000000000E+00 0.  1.
         11    1    3    3    0    0 -0.62055210190E+01  0.51365397352E+00 -0.11716962554E+02  0.13268743093E+02  0.51100000000E-03 0. -1.
        -11    1    3    3    0    0 -0.99848593981E+01  0.11124483093E+02  0.11385713344E+01  0.14991593852E+02  0.51100000000E-03 0.  1.
         12    1    3    3    0    0 -0.21120227769E+02 -0.55338213536E+01 -0.43820989973E+01  0.22268587548E+02  0.00000000000E+00 0. -1.
</event>
<event>
 7    1  0.3449452E-011  0.5052887E+02  0.7816164E-02  0.1300439E+00
        -11   -1    0    0    0    0  0.00000000000E+00  0.00000000000E+00  0.45593999997E+02  0.45594000000E+02  0.51100000000E-03 0.  1.
         11   -1    0    0    0    0 -0.00000000000E+00 -0.00000000000E+00 -0.45593999997E+02  0.45594000000E+02  0.51100000000E-03 0. -1.
    9900012    2    1    2    0    0 -0.39617166756E+02  0.65954246414E+01 -0.63360573905E+01  0.50528866325E+02  0.30000019681E+02 0.  0.
        -12    1    1    2    0    0  0.39617166756E+02 -0.65954246414E+01  0.63360573905E+01  0.40659133675E+02  0.00000000000E+00 0.  1.
         11    1    3    3    0    0 -0.10509465821E+02  0.10211922107E+02 -0.58546113028E+01  0.15780009466E+02  0.51100000000E-03 0. -1.
        -11    1    3    3    0    0 -0.16764478017E+02 -0.30071076585E+01 -0.94511374972E+01  0.19478563086E+02  0.51100000000E-03 0.  1.
         12    1    3    3    0    0 -0.12343222917E+02 -0.60938980703E+00  0.89696914095E+01  0.15270293773E+02  0.00000000000E+00 0. -1.
</event>
<event>
 7    1  0.3449452E-011  0.5052886E+02  0.7816164E-02  0.1300439E+00
        -11   -1    0    0    0    0  0.00000000000E+00  0.00000000000E+00  0.45593999997E+02  0.45594000000E+02  0.51100000000E-03 0.  1.
         11   -1    0    0    0    0 -0.00000000000E+00 -0.00000000000E+00 -0.45593999997E+02  0.45594000000E+02  0.51100000000E-03 0. -1.
    9900012    2    1    2    0    0 -0.15950269095E+02 -0.30885901240E+02 -0.21090656689E+02  0.50528858603E+02  0.29999996210E+02 0.  0.
        -12    1    1    2    0    0  0.15950269095E+02  0.30885901240E+02  0.21090656689E+02  0.40659141397E+02  0.00000000000E+00 0.  1.
         11    1    3    3    0    0 -0.33302961457E+01  0.96264926810E+00  0.85102670593E+00  0.35695675854E+01  0.51100000000E-03 0. -1.
        -11    1    3    3    0    0  0.27526643000E+01 -0.36609641601E+01 -0.12772107532E+02  0.13568586898E+02  0.51100000000E-03 0.  1.
        -12    1    3    3    0    0 -0.15372637249E+02 -0.28187586348E+02 -0.91695758621E+01  0.33390704120E+02  0.00000000000E+00 0.  1.
</event>
<event>
 7    1  0.3449452E-011  0.5052885E+02  0.7816164E-02  0.1300439E+00
        -11   -1    0    0    0    0  0.00000000000E+00  0.00000000000E+00  0.45593999997E+02  0.45594000000E+02  0.51100000000E-03 0. -1.
         11   -1    0    0    0    0 -0.00000000000E+00 -0.00000000000E+00 -0.45593999997E+02  0.45594000000E+02  0.51100000000E-03 0.  1.
    9900012    2    1    2    0    0 -0.39137259808E+02  0.10668470231E+02 -0.27613563550E+01  0.50528850338E+02  0.29999971087E+02 0.  0.
        -12    1    1    2    0    0  0.39137259808E+02 -0.10668470231E+02  0.27613563550E+01  0.40659149662E+02  0.00000000000E+00 0.  1.
         11    1    3    3    0    0 -0.32749775995E+02  0.83205995186E+01 -0.73784245035E+01  0.34586433070E+02  0.51100000000E-03 0. -1.
        -11    1    3    3    0    0 -0.10053018384E+02  0.21712411249E+01  0.61299190362E+01  0.11973026948E+02  0.51100000000E-03 0.  1.
        -12    1    3    3    0    0  0.36655345712E+01  0.17662958711E+00 -0.15128508877E+01  0.39693903199E+01  0.00000000000E+00 0.  1.
</event>
<event>
 7    1  0.3449452E-011  0.5052887E+02  0.7816164E-02  0.1300439E+00
        -11   -1    0    0    0    0  0.00000000000E+00  0.00000000000E+00  0.45593999997E+02  0.45594000000E+02  0.51100000000E-03 0. -1.
         11   -1    0    0    0    0 -0.00000000000E+00 -0.00000000000E+00 -0.45593999997E+02  0.45594000000E+02  0.51100000000E-03 0.  1.
    9900012    2    1    2    0    0 -0.59420328106E+01  0.24564094606E+02  0.31850631272E+02  0.50528865600E+02  0.30000017478E+02 0.  0.
        -12    1    1    2    0    0  0.59420328106E+01 -0.24564094606E+02 -0.31850631272E+02  0.40659134400E+02  0.00000000000E+00 0.  1.
         11    1    3    3    0    0 -0.32327933232E+01  0.54388012081E+01  0.66983510357E+01  0.92140880238E+01  0.51100000000E-03 0. -1.
        -11    1    3    3    0    0 -0.13539549471E+02  0.12634380419E+02  0.21054637222E+02  0.28040055586E+02  0.51100000000E-03 0.  1.
        -12    1    3    3    0    0  0.10830309984E+02  0.64909129788E+01  0.40976430136E+01  0.13274721990E+02  0.00000000000E+00 0.  1.
</event>
<event>
 7    1  0.3449452E-011  0.5052887E+02  0.7816164E-02  0.1300439E+00
        -11   -1    0    0    0    0  0.00000000000E+00  0.00000000000E+00  0.45593999997E+02  0.45594000000E+02  0.51100000000E-03 0.  1.
         11   -1    0    0    0    0 -0.00000000000E+00 -0.00000000000E+00 -0.45593999997E+02  0.45594000000E+02  0.51100000000E-03 0. -1.
    9900012    2    1    2    0    0  0.14034792701E+02  0.20198596592E+02 -0.32376013623E+02  0.50528868571E+02  0.30000026508E+02 0.  0.
        -12    1    1    2    0    0 -0.14034792701E+02 -0.20198596592E+02  0.32376013623E+02  0.40659131429E+02  0.00000000000E+00 0.  1.
         11    1    3    3    0    0  0.24324076078E+00  0.20406280255E+01 -0.77262143153E+01  0.79948556405E+01  0.51100000000E-03 0. -1.
        -11    1    3    3    0    0  0.25992612567E+01  0.22215333755E+02 -0.12965302519E+02  0.25852974347E+02  0.51100000000E-03 0.  1.
         12    1    3    3    0    0  0.11192290684E+02 -0.40573651882E+01 -0.11684496789E+02  0.16681038583E+02  0.00000000000E+00 0. -1.
</event>
<event>
 7    1  0.3449452E-011  0.5052886E+02  0.7816164E-02  0.1300439E+00
        -11   -1    0    0    0    0  0.00000000000E+00  0.00000000000E+00  0.45593999997E+02  0.45594000000E+02  0.51100000000E-03 0. -1.
         11   -1    0    0    0    0 -0.00000000000E+00 -0.00000000000E+00 -0.45593999997E+02  0.45594000000E+02  0.51100000000E-03 0.  1.
    9900012    2    1    2    0    0 -0.77128389764E+01  0.11246869754E+02  0.38303859554E+02  0.50528860547E+02  0.30000002118E+02 0.  0.
        -12    1    1    2    0    0  0.77128389764E+01 -0.11246869754E+02 -0.38303859554E+02  0.40659139453E+02  0.00000000000E+00 0.  1.
         11    1    3    3    0    0  0.82797551887E+00 -0.41565318253E+01  0.19963220978E+02  0.20408147695E+02  0.51100000000E-03 0. -1.
        -11    1    3    3    0    0  0.20597853320E+01 -0.65233471374E+00 -0.13846990345E+01  0.25662517160E+01  0.51100000000E-03 0.  1.
         12    1    3    3    0    0 -0.10600599827E+02  0.16055736293E+02  0.19725337610E+02  0.27554461135E+02  0.00000000000E+00 0. -1.
</event>
<event>
 7    1  0.3449452E-011  0.5052887E+02  0.7816164E-02  0.1300439E+00
        -11   -1    0    0    0    0  0.00000000000E+00  0.00000000000E+00  0.45593999997E+02  0.45594000000E+02  0.51100000000E-03 0.  1.
         11   -1    0    0    0    0 -0.00000000000E+00 -0.00000000000E+00 -0.45593999997E+02  0.45594000000E+02  0.51100000000E-03 0. -1.
    9900012    2    1    2    0    0 -0.19542222230E+02  0.14673028151E+02 -0.32495675099E+02  0.50528866894E+02  0.30000021411E+02 0.  0.
        -12    1    1    2    0    0  0.19542222230E+02 -0.14673028151E+02  0.32495675099E+02  0.40659133106E+02  0.00000000000E+00 0.  1.
         11    1    3    3    0    0 -0.10323082617E+02  0.10874444640E+02 -0.21362819657E+02  0.26099610053E+02  0.51100000000E-03 0. -1.
        -11    1    3    3    0    0 -0.86350476792E+01 -0.60001722571E+01 -0.14033833000E+01  0.10608279808E+02  0.51100000000E-03 0.  1.
         12    1    3    3    0    0 -0.58409193374E+00  0.97987557681E+01 -0.97294721422E+01  0.13820977033E+02  0.00000000000E+00 0. -1.
</event>
<event>
 7    1  0.3449452E-011  0.5052888E+02  0.7816164E-02  0.1300439E+00
        -11   -1    0    0    0    0  0.00000000000E+00  0.00000000000E+00  0.45593999997E+02  0.45594000000E+02  0.51100000000E-03 0. -1.
         11   -1    0    0    0    0 -0.00000000000E+00 -0.00000000000E+00 -0.45593999997E+02  0.45594000000E+02  0.51100000000E-03 0.  1.
    9900012    2    1    2    0    0 -0.25191021529E+02 -0.15172172366E+02  0.28078139538E+02  0.50528876794E+02  0.30000051503E+02 0.  0.
        -12    1    1    2    0    0  0.25191021529E+02  0.15172172366E+02 -0.28078139538E+02  0.40659123206E+02  0.00000000000E+00 0.  1.
         11    1    3    3    0    0 -0.27870610032E+02 -0.15004148361E+02  0.22312231431E+02  0.38726361090E+02  0.51100000000E-03 0. -1.
        -11    1    3    3    0    0  0.35396305412E+01 -0.42562542384E+01  0.51846805680E+01  0.75845630964E+01  0.51100000000E-03 0.  1.
        -12    1    3    3    0    0 -0.86004203756E+00  0.40882302330E+01  0.58122753915E+00  0.42179526072E+01  0.00000000000E+00 0.  1.
</event>
<event>
 7    1  0.3449452E-011  0.5052886E+02  0.7816164E-02  0.1300439E+00
        -11   -1    0    0    0    0  0.00000000000E+00  0.00000000000E+00  0.45593999997E+02  0.45594000000E+02  0.51100000000E-03 0. -1.
         11   -1    0    0    0    0 -0.00000000000E+00 -0.00000000000E+00 -0.45593999997E+02  0.45594000000E+02  0.51100000000E-03 0.  1.
    9900012    2    1    2    0    0 -0.39200278405E+02 -0.84943223804E+01 -0.66596327642E+01  0.50528855293E+02  0.29999986148E+02 0.  0.
        -12    1    1    2    0    0  0.39200278405E+02  0.84943223804E+01  0.66596327642E+01  0.40659144707E+02  0.00000000000E+00 0.  1.
         11    1    3    3    0    0 -0.15650857557E+02 -0.10899516855E+02  0.20618051229E+00  0.19073314358E+02  0.51100000000E-03 0. -1.
        -11    1    3    3    0    0 -0.11355994195E+02 -0.23349475634E+00  0.65692856310E+01  0.13121304734E+02  0.51100000000E-03 0.  1.
         12    1    3    3    0    0 -0.12193426653E+02  0.26386892306E+01 -0.13435098908E+02  0.18334236200E+02  0.00000000000E+00 0. -1.
</event>
<event>
 7    1  0.3449452E-011  0.5052886E+02  0.7816164E-02  0.1300439E+00
        -11   -1    0    0    0    0  0.00000000000E+00  0.00000000000E+00  0.45593999997E+02  0.45594000000E+02  0.51100000000E-03 0.  1.
         11   -1    0    0    0    0 -0.00000000000E+00 -0.00000000000E+00 -0.45593999997E+02  0.45594000000E+02  0.51100000000E-03 0. -1.
    9900012    2    1    2    0    0  0.30044986714E+02  0.23521865719E+02 -0.14042299706E+02  0.50528861118E+02  0.30000003855E+02 0.  0.
        -12    1    1    2    0    0 -0.30044986714E+02 -0.23521865719E+02  0.14042299706E+02  0.40659138882E+02  0.00000000000E+00 0.  1.
         11    1    3    3    0    0  0.62080067061E+01  0.31784251169E+01 -0.52323568722E+01  0.87189042996E+01  0.51100000000E-03 0. -1.
        -11    1    3    3    0    0  0.18128390354E+02  0.23809033148E+02 -0.14298644473E+02  0.33165642317E+02  0.51100000000E-03 0.  1.
        -12    1    3    3    0    0  0.57085896534E+01 -0.34655925450E+01  0.54887016395E+01  0.86443145018E+01  0.00000000000E+00 0.  1.
</event>
<event>
 7    1  0.3449452E-011  0.5052886E+02  0.7816164E-02  0.1300439E+00
        -11   -1    0    0    0    0  0.00000000000E+00  0.00000000000E+00  0.45593999997E+02  0.45594000000E+02  0.51100000000E-03 0.  1.
         11   -1    0    0    0    0 -0.00000000000E+00 -0.00000000000E+00 -0.45593999997E+02  0.45594000000E+02  0.51100000000E-03 0. -1.
    9900012    2    1    2    0    0  0.70141597789E+01 -0.29501132036E+02 -0.27085988277E+02  0.50528856013E+02  0.29999988338E+02 0.  0.
        -12    1    1    2    0    0 -0.70141597789E+01  0.29501132036E+02  0.27085988277E+02  0.40659143987E+02  0.00000000000E+00 0.  1.
         11    1    3    3    0    0  0.10473024036E+02 -0.28711063816E+02 -0.20237875351E+02  0.36654890764E+02  0.51100000000E-03 0. -1.
        -11    1    3    3    0    0 -0.45876004793E+01 -0.17480708954E+01  0.17024595154E+01  0.51961715402E+01  0.51100000000E-03 0.  1.
        -12    1    3    3    0    0  0.11287362223E+01  0.95800267587E+00 -0.85505724415E+01  0.86777937095E+01  0.00000000000E+00 0.  1.
</event>
<event>
 7    1  0.3449452E-011  0.5052886E+02  0.7816164E-02  0.1300439E+00
        -11   -1    0    0    0    0  0.00000000000E+00  0.00000000000E+00  0.45593999997E+02  0.45594000000E+02  0.51100000000E-03 0. -1.
         11   -1    0    0    0    0 -0.00000000000E+00 -0.00000000000E+00 -0.45593999997E+02  0.45594000000E+02  0.51100000000E-03 0.  1.
    9900012    2    1    2    0    0  0.17714264833E+02  0.31798036643E+02  0.18117820566E+02  0.50528859146E+02  0.29999997861E+02 0.  0.
        -12    1    1    2    0    0 -0.17714264833E+02 -0.31798036643E+02 -0.18117820566E+02  0.40659140854E+02  0.00000000000E+00 0.  1.
         11    1    3    3    0    0  0.36670726125E+01  0.23666401701E+02  0.13182821505E+02  0.27337387844E+02  0.51100000000E-03 0. -1.
        -11    1    3    3    0    0 -0.18945854528E+01  0.63408762523E+01  0.13777273941E+01  0.67597558179E+01  0.51100000000E-03 0.  1.
        -12    1    3    3    0    0  0.15941777673E+02  0.17907586894E+01  0.35572716673E+01  0.16431715485E+02  0.00000000000E+00 0.  1.
</event>
<event>
 7    1  0.3449452E-011  0.5052886E+02  0.7816164E-02  0.1300439E+00
        -11   -1    0    0    0    0  0.00000000000E+00  0.00000000000E+00  0.45593999997E+02  0.45594000000E+02  0.51100000000E-03 0.  1.
         11   -1    0    0    0    0 -0.00000000000E+00 -0.00000000000E+00 -0.45593999997E+02  0.45594000000E+02  0.51100000000E-03 0. -1.
    9900012    2    1    2    0    0 -0.14148030268E+02 -0.31249060822E+02 -0.21828773996E+02  0.50528856663E+02  0.29999990313E+02 0.  0.
        -12    1    1    2    0    0  0.14148030268E+02  0.31249060822E+02  0.21828773996E+02  0.40659143337E+02  0.00000000000E+00 0.  1.
         11    1    3    3    0    0  0.22930804092E+01 -0.72223712655E+01 -0.35299467995E+01  0.83595089048E+01  0.51100000000E-03 0.  1.
        -11    1    3    3    0    0 -0.12901917691E+01 -0.33568185005E+01 -0.16044283323E+02  0.16442379781E+02  0.51100000000E-03 0. -1.
        -12    1    3    3    0    0 -0.15150918908E+02 -0.20669871056E+02 -0.22545438739E+01  0.25726967977E+02  0.00000000000E+00 0.  1.
</event>
<event>
 7    1  0.3449452E-011  0.5052885E+02  0.7816164E-02  0.1300439E+00
        -11   -1    0    0    0    0  0.00000000000E+00  0.00000000000E+00  0.45593999997E+02  0.45594000000E+02  0.51100000000E-03 0. -1.
         11   -1    0    0    0    0 -0.00000000000E+00 -0.00000000000E+00 -0.45593999997E+02  0.45594000000E+02  0.51100000000E-03 0.  1.
    9900012    2    1    2    0    0  0.86900206593E+01 -0.35716964420E+02 -0.17376655836E+02  0.50528853741E+02  0.29999981431E+02 0.  0.
        -12    1    1    2    0    0 -0.86900206593E+01  0.35716964420E+02  0.17376655836E+02  0.40659146259E+02  0.00000000000E+00 0.  1.
         11    1    3    3    0    0  0.10026852440E+02 -0.11744897158E+02 -0.51077546346E+01  0.16265593649E+02  0.51100000000E-03 0. -1.
        -11    1    3    3    0    0  0.91753883290E+01 -0.91636591314E+01 -0.90663990712E+01  0.15822768154E+02  0.51100000000E-03 0.  1.
        -12    1    3    3    0    0 -0.10512220110E+02 -0.14808408131E+02 -0.32025021306E+01  0.18440491938E+02  0.00000000000E+00 0.  1.
</event>
<event>
 7    1  0.3449452E-011  0.5052886E+02  0.7816164E-02  0.1300439E+00
        -11   -1    0    0    0    0  0.00000000000E+00  0.00000000000E+00  0.45593999997E+02  0.45594000000E+02  0.51100000000E-03 0. -1.
         11   -1    0    0    0    0 -0.00000000000E+00 -0.00000000000E+00 -0.45593999997E+02  0.45594000000E+02  0.51100000000E-03 0.  1.
    9900012    2    1    2    0    0  0.19594538394E+02  0.21405696302E+02  0.28478345730E+02  0.50528856569E+02  0.29999990026E+02 0.  0.
        -12    1    1    2    0    0 -0.19594538394E+02 -0.21405696302E+02 -0.28478345730E+02  0.40659143431E+02  0.00000000000E+00 0.  1.
         11    1    3    3    0    0  0.12643090022E+00  0.91790323204E+01  0.46321166236E+01  0.10282369561E+02  0.51100000000E-03 0. -1.
        -11    1    3    3    0    0  0.82583622631E+01  0.79749230228E+01 -0.20939118260E+01  0.11669807688E+02  0.51100000000E-03 0.  1.
         12    1    3    3    0    0  0.11209745231E+02  0.42517409584E+01  0.25940140933E+02  0.28576679319E+02  0.00000000000E+00 0. -1.
</event>
<event>
 7    1  0.3449452E-011  0.5052886E+02  0.7816164E-02  0.1300439E+00
        -11   -1    0    0    0    0  0.00000000000E+00  0.00000000000E+00  0.45593999997E+02  0.45594000000E+02  0.51100000000E-03 0.  1.
         11   -1    0    0    0    0 -0.00000000000E+00 -0.00000000000E+00 -0.45593999997E+02  0.45594000000E+02  0.51100000000E-03 0. -1.
    9900012    2    1    2    0    0 -0.55386896768E+01 -0.65732964645E+00 -0.40274761936E+02  0.50528860626E+02  0.30000002359E+02 0.  0.
        -12    1    1    2    0    0  0.55386896768E+01  0.65732964645E+00  0.40274761936E+02  0.40659139374E+02  0.00000000000E+00 0.  1.
         11    1    3    3    0    0  0.68280395305E+01 -0.43945187308E+01 -0.11107372613E+02  0.13758911488E+02  0.51100000000E-03 0. -1.
        -11    1    3    3    0    0 -0.33061455290E+01  0.53825791410E+01 -0.14167261148E+00  0.63184513813E+01  0.51100000000E-03 0.  1.
         12    1    3    3    0    0 -0.90605836783E+01 -0.16453900566E+01 -0.29025716711E+02  0.30451497757E+02  0.00000000000E+00 0. -1.
</event>
<event>
 7    1  0.3449452E-011  0.5052886E+02  0.7816164E-02  0.1300439E+00
        -11   -1    0    0    0    0  0.00000000000E+00  0.00000000000E+00  0.45593999997E+02  0.45594000000E+02  0.51100000000E-03 0.  1.
         11   -1    0    0    0    0 -0.00000000000E+00 -0.00000000000E+00 -0.45593999997E+02  0.45594000000E+02  0.51100000000E-03 0. -1.
    9900012    2    1    2    0    0  0.35440274933E+02  0.86678951683E+01 -0.17944917182E+02  0.50528861462E+02  0.30000004900E+02 0.  0.
        -12    1    1    2    0    0 -0.35440274933E+02 -0.86678951683E+01  0.17944917182E+02  0.40659138538E+02  0.00000000000E+00 0.  1.
         11    1    3    3    0    0  0.23553800973E+02  0.49580720353E+01 -0.83689058650E+01  0.25483378980E+02  0.51100000000E-03 0.  1.
        -11    1    3    3    0    0  0.31962158049E+01  0.10669712925E+02 -0.13864065583E+01  0.11224112115E+02  0.51100000000E-03 0. -1.
         12    1    3    3    0    0  0.86902581547E+01 -0.69598897918E+01 -0.81896047592E+01  0.13821370367E+02  0.00000000000E+00 0. -1.
</event>
<event>
 7    1  0.3449452E-011  0.5052885E+02  0.7816164E-02  0.1300439E+00
        -11   -1    0    0    0    0  0.00000000000E+00  0.00000000000E+00  0.45593999997E+02  0.45594000000E+02  0.51100000000E-03 0.  1.
         11   -1    0    0    0    0 -0.00000000000E+00 -0.00000000000E+00 -0.45593999997E+02  0.45594000000E+02  0.51100000000E-03 0. -1.
    9900012    2    1    2    0    0 -0.29009177187E+01 -0.26926339599E+02 -0.30326935870E+02  0.50528854324E+02  0.29999983204E+02 0.  0.
        -12    1    1    2    0    0  0.29009177187E+01  0.26926339599E+02  0.30326935870E+02  0.40659145676E+02  0.00000000000E+00 0.  1.
         11    1    3    3    0    0  0.66098064423E+01 -0.73907516833E+01 -0.74050401073E+01  0.12375272559E+02  0.51100000000E-03 0. -1.
        -11    1    3    3    0    0 -0.34759585963E+00 -0.16577331432E+01  0.41266808411E+01  0.44607619395E+01  0.51100000000E-03 0.  1.
         12    1    3    3    0    0 -0.91631283014E+01 -0.17877854772E+02 -0.27048576604E+02  0.33692819826E+02  0.00000000000E+00 0. -1.
</event>
<event>
 7    1  0.3449452E-011  0.5052886E+02  0.7816164E-02  0.1300439E+00
        -11   -1    0    0    0    0  0.00000000000E+00  0.00000000000E+00  0.45593999997E+02  0.45594000000E+02  0.51100000000E-03 0.  1.
         11   -1    0    0    0    0 -0.00000000000E+00 -0.00000000000E+00 -0.45593999997E+02  0.45594000000E+02  0.51100000000E-03 0. -1.
    9900012    2    1    2    0    0 -0.27665802343E+02 -0.22799620133E+02 -0.19181918334E+02  0.50528864637E+02  0.30000014551E+02 0.  0.
        -12    1    1    2    0    0  0.27665802343E+02  0.22799620133E+02  0.19181918334E+02  0.40659135363E+02  0.00000000000E+00 0.  1.
         11    1    3    3    0    0  0.38694985051E+00 -0.20884721701E+01  0.15185067722E+01  0.26109977538E+01  0.51100000000E-03 0.  1.
        -11    1    3    3    0    0 -0.95035836075E+01 -0.35008431024E+01 -0.20214483792E+02  0.22609718243E+02  0.51100000000E-03 0. -1.
         12    1    3    3    0    0 -0.18549168586E+02 -0.17210304861E+02 -0.48594131444E+00  0.25308148640E+02  0.00000000000E+00 0. -1.
</event>
<event>
 7    1  0.3449452E-011  0.5052886E+02  0.7816164E-02  0.1300439E+00
        -11   -1    0    0    0    0  0.00000000000E+00  0.00000000000E+00  0.45593999997E+02  0.45594000000E+02  0.51100000000E-03 0.  1.
         11   -1    0    0    0    0 -0.00000000000E+00 -0.00000000000E+00 -0.45593999997E+02  0.45594000000E+02  0.51100000000E-03 0. -1.
    9900012    2    1    2    0    0 -0.18396989472E+02  0.15569407407E+02 -0.32746145264E+02  0.50528859597E+02  0.29999999231E+02 0.  0.
        -12    1    1    2    0    0  0.18396989472E+02 -0.15569407407E+02  0.32746145264E+02  0.40659140403E+02  0.00000000000E+00 0.  1.
         11    1    3    3    0    0  0.17081699380E+01  0.95803390298E+01 -0.25197694059E+02  0.27011562832E+02  0.51100000000E-03 0. -1.
        -11    1    3    3    0    0 -0.11811941587E+01  0.15071115874E+01  0.11276951338E+01  0.22222289606E+01  0.51100000000E-03 0.  1.
         12    1    3    3    0    0 -0.18923965251E+02  0.44819567896E+01 -0.86761463387E+01  0.21295067804E+02  0.00000000000E+00 0. -1.
</event>
<event>
 7    1  0.3449452E-011  0.5052886E+02  0.7816164E-02  0.1300439E+00
        -11   -1    0    0    0    0  0.00000000000E+00  0.00000000000E+00  0.45593999997E+02  0.45594000000E+02  0.51100000000E-03 0.  1.
         11   -1    0    0    0    0 -0.00000000000E+00 -0.00000000000E+00 -0.45593999997E+02  0.45594000000E+02  0.51100000000E-03 0. -1.
    9900012    2    1    2    0    0  0.39701581323E+02 -0.50940670796E+01 -0.71414620966E+01  0.50528861300E+02  0.30000004408E+02 0.  0.
        -12    1    1    2    0    0 -0.39701581323E+02  0.50940670796E+01  0.71414620966E+01  0.40659138700E+02  0.00000000000E+00 0.  1.
         11    1    3    3    0    0  0.14741657475E+02  0.78294824287E+01 -0.90945514346E+01  0.19008632940E+02  0.51100000000E-03 0.  1.
        -11    1    3    3    0    0  0.15549917793E+02 -0.30266896536E+01 -0.44246009939E+01  0.16448035988E+02  0.51100000000E-03 0. -1.
        -12    1    3    3    0    0  0.94100060547E+01 -0.98968598547E+01  0.63776903319E+01  0.15072192372E+02  0.00000000000E+00 0.  1.
</event>
<event>
 7    1  0.3449452E-011  0.5052885E+02  0.7816164E-02  0.1300439E+00
        -11   -1    0    0    0    0  0.00000000000E+00  0.00000000000E+00  0.45593999997E+02  0.45594000000E+02  0.51100000000E-03 0.  1.
         11   -1    0    0    0    0 -0.00000000000E+00 -0.00000000000E+00 -0.45593999997E+02  0.45594000000E+02  0.51100000000E-03 0. -1.
    9900012    2    1    2    0    0  0.21159874686E+01  0.13696095235E+02 -0.38224412136E+02  0.50528854524E+02  0.29999983812E+02 0.  0.
        -12    1    1    2    0    0 -0.21159874686E+01 -0.13696095235E+02  0.38224412136E+02  0.40659145476E+02  0.00000000000E+00 0.  1.
         11    1    3    3    0    0 -0.84225887610E+01  0.40310170614E+01 -0.24945051389E+02  0.26635402927E+02  0.51100000000E-03 0.  1.
        -11    1    3    3    0    0  0.79345096876E+01  0.13212447733E+02 -0.11023014327E+02  0.18948141444E+02  0.51100000000E-03 0. -1.
        -12    1    3    3    0    0  0.26040665421E+01 -0.35473695592E+01 -0.22563464202E+01  0.49453101534E+01  0.00000000000E+00 0.  1.
</event>
<event>
 7    1  0.3449452E-011  0.5052886E+02  0.7816164E-02  0.1300439E+00
        -11   -1    0    0    0    0  0.00000000000E+00  0.00000000000E+00  0.45593999997E+02  0.45594000000E+02  0.51100000000E-03 0.  1.
         11   -1    0    0    0    0 -0.00000000000E+00 -0.00000000000E+00 -0.45593999997E+02  0.45594000000E+02  0.51100000000E-03 0. -1.
    9900012    2    1    2    0    0  0.84999295543E+00  0.40426409043E+02 -0.42601232060E+01  0.50528859750E+02  0.29999999695E+02 0.  0.
        -12    1    1    2    0    0 -0.84999295543E+00 -0.40426409043E+02  0.42601232060E+01  0.40659140250E+02  0.00000000000E+00 0.  1.
         11    1    3    3    0    0 -0.34953221027E+01 -0.26691717274E+01 -0.61889831359E+00  0.44412599221E+01  0.51100000000E-03 0. -1.
        -11    1    3    3    0    0 -0.21177782414E+01  0.22475853782E+02  0.44568312735E+01  0.23011134982E+02  0.51100000000E-03 0.  1.
        -12    1    3    3    0    0  0.64630932995E+01  0.20619726989E+02 -0.80980561660E+01  0.23076464846E+02  0.00000000000E+00 0.  1.
</event>
<event>
 7    1  0.3449452E-011  0.5052886E+02  0.7816164E-02  0.1300439E+00
        -11   -1    0    0    0    0  0.00000000000E+00  0.00000000000E+00  0.45593999997E+02  0.45594000000E+02  0.51100000000E-03 0. -1.
         11   -1    0    0    0    0 -0.00000000000E+00 -0.00000000000E+00 -0.45593999997E+02  0.45594000000E+02  0.51100000000E-03 0.  1.
    9900012    2    1    2    0    0 -0.20590257434E+02 -0.30168910305E+02  0.17861787002E+02  0.50528864678E+02  0.30000014677E+02 0.  0.
        -12    1    1    2    0    0  0.20590257434E+02  0.30168910305E+02 -0.17861787002E+02  0.40659135322E+02  0.00000000000E+00 0.  1.
         11    1    3    3    0    0 -0.94566071855E+01 -0.16627920855E+02  0.21711749509E+02  0.28936399887E+02  0.51100000000E-03 0. -1.
        -11    1    3    3    0    0  0.25477686680E+01 -0.23209555067E+01  0.15930612065E+00  0.34501214980E+01  0.51100000000E-03 0.  1.
         12    1    3    3    0    0 -0.13681418916E+02 -0.11220033943E+02 -0.40092686276E+01  0.18142343293E+02  0.00000000000E+00 0. -1.
</event>
<event>
 7    1  0.3449452E-011  0.5052884E+02  0.7816164E-02  0.1300439E+00
        -11   -1    0    0    0    0  0.00000000000E+00  0.00000000000E+00  0.45593999997E+02  0.45594000000E+02  0.51100000000E-03 0. -1.
         11   -1    0    0    0    0 -0.00000000000E+00 -0.00000000000E+00 -0.45593999997E+02  0.45594000000E+02  0.51100000000E-03 0.  1.
    9900012    2    1    2    0    0 -0.16368485930E+02 -0.19093271378E+02  0.31948197373E+02  0.50528835486E+02  0.29999925944E+02 0.  0.
        -12    1    1    2    0    0  0.16368485930E+02  0.19093271378E+02 -0.31948197373E+02  0.40659164514E+02  0.00000000000E+00 0.  1.
         11    1    3    3    0    0  0.25488420710E+01 -0.72268322397E+00  0.46870155361E+01  0.53839559658E+01  0.51100000000E-03 0. -1.
        -11    1    3    3    0    0 -0.19102054457E+02 -0.23691108581E+02  0.24898669186E+02  0.39320488779E+02  0.51100000000E-03 0.  1.
         12    1    3    3    0    0  0.18472645602E+00  0.53205204276E+01  0.23625126511E+01  0.58243907416E+01  0.00000000000E+00 0. -1.
</event>
<event>
 7    1  0.3449452E-011  0.5052886E+02  0.7816164E-02  0.1300439E+00
        -11   -1    0    0    0    0  0.00000000000E+00  0.00000000000E+00  0.45593999997E+02  0.45594000000E+02  0.51100000000E-03 0. -1.
         11   -1    0    0    0    0 -0.00000000000E+00 -0.00000000000E+00 -0.45593999997E+02  0.45594000000E+02  0.51100000000E-03 0.  1.
    9900012    2    1    2    0    0  0.93686933543E+00 -0.18855410927E+02  0.36010569919E+02  0.50528863373E+02  0.30000010708E+02 0.  0.
        -12    1    1    2    0    0 -0.93686933543E+00  0.18855410927E+02 -0.36010569919E+02  0.40659136627E+02  0.00000000000E+00 0.  1.
         11    1    3    3    0    0 -0.26134528425E+01  0.93737743765E+00  0.39508965088E+01  0.48289124764E+01  0.51100000000E-03 0. -1.
        -11    1    3    3    0    0 -0.30290053512E+01  0.55298887523E+01  0.76982914910E+01  0.99507906808E+01  0.51100000000E-03 0.  1.
        -12    1    3    3    0    0  0.65793275291E+01 -0.25322677117E+02  0.24361381919E+02  0.35749160216E+02  0.00000000000E+00 0.  1.
</event>
<event>
 7    1  0.3449452E-011  0.5052887E+02  0.7816164E-02  0.1300439E+00
        -11   -1    0    0    0    0  0.00000000000E+00  0.00000000000E+00  0.45593999997E+02  0.45594000000E+02  0.51100000000E-03 0. -1.
         11   -1    0    0    0    0 -0.00000000000E+00 -0.00000000000E+00 -0.45593999997E+02  0.45594000000E+02  0.51100000000E-03 0.  1.
    9900012    2    1    2    0    0 -0.22381426830E+02  0.20342231926E+02  0.27174065086E+02  0.50528874580E+02  0.30000044773E+02 0.  0.
        -12    1    1    2    0    0  0.22381426830E+02 -0.20342231926E+02 -0.27174065086E+02  0.40659125420E+02  0.00000000000E+00 0.  1.
         11    1    3    3    0    0 -0.36281948796E+01  0.83233798044E+01  0.10318610344E+02  0.13744677848E+02  0.51100000000E-03 0. -1.
        -11    1    3    3    0    0 -0.10133947780E+02  0.17489776477E+02  0.17241401580E+02  0.26567933821E+02  0.51100000000E-03 0.  1.
        -12    1    3    3    0    0 -0.86192841702E+01 -0.54709243551E+01 -0.38594683811E+00  0.10216262911E+02  0.00000000000E+00 0.  1.
</event>
<event>
 7    1  0.3449452E-011  0.5052884E+02  0.7816164E-02  0.1300439E+00
        -11   -1    0    0    0    0  0.00000000000E+00  0.00000000000E+00  0.45593999997E+02  0.45594000000E+02  0.51100000000E-03 0.  1.
         11   -1    0    0    0    0 -0.00000000000E+00 -0.00000000000E+00 -0.45593999997E+02  0.45594000000E+02  0.51100000000E-03 0. -1.
    9900012    2    1    2    0    0  0.31750023461E+02 -0.34176307375E+01 -0.25167892036E+02  0.50528843846E+02  0.29999951354E+02 0.  0.
        -12    1    1    2    0    0 -0.31750023461E+02  0.34176307375E+01  0.25167892036E+02  0.40659156154E+02  0.00000000000E+00 0.  1.
         11    1    3    3    0    0  0.10548911258E+00  0.33557239875E+00 -0.98007129827E+01  0.98070236065E+01  0.51100000000E-03 0. -1.
        -11    1    3    3    0    0  0.17149907628E+02  0.57693902470E+01 -0.86571184929E+00  0.18115039407E+02  0.51100000000E-03 0.  1.
         12    1    3    3    0    0  0.14494626721E+02 -0.95225933833E+01 -0.14501467204E+02  0.22606780832E+02  0.00000000000E+00 0. -1.
</event>
<event>
 7    1  0.3449452E-011  0.5052886E+02  0.7816164E-02  0.1300439E+00
        -11   -1    0    0    0    0  0.00000000000E+00  0.00000000000E+00  0.45593999997E+02  0.45594000000E+02  0.51100000000E-03 0.  1.
         11   -1    0    0    0    0 -0.00000000000E+00 -0.00000000000E+00 -0.45593999997E+02  0.45594000000E+02  0.51100000000E-03 0. -1.
    9900012    2    1    2    0    0 -0.47254540505E+01  0.89230679203E+01 -0.39385459410E+02  0.50528862404E+02  0.30000007763E+02 0.  0.
        -12    1    1    2    0    0  0.47254540505E+01 -0.89230679203E+01  0.39385459410E+02  0.40659137596E+02  0.00000000000E+00 0.  1.
         11    1    3    3    0    0 -0.28227841816E+01  0.83851222925E+01 -0.10918292090E+02  0.14053024188E+02  0.51100000000E-03 0. -1.
        -11    1    3    3    0    0 -0.15669781805E+01  0.37782866532E+01  0.28527931363E+01  0.49869128318E+01  0.51100000000E-03 0.  1.
         12    1    3    3    0    0 -0.33569168840E+00 -0.32403410254E+01 -0.31319960457E+02  0.31488925385E+02  0.00000000000E+00 0. -1.
</event>
<event>
 7    1  0.3449452E-011  0.5052885E+02  0.7816164E-02  0.1300439E+00
        -11   -1    0    0    0    0  0.00000000000E+00  0.00000000000E+00  0.45593999997E+02  0.45594000000E+02  0.51100000000E-03 0.  1.
         11   -1    0    0    0    0 -0.00000000000E+00 -0.00000000000E+00 -0.45593999997E+02  0.45594000000E+02  0.51100000000E-03 0. -1.
    9900012    2    1    2    0    0  0.38546404443E+02 -0.66011274262E+01 -0.11125031583E+02  0.50528849658E+02  0.29999969020E+02 0.  0.
        -12    1    1    2    0    0 -0.38546404443E+02  0.66011274262E+01  0.11125031583E+02  0.40659150342E+02  0.00000000000E+00 0.  1.
         11    1    3    3    0    0  0.15133429868E+02  0.25673575419E+01 -0.98171567122E+01  0.18220554066E+02  0.51100000000E-03 0. -1.
        -11    1    3    3    0    0  0.24925226774E+02 -0.93357829071E+01  0.38839552770E+01  0.26898120401E+02  0.51100000000E-03 0.  1.
         12    1    3    3    0    0 -0.15122521987E+01  0.16729793898E+00 -0.51918301476E+01  0.54101751908E+01  0.00000000000E+00 0. -1.
</event>
<event>
 7    1  0.3449452E-011  0.5052886E+02  0.7816164E-02  0.1300439E+00
        -11   -1    0    0    0    0  0.00000000000E+00  0.00000000000E+00  0.45593999997E+02  0.45594000000E+02  0.51100000000E-03 0. -1.
         11   -1    0    0    0    0 -0.00000000000E+00 -0.00000000000E+00 -0.45593999997E+02  0.45594000000E+02  0.51100000000E-03 0.  1.
    9900012    2    1    2    0    0 -0.40625622616E+02  0.40878871320E+00 -0.15991909728E+01  0.50528859172E+02  0.29999997938E+02 0.  0.
        -12    1    1    2    0    0  0.40625622616E+02 -0.40878871320E+00  0.15991909728E+01  0.40659140828E+02  0.00000000000E+00 0.  1.
         11    1    3    3    0    0 -0.20033223244E+02 -0.23149730539E+01  0.78386369525E+01  0.21636389794E+02  0.51100000000E-03 0. -1.
        -11    1    3    3    0    0 -0.76027420885E+01  0.98810859299E+01 -0.39392759972E+01  0.13074993004E+02  0.51100000000E-03 0.  1.
         12    1    3    3    0    0 -0.12989657284E+02 -0.71573241627E+01 -0.54985519281E+01  0.15817476373E+02  0.00000000000E+00 0. -1.
</event>
<event>
 7    1  0.3449452E-011  0.5052885E+02  0.7816164E-02  0.1300439E+00
        -11   -1    0    0    0    0  0.00000000000E+00  0.00000000000E+00  0.45593999997E+02  0.45594000000E+02  0.51100000000E-03 0.  1.
         11   -1    0    0    0    0 -0.00000000000E+00 -0.00000000000E+00 -0.45593999997E+02  0.45594000000E+02  0.51100000000E-03 0. -1.
    9900012    2    1    2    0    0  0.34433278754E+02 -0.79786594049E+01 -0.20096179899E+02  0.50528854188E+02  0.29999982789E+02 0.  0.
        -12    1    1    2    0    0 -0.34433278754E+02  0.79786594049E+01  0.20096179899E+02  0.40659145812E+02  0.00000000000E+00 0.  1.
         11    1    3    3    0    0  0.30834789049E+02 -0.32618439351E+01 -0.12182924311E+02  0.33314373573E+02  0.51100000000E-03 0. -1.
        -11    1    3    3    0    0  0.88650733575E+01 -0.31419505529E+01 -0.30858493843E+01  0.98986789823E+01  0.51100000000E-03 0.  1.
        -12    1    3    3    0    0 -0.52665836523E+01 -0.15748649169E+01 -0.48274062037E+01  0.73158016326E+01  0.00000000000E+00 0.  1.
</event>
<event>
 7    1  0.3449452E-011  0.5052886E+02  0.7816164E-02  0.1300439E+00
        -11   -1    0    0    0    0  0.00000000000E+00  0.00000000000E+00  0.45593999997E+02  0.45594000000E+02  0.51100000000E-03 0.  1.
         11   -1    0    0    0    0 -0.00000000000E+00 -0.00000000000E+00 -0.45593999997E+02  0.45594000000E+02  0.51100000000E-03 0. -1.
    9900012    2    1    2    0    0 -0.81851320028E+01  0.35631521190E+02 -0.17792253086E+02  0.50528856402E+02  0.29999989521E+02 0.  0.
        -12    1    1    2    0    0  0.81851320028E+01 -0.35631521190E+02  0.17792253086E+02  0.40659143598E+02  0.00000000000E+00 0.  1.
         11    1    3    3    0    0 -0.78509976965E+01  0.29289036210E+02 -0.13321041821E+02  0.33120023587E+02  0.51100000000E-03 0. -1.
        -11    1    3    3    0    0  0.23236930605E+01  0.84720468031E+01 -0.84377701402E+01  0.12180767286E+02  0.51100000000E-03 0.  1.
        -12    1    3    3    0    0 -0.26578273667E+01 -0.21295618239E+01  0.39665588747E+01  0.52280655294E+01  0.00000000000E+00 0.  1.
</event>
<event>
 7    1  0.3449452E-011  0.5052886E+02  0.7816164E-02  0.1300439E+00
        -11   -1    0    0    0    0  0.00000000000E+00  0.00000000000E+00  0.45593999997E+02  0.45594000000E+02  0.51100000000E-03 0.  1.
         11   -1    0    0    0    0 -0.00000000000E+00 -0.00000000000E+00 -0.45593999997E+02  0.45594000000E+02  0.51100000000E-03 0. -1.
    9900012    2    1    2    0    0  0.17258217606E+02  0.10601636257E+02 -0.35255139553E+02  0.50528860423E+02  0.30000001740E+02 0.  0.
        -12    1    1    2    0    0 -0.17258217606E+02 -0.10601636257E+02  0.35255139553E+02  0.40659139577E+02  0.00000000000E+00 0.  1.
         11    1    3    3    0    0 -0.37209366229E+00 -0.79781518682E+01 -0.65139959429E+01  0.10306381728E+02  0.51100000000E-03 0. -1.
        -11    1    3    3    0    0 -0.75912192556E+00  0.36603994797E+01 -0.12572141550E+01  0.39440306974E+01  0.51100000000E-03 0.  1.
         12    1    3    3    0    0  0.18389433194E+02  0.14919388645E+02 -0.27483929455E+02  0.36278447997E+02  0.00000000000E+00 0. -1.
</event>
<event>
 7    1  0.3449452E-011  0.5052885E+02  0.7816164E-02  0.1300439E+00
        -11   -1    0    0    0    0  0.00000000000E+00  0.00000000000E+00  0.45593999997E+02  0.45594000000E+02  0.51100000000E-03 0.  1.
         11   -1    0    0    0    0 -0.00000000000E+00 -0.00000000000E+00 -0.45593999997E+02  0.45594000000E+02  0.51100000000E-03 0. -1.
    9900012    2    1    2    0    0 -0.24807957975E+02  0.12949229608E+02 -0.29496591976E+02  0.50528852634E+02  0.29999978068E+02 0.  0.
        -12    1    1    2    0    0  0.24807957975E+02 -0.12949229608E+02  0.29496591976E+02  0.40659147366E+02  0.00000000000E+00 0.  1.
         11    1    3    3    0    0 -0.20436072373E+02  0.10369155767E+02 -0.15996954908E+02  0.27947361449E+02  0.51100000000E-03 0. -1.
        -11    1    3    3    0    0 -0.53482770147E+01 -0.58201112720E+01 -0.17344948310E+01  0.80923565680E+01  0.51100000000E-03 0.  1.
        -12    1    3    3    0    0  0.97639141296E+00  0.84001851126E+01 -0.11765142237E+02  0.14489134618E+02  0.00000000000E+00 0.  1.
</event>
<event>
 7    1  0.4889436E-011  0.5052891E+02  0.7816164E-02  0.1300439E+00
        -11   -1    0    0    0    0  0.00000000000E+00  0.00000000000E+00  0.45593999997E+02  0.45594000000E+02  0.51100000000E-03 0.  1.
         11   -1    0    0    0    0 -0.00000000000E+00 -0.00000000000E+00 -0.45593999997E+02  0.45594000000E+02  0.51100000000E-03 0. -1.
    9900012    2    1    2    0    0  0.26692732362E+02 -0.27482422288E+02  0.13615297344E+02  0.50528907320E+02  0.30000144290E+02 0.  0.
        -12    1    1    2    0    0 -0.26692732362E+02  0.27482422288E+02 -0.13615297344E+02  0.40659092680E+02  0.00000000000E+00 0.  1.
         11    1    3    3    0    0  0.99181767361E+01 -0.18661398998E+02  0.59646489316E-01  0.21133423771E+02  0.51100000000E-03 0. -1.
        -11    1    3    3    0    0 -0.32206989614E+01 -0.74898339744E+00  0.54192122949E+01  0.63483651508E+01  0.51100000000E-03 0.  1.
        -12    1    3    3    0    0  0.19995254587E+02 -0.80720398933E+01  0.81364385598E+01  0.23047118398E+02  0.00000000000E+00 0.  1.
</event>
<event>
 7    1  0.3449452E-011  0.5052886E+02  0.7816164E-02  0.1300439E+00
        -11   -1    0    0    0    0  0.00000000000E+00  0.00000000000E+00  0.45593999997E+02  0.45594000000E+02  0.51100000000E-03 0.  1.
         11   -1    0    0    0    0 -0.00000000000E+00 -0.00000000000E+00 -0.45593999997E+02  0.45594000000E+02  0.51100000000E-03 0. -1.
    9900012    2    1    2    0    0 -0.11046854390E+02  0.22132425693E+02 -0.32269000835E+02  0.50528859898E+02  0.30000000145E+02 0.  0.
        -12    1    1    2    0    0  0.11046854390E+02 -0.22132425693E+02  0.32269000835E+02  0.40659140102E+02  0.00000000000E+00 0.  1.
         11    1    3    3    0    0  0.26175448608E+01  0.68422101787E+01 -0.93411553173E+01  0.11871165240E+02  0.51100000000E-03 0. -1.
        -11    1    3    3    0    0 -0.11886840979E+02  0.25557748904E+01 -0.22753890157E+02  0.25798614135E+02  0.51100000000E-03 0.  1.
         12    1    3    3    0    0 -0.17775582717E+01  0.12734440624E+02 -0.17395535998E+00  0.12859080523E+02  0.00000000000E+00 0. -1.
</event>
<event>
 7    1  0.3449452E-011  0.5052886E+02  0.7816164E-02  0.1300439E+00
        -11   -1    0    0    0    0  0.00000000000E+00  0.00000000000E+00  0.45593999997E+02  0.45594000000E+02  0.51100000000E-03 0.  1.
         11   -1    0    0    0    0 -0.00000000000E+00 -0.00000000000E+00 -0.45593999997E+02  0.45594000000E+02  0.51100000000E-03 0. -1.
    9900012    2    1    2    0    0 -0.40628250995E+02  0.83317162977E+00  0.13477318722E+01  0.50528864064E+02  0.30000012809E+02 0.  0.
        -12    1    1    2    0    0  0.40628250995E+02 -0.83317162977E+00 -0.13477318722E+01  0.40659135936E+02  0.00000000000E+00 0.  1.
         11    1    3    3    0    0 -0.23735650169E+01  0.90848470207E+00 -0.62311813482E+01  0.67295450514E+01  0.51100000000E-03 0. -1.
        -11    1    3    3    0    0 -0.20154534538E+02 -0.28405121708E+01 -0.57514154491E+01  0.21150710432E+02  0.51100000000E-03 0.  1.
        -12    1    3    3    0    0 -0.18100151440E+02  0.27651990985E+01  0.13330328669E+02  0.22648608580E+02  0.00000000000E+00 0.  1.
</event>
<event>
 7    1  0.3449452E-011  0.5052884E+02  0.7816164E-02  0.1300439E+00
        -11   -1    0    0    0    0  0.00000000000E+00  0.00000000000E+00  0.45593999997E+02  0.45594000000E+02  0.51100000000E-03 0. -1.
         11   -1    0    0    0    0 -0.00000000000E+00 -0.00000000000E+00 -0.45593999997E+02  0.45594000000E+02  0.51100000000E-03 0.  1.
    9900012    2    1    2    0    0  0.35708826671E+02  0.12017062805E+02  0.15285184157E+02  0.50528844138E+02  0.29999952243E+02 0.  0.
        -12    1    1    2    0    0 -0.35708826671E+02 -0.12017062805E+02 -0.15285184157E+02  0.40659155862E+02  0.00000000000E+00 0.  1.
         11    1    3    3    0    0  0.51162831846E+01 -0.58897439983E+01  0.40648840059E+01  0.87970858944E+01  0.51100000000E-03 0. -1.
        -11    1    3    3    0    0  0.17627158149E+01  0.39090975923E+01 -0.43439567439E+01  0.61039472053E+01  0.51100000000E-03 0.  1.
         12    1    3    3    0    0  0.28829827671E+02  0.13997709211E+02  0.15564256895E+02  0.35627811039E+02  0.00000000000E+00 0. -1.
</event>
<event>
 7    1  0.3449452E-011  0.5052885E+02  0.7816164E-02  0.1300439E+00
        -11   -1    0    0    0    0  0.00000000000E+00  0.00000000000E+00  0.45593999997E+02  0.45594000000E+02  0.51100000000E-03 0.  1.
         11   -1    0    0    0    0 -0.00000000000E+00 -0.00000000000E+00 -0.45593999997E+02  0.45594000000E+02  0.51100000000E-03 0. -1.
    9900012    2    1    2    0    0  0.13597108381E+02 -0.29489064113E+02 -0.24467937660E+02  0.50528853035E+02  0.29999979285E+02 0.  0.
        -12    1    1    2    0    0 -0.13597108381E+02  0.29489064113E+02  0.24467937660E+02  0.40659146965E+02  0.00000000000E+00 0.  1.
         11    1    3    3    0    0 -0.53661703346E+00 -0.16136130879E+02 -0.22726893327E+02  0.27877847085E+02  0.51100000000E-03 0. -1.
        -11    1    3    3    0    0 -0.20052115779E+01 -0.20425640298E+01 -0.48772709957E+00  0.29035873110E+01  0.51100000000E-03 0.  1.
        -12    1    3    3    0    0  0.16138936992E+02 -0.11310369205E+02 -0.12533172339E+01  0.19747418638E+02  0.00000000000E+00 0.  1.
</event>
<event>
 7    1  0.3449452E-011  0.5052886E+02  0.7816164E-02  0.1300439E+00
        -11   -1    0    0    0    0  0.00000000000E+00  0.00000000000E+00  0.45593999997E+02  0.45594000000E+02  0.51100000000E-03 0.  1.
         11   -1    0    0    0    0 -0.00000000000E+00 -0.00000000000E+00 -0.45593999997E+02  0.45594000000E+02  0.51100000000E-03 0. -1.
    9900012    2    1    2    0    0 -0.28498164346E+02  0.28473655843E+02 -0.55019340770E+01  0.50528859248E+02  0.29999998169E+02 0.  0.
        -12    1    1    2    0    0  0.28498164346E+02 -0.28473655843E+02  0.55019340770E+01  0.40659140752E+02  0.00000000000E+00 0.  1.
         11    1    3    3    0    0 -0.11389742301E+02  0.94704795630E+00 -0.39473439213E+01  0.12091511643E+02  0.51100000000E-03 0. -1.
        -11    1    3    3    0    0  0.35131444960E+01  0.86985205066E+00 -0.30048815038E+01  0.47040556919E+01  0.51100000000E-03 0.  1.
         12    1    3    3    0    0 -0.20621566541E+02  0.26656755836E+02  0.14502913480E+01  0.33733291913E+02  0.00000000000E+00 0. -1.
</event>
<event>
 7    1  0.3449452E-011  0.5052887E+02  0.7816164E-02  0.1300439E+00
        -11   -1    0    0    0    0  0.00000000000E+00  0.00000000000E+00  0.45593999997E+02  0.45594000000E+02  0.51100000000E-03 0.  1.
         11   -1    0    0    0    0 -0.00000000000E+00 -0.00000000000E+00 -0.45593999997E+02  0.45594000000E+02  0.51100000000E-03 0. -1.
    9900012    2    1    2    0    0 -0.58254251744E+01  0.39010262254E+02 -0.98706183309E+01  0.50528865162E+02  0.30000016145E+02 0.  0.
        -12    1    1    2    0    0  0.58254251744E+01 -0.39010262254E+02  0.98706183309E+01  0.40659134838E+02  0.00000000000E+00 0.  1.
         11    1    3    3    0    0  0.48475261112E+01  0.21365098870E+02 -0.13014000971E+02  0.25481957944E+02  0.51100000000E-03 0. -1.
        -11    1    3    3    0    0 -0.77891178021E+01  0.17595742855E+02 -0.17968068137E+01  0.19326381911E+02  0.51100000000E-03 0.  1.
        -12    1    3    3    0    0 -0.28838334834E+01  0.49420528490E-01  0.49401894538E+01  0.57205253070E+01  0.00000000000E+00 0.  1.
</event>
<event>
 7    1  0.3449452E-011  0.5052886E+02  0.7816164E-02  0.1300439E+00
        -11   -1    0    0    0    0  0.00000000000E+00  0.00000000000E+00  0.45593999997E+02  0.45594000000E+02  0.51100000000E-03 0.  1.
         11   -1    0    0    0    0 -0.00000000000E+00 -0.00000000000E+00 -0.45593999997E+02  0.45594000000E+02  0.51100000000E-03 0. -1.
    9900012    2    1    2    0    0 -0.23642524033E+02 -0.32331452506E+02  0.69910004861E+01  0.50528857712E+02  0.29999993502E+02 0.  0.
        -12    1    1    2    0    0  0.23642524033E+02  0.32331452506E+02 -0.69910004861E+01  0.40659142288E+02  0.00000000000E+00 0.  1.
         11    1    3    3    0    0 -0.55647188136E+00 -0.88247636854E+01 -0.13104980568E+01  0.89388769135E+01  0.51100000000E-03 0. -1.
        -11    1    3    3    0    0  0.39369978549E+00 -0.97244132662E+01  0.10449159307E+02  0.14279500810E+02  0.51100000000E-03 0.  1.
        -12    1    3    3    0    0 -0.23479751937E+02 -0.13782275554E+02 -0.21476607638E+01  0.27310479989E+02  0.00000000000E+00 0.  1.
</event>
<event>
 7    1  0.3449452E-011  0.5052886E+02  0.7816164E-02  0.1300439E+00
        -11   -1    0    0    0    0  0.00000000000E+00  0.00000000000E+00  0.45593999997E+02  0.45594000000E+02  0.51100000000E-03 0.  1.
         11   -1    0    0    0    0 -0.00000000000E+00 -0.00000000000E+00 -0.45593999997E+02  0.45594000000E+02  0.51100000000E-03 0. -1.
    9900012    2    1    2    0    0  0.35162788030E+02 -0.92231784203E+01 -0.18212003438E+02  0.50528858944E+02  0.29999997246E+02 0.  0.
        -12    1    1    2    0    0 -0.35162788030E+02  0.92231784203E+01  0.18212003438E+02  0.40659141056E+02  0.00000000000E+00 0.  1.
         11    1    3    3    0    0  0.93645427413E+01 -0.11845598370E+02 -0.10606865373E+02  0.18453142139E+02  0.51100000000E-03 0. -1.
        -11    1    3    3    0    0 -0.36142544404E+00  0.17134235952E+01  0.32870892908E+01  0.37244335187E+01  0.51100000000E-03 0.  1.
        -12    1    3    3    0    0  0.26159670732E+02  0.90899635464E+00 -0.10892227356E+02  0.28351283286E+02  0.00000000000E+00 0.  1.
</event>
<event>
 7    1  0.3449452E-011  0.5052885E+02  0.7816164E-02  0.1300439E+00
        -11   -1    0    0    0    0  0.00000000000E+00  0.00000000000E+00  0.45593999997E+02  0.45594000000E+02  0.51100000000E-03 0.  1.
         11   -1    0    0    0    0 -0.00000000000E+00 -0.00000000000E+00 -0.45593999997E+02  0.45594000000E+02  0.51100000000E-03 0. -1.
    9900012    2    1    2    0    0  0.13771703805E+02 -0.14001666623E+02 -0.35601400632E+02  0.50528853171E+02  0.29999979697E+02 0.  0.
        -12    1    1    2    0    0 -0.13771703805E+02  0.14001666623E+02  0.35601400632E+02  0.40659146829E+02  0.00000000000E+00 0.  1.
         11    1    3    3    0    0  0.33295072567E+01 -0.18642851599E+02 -0.17099426405E+02  0.25515327118E+02  0.51100000000E-03 0. -1.
        -11    1    3    3    0    0  0.36819774894E+01 -0.13228721375E+01 -0.14730812150E+02  0.15241514878E+02  0.51100000000E-03 0.  1.
         12    1    3    3    0    0  0.67602190590E+01  0.59640571133E+01 -0.37711620774E+01  0.97720111743E+01  0.00000000000E+00 0. -1.
</event>
<event>
 7    1  0.3449452E-011  0.5052884E+02  0.7816164E-02  0.1300439E+00
        -11   -1    0    0    0    0  0.00000000000E+00  0.00000000000E+00  0.45593999997E+02  0.45594000000E+02  0.51100000000E-03 0.  1.
         11   -1    0    0    0    0 -0.00000000000E+00 -0.00000000000E+00 -0.45593999997E+02  0.45594000000E+02  0.51100000000E-03 0. -1.
    9900012    2    1    2    0    0  0.13552432978E+02  0.30566361183E+02 -0.23134320256E+02  0.50528835605E+02  0.29999926305E+02 0.  0.
        -12    1    1    2    0    0 -0.13552432978E+02 -0.30566361183E+02  0.23134320256E+02  0.40659164395E+02  0.00000000000E+00 0.  1.
         11    1    3    3    0    0  0.79998002738E+01  0.31037235836E+02 -0.22336370465E+02  0.39066869066E+02  0.51100000000E-03 0.  1.
        -11    1    3    3    0    0  0.83823606914E+01  0.60972237714E+00 -0.53402633251E+00  0.84214557247E+01  0.51100000000E-03 0. -1.
        -12    1    3    3    0    0 -0.28297279871E+01 -0.10805970306E+01 -0.26392345857E+00  0.30405108149E+01  0.00000000000E+00 0.  1.
</event>
<event>
 7    1  0.3449452E-011  0.5052884E+02  0.7816164E-02  0.1300439E+00
        -11   -1    0    0    0    0  0.00000000000E+00  0.00000000000E+00  0.45593999997E+02  0.45594000000E+02  0.51100000000E-03 0. -1.
         11   -1    0    0    0    0 -0.00000000000E+00 -0.00000000000E+00 -0.45593999997E+02  0.45594000000E+02  0.51100000000E-03 0.  1.
    9900012    2    1    2    0    0 -0.27894366801E+02  0.19416280369E+02  0.22317699859E+02  0.50528839045E+02  0.29999936760E+02 0.  0.
        -12    1    1    2    0    0  0.27894366801E+02 -0.19416280369E+02 -0.22317699859E+02  0.40659160955E+02  0.00000000000E+00 0.  1.
         11    1    3    3    0    0 -0.10565225423E+01 -0.20426522305E+01  0.42654030718E+01  0.48458571629E+01  0.51100000000E-03 0. -1.
        -11    1    3    3    0    0 -0.30973503223E+00  0.82882466362E+01 -0.35524015670E+01  0.90227781335E+01  0.51100000000E-03 0.  1.
         12    1    3    3    0    0 -0.26528109227E+02  0.13170685963E+02  0.21604698354E+02  0.36660203748E+02  0.00000000000E+00 0. -1.
</event>
<event>
 7    1  0.3449452E-011  0.5052886E+02  0.7816164E-02  0.1300439E+00
        -11   -1    0    0    0    0  0.00000000000E+00  0.00000000000E+00  0.45593999997E+02  0.45594000000E+02  0.51100000000E-03 0.  1.
         11   -1    0    0    0    0 -0.00000000000E+00 -0.00000000000E+00 -0.45593999997E+02  0.45594000000E+02  0.51100000000E-03 0. -1.
    9900012    2    1    2    0    0  0.12045787761E+02 -0.82857878638E+01 -0.37939559869E+02  0.50528862203E+02  0.30000007154E+02 0.  0.
        -12    1    1    2    0    0 -0.12045787761E+02  0.82857878638E+01  0.37939559869E+02  0.40659137797E+02  0.00000000000E+00 0.  1.
         11    1    3    3    0    0  0.17554078153E+02  0.13517296491E-01 -0.27454599312E+02  0.32586820436E+02  0.51100000000E-03 0. -1.
        -11    1    3    3    0    0 -0.37678936152E+01 -0.53881205690E+01 -0.12408522612E+02  0.14042802400E+02  0.51100000000E-03 0.  1.
        -12    1    3    3    0    0 -0.17403967768E+01 -0.29111845913E+01  0.19235620550E+01  0.38992393674E+01  0.00000000000E+00 0.  1.
</event>
<event>
 7    1  0.3449452E-011  0.5052884E+02  0.7816164E-02  0.1300439E+00
        -11   -1    0    0    0    0  0.00000000000E+00  0.00000000000E+00  0.45593999997E+02  0.45594000000E+02  0.51100000000E-03 0.  1.
         11   -1    0    0    0    0 -0.00000000000E+00 -0.00000000000E+00 -0.45593999997E+02  0.45594000000E+02  0.51100000000E-03 0. -1.
    9900012    2    1    2    0    0  0.38932152498E+02  0.11374340922E+02 -0.28423677998E+01  0.50528841324E+02  0.29999943689E+02 0.  0.
        -12    1    1    2    0    0 -0.38932152498E+02 -0.11374340922E+02  0.28423677998E+01  0.40659158676E+02  0.00000000000E+00 0.  1.
         11    1    3    3    0    0  0.11291845002E+02  0.93492804572E+01 -0.90195948110E+01  0.17212434442E+02  0.51100000000E-03 0. -1.
        -11    1    3    3    0    0  0.25004040750E+02 -0.28331463567E+01  0.18574324532E+00  0.25164722787E+02  0.51100000000E-03 0.  1.
         12    1    3    3    0    0  0.26362667456E+01  0.48582068213E+01  0.59914837659E+01  0.81516840953E+01  0.00000000000E+00 0. -1.
</event>
<event>
 7    1  0.3449452E-011  0.5052887E+02  0.7816164E-02  0.1300439E+00
        -11   -1    0    0    0    0  0.00000000000E+00  0.00000000000E+00  0.45593999997E+02  0.45594000000E+02  0.51100000000E-03 0.  1.
         11   -1    0    0    0    0 -0.00000000000E+00 -0.00000000000E+00 -0.45593999997E+02  0.45594000000E+02  0.51100000000E-03 0. -1.
    9900012    2    1    2    0    0 -0.15963438529E+00  0.52097013940E+01 -0.40323666034E+02  0.50528874158E+02  0.30000043492E+02 0.  0.
        -12    1    1    2    0    0  0.15963438529E+00 -0.52097013940E+01  0.40323666034E+02  0.40659125842E+02  0.00000000000E+00 0.  1.
         11    1    3    3    0    0 -0.51898174662E+01  0.38077776076E+01 -0.48424415682E+01  0.80549746271E+01  0.51100000000E-03 0. -1.
        -11    1    3    3    0    0  0.52533544225E+01 -0.15972950454E+01  0.12405168053E+01  0.56292065476E+01  0.51100000000E-03 0.  1.
         12    1    3    3    0    0 -0.22317134162E+00  0.29992188318E+01 -0.36721741271E+02  0.36844692984E+02  0.00000000000E+00 0. -1.
</event>
<event>
 7    1  0.3449452E-011  0.5052886E+02  0.7816164E-02  0.1300439E+00
        -11   -1    0    0    0    0  0.00000000000E+00  0.00000000000E+00  0.45593999997E+02  0.45594000000E+02  0.51100000000E-03 0.  1.
         11   -1    0    0    0    0 -0.00000000000E+00 -0.00000000000E+00 -0.45593999997E+02  0.45594000000E+02  0.51100000000E-03 0. -1.
    9900012    2    1    2    0    0  0.31312279496E+02  0.17395111456E+02 -0.19238425801E+02  0.50528858628E+02  0.29999996286E+02 0.  0.
        -12    1    1    2    0    0 -0.31312279496E+02 -0.17395111456E+02  0.19238425801E+02  0.40659141372E+02  0.00000000000E+00 0.  1.
         11    1    3    3    0    0  0.11262009145E+02  0.16123635078E+01 -0.11919862961E+02  0.16477733440E+02  0.51100000000E-03 0. -1.
        -11    1    3    3    0    0  0.13567114609E+02 -0.10014746699E+00  0.31844408396E+01  0.13936186424E+02  0.51100000000E-03 0.  1.
         12    1    3    3    0    0  0.64831557411E+01  0.15882895416E+02 -0.10503003680E+02  0.20114938763E+02  0.00000000000E+00 0. -1.
</event>
<event>
 7    1  0.3449452E-011  0.5052887E+02  0.7816164E-02  0.1300439E+00
        -11   -1    0    0    0    0  0.00000000000E+00  0.00000000000E+00  0.45593999997E+02  0.45594000000E+02  0.51100000000E-03 0. -1.
         11   -1    0    0    0    0 -0.00000000000E+00 -0.00000000000E+00 -0.45593999997E+02  0.45594000000E+02  0.51100000000E-03 0.  1.
    9900012    2    1    2    0    0  0.38560117196E+02  0.86455564167E+01 -0.95674826237E+01  0.50528868090E+02  0.30000025046E+02 0.  0.
        -12    1    1    2    0    0 -0.38560117196E+02 -0.86455564167E+01  0.95674826237E+01  0.40659131910E+02  0.00000000000E+00 0.  1.
         11    1    3    3    0    0  0.31369093926E+02  0.12902351576E+01 -0.73643916925E+01  0.32247775516E+02  0.51100000000E-03 0. -1.
        -11    1    3    3    0    0  0.98776110612E+01  0.67855821991E+01  0.30390352613E+01  0.12363133164E+02  0.51100000000E-03 0.  1.
        -12    1    3    3    0    0 -0.26865877908E+01  0.56973905999E+00 -0.52421261926E+01  0.59179594095E+01  0.00000000000E+00 0.  1.
</event>
<event>
 7    1  0.3449452E-011  0.5052885E+02  0.7816164E-02  0.1300439E+00
        -11   -1    0    0    0    0  0.00000000000E+00  0.00000000000E+00  0.45593999997E+02  0.45594000000E+02  0.51100000000E-03 0.  1.
         11   -1    0    0    0    0 -0.00000000000E+00 -0.00000000000E+00 -0.45593999997E+02  0.45594000000E+02  0.51100000000E-03 0. -1.
    9900012    2    1    2    0    0  0.68449852068E+01  0.24531772474E+02  0.31693923632E+02  0.50528850004E+02  0.29999970073E+02 0.  0.
        -12    1    1    2    0    0 -0.68449852068E+01 -0.24531772474E+02 -0.31693923632E+02  0.40659149996E+02  0.00000000000E+00 0.  1.
         11    1    3    3    0    0  0.92600392403E+01  0.10500150250E+02  0.55357139580E+01  0.15054753777E+02  0.51100000000E-03 0. -1.
        -11    1    3    3    0    0  0.69471331884E+00  0.18104044284E+02  0.23584648701E+02  0.29740119379E+02  0.51100000000E-03 0.  1.
         12    1    3    3    0    0 -0.31097673523E+01 -0.40724220601E+01  0.25735609729E+01  0.57339768488E+01  0.00000000000E+00 0. -1.
</event>
<event>
 7    1  0.3449452E-011  0.5052886E+02  0.7816164E-02  0.1300439E+00
        -11   -1    0    0    0    0  0.00000000000E+00  0.00000000000E+00  0.45593999997E+02  0.45594000000E+02  0.51100000000E-03 0.  1.
         11   -1    0    0    0    0 -0.00000000000E+00 -0.00000000000E+00 -0.45593999997E+02  0.45594000000E+02  0.51100000000E-03 0. -1.
    9900012    2    1    2    0    0  0.69233465831E+01  0.36241543884E+02 -0.17081671672E+02  0.50528859108E+02  0.29999997744E+02 0.  0.
        -12    1    1    2    0    0 -0.69233465831E+01 -0.36241543884E+02  0.17081671672E+02  0.40659140892E+02  0.00000000000E+00 0.  1.
         11    1    3    3    0    0  0.48710087234E+01  0.20653995389E+02 -0.49895339699E+01  0.21799305058E+02  0.51100000000E-03 0. -1.
        -11    1    3    3    0    0  0.94548403706E+01  0.14612064128E+02 -0.42791407640E+01  0.17922540848E+02  0.51100000000E-03 0.  1.
        -12    1    3    3    0    0 -0.74025025110E+01  0.97548436653E+00 -0.78129969385E+01  0.10807013201E+02  0.00000000000E+00 0.  1.
</event>
<event>
 7    1  0.3449452E-011  0.5052885E+02  0.7816164E-02  0.1300439E+00
        -11   -1    0    0    0    0  0.00000000000E+00  0.00000000000E+00  0.45593999997E+02  0.45594000000E+02  0.51100000000E-03 0.  1.
         11   -1    0    0    0    0 -0.00000000000E+00 -0.00000000000E+00 -0.45593999997E+02  0.45594000000E+02  0.51100000000E-03 0. -1.
    9900012    2    1    2    0    0  0.32009458756E+02 -0.10230702274E+02 -0.22888720528E+02  0.50528852858E+02  0.29999978748E+02 0.  0.
        -12    1    1    2    0    0 -0.32009458756E+02  0.10230702274E+02  0.22888720528E+02  0.40659147142E+02  0.00000000000E+00 0.  1.
         11    1    3    3    0    0  0.24454410320E+01 -0.54757704107E+00  0.12877069913E+01  0.28174832765E+01  0.51100000000E-03 0. -1.
        -11    1    3    3    0    0  0.56296405637E+01 -0.25341302696E+00  0.58832518771E+01  0.81467615620E+01  0.51100000000E-03 0.  1.
         12    1    3    3    0    0  0.23934377160E+02 -0.94297122059E+01 -0.30059679397E+02  0.39564608020E+02  0.00000000000E+00 0. -1.
</event>
<event>
 7    1  0.3449452E-011  0.5052887E+02  0.7816164E-02  0.1300439E+00
        -11   -1    0    0    0    0  0.00000000000E+00  0.00000000000E+00  0.45593999997E+02  0.45594000000E+02  0.51100000000E-03 0. -1.
         11   -1    0    0    0    0 -0.00000000000E+00 -0.00000000000E+00 -0.45593999997E+02  0.45594000000E+02  0.51100000000E-03 0.  1.
    9900012    2    1    2    0    0  0.26870328507E+02  0.30509829461E+02  0.54852187047E+00  0.50528866659E+02  0.30000020698E+02 0.  0.
        -12    1    1    2    0    0 -0.26870328507E+02 -0.30509829461E+02 -0.54852187047E+00  0.40659133341E+02  0.00000000000E+00 0.  1.
         11    1    3    3    0    0  0.15400299703E+02  0.26484230600E+02 -0.85949010091E+01  0.31819114146E+02  0.51100000000E-03 0. -1.
        -11    1    3    3    0    0  0.10758222496E+02  0.14594949617E+01  0.19385380772E+01  0.11028481625E+02  0.51100000000E-03 0.  1.
        -12    1    3    3    0    0  0.71180630735E+00  0.25661038992E+01  0.72048848024E+01  0.76812708881E+01  0.00000000000E+00 0.  1.
</event>
<event>
 7    1  0.3449452E-011  0.5052887E+02  0.7816164E-02  0.1300439E+00
        -11   -1    0    0    0    0  0.00000000000E+00  0.00000000000E+00  0.45593999997E+02  0.45594000000E+02  0.51100000000E-03 0.  1.
         11   -1    0    0    0    0 -0.00000000000E+00 -0.00000000000E+00 -0.45593999997E+02  0.45594000000E+02  0.51100000000E-03 0. -1.
    9900012    2    1    2    0    0  0.26201421802E+02  0.36201437686E+01 -0.30879527723E+02  0.50528865998E+02  0.30000018687E+02 0.  0.
        -12    1    1    2    0    0 -0.26201421802E+02 -0.36201437686E+01  0.30879527723E+02  0.40659134002E+02  0.00000000000E+00 0.  1.
         11    1    3    3    0    0  0.44202822618E+01  0.80285242576E+01 -0.96308433248E+01  0.13294707234E+02  0.51100000000E-03 0. -1.
        -11    1    3    3    0    0 -0.11013689484E+01 -0.74059153576E+01 -0.47916871310E+01  0.88893679003E+01  0.51100000000E-03 0.  1.
         12    1    3    3    0    0  0.22882508489E+02  0.29975348687E+01 -0.16456997268E+02  0.28344790864E+02  0.00000000000E+00 0. -1.
</event>
<event>
 7    1  0.3449452E-011  0.5052886E+02  0.7816164E-02  0.1300439E+00
        -11   -1    0    0    0    0  0.00000000000E+00  0.00000000000E+00  0.45593999997E+02  0.45594000000E+02  0.51100000000E-03 0.  1.
         11   -1    0    0    0    0 -0.00000000000E+00 -0.00000000000E+00 -0.45593999997E+02  0.45594000000E+02  0.51100000000E-03 0. -1.
    9900012    2    1    2    0    0 -0.27298263806E+02 -0.24246422501E+02 -0.17890821085E+02  0.50528859700E+02  0.29999999543E+02 0.  0.
        -12    1    1    2    0    0  0.27298263806E+02  0.24246422501E+02  0.17890821085E+02  0.40659140300E+02  0.00000000000E+00 0.  1.
         11    1    3    3    0    0 -0.24761447020E+02 -0.91992317001E+01 -0.12087440931E+02  0.29049291746E+02  0.51100000000E-03 0. -1.
        -11    1    3    3    0    0 -0.61001449630E+01 -0.15548527928E+02 -0.62918690786E+01  0.17848140129E+02  0.51100000000E-03 0.  1.
        -12    1    3    3    0    0  0.35633281775E+01  0.50133712777E+00  0.48848892493E+00  0.36314278247E+01  0.00000000000E+00 0.  1.
</event>
<event>
 7    1  0.3449452E-011  0.5052885E+02  0.7816164E-02  0.1300439E+00
        -11   -1    0    0    0    0  0.00000000000E+00  0.00000000000E+00  0.45593999997E+02  0.45594000000E+02  0.51100000000E-03 0.  1.
         11   -1    0    0    0    0 -0.00000000000E+00 -0.00000000000E+00 -0.45593999997E+02  0.45594000000E+02  0.51100000000E-03 0. -1.
    9900012    2    1    2    0    0  0.63330671599E+01  0.31949573617E+02 -0.24336867215E+02  0.50528854660E+02  0.29999984224E+02 0.  0.
        -12    1    1    2    0    0 -0.63330671599E+01 -0.31949573617E+02  0.24336867215E+02  0.40659145340E+02  0.00000000000E+00 0.  1.
         11    1    3    3    0    0 -0.87400191999E+00 -0.55367107276E+00 -0.55309518036E+01  0.56268871615E+01  0.51100000000E-03 0. -1.
        -11    1    3    3    0    0 -0.83827223953E+01  0.16052006871E+02 -0.82514603134E+01  0.19900340623E+02  0.51100000000E-03 0.  1.
         12    1    3    3    0    0  0.15589791475E+02  0.16451237818E+02 -0.10554455098E+02  0.25001626875E+02  0.00000000000E+00 0. -1.
</event>
<event>
 7    1  0.3449452E-011  0.5052887E+02  0.7816164E-02  0.1300439E+00
        -11   -1    0    0    0    0  0.00000000000E+00  0.00000000000E+00  0.45593999997E+02  0.45594000000E+02  0.51100000000E-03 0.  1.
         11   -1    0    0    0    0 -0.00000000000E+00 -0.00000000000E+00 -0.45593999997E+02  0.45594000000E+02  0.51100000000E-03 0. -1.
    9900012    2    1    2    0    0  0.15546366117E+02 -0.24730765433E+02 -0.28281884291E+02  0.50528865264E+02  0.30000016458E+02 0.  0.
        -12    1    1    2    0    0 -0.15546366117E+02  0.24730765433E+02  0.28281884291E+02  0.40659134736E+02  0.00000000000E+00 0.  1.
         11    1    3    3    0    0  0.97890372514E+01  0.18402081914E+01 -0.20240859216E+01  0.10164080902E+02  0.51100000000E-03 0. -1.
        -11    1    3    3    0    0  0.95683725311E+00 -0.79561863652E+01 -0.24217148763E+00  0.80171744584E+01  0.51100000000E-03 0.  1.
         12    1    3    3    0    0  0.48004916129E+01 -0.18614787260E+02 -0.26015626882E+02  0.32347609904E+02  0.00000000000E+00 0. -1.
</event>
<event>
 7    1  0.3449452E-011  0.5052886E+02  0.7816164E-02  0.1300439E+00
        -11   -1    0    0    0    0  0.00000000000E+00  0.00000000000E+00  0.45593999997E+02  0.45594000000E+02  0.51100000000E-03 0.  1.
         11   -1    0    0    0    0 -0.00000000000E+00 -0.00000000000E+00 -0.45593999997E+02  0.45594000000E+02  0.51100000000E-03 0. -1.
    9900012    2    1    2    0    0  0.18945076620E+02  0.35045276970E+02 -0.81288555509E+01  0.50528860086E+02  0.30000000717E+02 0.  0.
        -12    1    1    2    0    0 -0.18945076620E+02 -0.35045276970E+02  0.81288555509E+01  0.40659139914E+02  0.00000000000E+00 0.  1.
         11    1    3    3    0    0  0.17617659973E+02  0.26027415914E+02 -0.46224375728E+01  0.31767518811E+02  0.51100000000E-03 0. -1.
        -11    1    3    3    0    0  0.23641004934E+01  0.12737558245E+02 -0.58817777524E+01  0.14227778146E+02  0.51100000000E-03 0.  1.
        -12    1    3    3    0    0 -0.10366838463E+01 -0.37196971894E+01  0.23753597743E+01  0.45335631280E+01  0.00000000000E+00 0.  1.
</event>
<event>
 7    1  0.3449452E-011  0.5052886E+02  0.7816164E-02  0.1300439E+00
        -11   -1    0    0    0    0  0.00000000000E+00  0.00000000000E+00  0.45593999997E+02  0.45594000000E+02  0.51100000000E-03 0. -1.
         11   -1    0    0    0    0 -0.00000000000E+00 -0.00000000000E+00 -0.45593999997E+02  0.45594000000E+02  0.51100000000E-03 0.  1.
    9900012    2    1    2    0    0  0.21719652232E+02  0.76903213255E+01  0.33500462420E+02  0.50528864280E+02  0.30000013464E+02 0.  0.
        -12    1    1    2    0    0 -0.21719652232E+02 -0.76903213255E+01 -0.33500462420E+02  0.40659135720E+02  0.00000000000E+00 0.  1.
         11    1    3    3    0    0  0.11554664498E+02  0.10881751808E+01  0.12851876568E+02  0.17316614232E+02  0.51100000000E-03 0. -1.
        -11    1    3    3    0    0  0.90344578838E+01 -0.91247917037E+00 -0.20212375390E+01  0.93026581654E+01  0.51100000000E-03 0.  1.
        -12    1    3    3    0    0  0.11305298500E+01  0.75146253151E+01  0.22669823392E+02  0.23909591882E+02  0.00000000000E+00 0.  1.
</event>
<event>
 7    1  0.3449452E-011  0.5052886E+02  0.7816164E-02  0.1300439E+00
        -11   -1    0    0    0    0  0.00000000000E+00  0.00000000000E+00  0.45593999997E+02  0.45594000000E+02  0.51100000000E-03 0. -1.
         11   -1    0    0    0    0 -0.00000000000E+00 -0.00000000000E+00 -0.45593999997E+02  0.45594000000E+02  0.51100000000E-03 0.  1.
    9900012    2    1    2    0    0 -0.37493303969E+02  0.34768689481E+01 -0.15340442033E+02  0.50528860536E+02  0.30000002087E+02 0.  0.
        -12    1    1    2    0    0  0.37493303969E+02 -0.34768689481E+01  0.15340442033E+02  0.40659139464E+02  0.00000000000E+00 0.  1.
         11    1    3    3    0    0 -0.23596043004E+02 -0.54767675499E+01 -0.64507420309E+01  0.25067514859E+02  0.51100000000E-03 0. -1.
        -11    1    3    3    0    0 -0.13872455748E+02  0.33486244970E+01 -0.12351228696E+02  0.18873557298E+02  0.51100000000E-03 0.  1.
         12    1    3    3    0    0 -0.24805217217E-01  0.56050120010E+01  0.34615286944E+01  0.65877883794E+01  0.00000000000E+00 0. -1.
</event>
<event>
 7    1  0.3449452E-011  0.5052887E+02  0.7816164E-02  0.1300439E+00
        -11   -1    0    0    0    0  0.00000000000E+00  0.00000000000E+00  0.45593999997E+02  0.45594000000E+02  0.51100000000E-03 0. -1.
         11   -1    0    0    0    0 -0.00000000000E+00 -0.00000000000E+00 -0.45593999997E+02  0.45594000000E+02  0.51100000000E-03 0.  1.
    9900012    2    1    2    0    0 -0.27153863714E+02  0.29696230799E+02  0.58280693623E+01  0.50528870266E+02  0.30000031660E+02 0.  0.
        -12    1    1    2    0    0  0.27153863714E+02 -0.29696230799E+02 -0.58280693623E+01  0.40659129734E+02  0.00000000000E+00 0.  1.
         11    1    3    3    0    0 -0.24662261107E+01  0.89083354146E+01  0.29982921306E+01  0.97175340004E+01  0.51100000000E-03 0. -1.
        -11    1    3    3    0    0 -0.10074780129E+02  0.10488116781E+02  0.13623759599E+02  0.19927584252E+02  0.51100000000E-03 0.  1.
        -12    1    3    3    0    0 -0.14612857473E+02  0.10299778603E+02 -0.10793982367E+02  0.20883752013E+02  0.00000000000E+00 0.  1.
</event>
<event>
 7    1  0.3449452E-011  0.5052888E+02  0.7816164E-02  0.1300439E+00
        -11   -1    0    0    0    0  0.00000000000E+00  0.00000000000E+00  0.45593999997E+02  0.45594000000E+02  0.51100000000E-03 0.  1.
         11   -1    0    0    0    0 -0.00000000000E+00 -0.00000000000E+00 -0.45593999997E+02  0.45594000000E+02  0.51100000000E-03 0. -1.
    9900012    2    1    2    0    0 -0.28596147336E+02 -0.28889293129E+02  0.91279072275E+00  0.50528879413E+02  0.30000059465E+02 0.  0.
        -12    1    1    2    0    0  0.28596147336E+02  0.28889293129E+02 -0.91279072275E+00  0.40659120587E+02  0.00000000000E+00 0.  1.
         11    1    3    3    0    0 -0.54818504608E+01 -0.11956644037E+01 -0.69328719926E+00  0.56534012101E+01  0.51100000000E-03 0. -1.
        -11    1    3    3    0    0 -0.97590353048E+01 -0.15480863280E+02  0.13914336803E+02  0.22989229367E+02  0.51100000000E-03 0.  1.
        -12    1    3    3    0    0 -0.13355261570E+02 -0.12212765445E+02 -0.12308258881E+02  0.21886248836E+02  0.00000000000E+00 0.  1.
</event>
<event>
 7    1  0.3449452E-011  0.5052888E+02  0.7816164E-02  0.1300439E+00
        -11   -1    0    0    0    0  0.00000000000E+00  0.00000000000E+00  0.45593999997E+02  0.45594000000E+02  0.51100000000E-03 0.  1.
         11   -1    0    0    0    0 -0.00000000000E+00 -0.00000000000E+00 -0.45593999997E+02  0.45594000000E+02  0.51100000000E-03 0. -1.
    9900012    2    1    2    0    0  0.45301101623E+01  0.84015316220E+01 -0.39522860193E+02  0.50528879135E+02  0.30000058618E+02 0.  0.
        -12    1    1    2    0    0 -0.45301101623E+01 -0.84015316220E+01  0.39522860193E+02  0.40659120865E+02  0.00000000000E+00 0.  1.
         11    1    3    3    0    0 -0.42199396264E+01  0.32595175682E+01 -0.38132354792E+01  0.65553878839E+01  0.51100000000E-03 0. -1.
        -11    1    3    3    0    0  0.10364862113E+02 -0.73869982257E+01 -0.21275631247E+02  0.24792147842E+02  0.51100000000E-03 0.  1.
         12    1    3    3    0    0 -0.16148123247E+01  0.12529012279E+02 -0.14433993467E+02  0.19181343409E+02  0.00000000000E+00 0. -1.
</event>
<event>
 7    1  0.3449452E-011  0.5052886E+02  0.7816164E-02  0.1300439E+00
        -11   -1    0    0    0    0  0.00000000000E+00  0.00000000000E+00  0.45593999997E+02  0.45594000000E+02  0.51100000000E-03 0.  1.
         11   -1    0    0    0    0 -0.00000000000E+00 -0.00000000000E+00 -0.45593999997E+02  0.45594000000E+02  0.51100000000E-03 0. -1.
    9900012    2    1    2    0    0  0.18287304632E+02 -0.92272014869E+01 -0.35122622089E+02  0.50528863998E+02  0.30000012609E+02 0.  0.
        -12    1    1    2    0    0 -0.18287304632E+02  0.92272014869E+01  0.35122622089E+02  0.40659136002E+02  0.00000000000E+00 0.  1.
         11    1    3    3    0    0  0.16824691028E+02 -0.87720836395E+01 -0.26627143351E+02  0.32695939241E+02  0.51100000000E-03 0. -1.
        -11    1    3    3    0    0  0.82889599106E+01  0.16484036439E+01 -0.36767395625E+01  0.92164258280E+01  0.51100000000E-03 0.  1.
        -12    1    3    3    0    0 -0.68263463060E+01 -0.21035214913E+01 -0.48187391760E+01  0.86164989294E+01  0.00000000000E+00 0.  1.
</event>
<event>
 7    1  0.3449452E-011  0.5052886E+02  0.7816164E-02  0.1300439E+00
        -11   -1    0    0    0    0  0.00000000000E+00  0.00000000000E+00  0.45593999997E+02  0.45594000000E+02  0.51100000000E-03 0.  1.
         11   -1    0    0    0    0 -0.00000000000E+00 -0.00000000000E+00 -0.45593999997E+02  0.45594000000E+02  0.51100000000E-03 0. -1.
    9900012    2    1    2    0    0 -0.16192458429E+02  0.13512343225E+02 -0.34761853836E+02  0.50528860665E+02  0.30000002476E+02 0.  0.
        -12    1    1    2    0    0  0.16192458429E+02 -0.13512343225E+02  0.34761853836E+02  0.40659139335E+02  0.00000000000E+00 0.  1.
         11    1    3    3    0    0 -0.11907830405E+02 -0.11585876411E+01 -0.22023972890E+02  0.25063801236E+02  0.51100000000E-03 0. -1.
        -11    1    3    3    0    0 -0.26138800360E+01 -0.23852175399E+01  0.79683454999E+00  0.36271996246E+01  0.51100000000E-03 0.  1.
         12    1    3    3    0    0 -0.16707479878E+01  0.17056148406E+02 -0.13534715496E+02  0.21837859804E+02  0.00000000000E+00 0. -1.
</event>
<event>
 7    1  0.3449452E-011  0.5052885E+02  0.7816164E-02  0.1300439E+00
        -11   -1    0    0    0    0  0.00000000000E+00  0.00000000000E+00  0.45593999997E+02  0.45594000000E+02  0.51100000000E-03 0. -1.
         11   -1    0    0    0    0 -0.00000000000E+00 -0.00000000000E+00 -0.45593999997E+02  0.45594000000E+02  0.51100000000E-03 0.  1.
    9900012    2    1    2    0    0  0.24761153128E+02 -0.25819322447E+02  0.19323940334E+02  0.50528846223E+02  0.29999958579E+02 0.  0.
        -12    1    1    2    0    0 -0.24761153128E+02  0.25819322447E+02 -0.19323940334E+02  0.40659153777E+02  0.00000000000E+00 0.  1.
         11    1    3    3    0    0 -0.13348458231E+01 -0.31224294799E+00 -0.13740507706E+01  0.19409597655E+01  0.51100000000E-03 0. -1.
        -11    1    3    3    0    0  0.16963105103E+02 -0.12944193338E+02 -0.16179278728E+01  0.21398989854E+02  0.51100000000E-03 0.  1.
         12    1    3    3    0    0  0.91328938482E+01 -0.12562886161E+02  0.22315918977E+02  0.27188896604E+02  0.00000000000E+00 0. -1.
</event>
<event>
 7    1  0.3449452E-011  0.5052885E+02  0.7816164E-02  0.1300439E+00
        -11   -1    0    0    0    0  0.00000000000E+00  0.00000000000E+00  0.45593999997E+02  0.45594000000E+02  0.51100000000E-03 0.  1.
         11   -1    0    0    0    0 -0.00000000000E+00 -0.00000000000E+00 -0.45593999997E+02  0.45594000000E+02  0.51100000000E-03 0. -1.
    9900012    2    1    2    0    0  0.19247129225E+02  0.77486667702E+01 -0.34966739556E+02  0.50528847337E+02  0.29999961965E+02 0.  0.
        -12    1    1    2    0    0 -0.19247129225E+02 -0.77486667702E+01  0.34966739556E+02  0.40659152663E+02  0.00000000000E+00 0.  1.
         11    1    3    3    0    0  0.23280041891E+01  0.97659607011E+01 -0.97773507215E+01  0.14013928047E+02  0.51100000000E-03 0. -1.
        -11    1    3    3    0    0  0.14922806643E+02  0.73269901419E+01 -0.18371569134E+02  0.24776793484E+02  0.51100000000E-03 0.  1.
         12    1    3    3    0    0  0.19963183922E+01 -0.93442840728E+01 -0.68178197004E+01  0.11738125805E+02  0.00000000000E+00 0. -1.
</event>
<event>
 7    1  0.3449452E-011  0.5052886E+02  0.7816164E-02  0.1300439E+00
        -11   -1    0    0    0    0  0.00000000000E+00  0.00000000000E+00  0.45593999997E+02  0.45594000000E+02  0.51100000000E-03 0. -1.
         11   -1    0    0    0    0 -0.00000000000E+00 -0.00000000000E+00 -0.45593999997E+02  0.45594000000E+02  0.51100000000E-03 0.  1.
    9900012    2    1    2    0    0 -0.11525376518E+02 -0.37350303794E+02 -0.11193135643E+02  0.50528858556E+02  0.29999996068E+02 0.  0.
        -12    1    1    2    0    0  0.11525376518E+02  0.37350303794E+02  0.11193135643E+02  0.40659141444E+02  0.00000000000E+00 0.  1.
         11    1    3    3    0    0  0.12435702948E+01 -0.13539874909E+01 -0.29125621914E+01  0.34442369232E+01  0.51100000000E-03 0. -1.
        -11    1    3    3    0    0 -0.39652894892E+01 -0.51369185089E+01  0.86405942196E+01  0.10806077976E+02  0.51100000000E-03 0.  1.
         12    1    3    3    0    0 -0.88036573235E+01 -0.30859397795E+02 -0.16921167671E+02  0.36278543657E+02  0.00000000000E+00 0. -1.
</event>
<event>
 7    1  0.3449452E-011  0.5052886E+02  0.7816164E-02  0.1300439E+00
        -11   -1    0    0    0    0  0.00000000000E+00  0.00000000000E+00  0.45593999997E+02  0.45594000000E+02  0.51100000000E-03 0.  1.
         11   -1    0    0    0    0 -0.00000000000E+00 -0.00000000000E+00 -0.45593999997E+02  0.45594000000E+02  0.51100000000E-03 0. -1.
    9900012    2    1    2    0    0 -0.22071275765E+02 -0.15387880279E+02 -0.30483401135E+02  0.50528858124E+02  0.29999994753E+02 0.  0.
        -12    1    1    2    0    0  0.22071275765E+02  0.15387880279E+02  0.30483401135E+02  0.40659141876E+02  0.00000000000E+00 0.  1.
         11    1    3    3    0    0 -0.21328921952E+01 -0.10166055997E+02 -0.16263472647E+02  0.19297628519E+02  0.51100000000E-03 0. -1.
        -11    1    3    3    0    0 -0.20337745021E+02 -0.93908205685E+01 -0.15015753037E+02  0.26968207635E+02  0.51100000000E-03 0.  1.
         12    1    3    3    0    0  0.39936145188E+00  0.41689962866E+01  0.79582454909E+00  0.42630219704E+01  0.00000000000E+00 0. -1.
</event>
<event>
 7    1  0.3449452E-011  0.5052887E+02  0.7816164E-02  0.1300439E+00
        -11   -1    0    0    0    0  0.00000000000E+00  0.00000000000E+00  0.45593999997E+02  0.45594000000E+02  0.51100000000E-03 0.  1.
         11   -1    0    0    0    0 -0.00000000000E+00 -0.00000000000E+00 -0.45593999997E+02  0.45594000000E+02  0.51100000000E-03 0. -1.
    9900012    2    1    2    0    0 -0.78427071231E+01  0.39478528575E+02 -0.57535131375E+01  0.50528865887E+02  0.30000018349E+02 0.  0.
        -12    1    1    2    0    0  0.78427071231E+01 -0.39478528575E+02  0.57535131375E+01  0.40659134113E+02  0.00000000000E+00 0.  1.
         11    1    3    3    0    0  0.34075040224E+01  0.16766734180E+02 -0.35453042867E+01  0.17472940264E+02  0.51100000000E-03 0. -1.
        -11    1    3    3    0    0 -0.14668864198E+02  0.21922807346E+02  0.32397627055E+01  0.26575950057E+02  0.51100000000E-03 0.  1.
         12    1    3    3    0    0  0.34186530524E+01  0.78898704889E+00 -0.54479715563E+01  0.64799755658E+01  0.00000000000E+00 0. -1.
</event>
<event>
 7    1  0.3449452E-011  0.5052886E+02  0.7816164E-02  0.1300439E+00
        -11   -1    0    0    0    0  0.00000000000E+00  0.00000000000E+00  0.45593999997E+02  0.45594000000E+02  0.51100000000E-03 0.  1.
         11   -1    0    0    0    0 -0.00000000000E+00 -0.00000000000E+00 -0.45593999997E+02  0.45594000000E+02  0.51100000000E-03 0. -1.
    9900012    2    1    2    0    0 -0.21737608802E+02  0.13669308123E+02 -0.31524472894E+02  0.50528855737E+02  0.29999987497E+02 0.  0.
        -12    1    1    2    0    0  0.21737608802E+02 -0.13669308123E+02  0.31524472894E+02  0.40659144263E+02  0.00000000000E+00 0.  1.
         11    1    3    3    0    0 -0.51151741130E+01  0.12491266422E+01 -0.18493751757E+02  0.19228733132E+02  0.51100000000E-03 0. -1.
        -11    1    3    3    0    0 -0.15823020847E+02  0.16847431824E+02 -0.13516734327E+02  0.26775101399E+02  0.51100000000E-03 0.  1.
         12    1    3    3    0    0 -0.79941384191E+00 -0.44272503429E+01  0.48601318967E+00  0.45250212055E+01  0.00000000000E+00 0. -1.
</event>
<event>
 7    1  0.3449452E-011  0.5052886E+02  0.7816164E-02  0.1300439E+00
        -11   -1    0    0    0    0  0.00000000000E+00  0.00000000000E+00  0.45593999997E+02  0.45594000000E+02  0.51100000000E-03 0.  1.
         11   -1    0    0    0    0 -0.00000000000E+00 -0.00000000000E+00 -0.45593999997E+02  0.45594000000E+02  0.51100000000E-03 0. -1.
    9900012    2    1    2    0    0 -0.90688982993E+01 -0.21401376303E+02 -0.33360184445E+02  0.50528859204E+02  0.29999998038E+02 0.  0.
        -12    1    1    2    0    0  0.90688982993E+01  0.21401376303E+02  0.33360184445E+02  0.40659140796E+02  0.00000000000E+00 0.  1.
         11    1    3    3    0    0 -0.98793645224E+01 -0.13627518727E+02 -0.10296120761E+02  0.19731224316E+02  0.51100000000E-03 0. -1.
        -11    1    3    3    0    0 -0.58731781631E+01  0.21019735540E+01 -0.19271624789E+01  0.65288950090E+01  0.51100000000E-03 0.  1.
         12    1    3    3    0    0  0.66836443862E+01 -0.98758311303E+01 -0.21136901205E+02  0.24268739879E+02  0.00000000000E+00 0. -1.
</event>
<event>
 7    1  0.3449452E-011  0.5052886E+02  0.7816164E-02  0.1300439E+00
        -11   -1    0    0    0    0  0.00000000000E+00  0.00000000000E+00  0.45593999997E+02  0.45594000000E+02  0.51100000000E-03 0.  1.
         11   -1    0    0    0    0 -0.00000000000E+00 -0.00000000000E+00 -0.45593999997E+02  0.45594000000E+02  0.51100000000E-03 0. -1.
    9900012    2    1    2    0    0 -0.26485879885E+02  0.79155273060E+01 -0.29816244666E+02  0.50528857709E+02  0.29999993492E+02 0.  0.
        -12    1    1    2    0    0  0.26485879885E+02 -0.79155273060E+01  0.29816244666E+02  0.40659142291E+02  0.00000000000E+00 0.  1.
         11    1    3    3    0    0 -0.13619418603E+02  0.36593439895E+01 -0.79449808993E+01  0.16186478408E+02  0.51100000000E-03 0. -1.
        -11    1    3    3    0    0 -0.15502894075E+02  0.53402695055E+01 -0.48714793827E+01  0.17105248164E+02  0.51100000000E-03 0.  1.
         12    1    3    3    0    0  0.26364327924E+01 -0.10840861890E+01 -0.16999784384E+02  0.17237131137E+02  0.00000000000E+00 0. -1.
</event>
<event>
 7    1  0.3449452E-011  0.5052886E+02  0.7816164E-02  0.1300439E+00
        -11   -1    0    0    0    0  0.00000000000E+00  0.00000000000E+00  0.45593999997E+02  0.45594000000E+02  0.51100000000E-03 0.  1.
         11   -1    0    0    0    0 -0.00000000000E+00 -0.00000000000E+00 -0.45593999997E+02  0.45594000000E+02  0.51100000000E-03 0. -1.
    9900012    2    1    2    0    0  0.35362090131E+02 -0.19263675797E+02 -0.56213001953E+01  0.50528860320E+02  0.30000001429E+02 0.  0.
        -12    1    1    2    0    0 -0.35362090131E+02  0.19263675797E+02  0.56213001953E+01  0.40659139680E+02  0.00000000000E+00 0.  1.
         11    1    3    3    0    0  0.17500671761E+02  0.28794922051E+01 -0.75920902962E+01  0.19292610574E+02  0.51100000000E-03 0. -1.
        -11    1    3    3    0    0  0.90314072895E+01 -0.11175690508E+02 -0.53918876422E+01  0.15347143987E+02  0.51100000000E-03 0.  1.
        -12    1    3    3    0    0  0.88300110807E+01 -0.10967477494E+02  0.73626777431E+01  0.15889105759E+02  0.00000000000E+00 0.  1.
</event>
<event>
 7    1  0.3449452E-011  0.5052887E+02  0.7816164E-02  0.1300439E+00
        -11   -1    0    0    0    0  0.00000000000E+00  0.00000000000E+00  0.45593999997E+02  0.45594000000E+02  0.51100000000E-03 0.  1.
         11   -1    0    0    0    0 -0.00000000000E+00 -0.00000000000E+00 -0.45593999997E+02  0.45594000000E+02  0.51100000000E-03 0. -1.
    9900012    2    1    2    0    0  0.26596703726E+02 -0.47175252320E+01 -0.30389562109E+02  0.50528865988E+02  0.30000018657E+02 0.  0.
        -12    1    1    2    0    0 -0.26596703726E+02  0.47175252320E+01  0.30389562109E+02  0.40659134012E+02  0.00000000000E+00 0.  1.
         11    1    3    3    0    0  0.23062871396E+02 -0.94898963393E+01 -0.16747532990E+02  0.30040539793E+02  0.51100000000E-03 0. -1.
        -11    1    3    3    0    0  0.44167848658E+00 -0.25695518171E+01  0.17615885217E+01  0.31465649218E+01  0.51100000000E-03 0.  1.
         12    1    3    3    0    0  0.30921538434E+01  0.73419229245E+01 -0.15403617641E+02  0.17341761273E+02  0.00000000000E+00 0. -1.
</event>
<event>
 7    1  0.3449452E-011  0.5052886E+02  0.7816164E-02  0.1300439E+00
        -11   -1    0    0    0    0  0.00000000000E+00  0.00000000000E+00  0.45593999997E+02  0.45594000000E+02  0.51100000000E-03 0. -1.
         11   -1    0    0    0    0 -0.00000000000E+00 -0.00000000000E+00 -0.45593999997E+02  0.45594000000E+02  0.51100000000E-03 0.  1.
    9900012    2    1    2    0    0 -0.80753118568E+01 -0.28317127526E+02  0.28037386486E+02  0.50528863095E+02  0.30000009865E+02 0.  0.
        -12    1    1    2    0    0  0.80753118568E+01  0.28317127526E+02 -0.28037386486E+02  0.40659136905E+02  0.00000000000E+00 0.  1.
         11    1    3    3    0    0 -0.66366533545E+01 -0.16362738393E+02  0.58397022486E+01  0.18598024037E+02  0.51100000000E-03 0. -1.
        -11    1    3    3    0    0 -0.97726536234E+01 -0.35223059861E+01  0.64806963658E+01  0.12243807576E+02  0.51100000000E-03 0.  1.
         12    1    3    3    0    0  0.83339951211E+01 -0.84320831469E+01  0.15716987871E+02  0.19687031483E+02  0.00000000000E+00 0. -1.
</event>
<event>
 7    1  0.3449452E-011  0.5052884E+02  0.7816164E-02  0.1300439E+00
        -11   -1    0    0    0    0  0.00000000000E+00  0.00000000000E+00  0.45593999997E+02  0.45594000000E+02  0.51100000000E-03 0.  1.
         11   -1    0    0    0    0 -0.00000000000E+00 -0.00000000000E+00 -0.45593999997E+02  0.45594000000E+02  0.51100000000E-03 0. -1.
    9900012    2    1    2    0    0  0.83192502558E+01 -0.14922105507E+02 -0.36895634902E+02  0.50528843191E+02  0.29999949364E+02 0.  0.
        -12    1    1    2    0    0 -0.83192502558E+01  0.14922105507E+02  0.36895634902E+02  0.40659156809E+02  0.00000000000E+00 0.  1.
         11    1    3    3    0    0  0.13797259090E+02 -0.84644736890E+01 -0.21498557232E+02  0.26910957555E+02  0.51100000000E-03 0. -1.
        -11    1    3    3    0    0  0.53592100568E+00 -0.10195737978E+02 -0.12025764846E+02  0.15775275105E+02  0.51100000000E-03 0.  1.
        -12    1    3    3    0    0 -0.60139298395E+01  0.37381061608E+01 -0.33713128247E+01  0.78426105313E+01  0.00000000000E+00 0.  1.
</event>
<event>
 7    1  0.3449452E-011  0.5052888E+02  0.7816164E-02  0.1300439E+00
        -11   -1    0    0    0    0  0.00000000000E+00  0.00000000000E+00  0.45593999997E+02  0.45594000000E+02  0.51100000000E-03 0.  1.
         11   -1    0    0    0    0 -0.00000000000E+00 -0.00000000000E+00 -0.45593999997E+02  0.45594000000E+02  0.51100000000E-03 0. -1.
    9900012    2    1    2    0    0  0.23227453491E+02  0.14300605900E+02 -0.30151985278E+02  0.50528878748E+02  0.30000057442E+02 0.  0.
        -12    1    1    2    0    0 -0.23227453491E+02 -0.14300605900E+02  0.30151985278E+02  0.40659121252E+02  0.00000000000E+00 0.  1.
         11    1    3    3    0    0  0.49408582941E+01  0.62685206879E+01 -0.36755294441E+01  0.87872606228E+01  0.51100000000E-03 0. -1.
        -11    1    3    3    0    0 -0.30549054599E+01  0.65583440258E+01 -0.16742444031E+02  0.18238798100E+02  0.51100000000E-03 0.  1.
        -12    1    3    3    0    0  0.21341500657E+02  0.14737411859E+01 -0.97340118032E+01  0.23502820026E+02  0.00000000000E+00 0.  1.
</event>
<event>
 7    1  0.3449452E-011  0.5052886E+02  0.7816164E-02  0.1300439E+00
        -11   -1    0    0    0    0  0.00000000000E+00  0.00000000000E+00  0.45593999997E+02  0.45594000000E+02  0.51100000000E-03 0. -1.
         11   -1    0    0    0    0 -0.00000000000E+00 -0.00000000000E+00 -0.45593999997E+02  0.45594000000E+02  0.51100000000E-03 0.  1.
    9900012    2    1    2    0    0  0.18746207909E+01 -0.39287600349E+02  0.10302211276E+02  0.50528864477E+02  0.30000014064E+02 0.  0.
        -12    1    1    2    0    0 -0.18746207909E+01  0.39287600349E+02 -0.10302211276E+02  0.40659135523E+02  0.00000000000E+00 0.  1.
         11    1    3    3    0    0  0.42601921997E+01 -0.35399520405E+02  0.13645908673E+02  0.38177036374E+02  0.51100000000E-03 0. -1.
        -11    1    3    3    0    0  0.86013775431E+00 -0.27341132802E-01  0.36382319209E+01  0.37386249164E+01  0.51100000000E-03 0.  1.
        -12    1    3    3    0    0 -0.32457091631E+01 -0.38607388110E+01 -0.69819293180E+01  0.86132031869E+01  0.00000000000E+00 0.  1.
</event>
<event>
 7    1  0.3449452E-011  0.5052886E+02  0.7816164E-02  0.1300439E+00
        -11   -1    0    0    0    0  0.00000000000E+00  0.00000000000E+00  0.45593999997E+02  0.45594000000E+02  0.51100000000E-03 0. -1.
         11   -1    0    0    0    0 -0.00000000000E+00 -0.00000000000E+00 -0.45593999997E+02  0.45594000000E+02  0.51100000000E-03 0.  1.
    9900012    2    1    2    0    0 -0.35859265430E+02 -0.12223519521E+02 -0.14760221214E+02  0.50528862320E+02  0.30000007507E+02 0.  0.
        -12    1    1    2    0    0  0.35859265430E+02  0.12223519521E+02  0.14760221214E+02  0.40659137680E+02  0.00000000000E+00 0.  1.
         11    1    3    3    0    0 -0.91543358729E+01 -0.10182231499E+02 -0.75365661972E+00  0.13713048609E+02  0.51100000000E-03 0.  1.
        -11    1    3    3    0    0 -0.23604754338E+02  0.21094266611E+01 -0.20526457389E+01  0.23787548486E+02  0.51100000000E-03 0. -1.
         12    1    3    3    0    0 -0.31001752187E+01 -0.41507146827E+01 -0.11953918856E+02  0.13028265225E+02  0.00000000000E+00 0. -1.
</event>
<event>
 7    1  0.3449452E-011  0.5052885E+02  0.7816164E-02  0.1300439E+00
        -11   -1    0    0    0    0  0.00000000000E+00  0.00000000000E+00  0.45593999997E+02  0.45594000000E+02  0.51100000000E-03 0.  1.
         11   -1    0    0    0    0 -0.00000000000E+00 -0.00000000000E+00 -0.45593999997E+02  0.45594000000E+02  0.51100000000E-03 0. -1.
    9900012    2    1    2    0    0  0.57890728383E+01  0.30635614040E+02 -0.26098125633E+02  0.50528851294E+02  0.29999973993E+02 0.  0.
        -12    1    1    2    0    0 -0.57890728383E+01 -0.30635614040E+02  0.26098125633E+02  0.40659148706E+02  0.00000000000E+00 0.  1.
         11    1    3    3    0    0  0.81555979255E+01  0.16645253830E+02 -0.94859210048E+01  0.20822126456E+02  0.51100000000E-03 0. -1.
        -11    1    3    3    0    0  0.62872912109E+01 -0.82679294147E-02 -0.10325976256E+02  0.12089494821E+02  0.51100000000E-03 0.  1.
        -12    1    3    3    0    0 -0.86538162981E+01  0.13998628140E+02 -0.62862283720E+01  0.17617230017E+02  0.00000000000E+00 0.  1.
</event>
<event>
 7    1  0.3449452E-011  0.5052886E+02  0.7816164E-02  0.1300439E+00
        -11   -1    0    0    0    0  0.00000000000E+00  0.00000000000E+00  0.45593999997E+02  0.45594000000E+02  0.51100000000E-03 0.  1.
         11   -1    0    0    0    0 -0.00000000000E+00 -0.00000000000E+00 -0.45593999997E+02  0.45594000000E+02  0.51100000000E-03 0. -1.
    9900012    2    1    2    0    0  0.23698646516E+02  0.29064466193E+02 -0.15709768507E+02  0.50528857506E+02  0.29999992876E+02 0.  0.
        -12    1    1    2    0    0 -0.23698646516E+02 -0.29064466193E+02  0.15709768507E+02  0.40659142494E+02  0.00000000000E+00 0.  1.
         11    1    3    3    0    0  0.31203653545E+01  0.78611505750E+01 -0.48521416733E+01  0.97507767582E+01  0.51100000000E-03 0. -1.
        -11    1    3    3    0    0 -0.16122627003E+01  0.89966335874E+01  0.54634141616E+01  0.10648366141E+02  0.51100000000E-03 0.  1.
         12    1    3    3    0    0  0.22190543862E+02  0.12206682030E+02 -0.16321040996E+02  0.30129714607E+02  0.00000000000E+00 0. -1.
</event>
<event>
 7    1  0.3449452E-011  0.5052886E+02  0.7816164E-02  0.1300439E+00
        -11   -1    0    0    0    0  0.00000000000E+00  0.00000000000E+00  0.45593999997E+02  0.45594000000E+02  0.51100000000E-03 0.  1.
         11   -1    0    0    0    0 -0.00000000000E+00 -0.00000000000E+00 -0.45593999997E+02  0.45594000000E+02  0.51100000000E-03 0. -1.
    9900012    2    1    2    0    0 -0.26325456932E+02  0.19700872642E+02 -0.23916763883E+02  0.50528860066E+02  0.30000000657E+02 0.  0.
        -12    1    1    2    0    0  0.26325456932E+02 -0.19700872642E+02  0.23916763883E+02  0.40659139934E+02  0.00000000000E+00 0.  1.
         11    1    3    3    0    0  0.89977593492E+00  0.13547547798E+02 -0.33651834553E+01  0.13988213182E+02  0.51100000000E-03 0. -1.
        -11    1    3    3    0    0 -0.71275173677E+01  0.37631906071E+01 -0.53928745472E+00  0.80779909998E+01  0.51100000000E-03 0.  1.
         12    1    3    3    0    0 -0.20097715499E+02  0.23901342364E+01 -0.20012292973E+02  0.28462655884E+02  0.00000000000E+00 0. -1.
</event>
<event>
 7    1  0.3449452E-011  0.5052886E+02  0.7816164E-02  0.1300439E+00
        -11   -1    0    0    0    0  0.00000000000E+00  0.00000000000E+00  0.45593999997E+02  0.45594000000E+02  0.51100000000E-03 0.  1.
         11   -1    0    0    0    0 -0.00000000000E+00 -0.00000000000E+00 -0.45593999997E+02  0.45594000000E+02  0.51100000000E-03 0. -1.
    9900012    2    1    2    0    0 -0.90907290202E+00 -0.27266374978E+02 -0.30147699760E+02  0.50528863034E+02  0.30000009678E+02 0.  0.
        -12    1    1    2    0    0  0.90907290202E+00  0.27266374978E+02  0.30147699760E+02  0.40659136966E+02  0.00000000000E+00 0.  1.
         11    1    3    3    0    0 -0.11578082218E+02 -0.12082204889E+02 -0.13489723928E+02  0.21494285630E+02  0.51100000000E-03 0. -1.
        -11    1    3    3    0    0 -0.11747580209E+01 -0.76215460787E+01 -0.65765142028E+00  0.77395430543E+01  0.51100000000E-03 0.  1.
         12    1    3    3    0    0  0.11843767337E+02 -0.75626240106E+01 -0.16000324412E+02  0.21295034350E+02  0.00000000000E+00 0. -1.
</event>
<event>
 7    1  0.3449452E-011  0.5052886E+02  0.7816164E-02  0.1300439E+00
        -11   -1    0    0    0    0  0.00000000000E+00  0.00000000000E+00  0.45593999997E+02  0.45594000000E+02  0.51100000000E-03 0.  1.
         11   -1    0    0    0    0 -0.00000000000E+00 -0.00000000000E+00 -0.45593999997E+02  0.45594000000E+02  0.51100000000E-03 0. -1.
    9900012    2    1    2    0    0  0.15205220374E+02  0.33353147263E+02 -0.17593589712E+02  0.50528861324E+02  0.30000004479E+02 0.  0.
        -12    1    1    2    0    0 -0.15205220374E+02 -0.33353147263E+02  0.17593589712E+02  0.40659138676E+02  0.00000000000E+00 0.  1.
         11    1    3    3    0    0  0.14162323691E+02  0.11374833229E+02 -0.11344335377E+01  0.18200142390E+02  0.51100000000E-03 0. -1.
        -11    1    3    3    0    0  0.50734343796E+01  0.13351977668E+02 -0.11883828634E+01  0.14332735194E+02  0.51100000000E-03 0.  1.
        -12    1    3    3    0    0 -0.40305376968E+01  0.86263363655E+01 -0.15270773311E+02  0.17995983739E+02  0.00000000000E+00 0.  1.
</event>
<event>
 7    1  0.3449452E-011  0.5052885E+02  0.7816164E-02  0.1300439E+00
        -11   -1    0    0    0    0  0.00000000000E+00  0.00000000000E+00  0.45593999997E+02  0.45594000000E+02  0.51100000000E-03 0.  1.
         11   -1    0    0    0    0 -0.00000000000E+00 -0.00000000000E+00 -0.45593999997E+02  0.45594000000E+02  0.51100000000E-03 0. -1.
    9900012    2    1    2    0    0  0.26348085777E+02  0.55937988868E+01 -0.30457422251E+02  0.50528846292E+02  0.29999958790E+02 0.  0.
        -12    1    1    2    0    0 -0.26348085777E+02 -0.55937988868E+01  0.30457422251E+02  0.40659153708E+02  0.00000000000E+00 0.  1.
         11    1    3    3    0    0  0.87673797718E+01  0.80613732496E+01 -0.45396000601E+01  0.12746005480E+02  0.51100000000E-03 0. -1.
        -11    1    3    3    0    0  0.18976129532E+02 -0.81834428995E-02 -0.96834655522E+01  0.21304062156E+02  0.51100000000E-03 0.  1.
        -12    1    3    3    0    0 -0.13954235276E+01 -0.24593909199E+01 -0.16234356638E+02  0.16478778656E+02  0.00000000000E+00 0.  1.
</event>
<event>
 7    1  0.3449452E-011  0.5052886E+02  0.7816164E-02  0.1300439E+00
        -11   -1    0    0    0    0  0.00000000000E+00  0.00000000000E+00  0.45593999997E+02  0.45594000000E+02  0.51100000000E-03 0.  1.
         11   -1    0    0    0    0 -0.00000000000E+00 -0.00000000000E+00 -0.45593999997E+02  0.45594000000E+02  0.51100000000E-03 0. -1.
    9900012    2    1    2    0    0  0.15212829684E+02  0.73355649449E+01 -0.36985473273E+02  0.50528856708E+02  0.29999990449E+02 0.  0.
        -12    1    1    2    0    0 -0.15212829684E+02 -0.73355649449E+01  0.36985473273E+02  0.40659143292E+02  0.00000000000E+00 0.  1.
         11    1    3    3    0    0  0.42603147548E+01 -0.16237383562E+01 -0.18696780175E+02  0.19244645936E+02  0.51100000000E-03 0. -1.
        -11    1    3    3    0    0  0.11017749393E+02  0.14754941688E+02 -0.17555550078E+02  0.25442021238E+02  0.51100000000E-03 0.  1.
        -12    1    3    3    0    0 -0.65234464006E-01 -0.57956383871E+01 -0.73314302071E+00  0.58421895329E+01  0.00000000000E+00 0.  1.
</event>
<event>
 7    1  0.3449452E-011  0.5052885E+02  0.7816164E-02  0.1300439E+00
        -11   -1    0    0    0    0  0.00000000000E+00  0.00000000000E+00  0.45593999997E+02  0.45594000000E+02  0.51100000000E-03 0.  1.
         11   -1    0    0    0    0 -0.00000000000E+00 -0.00000000000E+00 -0.45593999997E+02  0.45594000000E+02  0.51100000000E-03 0. -1.
    9900012    2    1    2    0    0  0.86269456135E+01  0.35933385683E+02 -0.16956823457E+02  0.50528852702E+02  0.29999978271E+02 0.  0.
        -12    1    1    2    0    0 -0.86269456135E+01 -0.35933385683E+02  0.16956823457E+02  0.40659147298E+02  0.00000000000E+00 0.  1.
         11    1    3    3    0    0  0.83335235212E+01  0.13246289181E+02 -0.19753051125E+02  0.25201087682E+02  0.51100000000E-03 0. -1.
        -11    1    3    3    0    0  0.24723012879E+01  0.14056054795E+00  0.73257314277E+00  0.25823815745E+01  0.51100000000E-03 0.  1.
         12    1    3    3    0    0 -0.21788791956E+01  0.22546535954E+02  0.20636545245E+01  0.22745383445E+02  0.00000000000E+00 0. -1.
</event>
<event>
 7    1  0.3449452E-011  0.5052884E+02  0.7816164E-02  0.1300439E+00
        -11   -1    0    0    0    0  0.00000000000E+00  0.00000000000E+00  0.45593999997E+02  0.45594000000E+02  0.51100000000E-03 0.  1.
         11   -1    0    0    0    0 -0.00000000000E+00 -0.00000000000E+00 -0.45593999997E+02  0.45594000000E+02  0.51100000000E-03 0. -1.
    9900012    2    1    2    0    0 -0.21445208200E+01 -0.37653795452E+02 -0.15190775890E+02  0.50528844160E+02  0.29999952309E+02 0.  0.
        -12    1    1    2    0    0  0.21445208200E+01  0.37653795452E+02  0.15190775890E+02  0.40659155840E+02  0.00000000000E+00 0.  1.
         11    1    3    3    0    0  0.14715865303E+01 -0.21015835478E+02 -0.74226897832E+01  0.22336679065E+02  0.51100000000E-03 0. -1.
        -11    1    3    3    0    0  0.82860083895E+01 -0.50189510578E+01 -0.61630168530E+01  0.11481749943E+02  0.51100000000E-03 0.  1.
         12    1    3    3    0    0 -0.11902115740E+02 -0.11619008916E+02 -0.16050692539E+01  0.16710415153E+02  0.00000000000E+00 0. -1.
</event>
<event>
 7    1  0.4044783E-011  0.5052886E+02  0.7816164E-02  0.1300439E+00
        -11   -1    0    0    0    0  0.00000000000E+00  0.00000000000E+00  0.45593999997E+02  0.45594000000E+02  0.51100000000E-03 0. -1.
         11   -1    0    0    0    0 -0.00000000000E+00 -0.00000000000E+00 -0.45593999997E+02  0.45594000000E+02  0.51100000000E-03 0.  1.
    9900012    2    1    2    0    0  0.23460509385E+02  0.14957417163E+01  0.33174284823E+02  0.50528856902E+02  0.29999991041E+02 0.  0.
        -12    1    1    2    0    0 -0.23460509385E+02 -0.14957417163E+01 -0.33174284823E+02  0.40659143098E+02  0.00000000000E+00 0.  1.
         11    1    3    3    0    0  0.62310937037E+01  0.61026572180E+01  0.93241280779E+01  0.12767471110E+02  0.51100000000E-03 0. -1.
        -11    1    3    3    0    0  0.15701748188E+02  0.22203821157E+01  0.34964330808E+01  0.16238843477E+02  0.51100000000E-03 0.  1.
        -12    1    3    3    0    0  0.15276674928E+01 -0.68272976174E+01  0.20353723665E+02  0.21522542316E+02  0.00000000000E+00 0.  1.
</event>
<event>
 7    1  0.3449452E-011  0.5052886E+02  0.7816164E-02  0.1300439E+00
        -11   -1    0    0    0    0  0.00000000000E+00  0.00000000000E+00  0.45593999997E+02  0.45594000000E+02  0.51100000000E-03 0.  1.
         11   -1    0    0    0    0 -0.00000000000E+00 -0.00000000000E+00 -0.45593999997E+02  0.45594000000E+02  0.51100000000E-03 0. -1.
    9900012    2    1    2    0    0  0.28362896653E+02 -0.64067804916E+01 -0.28419450765E+02  0.50528856814E+02  0.29999990773E+02 0.  0.
        -12    1    1    2    0    0 -0.28362896653E+02  0.64067804916E+01  0.28419450765E+02  0.40659143186E+02  0.00000000000E+00 0.  1.
         11    1    3    3    0    0  0.17450463216E+01  0.30963724917E+01 -0.62798421932E+01  0.72158940891E+01  0.51100000000E-03 0. -1.
        -11    1    3    3    0    0  0.29316187052E+02 -0.33358640094E+01 -0.13737349733E+02  0.32546606427E+02  0.51100000000E-03 0.  1.
         12    1    3    3    0    0 -0.26983367208E+01 -0.61672889739E+01 -0.84022588384E+01  0.10766356298E+02  0.00000000000E+00 0. -1.
</event>
<event>
 7    1  0.3449452E-011  0.5052887E+02  0.7816164E-02  0.1300439E+00
        -11   -1    0    0    0    0  0.00000000000E+00  0.00000000000E+00  0.45593999997E+02  0.45594000000E+02  0.51100000000E-03 0. -1.
         11   -1    0    0    0    0 -0.00000000000E+00 -0.00000000000E+00 -0.45593999997E+02  0.45594000000E+02  0.51100000000E-03 0.  1.
    9900012    2    1    2    0    0 -0.13387665630E+02 -0.31241971690E+02  0.22313097263E+02  0.50528871928E+02  0.30000036712E+02 0.  0.
        -12    1    1    2    0    0  0.13387665630E+02  0.31241971690E+02 -0.22313097263E+02  0.40659128072E+02  0.00000000000E+00 0.  1.
         11    1    3    3    0    0 -0.19382698166E+01  0.10144835070E+01 -0.22819450087E+01  0.31612244386E+01  0.51100000000E-03 0. -1.
        -11    1    3    3    0    0  0.58269001044E+01 -0.11040781029E+02  0.39555077859E+01  0.13095711232E+02  0.51100000000E-03 0.  1.
         12    1    3    3    0    0 -0.17276295917E+02 -0.21215674168E+02  0.20639534486E+02  0.34271936257E+02  0.00000000000E+00 0. -1.
</event>
<event>
 7    1  0.3449452E-011  0.5052885E+02  0.7816164E-02  0.1300439E+00
        -11   -1    0    0    0    0  0.00000000000E+00  0.00000000000E+00  0.45593999997E+02  0.45594000000E+02  0.51100000000E-03 0.  1.
         11   -1    0    0    0    0 -0.00000000000E+00 -0.00000000000E+00 -0.45593999997E+02  0.45594000000E+02  0.51100000000E-03 0. -1.
    9900012    2    1    2    0    0 -0.18906565443E+02 -0.21365777014E+02 -0.28969147937E+02  0.50528853717E+02  0.29999981359E+02 0.  0.
        -12    1    1    2    0    0  0.18906565443E+02  0.21365777014E+02  0.28969147937E+02  0.40659146283E+02  0.00000000000E+00 0.  1.
         11    1    3    3    0    0 -0.52507812711E+01  0.34036361514E+01 -0.12513585423E+01  0.63813275633E+01  0.51100000000E-03 0. -1.
        -11    1    3    3    0    0 -0.98459591272E+01 -0.63606739625E+01 -0.21247443534E+02  0.24266333497E+02  0.51100000000E-03 0.  1.
         12    1    3    3    0    0 -0.38098250442E+01 -0.18408739203E+02 -0.64703458604E+01  0.19881192657E+02  0.00000000000E+00 0. -1.
</event>
<event>
 7    1  0.3449452E-011  0.5052886E+02  0.7816164E-02  0.1300439E+00
        -11   -1    0    0    0    0  0.00000000000E+00  0.00000000000E+00  0.45593999997E+02  0.45594000000E+02  0.51100000000E-03 0. -1.
         11   -1    0    0    0    0 -0.00000000000E+00 -0.00000000000E+00 -0.45593999997E+02  0.45594000000E+02  0.51100000000E-03 0.  1.
    9900012    2    1    2    0    0 -0.11221796590E+02 -0.26521990842E+02  0.28702285022E+02  0.50528857333E+02  0.29999992349E+02 0.  0.
        -12    1    1    2    0    0  0.11221796590E+02  0.26521990842E+02 -0.28702285022E+02  0.40659142667E+02  0.00000000000E+00 0.  1.
         11    1    3    3    0    0 -0.46060333428E+01  0.19077634052E+01  0.86021681501E+01  0.99424545012E+01  0.51100000000E-03 0. -1.
        -11    1    3    3    0    0  0.54058918858E+01 -0.14928260436E+01  0.18786880081E+01  0.59145300380E+01  0.51100000000E-03 0.  1.
        -12    1    3    3    0    0 -0.12021655133E+02 -0.26936928204E+02  0.18221428864E+02  0.34671872794E+02  0.00000000000E+00 0.  1.
</event>
<event>
 7    1  0.3449452E-011  0.5052886E+02  0.7816164E-02  0.1300439E+00
        -11   -1    0    0    0    0  0.00000000000E+00  0.00000000000E+00  0.45593999997E+02  0.45594000000E+02  0.51100000000E-03 0. -1.
         11   -1    0    0    0    0 -0.00000000000E+00 -0.00000000000E+00 -0.45593999997E+02  0.45594000000E+02  0.51100000000E-03 0.  1.
    9900012    2    1    2    0    0  0.38214315236E+02  0.91607551309E+01  0.10436121471E+02  0.50528856442E+02  0.29999989642E+02 0.  0.
        -12    1    1    2    0    0 -0.38214315236E+02 -0.91607551309E+01 -0.10436121471E+02  0.40659143558E+02  0.00000000000E+00 0.  1.
         11    1    3    3    0    0  0.15902379783E+02  0.11851778738E+01 -0.65697346182E+01  0.17246789340E+02  0.51100000000E-03 0. -1.
        -11    1    3    3    0    0  0.23032638243E+02  0.64336865828E+01  0.97437136761E+01  0.25823142797E+02  0.51100000000E-03 0.  1.
        -12    1    3    3    0    0 -0.72070278958E+00  0.15418906743E+01  0.72621424127E+01  0.74589243048E+01  0.00000000000E+00 0.  1.
</event>
<event>
 7    1  0.3449452E-011  0.5052887E+02  0.7816164E-02  0.1300439E+00
        -11   -1    0    0    0    0  0.00000000000E+00  0.00000000000E+00  0.45593999997E+02  0.45594000000E+02  0.51100000000E-03 0.  1.
         11   -1    0    0    0    0 -0.00000000000E+00 -0.00000000000E+00 -0.45593999997E+02  0.45594000000E+02  0.51100000000E-03 0. -1.
    9900012    2    1    2    0    0 -0.27283870159E+02  0.30124093717E+02  0.11375951884E+01  0.50528871677E+02  0.30000035951E+02 0.  0.
        -12    1    1    2    0    0  0.27283870159E+02 -0.30124093717E+02 -0.11375951884E+01  0.40659128323E+02  0.00000000000E+00 0.  1.
         11    1    3    3    0    0  0.23815461577E+01  0.12613455373E+02 -0.47732128872E+01  0.13695056775E+02  0.51100000000E-03 0. -1.
        -11    1    3    3    0    0 -0.11519419170E+02  0.79330980771E+00  0.40297207995E+00  0.11553732956E+02  0.51100000000E-03 0.  1.
        -12    1    3    3    0    0 -0.18145997147E+02  0.16717328537E+02  0.55078359956E+01  0.25280081947E+02  0.00000000000E+00 0.  1.
</event>
<event>
 7    1  0.3449452E-011  0.5052887E+02  0.7816164E-02  0.1300439E+00
        -11   -1    0    0    0    0  0.00000000000E+00  0.00000000000E+00  0.45593999997E+02  0.45594000000E+02  0.51100000000E-03 0.  1.
         11   -1    0    0    0    0 -0.00000000000E+00 -0.00000000000E+00 -0.45593999997E+02  0.45594000000E+02  0.51100000000E-03 0. -1.
    9900012    2    1    2    0    0 -0.32615874707E+02 -0.88333106215E+01 -0.22612884424E+02  0.50528865707E+02  0.30000017804E+02 0.  0.
        -12    1    1    2    0    0  0.32615874707E+02  0.88333106215E+01  0.22612884424E+02  0.40659134293E+02  0.00000000000E+00 0.  1.
         11    1    3    3    0    0 -0.23159345277E+02 -0.34554427860E+01 -0.19193846519E+01  0.23494241767E+02  0.51100000000E-03 0. -1.
        -11    1    3    3    0    0 -0.83415184655E+01 -0.67360759016E+01 -0.60996769339E+01  0.12335384381E+02  0.51100000000E-03 0.  1.
         12    1    3    3    0    0 -0.11150109650E+01  0.13582080661E+01 -0.14593822838E+02  0.14699239560E+02  0.00000000000E+00 0. -1.
</event>
<event>
 7    1  0.3449452E-011  0.5052883E+02  0.7816164E-02  0.1300439E+00
        -11   -1    0    0    0    0  0.00000000000E+00  0.00000000000E+00  0.45593999997E+02  0.45594000000E+02  0.51100000000E-03 0.  1.
         11   -1    0    0    0    0 -0.00000000000E+00 -0.00000000000E+00 -0.45593999997E+02  0.45594000000E+02  0.51100000000E-03 0. -1.
    9900012    2    1    2    0    0 -0.18409069610E+02 -0.34925588364E+02 -0.97199557383E+01  0.50528829988E+02  0.29999909232E+02 0.  0.
        -12    1    1    2    0    0  0.18409069610E+02  0.34925588364E+02  0.97199557383E+01  0.40659170012E+02  0.00000000000E+00 0.  1.
         11    1    3    3    0    0 -0.11203040441E+02 -0.16860036136E+02 -0.16006096513E+01  0.20305932265E+02  0.51100000000E-03 0. -1.
        -11    1    3    3    0    0 -0.14785351310E+02 -0.10061069527E+02 -0.32720030202E+01  0.18180696835E+02  0.51100000000E-03 0.  1.
        -12    1    3    3    0    0  0.75793221406E+01 -0.80044827015E+01 -0.48473430668E+01  0.12042200888E+02  0.00000000000E+00 0.  1.
</event>
<event>
 7    1  0.3449452E-011  0.5052886E+02  0.7816164E-02  0.1300439E+00
        -11   -1    0    0    0    0  0.00000000000E+00  0.00000000000E+00  0.45593999997E+02  0.45594000000E+02  0.51100000000E-03 0.  1.
         11   -1    0    0    0    0 -0.00000000000E+00 -0.00000000000E+00 -0.45593999997E+02  0.45594000000E+02  0.51100000000E-03 0. -1.
    9900012    2    1    2    0    0 -0.18131607399E+02  0.46368901939E+01 -0.36095837629E+02  0.50528862876E+02  0.30000009198E+02 0.  0.
        -12    1    1    2    0    0  0.18131607399E+02 -0.46368901939E+01  0.36095837629E+02  0.40659137124E+02  0.00000000000E+00 0.  1.
         11    1    3    3    0    0 -0.49910621148E+01  0.76290110029E+01 -0.21043458237E+02  0.22933374038E+02  0.51100000000E-03 0.  1.
        -11    1    3    3    0    0  0.10033788106E+01  0.59431275600E+01 -0.62831633260E+01  0.87066455007E+01  0.51100000000E-03 0. -1.
        -12    1    3    3    0    0 -0.14143924095E+02 -0.89352483691E+01 -0.87692160657E+01  0.18888843337E+02  0.00000000000E+00 0.  1.
</event>
<event>
 7    1  0.3449452E-011  0.5052886E+02  0.7816164E-02  0.1300439E+00
        -11   -1    0    0    0    0  0.00000000000E+00  0.00000000000E+00  0.45593999997E+02  0.45594000000E+02  0.51100000000E-03 0.  1.
         11   -1    0    0    0    0 -0.00000000000E+00 -0.00000000000E+00 -0.45593999997E+02  0.45594000000E+02  0.51100000000E-03 0. -1.
    9900012    2    1    2    0    0  0.22680052108E+01 -0.37763144454E+02 -0.14898540346E+02  0.50528862882E+02  0.30000009217E+02 0.  0.
        -12    1    1    2    0    0 -0.22680052108E+01  0.37763144454E+02  0.14898540346E+02  0.40659137118E+02  0.00000000000E+00 0.  1.
         11    1    3    3    0    0  0.43675377110E+01 -0.26049183364E+01  0.59662666154E+00  0.51202489032E+01  0.51100000000E-03 0. -1.
        -11    1    3    3    0    0  0.54828352304E+01 -0.90923120076E+01  0.46629072719E+01  0.11596306494E+02  0.51100000000E-03 0.  1.
         12    1    3    3    0    0 -0.75823677306E+01 -0.26065914110E+02 -0.20158074280E+02  0.33812307485E+02  0.00000000000E+00 0. -1.
</event>
<event>
 7    1  0.3449452E-011  0.5052885E+02  0.7816164E-02  0.1300439E+00
        -11   -1    0    0    0    0  0.00000000000E+00  0.00000000000E+00  0.45593999997E+02  0.45594000000E+02  0.51100000000E-03 0.  1.
         11   -1    0    0    0    0 -0.00000000000E+00 -0.00000000000E+00 -0.45593999997E+02  0.45594000000E+02  0.51100000000E-03 0. -1.
    9900012    2    1    2    0    0 -0.25936776894E+02 -0.11631607378E+02 -0.29071560342E+02  0.50528852117E+02  0.29999976496E+02 0.  0.
        -12    1    1    2    0    0  0.25936776894E+02  0.11631607378E+02  0.29071560342E+02  0.40659147883E+02  0.00000000000E+00 0.  1.
         11    1    3    3    0    0 -0.54074879402E+01 -0.57963862979E+00 -0.99680986383E+01  0.11355170518E+02  0.51100000000E-03 0. -1.
        -11    1    3    3    0    0 -0.10759524550E+02  0.31767562549E+01 -0.18821606051E+02  0.21911458269E+02  0.51100000000E-03 0.  1.
        -12    1    3    3    0    0 -0.97697644035E+01 -0.14228725003E+02 -0.28185565216E+00  0.17262223331E+02  0.00000000000E+00 0.  1.
</event>
<event>
 7    1  0.3449452E-011  0.5052886E+02  0.7816164E-02  0.1300439E+00
        -11   -1    0    0    0    0  0.00000000000E+00  0.00000000000E+00  0.45593999997E+02  0.45594000000E+02  0.51100000000E-03 0.  1.
         11   -1    0    0    0    0 -0.00000000000E+00 -0.00000000000E+00 -0.45593999997E+02  0.45594000000E+02  0.51100000000E-03 0. -1.
    9900012    2    1    2    0    0  0.69052265094E+01 -0.30004728393E+02 -0.26555592318E+02  0.50528863728E+02  0.30000011787E+02 0.  0.
        -12    1    1    2    0    0 -0.69052265094E+01  0.30004728393E+02  0.26555592318E+02  0.40659136272E+02  0.00000000000E+00 0.  1.
         11    1    3    3    0    0  0.88706532971E+01 -0.18697041678E+02 -0.40644395306E+01  0.21089986401E+02  0.51100000000E-03 0. -1.
        -11    1    3    3    0    0 -0.29364072041E+01 -0.42461213050E+01  0.66984454227E+00  0.52058357040E+01  0.51100000000E-03 0.  1.
        -12    1    3    3    0    0  0.97098041629E+00 -0.70615654097E+01 -0.23160997329E+02  0.24233041623E+02  0.00000000000E+00 0.  1.
</event>
<event>
 7    1  0.3449452E-011  0.5052886E+02  0.7816164E-02  0.1300439E+00
        -11   -1    0    0    0    0  0.00000000000E+00  0.00000000000E+00  0.45593999997E+02  0.45594000000E+02  0.51100000000E-03 0.  1.
         11   -1    0    0    0    0 -0.00000000000E+00 -0.00000000000E+00 -0.45593999997E+02  0.45594000000E+02  0.51100000000E-03 0. -1.
    9900012    2    1    2    0    0  0.38868021087E+02  0.10599022511E+02 -0.54866404992E+01  0.50528861232E+02  0.30000004201E+02 0.  0.
        -12    1    1    2    0    0 -0.38868021087E+02 -0.10599022511E+02  0.54866404992E+01  0.40659138768E+02  0.00000000000E+00 0.  1.
         11    1    3    3    0    0  0.20219372362E+02  0.64909509448E+01 -0.18071647777E+00  0.21236480914E+02  0.51100000000E-03 0. -1.
        -11    1    3    3    0    0  0.18577213373E+02 -0.30118373243E+01 -0.94445766750E+01  0.21056686577E+02  0.51100000000E-03 0.  1.
        -12    1    3    3    0    0  0.71435351915E-01  0.71199088903E+01  0.41386526536E+01  0.82356937414E+01  0.00000000000E+00 0.  1.
</event>
<event>
 7    1  0.3449452E-011  0.5052886E+02  0.7816164E-02  0.1300439E+00
        -11   -1    0    0    0    0  0.00000000000E+00  0.00000000000E+00  0.45593999997E+02  0.45594000000E+02  0.51100000000E-03 0. -1.
         11   -1    0    0    0    0 -0.00000000000E+00 -0.00000000000E+00 -0.45593999997E+02  0.45594000000E+02  0.51100000000E-03 0.  1.
    9900012    2    1    2    0    0 -0.21311792865E+02 -0.23265597459E+02  0.25645377576E+02  0.50528856733E+02  0.29999990524E+02 0.  0.
        -12    1    1    2    0    0  0.21311792865E+02  0.23265597459E+02 -0.25645377576E+02  0.40659143267E+02  0.00000000000E+00 0.  1.
         11    1    3    3    0    0 -0.16033224002E+02 -0.27706169821E+02  0.16213962984E+02  0.35882986413E+02  0.51100000000E-03 0. -1.
        -11    1    3    3    0    0 -0.25583470202E+01 -0.18364415840E+00 -0.11277668299E+01  0.28019141558E+01  0.51100000000E-03 0.  1.
        -12    1    3    3    0    0 -0.27202218421E+01  0.46242165202E+01  0.10559181422E+02  0.11843956163E+02  0.00000000000E+00 0.  1.
</event>
<event>
 7    1  0.3449452E-011  0.5052886E+02  0.7816164E-02  0.1300439E+00
        -11   -1    0    0    0    0  0.00000000000E+00  0.00000000000E+00  0.45593999997E+02  0.45594000000E+02  0.51100000000E-03 0.  1.
         11   -1    0    0    0    0 -0.00000000000E+00 -0.00000000000E+00 -0.45593999997E+02  0.45594000000E+02  0.51100000000E-03 0. -1.
    9900012    2    1    2    0    0 -0.20650208032E+02 -0.30251672295E+02 -0.17651377687E+02  0.50528857084E+02  0.29999991593E+02 0.  0.
        -12    1    1    2    0    0  0.20650208032E+02  0.30251672295E+02  0.17651377687E+02  0.40659142916E+02  0.00000000000E+00 0.  1.
         11    1    3    3    0    0 -0.23991314761E+01 -0.42371821952E+01 -0.12145228268E+02  0.13084957575E+02  0.51100000000E-03 0. -1.
        -11    1    3    3    0    0 -0.47135804855E+01 -0.20978579894E+02 -0.76910792893E+01  0.22835747333E+02  0.51100000000E-03 0.  1.
        -12    1    3    3    0    0 -0.13537496071E+02 -0.50359102055E+01  0.21849298705E+01  0.14608152176E+02  0.00000000000E+00 0.  1.
</event>
<event>
 7    1  0.3449452E-011  0.5052886E+02  0.7816164E-02  0.1300439E+00
        -11   -1    0    0    0    0  0.00000000000E+00  0.00000000000E+00  0.45593999997E+02  0.45594000000E+02  0.51100000000E-03 0. -1.
         11   -1    0    0    0    0 -0.00000000000E+00 -0.00000000000E+00 -0.45593999997E+02  0.45594000000E+02  0.51100000000E-03 0.  1.
    9900012    2    1    2    0    0  0.24426983084E+02  0.28779471154E+02  0.15107279006E+02  0.50528863986E+02  0.30000012570E+02 0.  0.
        -12    1    1    2    0    0 -0.24426983084E+02 -0.28779471154E+02 -0.15107279006E+02  0.40659136014E+02  0.00000000000E+00 0.  1.
         11    1    3    3    0    0  0.36988605669E+01  0.75317170221E+01  0.69460374281E+00  0.84196677735E+01  0.51100000000E-03 0. -1.
        -11    1    3    3    0    0  0.86445018298E+01  0.47455625837E+01 -0.73080800343E+01  0.12274192852E+02  0.51100000000E-03 0.  1.
         12    1    3    3    0    0  0.12083620687E+02  0.16502191548E+02  0.21720755297E+02  0.29835003360E+02  0.00000000000E+00 0. -1.
</event>
<event>
 7    1  0.3449452E-011  0.5052888E+02  0.7816164E-02  0.1300439E+00
        -11   -1    0    0    0    0  0.00000000000E+00  0.00000000000E+00  0.45593999997E+02  0.45594000000E+02  0.51100000000E-03 0.  1.
         11   -1    0    0    0    0 -0.00000000000E+00 -0.00000000000E+00 -0.45593999997E+02  0.45594000000E+02  0.51100000000E-03 0. -1.
    9900012    2    1    2    0    0 -0.53752180579E+01  0.12683786652E+02 -0.38254312293E+02  0.50528882671E+02  0.30000069366E+02 0.  0.
        -12    1    1    2    0    0  0.53752180579E+01 -0.12683786652E+02  0.38254312293E+02  0.40659117329E+02  0.00000000000E+00 0.  1.
         11    1    3    3    0    0 -0.11721977090E+02  0.23755916831E+01 -0.37899614905E+01  0.12546393550E+02  0.51100000000E-03 0. -1.
        -11    1    3    3    0    0 -0.18403550270E+01 -0.55126125130E+00 -0.19447823469E+01  0.27336741266E+01  0.51100000000E-03 0.  1.
        -12    1    3    3    0    0  0.81871140590E+01  0.10859456220E+02 -0.32519568455E+02  0.35248814995E+02  0.00000000000E+00 0.  1.
</event>
<event>
 7    1  0.3449452E-011  0.5052886E+02  0.7816164E-02  0.1300439E+00
        -11   -1    0    0    0    0  0.00000000000E+00  0.00000000000E+00  0.45593999997E+02  0.45594000000E+02  0.51100000000E-03 0.  1.
         11   -1    0    0    0    0 -0.00000000000E+00 -0.00000000000E+00 -0.45593999997E+02  0.45594000000E+02  0.51100000000E-03 0. -1.
    9900012    2    1    2    0    0 -0.49873391372E+01 -0.25671494725E+02 -0.31133046630E+02  0.50528858524E+02  0.29999995968E+02 0.  0.
        -12    1    1    2    0    0  0.49873391372E+01  0.25671494725E+02  0.31133046630E+02  0.40659141476E+02  0.00000000000E+00 0.  1.
         11    1    3    3    0    0 -0.42375713156E+00  0.46103354960E+01 -0.82170019142E+01  0.94315366835E+01  0.51100000000E-03 0.  1.
        -11    1    3    3    0    0  0.39349764424E+01 -0.15445388771E+02 -0.59584274058E+01  0.17016078611E+02  0.51100000000E-03 0. -1.
         12    1    3    3    0    0 -0.84985584480E+01 -0.14836441451E+02 -0.16957617310E+02  0.24081243229E+02  0.00000000000E+00 0. -1.
</event>
<event>
 7    1  0.3449452E-011  0.5052885E+02  0.7816164E-02  0.1300439E+00
        -11   -1    0    0    0    0  0.00000000000E+00  0.00000000000E+00  0.45593999997E+02  0.45594000000E+02  0.51100000000E-03 0.  1.
         11   -1    0    0    0    0 -0.00000000000E+00 -0.00000000000E+00 -0.45593999997E+02  0.45594000000E+02  0.51100000000E-03 0. -1.
    9900012    2    1    2    0    0 -0.98800154337E+01  0.37830405935E+02 -0.11154016371E+02  0.50528850975E+02  0.29999973025E+02 0.  0.
        -12    1    1    2    0    0  0.98800154337E+01 -0.37830405935E+02  0.11154016371E+02  0.40659149025E+02  0.00000000000E+00 0.  1.
         11    1    3    3    0    0 -0.94840235925E+01  0.10267424402E+02 -0.58620618514E+01  0.15156862365E+02  0.51100000000E-03 0. -1.
        -11    1    3    3    0    0 -0.72751104477E+01  0.12878329007E+02  0.56238151812E+01  0.15824218385E+02  0.51100000000E-03 0.  1.
         12    1    3    3    0    0  0.68791186065E+01  0.14684652526E+02 -0.10915769701E+02  0.19547770225E+02  0.00000000000E+00 0. -1.
</event>
<event>
 7    1  0.3449452E-011  0.5052886E+02  0.7816164E-02  0.1300439E+00
        -11   -1    0    0    0    0  0.00000000000E+00  0.00000000000E+00  0.45593999997E+02  0.45594000000E+02  0.51100000000E-03 0.  1.
         11   -1    0    0    0    0 -0.00000000000E+00 -0.00000000000E+00 -0.45593999997E+02  0.45594000000E+02  0.51100000000E-03 0. -1.
    9900012    2    1    2    0    0  0.15185146981E+02  0.12066090944E+02 -0.35734951324E+02  0.50528856063E+02  0.29999988489E+02 0.  0.
        -12    1    1    2    0    0 -0.15185146981E+02 -0.12066090944E+02  0.35734951324E+02  0.40659143937E+02  0.00000000000E+00 0.  1.
         11    1    3    3    0    0  0.14310484160E+02  0.77580677292E+01 -0.23855460677E+02  0.28880106928E+02  0.51100000000E-03 0. -1.
        -11    1    3    3    0    0  0.17570530886E+01 -0.24528419500E+01 -0.14145613636E+02  0.14463818811E+02  0.51100000000E-03 0.  1.
         12    1    3    3    0    0 -0.88239026708E+00  0.67608651652E+01  0.22661229889E+01  0.71849303244E+01  0.00000000000E+00 0. -1.
</event>
<event>
 7    1  0.3449452E-011  0.5052886E+02  0.7816164E-02  0.1300439E+00
        -11   -1    0    0    0    0  0.00000000000E+00  0.00000000000E+00  0.45593999997E+02  0.45594000000E+02  0.51100000000E-03 0. -1.
         11   -1    0    0    0    0 -0.00000000000E+00 -0.00000000000E+00 -0.45593999997E+02  0.45594000000E+02  0.51100000000E-03 0.  1.
    9900012    2    1    2    0    0  0.67025906798E+01  0.16852119415E+02  0.36390201501E+02  0.50528863071E+02  0.30000009789E+02 0.  0.
        -12    1    1    2    0    0 -0.67025906798E+01 -0.16852119415E+02 -0.36390201501E+02  0.40659136929E+02  0.00000000000E+00 0.  1.
         11    1    3    3    0    0  0.12902928060E+01  0.11156119366E+02  0.14222394256E+02  0.18121819816E+02  0.51100000000E-03 0. -1.
        -11    1    3    3    0    0  0.55615658638E+01  0.96599210367E+01  0.13654370089E+01  0.11229848965E+02  0.51100000000E-03 0.  1.
         12    1    3    3    0    0 -0.14926798998E+00 -0.39639209877E+01  0.20802370236E+02  0.21177194289E+02  0.00000000000E+00 0. -1.
</event>
<event>
 7    1  0.3449452E-011  0.5052886E+02  0.7816164E-02  0.1300439E+00
        -11   -1    0    0    0    0  0.00000000000E+00  0.00000000000E+00  0.45593999997E+02  0.45594000000E+02  0.51100000000E-03 0.  1.
         11   -1    0    0    0    0 -0.00000000000E+00 -0.00000000000E+00 -0.45593999997E+02  0.45594000000E+02  0.51100000000E-03 0. -1.
    9900012    2    1    2    0    0  0.32345492991E+02  0.12602550010E+02 -0.21168612104E+02  0.50528864225E+02  0.30000013297E+02 0.  0.
        -12    1    1    2    0    0 -0.32345492991E+02 -0.12602550010E+02  0.21168612104E+02  0.40659135775E+02  0.00000000000E+00 0.  1.
         11    1    3    3    0    0  0.18763347662E+00 -0.37844840932E+01  0.61832133769E+00  0.38392509310E+01  0.51100000000E-03 0. -1.
        -11    1    3    3    0    0  0.51558805826E+01  0.13109792710E+02 -0.78515579193E+01  0.16127514734E+02  0.51100000000E-03 0.  1.
         12    1    3    3    0    0  0.27001978932E+02  0.32772413931E+01 -0.13935375523E+02  0.30562098559E+02  0.00000000000E+00 0. -1.
</event>
<event>
 7    1  0.3449452E-011  0.5052887E+02  0.7816164E-02  0.1300439E+00
        -11   -1    0    0    0    0  0.00000000000E+00  0.00000000000E+00  0.45593999997E+02  0.45594000000E+02  0.51100000000E-03 0.  1.
         11   -1    0    0    0    0 -0.00000000000E+00 -0.00000000000E+00 -0.45593999997E+02  0.45594000000E+02  0.51100000000E-03 0. -1.
    9900012    2    1    2    0    0  0.26797936526E+02  0.24117347794E+02 -0.18798647665E+02  0.50528867930E+02  0.30000024559E+02 0.  0.
        -12    1    1    2    0    0 -0.26797936526E+02 -0.24117347794E+02  0.18798647665E+02  0.40659132070E+02  0.00000000000E+00 0.  1.
         11    1    3    3    0    0  0.21097971122E+02  0.10283276908E+02 -0.88023601701E+01  0.25066944654E+02  0.51100000000E-03 0. -1.
        -11    1    3    3    0    0  0.60881831665E+01 -0.21756959203E+01 -0.62984263968E+01  0.90260623942E+01  0.51100000000E-03 0.  1.
         12    1    3    3    0    0 -0.38821776280E+00  0.16009766807E+02 -0.36978610982E+01  0.16435860882E+02  0.00000000000E+00 0. -1.
</event>
<event>
 7    1  0.3449452E-011  0.5052886E+02  0.7816164E-02  0.1300439E+00
        -11   -1    0    0    0    0  0.00000000000E+00  0.00000000000E+00  0.45593999997E+02  0.45594000000E+02  0.51100000000E-03 0. -1.
         11   -1    0    0    0    0 -0.00000000000E+00 -0.00000000000E+00 -0.45593999997E+02  0.45594000000E+02  0.51100000000E-03 0.  1.
    9900012    2    1    2    0    0 -0.32343655211E+02  0.14947918654E+02  0.19586058222E+02  0.50528856119E+02  0.29999988659E+02 0.  0.
        -12    1    1    2    0    0  0.32343655211E+02 -0.14947918654E+02 -0.19586058222E+02  0.40659143881E+02  0.00000000000E+00 0.  1.
         11    1    3    3    0    0  0.41164395047E+00  0.65518685070E+01  0.78379892006E+01  0.10224016170E+02  0.51100000000E-03 0. -1.
        -11    1    3    3    0    0 -0.29514958552E+02  0.39257450411E+00  0.65808718429E+01  0.30242267896E+02  0.51100000000E-03 0.  1.
         12    1    3    3    0    0 -0.32403406096E+01  0.80034756426E+01  0.51671971786E+01  0.10062572052E+02  0.00000000000E+00 0. -1.
</event>
<event>
 7    1  0.3449452E-011  0.5052886E+02  0.7816164E-02  0.1300439E+00
        -11   -1    0    0    0    0  0.00000000000E+00  0.00000000000E+00  0.45593999997E+02  0.45594000000E+02  0.51100000000E-03 0.  1.
         11   -1    0    0    0    0 -0.00000000000E+00 -0.00000000000E+00 -0.45593999997E+02  0.45594000000E+02  0.51100000000E-03 0. -1.
    9900012    2    1    2    0    0  0.29181358860E+01 -0.37890390476E+02 -0.14455739206E+02  0.50528860764E+02  0.30000002777E+02 0.  0.
        -12    1    1    2    0    0 -0.29181358860E+01  0.37890390476E+02  0.14455739206E+02  0.40659139236E+02  0.00000000000E+00 0.  1.
         11    1    3    3    0    0  0.21983781384E+00 -0.25154311407E+02 -0.10878737592E+02  0.27406835696E+02  0.51100000000E-03 0. -1.
        -11    1    3    3    0    0  0.97474598756E+01 -0.59874908123E+01 -0.62070815197E+01  0.13015025221E+02  0.51100000000E-03 0.  1.
        -12    1    3    3    0    0 -0.70491618034E+01 -0.67485882563E+01  0.26300799055E+01  0.10106999846E+02  0.00000000000E+00 0.  1.
</event>
<event>
 7    1  0.3449452E-011  0.5052884E+02  0.7816164E-02  0.1300439E+00
        -11   -1    0    0    0    0  0.00000000000E+00  0.00000000000E+00  0.45593999997E+02  0.45594000000E+02  0.51100000000E-03 0.  1.
         11   -1    0    0    0    0 -0.00000000000E+00 -0.00000000000E+00 -0.45593999997E+02  0.45594000000E+02  0.51100000000E-03 0. -1.
    9900012    2    1    2    0    0 -0.82468550475E+01  0.18830137563E+01 -0.39769474695E+02  0.50528837730E+02  0.29999932765E+02 0.  0.
        -12    1    1    2    0    0  0.82468550475E+01 -0.18830137563E+01  0.39769474695E+02  0.40659162270E+02  0.00000000000E+00 0.  1.
         11    1    3    3    0    0 -0.43661505209E+01 -0.88925931929E+01 -0.10969636971E+02  0.14780880204E+02  0.51100000000E-03 0. -1.
        -11    1    3    3    0    0 -0.46868385246E+01 -0.36002450192E+01 -0.13507809810E+02  0.14744122411E+02  0.51100000000E-03 0.  1.
        -12    1    3    3    0    0  0.80613399802E+00  0.14375851968E+02 -0.15292027914E+02  0.21003835115E+02  0.00000000000E+00 0.  1.
</event>
<event>
 7    1  0.3449452E-011  0.5052886E+02  0.7816164E-02  0.1300439E+00
        -11   -1    0    0    0    0  0.00000000000E+00  0.00000000000E+00  0.45593999997E+02  0.45594000000E+02  0.51100000000E-03 0.  1.
         11   -1    0    0    0    0 -0.00000000000E+00 -0.00000000000E+00 -0.45593999997E+02  0.45594000000E+02  0.51100000000E-03 0. -1.
    9900012    2    1    2    0    0 -0.22910836265E+01 -0.33808944469E+01 -0.40453508894E+02  0.50528857199E+02  0.29999991943E+02 0.  0.
        -12    1    1    2    0    0  0.22910836265E+01  0.33808944469E+01  0.40453508894E+02  0.40659142801E+02  0.00000000000E+00 0.  1.
         11    1    3    3    0    0 -0.84465679179E+00 -0.65383042741E+01 -0.28360581446E+02  0.29116755453E+02  0.51100000000E-03 0. -1.
        -11    1    3    3    0    0  0.70360019491E+01 -0.19809768333E+01 -0.75335606146E+01  0.10496862790E+02  0.51100000000E-03 0.  1.
         12    1    3    3    0    0 -0.84824287838E+01  0.51383866605E+01 -0.45593668331E+01  0.10915238956E+02  0.00000000000E+00 0. -1.
</event>
<event>
 7    1  0.3449452E-011  0.5052886E+02  0.7816164E-02  0.1300439E+00
        -11   -1    0    0    0    0  0.00000000000E+00  0.00000000000E+00  0.45593999997E+02  0.45594000000E+02  0.51100000000E-03 0. -1.
         11   -1    0    0    0    0 -0.00000000000E+00 -0.00000000000E+00 -0.45593999997E+02  0.45594000000E+02  0.51100000000E-03 0.  1.
    9900012    2    1    2    0    0 -0.40283924544E+02 -0.55103869450E+01  0.84104668809E-01  0.50528855708E+02  0.29999987410E+02 0.  0.
        -12    1    1    2    0    0  0.40283924544E+02  0.55103869450E+01 -0.84104668809E-01  0.40659144292E+02  0.00000000000E+00 0.  1.
         11    1    3    3    0    0 -0.14429766515E+02 -0.67512876328E+01  0.62687773790E+01  0.17120035527E+02  0.51100000000E-03 0. -1.
        -11    1    3    3    0    0  0.63449777911E+00 -0.45049566550E+01 -0.42654300665E+01  0.62362741928E+01  0.51100000000E-03 0.  1.
        -12    1    3    3    0    0 -0.26488655809E+02  0.57458573428E+01 -0.19192426437E+01  0.27172545988E+02  0.00000000000E+00 0.  1.
</event>
<event>
 7    1  0.3449452E-011  0.5052885E+02  0.7816164E-02  0.1300439E+00
        -11   -1    0    0    0    0  0.00000000000E+00  0.00000000000E+00  0.45593999997E+02  0.45594000000E+02  0.51100000000E-03 0.  1.
         11   -1    0    0    0    0 -0.00000000000E+00 -0.00000000000E+00 -0.45593999997E+02  0.45594000000E+02  0.51100000000E-03 0. -1.
    9900012    2    1    2    0    0  0.49040873950E+01  0.11890437860E+02 -0.38571157698E+02  0.50528846149E+02  0.29999958356E+02 0.  0.
        -12    1    1    2    0    0 -0.49040873950E+01 -0.11890437860E+02  0.38571157698E+02  0.40659153851E+02  0.00000000000E+00 0.  1.
         11    1    3    3    0    0  0.75857138202E+01 -0.15106398765E+01 -0.10845548884E+02  0.13321074200E+02  0.51100000000E-03 0. -1.
        -11    1    3    3    0    0  0.53555757818E+01  0.13462937648E+02 -0.96020976453E+01  0.17381978067E+02  0.51100000000E-03 0.  1.
        -12    1    3    3    0    0 -0.80372022070E+01 -0.61859911958E-01 -0.18123511169E+02  0.19825793882E+02  0.00000000000E+00 0.  1.
</event>
<event>
 7    1  0.3449452E-011  0.5052883E+02  0.7816164E-02  0.1300439E+00
        -11   -1    0    0    0    0  0.00000000000E+00  0.00000000000E+00  0.45593999997E+02  0.45594000000E+02  0.51100000000E-03 0. -1.
         11   -1    0    0    0    0 -0.00000000000E+00 -0.00000000000E+00 -0.45593999997E+02  0.45594000000E+02  0.51100000000E-03 0.  1.
    9900012    2    1    2    0    0  0.17106391416E+02  0.30974154918E+02 -0.20028505381E+02  0.50528832178E+02  0.29999915888E+02 0.  0.
        -12    1    1    2    0    0 -0.17106391416E+02 -0.30974154918E+02  0.20028505381E+02  0.40659167822E+02  0.00000000000E+00 0.  1.
         11    1    3    3    0    0  0.13184455800E+02  0.22244841002E+02 -0.10995698417E+01  0.25881883240E+02  0.51100000000E-03 0. -1.
        -11    1    3    3    0    0  0.13223293156E+01  0.16327062329E+01  0.16837111099E+01  0.26924278680E+01  0.51100000000E-03 0.  1.
        -12    1    3    3    0    0  0.25996063002E+01  0.70966076832E+01 -0.20612646649E+02  0.21954521070E+02  0.00000000000E+00 0.  1.
</event>
<event>
 7    1  0.3449452E-011  0.5052884E+02  0.7816164E-02  0.1300439E+00
        -11   -1    0    0    0    0  0.00000000000E+00  0.00000000000E+00  0.45593999997E+02  0.45594000000E+02  0.51100000000E-03 0. -1.
         11   -1    0    0    0    0 -0.00000000000E+00 -0.00000000000E+00 -0.45593999997E+02  0.45594000000E+02  0.51100000000E-03 0.  1.
    9900012    2    1    2    0    0  0.22227502614E+02 -0.31437001037E+02 -0.13069819300E+02  0.50528842566E+02  0.29999947465E+02 0.  0.
        -12    1    1    2    0    0 -0.22227502614E+02  0.31437001037E+02  0.13069819300E+02  0.40659157434E+02  0.00000000000E+00 0.  1.
         11    1    3    3    0    0  0.10583112106E+02 -0.17947457912E+02 -0.86787602811E+01  0.22570653239E+02  0.51100000000E-03 0. -1.
        -11    1    3    3    0    0 -0.14188443072E+01 -0.88819573005E+01 -0.96035628086E+01  0.13157914103E+02  0.51100000000E-03 0.  1.
        -12    1    3    3    0    0  0.13063234815E+02 -0.46075858245E+01  0.52125037894E+01  0.14800275224E+02  0.00000000000E+00 0.  1.
</event>
<event>
 7    1  0.3449452E-011  0.5052888E+02  0.7816164E-02  0.1300439E+00
        -11   -1    0    0    0    0  0.00000000000E+00  0.00000000000E+00  0.45593999997E+02  0.45594000000E+02  0.51100000000E-03 0.  1.
         11   -1    0    0    0    0 -0.00000000000E+00 -0.00000000000E+00 -0.45593999997E+02  0.45594000000E+02  0.51100000000E-03 0. -1.
    9900012    2    1    2    0    0 -0.28017345034E+02 -0.29153545505E+02 -0.42735270883E+01  0.50528882055E+02  0.30000067495E+02 0.  0.
        -12    1    1    2    0    0  0.28017345034E+02  0.29153545505E+02  0.42735270883E+01  0.40659117945E+02  0.00000000000E+00 0.  1.
         11    1    3    3    0    0 -0.32483579006E+01 -0.85897870383E+01 -0.88413130341E+01  0.12747748305E+02  0.51100000000E-03 0. -1.
        -11    1    3    3    0    0 -0.12271935306E+01 -0.12445451385E+01 -0.54486891715E+01  0.57221596021E+01  0.51100000000E-03 0.  1.
        -12    1    3    3    0    0 -0.23541793603E+02 -0.19319213328E+02  0.10016475117E+02  0.32058974148E+02  0.00000000000E+00 0.  1.
</event>
<event>
 7    1  0.3449452E-011  0.5052888E+02  0.7816164E-02  0.1300439E+00
        -11   -1    0    0    0    0  0.00000000000E+00  0.00000000000E+00  0.45593999997E+02  0.45594000000E+02  0.51100000000E-03 0.  1.
         11   -1    0    0    0    0 -0.00000000000E+00 -0.00000000000E+00 -0.45593999997E+02  0.45594000000E+02  0.51100000000E-03 0. -1.
    9900012    2    1    2    0    0 -0.36605549773E+02 -0.57589715998E+01  0.16734151678E+02  0.50528882198E+02  0.30000067928E+02 0.  0.
        -12    1    1    2    0    0  0.36605549773E+02  0.57589715998E+01 -0.16734151678E+02  0.40659117802E+02  0.00000000000E+00 0.  1.
         11    1    3    3    0    0 -0.12760769709E+02 -0.39110849424E+01 -0.45758911876E+01  0.14109309318E+02  0.51100000000E-03 0. -1.
        -11    1    3    3    0    0 -0.17629097146E+01 -0.31059107249E+01  0.11827382260E+02  0.12354817015E+02  0.51100000000E-03 0.  1.
         12    1    3    3    0    0 -0.22081870349E+02  0.12580240675E+01  0.94826606058E+01  0.24064755865E+02  0.00000000000E+00 0. -1.
</event>
<event>
 7    1  0.3449452E-011  0.5052885E+02  0.7816164E-02  0.1300439E+00
        -11   -1    0    0    0    0  0.00000000000E+00  0.00000000000E+00  0.45593999997E+02  0.45594000000E+02  0.51100000000E-03 0.  1.
         11   -1    0    0    0    0 -0.00000000000E+00 -0.00000000000E+00 -0.45593999997E+02  0.45594000000E+02  0.51100000000E-03 0. -1.
    9900012    2    1    2    0    0  0.15875730378E+02 -0.21563928967E+01 -0.37369470234E+02  0.50528854031E+02  0.29999982312E+02 0.  0.
        -12    1    1    2    0    0 -0.15875730378E+02  0.21563928967E+01  0.37369470234E+02  0.40659145969E+02  0.00000000000E+00 0.  1.
         11    1    3    3    0    0  0.27437365470E+01 -0.60935974124E+00 -0.16639946664E+01  0.32662345361E+01  0.51100000000E-03 0. -1.
        -11    1    3    3    0    0 -0.45641548177E+01  0.85165401421E+01 -0.17313948226E+02  0.19827651616E+02  0.51100000000E-03 0.  1.
        -12    1    3    3    0    0  0.17696148649E+02 -0.10063573297E+02 -0.18391527342E+02  0.27434967879E+02  0.00000000000E+00 0.  1.
</event>
<event>
 7    1  0.3449452E-011  0.5052886E+02  0.7816164E-02  0.1300439E+00
        -11   -1    0    0    0    0  0.00000000000E+00  0.00000000000E+00  0.45593999997E+02  0.45594000000E+02  0.51100000000E-03 0. -1.
         11   -1    0    0    0    0 -0.00000000000E+00 -0.00000000000E+00 -0.45593999997E+02  0.45594000000E+02  0.51100000000E-03 0.  1.
    9900012    2    1    2    0    0  0.10124637172E+01  0.32433217556E+02  0.24499523086E+02  0.50528864308E+02  0.30000013550E+02 0.  0.
        -12    1    1    2    0    0 -0.10124637172E+01 -0.32433217556E+02 -0.24499523086E+02  0.40659135692E+02  0.00000000000E+00 0.  1.
         11    1    3    3    0    0 -0.34658905323E+01  0.14855811102E+02 -0.39883170445E+00  0.15259966830E+02  0.51100000000E-03 0.  1.
        -11    1    3    3    0    0 -0.22359562531E+01 -0.24364151916E+01  0.63861613751E+01  0.71915698371E+01  0.51100000000E-03 0. -1.
         12    1    3    3    0    0  0.67143105025E+01  0.20013821646E+02  0.18512193415E+02  0.28077327640E+02  0.00000000000E+00 0. -1.
</event>
<event>
 7    1  0.3449452E-011  0.5052888E+02  0.7816164E-02  0.1300439E+00
        -11   -1    0    0    0    0  0.00000000000E+00  0.00000000000E+00  0.45593999997E+02  0.45594000000E+02  0.51100000000E-03 0. -1.
         11   -1    0    0    0    0 -0.00000000000E+00 -0.00000000000E+00 -0.45593999997E+02  0.45594000000E+02  0.51100000000E-03 0.  1.
    9900012    2    1    2    0    0 -0.38909370697E+02 -0.11048446513E+02  0.41421150361E+01  0.50528875374E+02  0.30000047187E+02 0.  0.
        -12    1    1    2    0    0  0.38909370697E+02  0.11048446513E+02 -0.41421150361E+01  0.40659124626E+02  0.00000000000E+00 0.  1.
         11    1    3    3    0    0 -0.17334528697E+02 -0.26654155492E+01  0.79561449696E+01  0.19258519368E+02  0.51100000000E-03 0. -1.
        -11    1    3    3    0    0 -0.31374884644E+01 -0.72345542091E+01  0.64050629926E+01  0.10159106293E+02  0.51100000000E-03 0.  1.
        -12    1    3    3    0    0 -0.18437353535E+02 -0.11484767551E+01 -0.10219092926E+02  0.21111249714E+02  0.00000000000E+00 0.  1.
</event>
<event>
 7    1  0.3449452E-011  0.5052886E+02  0.7816164E-02  0.1300439E+00
        -11   -1    0    0    0    0  0.00000000000E+00  0.00000000000E+00  0.45593999997E+02  0.45594000000E+02  0.51100000000E-03 0. -1.
         11   -1    0    0    0    0 -0.00000000000E+00 -0.00000000000E+00 -0.45593999997E+02  0.45594000000E+02  0.51100000000E-03 0.  1.
    9900012    2    1    2    0    0  0.14257564230E+01  0.13677475075E+02  0.38263029326E+02  0.50528861802E+02  0.30000005933E+02 0.  0.
        -12    1    1    2    0    0 -0.14257564230E+01 -0.13677475075E+02 -0.38263029326E+02  0.40659138198E+02  0.00000000000E+00 0.  1.
         11    1    3    3    0    0  0.15891040621E+01  0.79904876134E+01  0.18191629266E+02  0.19932599419E+02  0.51100000000E-03 0. -1.
        -11    1    3    3    0    0  0.10518978106E+02  0.62843213428E+01  0.12387597381E+02  0.17423953750E+02  0.51100000000E-03 0.  1.
         12    1    3    3    0    0 -0.10682325745E+02 -0.59733388119E+00  0.76838026797E+01  0.13172308633E+02  0.00000000000E+00 0. -1.
</event>
<event>
 7    1  0.3449452E-011  0.5052885E+02  0.7816164E-02  0.1300439E+00
        -11   -1    0    0    0    0  0.00000000000E+00  0.00000000000E+00  0.45593999997E+02  0.45594000000E+02  0.51100000000E-03 0. -1.
         11   -1    0    0    0    0 -0.00000000000E+00 -0.00000000000E+00 -0.45593999997E+02  0.45594000000E+02  0.51100000000E-03 0.  1.
    9900012    2    1    2    0    0  0.11533180159E+02  0.37900526154E+02  0.91488767708E+01  0.50528854983E+02  0.29999985206E+02 0.  0.
        -12    1    1    2    0    0 -0.11533180159E+02 -0.37900526154E+02 -0.91488767708E+01  0.40659145017E+02  0.00000000000E+00 0.  1.
         11    1    3    3    0    0  0.13915873373E+02  0.21951820734E+02  0.12262613935E+02  0.28738574530E+02  0.51100000000E-03 0. -1.
        -11    1    3    3    0    0  0.52778898643E+01  0.10405902137E+02 -0.38992831273E+01  0.12302167690E+02  0.51100000000E-03 0.  1.
         12    1    3    3    0    0 -0.76605830779E+01  0.55428032840E+01  0.78554596297E+00  0.94881127627E+01  0.00000000000E+00 0. -1.
</event>
<event>
 7    1  0.3449452E-011  0.5052886E+02  0.7816164E-02  0.1300439E+00
        -11   -1    0    0    0    0  0.00000000000E+00  0.00000000000E+00  0.45593999997E+02  0.45594000000E+02  0.51100000000E-03 0.  1.
         11   -1    0    0    0    0 -0.00000000000E+00 -0.00000000000E+00 -0.45593999997E+02  0.45594000000E+02  0.51100000000E-03 0. -1.
    9900012    2    1    2    0    0  0.51316215643E+01  0.14364781909E+02 -0.37689319831E+02  0.50528864145E+02  0.30000013056E+02 0.  0.
        -12    1    1    2    0    0 -0.51316215643E+01 -0.14364781909E+02  0.37689319831E+02  0.40659135855E+02  0.00000000000E+00 0.  1.
         11    1    3    3    0    0 -0.38181395122E+01  0.11999733735E+02 -0.90825626467E+01  0.15526259805E+02  0.51100000000E-03 0. -1.
        -11    1    3    3    0    0  0.32491458028E+01 -0.77804158035E+01 -0.13770559621E+02  0.16146830372E+02  0.51100000000E-03 0.  1.
         12    1    3    3    0    0  0.57006152737E+01  0.10145463977E+02 -0.14836197563E+02  0.18855773968E+02  0.00000000000E+00 0. -1.
</event>
<event>
 7    1  0.3449452E-011  0.5052882E+02  0.7816164E-02  0.1300439E+00
        -11   -1    0    0    0    0  0.00000000000E+00  0.00000000000E+00  0.45593999997E+02  0.45594000000E+02  0.51100000000E-03 0.  1.
         11   -1    0    0    0    0 -0.00000000000E+00 -0.00000000000E+00 -0.45593999997E+02  0.45594000000E+02  0.51100000000E-03 0. -1.
    9900012    2    1    2    0    0  0.69102296483E+01  0.61872570259E+01 -0.39587059292E+02  0.50528822848E+02  0.29999887529E+02 0.  0.
        -12    1    1    2    0    0 -0.69102296483E+01 -0.61872570259E+01  0.39587059292E+02  0.40659177152E+02  0.00000000000E+00 0.  1.
         11    1    3    3    0    0  0.56798900005E+01 -0.61775798022E+01 -0.74781069534E+01  0.11240361493E+02  0.51100000000E-03 0. -1.
        -11    1    3    3    0    0 -0.25970687537E+01 -0.12194683064E+01 -0.21350163315E+02  0.21542083068E+02  0.51100000000E-03 0.  1.
        -12    1    3    3    0    0  0.38274084015E+01  0.13584305135E+02 -0.10758789023E+02  0.17746378287E+02  0.00000000000E+00 0.  1.
</event>
<event>
 7    1  0.3449452E-011  0.5052887E+02  0.7816164E-02  0.1300439E+00
        -11   -1    0    0    0    0  0.00000000000E+00  0.00000000000E+00  0.45593999997E+02  0.45594000000E+02  0.51100000000E-03 0. -1.
         11   -1    0    0    0    0 -0.00000000000E+00 -0.00000000000E+00 -0.45593999997E+02  0.45594000000E+02  0.51100000000E-03 0.  1.
    9900012    2    1    2    0    0 -0.28174548178E+02 -0.28189309872E+02  0.80450516720E+01  0.50528865571E+02  0.30000017390E+02 0.  0.
        -12    1    1    2    0    0  0.28174548178E+02  0.28189309872E+02 -0.80450516720E+01  0.40659134429E+02  0.00000000000E+00 0.  1.
         11    1    3    3    0    0 -0.80082686909E+01 -0.10187306886E+02 -0.35857718185E+01  0.13445123607E+02  0.51100000000E-03 0. -1.
        -11    1    3    3    0    0 -0.67112782713E+01  0.38461706917E+01 -0.20543910729E+01  0.80034247648E+01  0.51100000000E-03 0.  1.
        -12    1    3    3    0    0 -0.13455001216E+02 -0.21848173678E+02  0.13685214563E+02  0.29080317200E+02  0.00000000000E+00 0.  1.
</event>
<event>
 7    1  0.3449452E-011  0.5052886E+02  0.7816164E-02  0.1300439E+00
        -11   -1    0    0    0    0  0.00000000000E+00  0.00000000000E+00  0.45593999997E+02  0.45594000000E+02  0.51100000000E-03 0. -1.
         11   -1    0    0    0    0 -0.00000000000E+00 -0.00000000000E+00 -0.45593999997E+02  0.45594000000E+02  0.51100000000E-03 0.  1.
    9900012    2    1    2    0    0 -0.38213565728E+02  0.10047318593E+02 -0.95885544215E+01  0.50528860898E+02  0.30000003187E+02 0.  0.
        -12    1    1    2    0    0  0.38213565728E+02 -0.10047318593E+02  0.95885544215E+01  0.40659139102E+02  0.00000000000E+00 0.  1.
         11    1    3    3    0    0 -0.45895852197E+00 -0.34932219636E+00 -0.35269652175E+01  0.35738148845E+01  0.51100000000E-03 0. -1.
        -11    1    3    3    0    0 -0.26146157166E+02 -0.49574452389E+01 -0.75122559695E+01  0.27651976201E+02  0.51100000000E-03 0.  1.
         12    1    3    3    0    0 -0.11608450041E+02  0.15354086029E+02  0.14506667655E+01  0.19303069812E+02  0.00000000000E+00 0. -1.
</event>
<event>
 7    1  0.3449452E-011  0.5052891E+02  0.7816164E-02  0.1300439E+00
        -11   -1    0    0    0    0  0.00000000000E+00  0.00000000000E+00  0.45593999997E+02  0.45594000000E+02  0.51100000000E-03 0. -1.
         11   -1    0    0    0    0 -0.00000000000E+00 -0.00000000000E+00 -0.45593999997E+02  0.45594000000E+02  0.51100000000E-03 0.  1.
    9900012    2    1    2    0    0 -0.19360579131E+02  0.84513328415E+01  0.34740531169E+02  0.50528910524E+02  0.30000154028E+02 0.  0.
        -12    1    1    2    0    0  0.19360579131E+02 -0.84513328415E+01 -0.34740531169E+02  0.40659089476E+02  0.00000000000E+00 0.  1.
         11    1    3    3    0    0 -0.12769679434E+01 -0.22341873180E+01  0.96300970009E+01  0.99679992280E+01  0.51100000000E-03 0. -1.
        -11    1    3    3    0    0  0.10337436563E+01  0.63063365138E+01  0.18957890285E+02  0.20006001862E+02  0.51100000000E-03 0.  1.
        -12    1    3    3    0    0 -0.19117354844E+02  0.43791836458E+01  0.61525438837E+01  0.20554909434E+02  0.00000000000E+00 0.  1.
</event>
<event>
 7    1  0.3449452E-011  0.5052886E+02  0.7816164E-02  0.1300439E+00
        -11   -1    0    0    0    0  0.00000000000E+00  0.00000000000E+00  0.45593999997E+02  0.45594000000E+02  0.51100000000E-03 0.  1.
         11   -1    0    0    0    0 -0.00000000000E+00 -0.00000000000E+00 -0.45593999997E+02  0.45594000000E+02  0.51100000000E-03 0. -1.
    9900012    2    1    2    0    0 -0.19497165573E+02 -0.32952341567E+02 -0.13680972277E+02  0.50528864710E+02  0.30000014771E+02 0.  0.
        -12    1    1    2    0    0  0.19497165573E+02  0.32952341567E+02  0.13680972277E+02  0.40659135290E+02  0.00000000000E+00 0.  1.
         11    1    3    3    0    0 -0.10346589306E+02 -0.49632323706E+01 -0.11267562626E+02  0.16082398876E+02  0.51100000000E-03 0. -1.
        -11    1    3    3    0    0  0.52611068715E+01 -0.64777505230E+01 -0.18494065159E+01  0.85475611770E+01  0.51100000000E-03 0.  1.
        -12    1    3    3    0    0 -0.14411683139E+02 -0.21511358673E+02 -0.56400313482E+00  0.25898904656E+02  0.00000000000E+00 0.  1.
</event>
<event>
 7    1  0.3449452E-011  0.5052886E+02  0.7816164E-02  0.1300439E+00
        -11   -1    0    0    0    0  0.00000000000E+00  0.00000000000E+00  0.45593999997E+02  0.45594000000E+02  0.51100000000E-03 0. -1.
         11   -1    0    0    0    0 -0.00000000000E+00 -0.00000000000E+00 -0.45593999997E+02  0.45594000000E+02  0.51100000000E-03 0.  1.
    9900012    2    1    2    0    0 -0.27991058172E+02 -0.27956502057E+02 -0.93861733845E+01  0.50528860859E+02  0.30000003068E+02 0.  0.
        -12    1    1    2    0    0  0.27991058172E+02  0.27956502057E+02  0.93861733845E+01  0.40659139141E+02  0.00000000000E+00 0.  1.
         11    1    3    3    0    0  0.55705834673E+00  0.23188417040E+01 -0.29523958654E+01  0.37952578907E+01  0.51100000000E-03 0. -1.
        -11    1    3    3    0    0 -0.22471195358E+02 -0.18993596495E+02 -0.13193544030E+02  0.32245634324E+02  0.51100000000E-03 0.  1.
         12    1    3    3    0    0 -0.60769211605E+01 -0.11281747266E+02  0.67597665109E+01  0.14487968644E+02  0.00000000000E+00 0. -1.
</event>
<event>
 7    1  0.3449452E-011  0.5052886E+02  0.7816164E-02  0.1300439E+00
        -11   -1    0    0    0    0  0.00000000000E+00  0.00000000000E+00  0.45593999997E+02  0.45594000000E+02  0.51100000000E-03 0.  1.
         11   -1    0    0    0    0 -0.00000000000E+00 -0.00000000000E+00 -0.45593999997E+02  0.45594000000E+02  0.51100000000E-03 0. -1.
    9900012    2    1    2    0    0  0.26617571743E+02  0.15579017458E+02 -0.26494624067E+02  0.50528855704E+02  0.29999987398E+02 0.  0.
        -12    1    1    2    0    0 -0.26617571743E+02 -0.15579017458E+02  0.26494624067E+02  0.40659144296E+02  0.00000000000E+00 0.  1.
         11    1    3    3    0    0  0.45271510781E+01  0.11136682287E+02 -0.53184170375E+01  0.13145582881E+02  0.51100000000E-03 0. -1.
        -11    1    3    3    0    0  0.26095876412E+02  0.43583047237E+01 -0.16312383689E+02  0.31081882949E+02  0.51100000000E-03 0.  1.
         12    1    3    3    0    0 -0.40054557470E+01  0.84030447160E-01 -0.48638233401E+01  0.63013898737E+01  0.00000000000E+00 0. -1.
</event>
<event>
 7    1  0.3449452E-011  0.5052888E+02  0.7816164E-02  0.1300439E+00
        -11   -1    0    0    0    0  0.00000000000E+00  0.00000000000E+00  0.45593999997E+02  0.45594000000E+02  0.51100000000E-03 0.  1.
         11   -1    0    0    0    0 -0.00000000000E+00 -0.00000000000E+00 -0.45593999997E+02  0.45594000000E+02  0.51100000000E-03 0. -1.
    9900012    2    1    2    0    0  0.14522580251E+02  0.20825637287E+02 -0.31757704359E+02  0.50528876894E+02  0.30000051808E+02 0.  0.
        -12    1    1    2    0    0 -0.14522580251E+02 -0.20825637287E+02  0.31757704359E+02  0.40659123106E+02  0.00000000000E+00 0.  1.
         11    1    3    3    0    0  0.16128950553E+02  0.17833587358E+02 -0.36002550618E+02  0.43293920304E+02  0.51100000000E-03 0. -1.
        -11    1    3    3    0    0  0.10346751718E+01  0.36951519626E+00  0.31788716996E+01  0.33633792137E+01  0.51100000000E-03 0.  1.
        -12    1    3    3    0    0 -0.26410454745E+01  0.26225347328E+01  0.10659745594E+01  0.38715773768E+01  0.00000000000E+00 0.  1.
</event>
<event>
 7    1  0.3449452E-011  0.5052888E+02  0.7816164E-02  0.1300439E+00
        -11   -1    0    0    0    0  0.00000000000E+00  0.00000000000E+00  0.45593999997E+02  0.45594000000E+02  0.51100000000E-03 0.  1.
         11   -1    0    0    0    0 -0.00000000000E+00 -0.00000000000E+00 -0.45593999997E+02  0.45594000000E+02  0.51100000000E-03 0. -1.
    9900012    2    1    2    0    0  0.18128835833E+02 -0.35725755567E+02 -0.69411418971E+01  0.50528883552E+02  0.30000072043E+02 0.  0.
        -12    1    1    2    0    0 -0.18128835833E+02  0.35725755567E+02  0.69411418971E+01  0.40659116448E+02  0.00000000000E+00 0.  1.
         11    1    3    3    0    0  0.12553579427E+02 -0.16748531899E+02  0.10342458754E+02  0.23346779875E+02  0.51100000000E-03 0. -1.
        -11    1    3    3    0    0 -0.15164143397E+01 -0.16649109115E+01 -0.15094789141E+01  0.27110823754E+01  0.51100000000E-03 0.  1.
         12    1    3    3    0    0  0.70916707459E+01 -0.17312312757E+02 -0.15774121737E+02  0.24471021301E+02  0.00000000000E+00 0. -1.
</event>
<event>
 7    1  0.3449452E-011  0.5052889E+02  0.7816164E-02  0.1300439E+00
        -11   -1    0    0    0    0  0.00000000000E+00  0.00000000000E+00  0.45593999997E+02  0.45594000000E+02  0.51100000000E-03 0.  1.
         11   -1    0    0    0    0 -0.00000000000E+00 -0.00000000000E+00 -0.45593999997E+02  0.45594000000E+02  0.51100000000E-03 0. -1.
    9900012    2    1    2    0    0  0.16159925072E+02 -0.20366281541E+02 -0.31260754694E+02  0.50528888031E+02  0.30000085658E+02 0.  0.
        -12    1    1    2    0    0 -0.16159925072E+02  0.20366281541E+02  0.31260754694E+02  0.40659111969E+02  0.00000000000E+00 0.  1.
         11    1    3    3    0    0  0.10390595229E+02  0.22691460132E+01 -0.62224487931E+01  0.12322027515E+02  0.51100000000E-03 0. -1.
        -11    1    3    3    0    0  0.66597876067E+01 -0.52215581411E+00 -0.67546279830E+01  0.95000219532E+01  0.51100000000E-03 0.  1.
        -12    1    3    3    0    0 -0.89045776366E+00 -0.22113271740E+02 -0.18283677918E+02  0.28706838563E+02  0.00000000000E+00 0.  1.
</event>
<event>
 7    1  0.3449452E-011  0.5052886E+02  0.7816164E-02  0.1300439E+00
        -11   -1    0    0    0    0  0.00000000000E+00  0.00000000000E+00  0.45593999997E+02  0.45594000000E+02  0.51100000000E-03 0.  1.
         11   -1    0    0    0    0 -0.00000000000E+00 -0.00000000000E+00 -0.45593999997E+02  0.45594000000E+02  0.51100000000E-03 0. -1.
    9900012    2    1    2    0    0  0.97479243751E+00 -0.28492982832E+02 -0.28989054332E+02  0.50528861274E+02  0.30000004327E+02 0.  0.
        -12    1    1    2    0    0 -0.97479243751E+00  0.28492982832E+02  0.28989054332E+02  0.40659138726E+02  0.00000000000E+00 0.  1.
         11    1    3    3    0    0 -0.53428643615E+01 -0.48150010294E+01 -0.12932283733E+02  0.14797783527E+02  0.51100000000E-03 0. -1.
        -11    1    3    3    0    0  0.14573259544E+01  0.35744792702E+01 -0.39307979301E+01  0.55092534539E+01  0.51100000000E-03 0.  1.
        -12    1    3    3    0    0  0.48603308446E+01 -0.27252461072E+02 -0.12125972669E+02  0.30221824293E+02  0.00000000000E+00 0.  1.
</event>
<event>
 7    1  0.3449452E-011  0.5052887E+02  0.7816164E-02  0.1300439E+00
        -11   -1    0    0    0    0  0.00000000000E+00  0.00000000000E+00  0.45593999997E+02  0.45594000000E+02  0.51100000000E-03 0.  1.
         11   -1    0    0    0    0 -0.00000000000E+00 -0.00000000000E+00 -0.45593999997E+02  0.45594000000E+02  0.51100000000E-03 0. -1.
    9900012    2    1    2    0    0 -0.30647622235E+02  0.23705746827E+02 -0.12325804147E+02  0.50528872745E+02  0.30000039196E+02 0.  0.
        -12    1    1    2    0    0  0.30647622235E+02 -0.23705746827E+02  0.12325804147E+02  0.40659127255E+02  0.00000000000E+00 0.  1.
         11    1    3    3    0    0  0.34538491093E+01  0.12409491322E+01 -0.28913514265E+01  0.46721453050E+01  0.51100000000E-03 0. -1.
        -11    1    3    3    0    0 -0.24314290028E+02  0.49517046937E+01 -0.52100451293E+01  0.25354460149E+02  0.51100000000E-03 0.  1.
         12    1    3    3    0    0 -0.97871813157E+01  0.17513093001E+02 -0.42244075914E+01  0.20502267291E+02  0.00000000000E+00 0. -1.
</event>
<event>
 7    1  0.3449452E-011  0.5052885E+02  0.7816164E-02  0.1300439E+00
        -11   -1    0    0    0    0  0.00000000000E+00  0.00000000000E+00  0.45593999997E+02  0.45594000000E+02  0.51100000000E-03 0.  1.
         11   -1    0    0    0    0 -0.00000000000E+00 -0.00000000000E+00 -0.45593999997E+02  0.45594000000E+02  0.51100000000E-03 0. -1.
    9900012    2    1    2    0    0 -0.95863482591E+01 -0.19724207471E+02 -0.34237762117E+02  0.50528846195E+02  0.29999958495E+02 0.  0.
        -12    1    1    2    0    0  0.95863482591E+01  0.19724207471E+02  0.34237762117E+02  0.40659153805E+02  0.00000000000E+00 0.  1.
         11    1    3    3    0    0  0.40447625167E+01 -0.93073283212E+01 -0.70495404271E+01  0.12356475419E+02  0.51100000000E-03 0. -1.
        -11    1    3    3    0    0 -0.50345407442E+01  0.24758007200E+01  0.12849683535E+01  0.57556349468E+01  0.51100000000E-03 0.  1.
         12    1    3    3    0    0 -0.85965700317E+01 -0.12892679870E+02 -0.28473190044E+02  0.32416735829E+02  0.00000000000E+00 0. -1.
</event>
<event>
 7    1  0.3449452E-011  0.5052886E+02  0.7816164E-02  0.1300439E+00
        -11   -1    0    0    0    0  0.00000000000E+00  0.00000000000E+00  0.45593999997E+02  0.45594000000E+02  0.51100000000E-03 0.  1.
         11   -1    0    0    0    0 -0.00000000000E+00 -0.00000000000E+00 -0.45593999997E+02  0.45594000000E+02  0.51100000000E-03 0. -1.
    9900012    2    1    2    0    0 -0.40284572690E+02  0.36736403824E+01 -0.41015729314E+01  0.50528864114E+02  0.30000012961E+02 0.  0.
        -12    1    1    2    0    0  0.40284572690E+02 -0.36736403824E+01  0.41015729314E+01  0.40659135886E+02  0.00000000000E+00 0.  1.
         11    1    3    3    0    0 -0.49245826494E+01  0.10565237530E+01 -0.64113853728E+01  0.81531355546E+01  0.51100000000E-03 0.  1.
        -11    1    3    3    0    0 -0.14451937276E+02 -0.10290538447E+02  0.98924913482E+00  0.17768857213E+02  0.51100000000E-03 0. -1.
         12    1    3    3    0    0 -0.20908052765E+02  0.12907655077E+02  0.13205633066E+01  0.24606871346E+02  0.00000000000E+00 0. -1.
</event>
<event>
 7    1  0.3449452E-011  0.5052885E+02  0.7816164E-02  0.1300439E+00
        -11   -1    0    0    0    0  0.00000000000E+00  0.00000000000E+00  0.45593999997E+02  0.45594000000E+02  0.51100000000E-03 0.  1.
         11   -1    0    0    0    0 -0.00000000000E+00 -0.00000000000E+00 -0.45593999997E+02  0.45594000000E+02  0.51100000000E-03 0. -1.
    9900012    2    1    2    0    0 -0.22890134878E+02 -0.27856196902E+02 -0.18794684780E+02  0.50528853961E+02  0.29999982101E+02 0.  0.
        -12    1    1    2    0    0  0.22890134878E+02  0.27856196902E+02  0.18794684780E+02  0.40659146039E+02  0.00000000000E+00 0.  1.
         11    1    3    3    0    0 -0.11769108652E+02 -0.19071324278E+02 -0.24075461402E+02  0.32891566854E+02  0.51100000000E-03 0. -1.
        -11    1    3    3    0    0  0.16198139652E+00  0.14664972807E+01  0.10678160686E+01  0.18212862665E+01  0.51100000000E-03 0.  1.
        -12    1    3    3    0    0 -0.11283007623E+02 -0.10251369905E+02  0.42129605534E+01  0.15816000840E+02  0.00000000000E+00 0.  1.
</event>
<event>
 7    1  0.3449452E-011  0.5052888E+02  0.7816164E-02  0.1300439E+00
        -11   -1    0    0    0    0  0.00000000000E+00  0.00000000000E+00  0.45593999997E+02  0.45594000000E+02  0.51100000000E-03 0.  1.
         11   -1    0    0    0    0 -0.00000000000E+00 -0.00000000000E+00 -0.45593999997E+02  0.45594000000E+02  0.51100000000E-03 0. -1.
    9900012    2    1    2    0    0  0.38817511372E+02 -0.11673025111E+02  0.31789186161E+01  0.50528877679E+02  0.30000054193E+02 0.  0.
        -12    1    1    2    0    0 -0.38817511372E+02  0.11673025111E+02 -0.31789186161E+01  0.40659122321E+02  0.00000000000E+00 0.  1.
         11    1    3    3    0    0  0.18243773219E+02 -0.10687426204E+02  0.79610560590E+01  0.22592803146E+02  0.51100000000E-03 0. -1.
        -11    1    3    3    0    0  0.50748761739E+01  0.97265023610E+00  0.67628242471E+01  0.85109464057E+01  0.51100000000E-03 0.  1.
         12    1    3    3    0    0  0.15498861979E+02 -0.19582491426E+01 -0.11544961690E+02  0.19425128127E+02  0.00000000000E+00 0. -1.
</event>
<event>
 7    1  0.3449452E-011  0.5052885E+02  0.7816164E-02  0.1300439E+00
        -11   -1    0    0    0    0  0.00000000000E+00  0.00000000000E+00  0.45593999997E+02  0.45594000000E+02  0.51100000000E-03 0. -1.
         11   -1    0    0    0    0 -0.00000000000E+00 -0.00000000000E+00 -0.45593999997E+02  0.45594000000E+02  0.51100000000E-03 0.  1.
    9900012    2    1    2    0    0  0.98590624139E+01 -0.98016268998E+01  0.38208552486E+02  0.50528849927E+02  0.29999969838E+02 0.  0.
        -12    1    1    2    0    0 -0.98590624139E+01  0.98016268998E+01 -0.38208552486E+02  0.40659150073E+02  0.00000000000E+00 0.  1.
         11    1    3    3    0    0  0.88447710354E+01  0.45489594432E+01  0.25610121448E+02  0.27473647875E+02  0.51100000000E-03 0. -1.
        -11    1    3    3    0    0  0.18055002467E+01  0.23506900992E+00  0.72891939652E+01  0.75131509704E+01  0.51100000000E-03 0.  1.
        -12    1    3    3    0    0 -0.79120886820E+00 -0.14585655353E+02  0.53092370727E+01  0.15542051082E+02  0.00000000000E+00 0.  1.
</event>
<event>
 7    1  0.3449452E-011  0.5052886E+02  0.7816164E-02  0.1300439E+00
        -11   -1    0    0    0    0  0.00000000000E+00  0.00000000000E+00  0.45593999997E+02  0.45594000000E+02  0.51100000000E-03 0. -1.
         11   -1    0    0    0    0 -0.00000000000E+00 -0.00000000000E+00 -0.45593999997E+02  0.45594000000E+02  0.51100000000E-03 0.  1.
    9900012    2    1    2    0    0 -0.24900376587E+02  0.24397947041E+02  0.20925515600E+02  0.50528858628E+02  0.29999996286E+02 0.  0.
        -12    1    1    2    0    0  0.24900376587E+02 -0.24397947041E+02 -0.20925515600E+02  0.40659141372E+02  0.00000000000E+00 0.  1.
         11    1    3    3    0    0 -0.20483511499E+02  0.14174357337E+02  0.19186328322E+02  0.31442039437E+02  0.51100000000E-03 0. -1.
        -11    1    3    3    0    0 -0.80439792941E+01  0.77560275970E+01  0.62427759782E+01  0.12799758558E+02  0.51100000000E-03 0.  1.
        -12    1    3    3    0    0  0.36271142066E+01  0.24675621071E+01 -0.45035887001E+01  0.62870606327E+01  0.00000000000E+00 0.  1.
</event>
<event>
 7    1  0.3449452E-011  0.5052886E+02  0.7816164E-02  0.1300439E+00
        -11   -1    0    0    0    0  0.00000000000E+00  0.00000000000E+00  0.45593999997E+02  0.45594000000E+02  0.51100000000E-03 0.  1.
         11   -1    0    0    0    0 -0.00000000000E+00 -0.00000000000E+00 -0.45593999997E+02  0.45594000000E+02  0.51100000000E-03 0. -1.
    9900012    2    1    2    0    0 -0.28010047797E+02 -0.19454463410E+02 -0.22138806442E+02  0.50528859885E+02  0.30000000108E+02 0.  0.
        -12    1    1    2    0    0  0.28010047797E+02  0.19454463410E+02  0.22138806442E+02  0.40659140115E+02  0.00000000000E+00 0.  1.
         11    1    3    3    0    0 -0.94288667903E+01 -0.11050579762E+01 -0.13551314068E+02  0.16545778776E+02  0.51100000000E-03 0. -1.
        -11    1    3    3    0    0  0.34914890179E+01 -0.23796542459E+01 -0.49327702606E+01  0.64950344570E+01  0.51100000000E-03 0.  1.
        -12    1    3    3    0    0 -0.22072670025E+02 -0.15969751188E+02 -0.36547221133E+01  0.27488046652E+02  0.00000000000E+00 0.  1.
</event>
<event>
 7    1  0.3449452E-011  0.5052887E+02  0.7816164E-02  0.1300439E+00
        -11   -1    0    0    0    0  0.00000000000E+00  0.00000000000E+00  0.45593999997E+02  0.45594000000E+02  0.51100000000E-03 0.  1.
         11   -1    0    0    0    0 -0.00000000000E+00 -0.00000000000E+00 -0.45593999997E+02  0.45594000000E+02  0.51100000000E-03 0. -1.
    9900012    2    1    2    0    0 -0.38890341188E+02  0.32379973619E+01  0.11411479191E+02  0.50528866685E+02  0.30000020774E+02 0.  0.
        -12    1    1    2    0    0  0.38890341188E+02 -0.32379973619E+01 -0.11411479191E+02  0.40659133315E+02  0.00000000000E+00 0.  1.
         11    1    3    3    0    0 -0.19364597697E+02 -0.13216966903E+01 -0.34123870444E+01  0.19707331420E+02  0.51100000000E-03 0. -1.
        -11    1    3    3    0    0 -0.18013913902E+02  0.74638299173E+01  0.45282529082E+01  0.20017865165E+02  0.51100000000E-03 0.  1.
        -12    1    3    3    0    0 -0.15118295891E+01 -0.29041358652E+01  0.10295613327E+02  0.10803670099E+02  0.00000000000E+00 0.  1.
</event>
<event>
 7    1  0.3449452E-011  0.5052886E+02  0.7816164E-02  0.1300439E+00
        -11   -1    0    0    0    0  0.00000000000E+00  0.00000000000E+00  0.45593999997E+02  0.45594000000E+02  0.51100000000E-03 0. -1.
         11   -1    0    0    0    0 -0.00000000000E+00 -0.00000000000E+00 -0.45593999997E+02  0.45594000000E+02  0.51100000000E-03 0.  1.
    9900012    2    1    2    0    0 -0.39188923140E+02 -0.10343226424E+02  0.32267029637E+01  0.50528860292E+02  0.30000001345E+02 0.  0.
        -12    1    1    2    0    0  0.39188923140E+02  0.10343226424E+02 -0.32267029637E+01  0.40659139708E+02  0.00000000000E+00 0.  1.
         11    1    3    3    0    0 -0.11700036144E+02 -0.13047010780E+02  0.27202585001E+01  0.17734574780E+02  0.51100000000E-03 0. -1.
        -11    1    3    3    0    0 -0.97797531688E+01 -0.73792833517E+01  0.17605344352E+01  0.12377272583E+02  0.51100000000E-03 0.  1.
        -12    1    3    3    0    0 -0.17709133827E+02  0.10083067707E+02 -0.12540899716E+01  0.20417012930E+02  0.00000000000E+00 0.  1.
</event>
<event>
 7    1  0.3449452E-011  0.5052886E+02  0.7816164E-02  0.1300439E+00
        -11   -1    0    0    0    0  0.00000000000E+00  0.00000000000E+00  0.45593999997E+02  0.45594000000E+02  0.51100000000E-03 0. -1.
         11   -1    0    0    0    0 -0.00000000000E+00 -0.00000000000E+00 -0.45593999997E+02  0.45594000000E+02  0.51100000000E-03 0.  1.
    9900012    2    1    2    0    0  0.18879765834E+02 -0.35300084155E+02  0.71150890696E+01  0.50528855989E+02  0.29999988263E+02 0.  0.
        -12    1    1    2    0    0 -0.18879765834E+02  0.35300084155E+02 -0.71150890696E+01  0.40659144011E+02  0.00000000000E+00 0.  1.
         11    1    3    3    0    0  0.19285442501E+01 -0.96647973689E+01 -0.30557040557E+01  0.10318183883E+02  0.51100000000E-03 0. -1.
        -11    1    3    3    0    0  0.85061369296E+01 -0.26453507453E+02  0.13748430335E+02  0.31002608906E+02  0.51100000000E-03 0.  1.
        -12    1    3    3    0    0  0.84450846542E+01  0.81822066732E+00 -0.35776372102E+01  0.92080631994E+01  0.00000000000E+00 0.  1.
</event>
<event>
 7    1  0.3449452E-011  0.5052884E+02  0.7816164E-02  0.1300439E+00
        -11   -1    0    0    0    0  0.00000000000E+00  0.00000000000E+00  0.45593999997E+02  0.45594000000E+02  0.51100000000E-03 0.  1.
         11   -1    0    0    0    0 -0.00000000000E+00 -0.00000000000E+00 -0.45593999997E+02  0.45594000000E+02  0.51100000000E-03 0. -1.
    9900012    2    1    2    0    0 -0.75484370186E+01 -0.20728542244E+02 -0.34154295663E+02  0.50528840180E+02  0.29999940212E+02 0.  0.
        -12    1    1    2    0    0  0.75484370186E+01  0.20728542244E+02  0.34154295663E+02  0.40659159820E+02  0.00000000000E+00 0.  1.
         11    1    3    3    0    0 -0.74318856123E+01 -0.24379307141E+02 -0.23742741967E+02  0.34832475318E+02  0.51100000000E-03 0. -1.
        -11    1    3    3    0    0  0.16741343080E+01 -0.28984748581E+01 -0.98127284444E-01  0.33486581506E+01  0.51100000000E-03 0.  1.
        -12    1    3    3    0    0 -0.17906857143E+01  0.65492397548E+01 -0.10313426411E+02  0.12347706712E+02  0.00000000000E+00 0.  1.
</event>
<event>
 7    1  0.3449452E-011  0.5052885E+02  0.7816164E-02  0.1300439E+00
        -11   -1    0    0    0    0  0.00000000000E+00  0.00000000000E+00  0.45593999997E+02  0.45594000000E+02  0.51100000000E-03 0.  1.
         11   -1    0    0    0    0 -0.00000000000E+00 -0.00000000000E+00 -0.45593999997E+02  0.45594000000E+02  0.51100000000E-03 0. -1.
    9900012    2    1    2    0    0 -0.21346070257E+02 -0.75527181715E+01 -0.33770814947E+02  0.50528853312E+02  0.29999980128E+02 0.  0.
        -12    1    1    2    0    0  0.21346070257E+02  0.75527181715E+01  0.33770814947E+02  0.40659146688E+02  0.00000000000E+00 0.  1.
         11    1    3    3    0    0 -0.10726624330E+02 -0.29774077199E+01 -0.20100904507E+02  0.22977636704E+02  0.51100000000E-03 0. -1.
        -11    1    3    3    0    0 -0.81462302333E+01 -0.10207292660E+02 -0.56171726642E+00  0.13071549908E+02  0.51100000000E-03 0.  1.
         12    1    3    3    0    0 -0.24732156935E+01  0.56319822083E+01 -0.13108193174E+02  0.14479666700E+02  0.00000000000E+00 0. -1.
</event>
<event>
 7    1  0.3449452E-011  0.5052886E+02  0.7816164E-02  0.1300439E+00
        -11   -1    0    0    0    0  0.00000000000E+00  0.00000000000E+00  0.45593999997E+02  0.45594000000E+02  0.51100000000E-03 0.  1.
         11   -1    0    0    0    0 -0.00000000000E+00 -0.00000000000E+00 -0.45593999997E+02  0.45594000000E+02  0.51100000000E-03 0. -1.
    9900012    2    1    2    0    0 -0.25982099597E+02  0.71366218560E+01 -0.30449383534E+02  0.50528857995E+02  0.29999994363E+02 0.  0.
        -12    1    1    2    0    0  0.25982099597E+02 -0.71366218560E+01  0.30449383534E+02  0.40659142005E+02  0.00000000000E+00 0.  1.
         11    1    3    3    0    0 -0.14208777138E+02  0.37858821713E+01 -0.22608852967E+02  0.26970029372E+02  0.51100000000E-03 0. -1.
        -11    1    3    3    0    0 -0.13356249586E+02  0.82817140987E+01 -0.91923719069E+01  0.18206479423E+02  0.51100000000E-03 0.  1.
        -12    1    3    3    0    0  0.15829271281E+01 -0.49309744140E+01  0.13518413395E+01  0.53523492012E+01  0.00000000000E+00 0.  1.
</event>
<event>
 7    1  0.3449452E-011  0.5052886E+02  0.7816164E-02  0.1300439E+00
        -11   -1    0    0    0    0  0.00000000000E+00  0.00000000000E+00  0.45593999997E+02  0.45594000000E+02  0.51100000000E-03 0.  1.
         11   -1    0    0    0    0 -0.00000000000E+00 -0.00000000000E+00 -0.45593999997E+02  0.45594000000E+02  0.51100000000E-03 0. -1.
    9900012    2    1    2    0    0  0.28867293553E+02  0.94210988970E+01 -0.27038644392E+02  0.50528855493E+02  0.29999986756E+02 0.  0.
        -12    1    1    2    0    0 -0.28867293553E+02 -0.94210988970E+01  0.27038644392E+02  0.40659144507E+02  0.00000000000E+00 0.  1.
         11    1    3    3    0    0  0.12518814678E+02  0.27555628665E+01 -0.96429199983E+01  0.16040565888E+02  0.51100000000E-03 0. -1.
        -11    1    3    3    0    0  0.40794195860E+01  0.12633269023E+02 -0.15974840049E+02  0.20771053541E+02  0.51100000000E-03 0.  1.
        -12    1    3    3    0    0  0.12269059289E+02 -0.59677329927E+01 -0.14208843450E+01  0.13717236063E+02  0.00000000000E+00 0.  1.
</event>
<event>
 7    1  0.3449452E-011  0.5052890E+02  0.7816164E-02  0.1300439E+00
        -11   -1    0    0    0    0  0.00000000000E+00  0.00000000000E+00  0.45593999997E+02  0.45594000000E+02  0.51100000000E-03 0.  1.
         11   -1    0    0    0    0 -0.00000000000E+00 -0.00000000000E+00 -0.45593999997E+02  0.45594000000E+02  0.51100000000E-03 0. -1.
    9900012    2    1    2    0    0  0.17085765215E+02 -0.91193460507E+01 -0.35750191870E+02  0.50528904288E+02  0.30000135075E+02 0.  0.
        -12    1    1    2    0    0 -0.17085765215E+02  0.91193460507E+01  0.35750191870E+02  0.40659095712E+02  0.00000000000E+00 0.  1.
         11    1    3    3    0    0 -0.50497571151E+00 -0.43950429118E+01 -0.11820909654E+02  0.12621620656E+02  0.51100000000E-03 0. -1.
        -11    1    3    3    0    0 -0.41927092025E+01 -0.11467267246E+01  0.11501309308E+01  0.44962866964E+01  0.51100000000E-03 0.  1.
         12    1    3    3    0    0  0.21783450129E+02 -0.35775764143E+01 -0.25079413146E+02  0.33410996936E+02  0.00000000000E+00 0. -1.
</event>
<event>
 7    1  0.3449452E-011  0.5052886E+02  0.7816164E-02  0.1300439E+00
        -11   -1    0    0    0    0  0.00000000000E+00  0.00000000000E+00  0.45593999997E+02  0.45594000000E+02  0.51100000000E-03 0.  1.
         11   -1    0    0    0    0 -0.00000000000E+00 -0.00000000000E+00 -0.45593999997E+02  0.45594000000E+02  0.51100000000E-03 0. -1.
    9900012    2    1    2    0    0  0.19065651599E+02 -0.31268537864E+02 -0.17661963742E+02  0.50528862106E+02  0.30000006857E+02 0.  0.
        -12    1    1    2    0    0 -0.19065651599E+02  0.31268537864E+02  0.17661963742E+02  0.40659137894E+02  0.00000000000E+00 0.  1.
         11    1    3    3    0    0  0.32658361257E+01 -0.95042136892E+01 -0.10049401987E+02  0.14212186461E+02  0.51100000000E-03 0. -1.
        -11    1    3    3    0    0  0.86468769214E+00 -0.20339243131E+02 -0.27336024433E+01  0.20540328102E+02  0.51100000000E-03 0.  1.
         12    1    3    3    0    0  0.14935127781E+02 -0.14250810438E+01 -0.48789593114E+01  0.15776347543E+02  0.00000000000E+00 0. -1.
</event>
<event>
 7    1  0.3449452E-011  0.5052886E+02  0.7816164E-02  0.1300439E+00
        -11   -1    0    0    0    0  0.00000000000E+00  0.00000000000E+00  0.45593999997E+02  0.45594000000E+02  0.51100000000E-03 0. -1.
         11   -1    0    0    0    0 -0.00000000000E+00 -0.00000000000E+00 -0.45593999997E+02  0.45594000000E+02  0.51100000000E-03 0.  1.
    9900012    2    1    2    0    0 -0.29270857580E+01 -0.22459895385E+02  0.33766123002E+02  0.50528858416E+02  0.29999995641E+02 0.  0.
        -12    1    1    2    0    0  0.29270857580E+01  0.22459895385E+02 -0.33766123002E+02  0.40659141584E+02  0.00000000000E+00 0.  1.
         11    1    3    3    0    0 -0.10015131656E+02 -0.81293361701E+01  0.14186975629E+02  0.19174442532E+02  0.51100000000E-03 0. -1.
        -11    1    3    3    0    0 -0.11633353950E+01 -0.97727505859E+01  0.24511873294E+00  0.98447999832E+01  0.51100000000E-03 0.  1.
         12    1    3    3    0    0  0.82513812927E+01 -0.45578086292E+01  0.19334028641E+02  0.21509615901E+02  0.00000000000E+00 0. -1.
</event>
<event>
 7    1  0.3449452E-011  0.5052886E+02  0.7816164E-02  0.1300439E+00
        -11   -1    0    0    0    0  0.00000000000E+00  0.00000000000E+00  0.45593999997E+02  0.45594000000E+02  0.51100000000E-03 0.  1.
         11   -1    0    0    0    0 -0.00000000000E+00 -0.00000000000E+00 -0.45593999997E+02  0.45594000000E+02  0.51100000000E-03 0. -1.
    9900012    2    1    2    0    0 -0.10192443671E+02 -0.12683273492E+02 -0.37261430158E+02  0.50528861890E+02  0.30000006200E+02 0.  0.
        -12    1    1    2    0    0  0.10192443671E+02  0.12683273492E+02  0.37261430158E+02  0.40659138110E+02  0.00000000000E+00 0.  1.
         11    1    3    3    0    0  0.22237104062E+01 -0.25472075775E+01 -0.19838553671E+02  0.20124645747E+02  0.51100000000E-03 0. -1.
        -11    1    3    3    0    0  0.19648653396E+01 -0.88689208454E+01 -0.20444293707E+01  0.93111838387E+01  0.51100000000E-03 0.  1.
         12    1    3    3    0    0 -0.14381019417E+02 -0.12671450687E+01 -0.15378447116E+02  0.21093032304E+02  0.00000000000E+00 0. -1.
</event>
<event>
 7    1  0.3449452E-011  0.5052890E+02  0.7816164E-02  0.1300439E+00
        -11   -1    0    0    0    0  0.00000000000E+00  0.00000000000E+00  0.45593999997E+02  0.45594000000E+02  0.51100000000E-03 0. -1.
         11   -1    0    0    0    0 -0.00000000000E+00 -0.00000000000E+00 -0.45593999997E+02  0.45594000000E+02  0.51100000000E-03 0.  1.
    9900012    2    1    2    0    0  0.36339289936E+02  0.25291092734E+01  0.18061610686E+02  0.50528903019E+02  0.30000131216E+02 0.  0.
        -12    1    1    2    0    0 -0.36339289936E+02 -0.25291092734E+01 -0.18061610686E+02  0.40659096981E+02  0.00000000000E+00 0.  1.
         11    1    3    3    0    0  0.11523181609E+02  0.12444085856E+02  0.15185185237E+02  0.22764640083E+02  0.51100000000E-03 0. -1.
        -11    1    3    3    0    0  0.21779396127E+01 -0.60949835910E+00 -0.17439283257E+01  0.28559053683E+01  0.51100000000E-03 0.  1.
        -12    1    3    3    0    0  0.22638168714E+02 -0.93054782234E+01  0.46203537749E+01  0.24908357567E+02  0.00000000000E+00 0.  1.
</event>
<event>
 7    1  0.3449452E-011  0.5052886E+02  0.7816164E-02  0.1300439E+00
        -11   -1    0    0    0    0  0.00000000000E+00  0.00000000000E+00  0.45593999997E+02  0.45594000000E+02  0.51100000000E-03 0.  1.
         11   -1    0    0    0    0 -0.00000000000E+00 -0.00000000000E+00 -0.45593999997E+02  0.45594000000E+02  0.51100000000E-03 0. -1.
    9900012    2    1    2    0    0  0.30864109384E+02 -0.97127241727E+00 -0.26450508053E+02  0.50528855955E+02  0.29999988162E+02 0.  0.
        -12    1    1    2    0    0 -0.30864109384E+02  0.97127241727E+00  0.26450508053E+02  0.40659144045E+02  0.00000000000E+00 0.  1.
         11    1    3    3    0    0  0.20228866836E+02  0.65067684786E+01 -0.29445752913E+02  0.36312497220E+02  0.51100000000E-03 0. -1.
        -11    1    3    3    0    0  0.13366796060E+01 -0.34239575062E+01  0.14688749278E+01  0.39582560791E+01  0.51100000000E-03 0.  1.
        -12    1    3    3    0    0  0.92985629429E+01 -0.40540833897E+01  0.15263699325E+01  0.10258102656E+02  0.00000000000E+00 0.  1.
</event>
<event>
 7    1  0.3449452E-011  0.5052886E+02  0.7816164E-02  0.1300439E+00
        -11   -1    0    0    0    0  0.00000000000E+00  0.00000000000E+00  0.45593999997E+02  0.45594000000E+02  0.51100000000E-03 0.  1.
         11   -1    0    0    0    0 -0.00000000000E+00 -0.00000000000E+00 -0.45593999997E+02  0.45594000000E+02  0.51100000000E-03 0. -1.
    9900012    2    1    2    0    0 -0.60687701355E+01  0.17601330179E+02 -0.36145942553E+02  0.50528856403E+02  0.29999989523E+02 0.  0.
        -12    1    1    2    0    0  0.60687701355E+01 -0.17601330179E+02  0.36145942553E+02  0.40659143597E+02  0.00000000000E+00 0.  1.
         11    1    3    3    0    0 -0.40343602394E+01 -0.31145788902E+01 -0.61605645056E+01  0.79955749946E+01  0.51100000000E-03 0. -1.
        -11    1    3    3    0    0 -0.11535720946E+02  0.91223321051E+01 -0.11118315469E+02  0.18436559872E+02  0.51100000000E-03 0.  1.
         12    1    3    3    0    0  0.95013110500E+01  0.11593576964E+02 -0.18867062578E+02  0.24096721536E+02  0.00000000000E+00 0. -1.
</event>
<event>
 7    1  0.3927398E-011  0.5052888E+02  0.7816164E-02  0.1300439E+00
        -11   -1    0    0    0    0  0.00000000000E+00  0.00000000000E+00  0.45593999997E+02  0.45594000000E+02  0.51100000000E-03 0.  1.
         11   -1    0    0    0    0 -0.00000000000E+00 -0.00000000000E+00 -0.45593999997E+02  0.45594000000E+02  0.51100000000E-03 0. -1.
    9900012    2    1    2    0    0 -0.35358170073E+02 -0.18493169324E+01 -0.19988603124E+02  0.50528875331E+02  0.30000047057E+02 0.  0.
        -12    1    1    2    0    0  0.35358170073E+02  0.18493169324E+01  0.19988603124E+02  0.40659124669E+02  0.00000000000E+00 0.  1.
         11    1    3    3    0    0 -0.11987268307E+02 -0.22325827029E+01 -0.18732033209E+02  0.22351020008E+02  0.51100000000E-03 0. -1.
        -11    1    3    3    0    0  0.22005385874E+01 -0.39465371382E+00  0.10899654737E+01  0.24871965389E+01  0.51100000000E-03 0.  1.
        -12    1    3    3    0    0 -0.25571440353E+02  0.77791948423E+00 -0.23465353885E+01  0.25690658784E+02  0.00000000000E+00 0.  1.
</event>
<event>
 7    1  0.3449452E-011  0.5052886E+02  0.7816164E-02  0.1300439E+00
        -11   -1    0    0    0    0  0.00000000000E+00  0.00000000000E+00  0.45593999997E+02  0.45594000000E+02  0.51100000000E-03 0.  1.
         11   -1    0    0    0    0 -0.00000000000E+00 -0.00000000000E+00 -0.45593999997E+02  0.45594000000E+02  0.51100000000E-03 0. -1.
    9900012    2    1    2    0    0  0.33045472223E+02 -0.23388414117E+02 -0.37609160629E+01  0.50528860327E+02  0.30000001449E+02 0.  0.
        -12    1    1    2    0    0 -0.33045472223E+02  0.23388414117E+02  0.37609160629E+01  0.40659139673E+02  0.00000000000E+00 0.  1.
         11    1    3    3    0    0  0.23795492362E+02 -0.25132537649E+02  0.67175744749E+01  0.35256144323E+02  0.51100000000E-03 0. -1.
        -11    1    3    3    0    0 -0.84367732716E+00  0.22989302093E+00 -0.11555137327E+01  0.14490874649E+01  0.51100000000E-03 0.  1.
         12    1    3    3    0    0  0.10093657188E+02  0.15142305110E+01 -0.93229768051E+01  0.13823628539E+02  0.00000000000E+00 0. -1.
</event>
<event>
 7    1  0.3449452E-011  0.5052886E+02  0.7816164E-02  0.1300439E+00
        -11   -1    0    0    0    0  0.00000000000E+00  0.00000000000E+00  0.45593999997E+02  0.45594000000E+02  0.51100000000E-03 0. -1.
         11   -1    0    0    0    0 -0.00000000000E+00 -0.00000000000E+00 -0.45593999997E+02  0.45594000000E+02  0.51100000000E-03 0.  1.
    9900012    2    1    2    0    0  0.54476950755E+01  0.15153499514E+02  0.37334428726E+02  0.50528862067E+02  0.30000006739E+02 0.  0.
        -12    1    1    2    0    0 -0.54476950755E+01 -0.15153499514E+02 -0.37334428726E+02  0.40659137933E+02  0.00000000000E+00 0.  1.
         11    1    3    3    0    0  0.26556379037E+01  0.27864735640E-01  0.18175691177E+02  0.18368694541E+02  0.51100000000E-03 0. -1.
        -11    1    3    3    0    0  0.10225490857E+02  0.21772209459E+01  0.50196950779E+01  0.11597339921E+02  0.51100000000E-03 0.  1.
         12    1    3    3    0    0 -0.74334336849E+01  0.12948413832E+02  0.14139042471E+02  0.20562827605E+02  0.00000000000E+00 0. -1.
</event>
<event>
 7    1  0.3449452E-011  0.5052887E+02  0.7816164E-02  0.1300439E+00
        -11   -1    0    0    0    0  0.00000000000E+00  0.00000000000E+00  0.45593999997E+02  0.45594000000E+02  0.51100000000E-03 0.  1.
         11   -1    0    0    0    0 -0.00000000000E+00 -0.00000000000E+00 -0.45593999997E+02  0.45594000000E+02  0.51100000000E-03 0. -1.
    9900012    2    1    2    0    0  0.96316646451E+01  0.65322569061E+01 -0.38957993712E+02  0.50528872880E+02  0.30000039605E+02 0.  0.
        -12    1    1    2    0    0 -0.96316646451E+01 -0.65322569061E+01  0.38957993712E+02  0.40659127120E+02  0.00000000000E+00 0.  1.
         11    1    3    3    0    0  0.61280266533E+01 -0.59645204056E+01 -0.84982939948E+01  0.12056086240E+02  0.51100000000E-03 0. -1.
        -11    1    3    3    0    0 -0.62284317055E+01  0.75610928786E+01 -0.55058229468E+01  0.11237329470E+02  0.51100000000E-03 0.  1.
         12    1    3    3    0    0  0.97320696973E+01  0.49356844331E+01 -0.24953876770E+02  0.27235457170E+02  0.00000000000E+00 0. -1.
</event>
<event>
 7    1  0.3449452E-011  0.5052886E+02  0.7816164E-02  0.1300439E+00
        -11   -1    0    0    0    0  0.00000000000E+00  0.00000000000E+00  0.45593999997E+02  0.45594000000E+02  0.51100000000E-03 0.  1.
         11   -1    0    0    0    0 -0.00000000000E+00 -0.00000000000E+00 -0.45593999997E+02  0.45594000000E+02  0.51100000000E-03 0. -1.
    9900012    2    1    2    0    0  0.14747315876E+02  0.32384338714E+02 -0.19670712934E+02  0.50528859984E+02  0.30000000406E+02 0.  0.
        -12    1    1    2    0    0 -0.14747315876E+02 -0.32384338714E+02  0.19670712934E+02  0.40659140016E+02  0.00000000000E+00 0.  1.
         11    1    3    3    0    0  0.21735712756E+02  0.18693924117E+02 -0.10130776379E+02  0.30406194076E+02  0.51100000000E-03 0. -1.
        -11    1    3    3    0    0  0.36499612756E+00  0.89319875464E+01 -0.52891216191E+01  0.10386935615E+02  0.51100000000E-03 0.  1.
        -12    1    3    3    0    0 -0.73533930067E+01  0.47584270509E+01 -0.42508149366E+01  0.97357302929E+01  0.00000000000E+00 0.  1.
</event>
<event>
 7    1  0.3449452E-011  0.5052886E+02  0.7816164E-02  0.1300439E+00
        -11   -1    0    0    0    0  0.00000000000E+00  0.00000000000E+00  0.45593999997E+02  0.45594000000E+02  0.51100000000E-03 0.  1.
         11   -1    0    0    0    0 -0.00000000000E+00 -0.00000000000E+00 -0.45593999997E+02  0.45594000000E+02  0.51100000000E-03 0. -1.
    9900012    2    1    2    0    0  0.30909595109E+02  0.32337020734E+01 -0.26216524545E+02  0.50528855172E+02  0.29999985780E+02 0.  0.
        -12    1    1    2    0    0 -0.30909595109E+02 -0.32337020734E+01  0.26216524545E+02  0.40659144828E+02  0.00000000000E+00 0.  1.
         11    1    3    3    0    0  0.97804231806E+01 -0.21184399088E+01 -0.18461527862E+02  0.20999344668E+02  0.51100000000E-03 0. -1.
        -11    1    3    3    0    0  0.45009868437E+01  0.10219201153E+02 -0.31377696112E+01  0.11598989317E+02  0.51100000000E-03 0.  1.
        -12    1    3    3    0    0  0.16628185085E+02 -0.48670591709E+01 -0.46172270726E+01  0.17930521187E+02  0.00000000000E+00 0.  1.
</event>
<event>
 7    1  0.3449452E-011  0.5052885E+02  0.7816164E-02  0.1300439E+00
        -11   -1    0    0    0    0  0.00000000000E+00  0.00000000000E+00  0.45593999997E+02  0.45594000000E+02  0.51100000000E-03 0.  1.
         11   -1    0    0    0    0 -0.00000000000E+00 -0.00000000000E+00 -0.45593999997E+02  0.45594000000E+02  0.51100000000E-03 0. -1.
    9900012    2    1    2    0    0  0.11927150431E+02 -0.35209824873E+02  0.16467465678E+02  0.50528854524E+02  0.29999983811E+02 0.  0.
        -12    1    1    2    0    0 -0.11927150431E+02  0.35209824873E+02 -0.16467465678E+02  0.40659145476E+02  0.00000000000E+00 0.  1.
         11    1    3    3    0    0  0.81868637700E+01 -0.24421006751E+02  0.81930222749E+00  0.25769780083E+02  0.51100000000E-03 0. -1.
        -11    1    3    3    0    0  0.81788425582E+01 -0.40421481197E+01  0.27274159017E+01  0.95221439170E+01  0.51100000000E-03 0.  1.
         12    1    3    3    0    0 -0.44385558968E+01 -0.67466700017E+01  0.12920747549E+02  0.15236930524E+02  0.00000000000E+00 0. -1.
</event>
<event>
 7    1  0.3449452E-011  0.5052884E+02  0.7816164E-02  0.1300439E+00
        -11   -1    0    0    0    0  0.00000000000E+00  0.00000000000E+00  0.45593999997E+02  0.45594000000E+02  0.51100000000E-03 0.  1.
         11   -1    0    0    0    0 -0.00000000000E+00 -0.00000000000E+00 -0.45593999997E+02  0.45594000000E+02  0.51100000000E-03 0. -1.
    9900012    2    1    2    0    0 -0.24821279156E+02 -0.76772529566E+01 -0.31275090425E+02  0.50528838757E+02  0.29999935886E+02 0.  0.
        -12    1    1    2    0    0  0.24821279156E+02  0.76772529566E+01  0.31275090425E+02  0.40659161243E+02  0.00000000000E+00 0.  1.
         11    1    3    3    0    0 -0.13026072963E+02  0.19731868735E+01 -0.54433814916E+01  0.14254909526E+02  0.51100000000E-03 0. -1.
        -11    1    3    3    0    0 -0.83361486487E+01 -0.44143926480E+01  0.26174932898E+00  0.94364585367E+01  0.51100000000E-03 0.  1.
         12    1    3    3    0    0 -0.34590575444E+01 -0.52360471821E+01 -0.26093458262E+02  0.26837470694E+02  0.00000000000E+00 0. -1.
</event>
<event>
 7    1  0.3449452E-011  0.5052890E+02  0.7816164E-02  0.1300439E+00
        -11   -1    0    0    0    0  0.00000000000E+00  0.00000000000E+00  0.45593999997E+02  0.45594000000E+02  0.51100000000E-03 0.  1.
         11   -1    0    0    0    0 -0.00000000000E+00 -0.00000000000E+00 -0.45593999997E+02  0.45594000000E+02  0.51100000000E-03 0. -1.
    9900012    2    1    2    0    0 -0.30127603021E+02 -0.13281841452E+02 -0.23855457945E+02  0.50528897084E+02  0.30000113177E+02 0.  0.
        -12    1    1    2    0    0  0.30127603021E+02  0.13281841452E+02  0.23855457945E+02  0.40659102916E+02  0.00000000000E+00 0.  1.
         11    1    3    3    0    0 -0.20290878970E+02 -0.29098881566E+01 -0.10025453218E+02  0.22818784607E+02  0.51100000000E-03 0. -1.
        -11    1    3    3    0    0 -0.25912104575E+01 -0.84149021848E+00  0.48267316215E+01  0.55425459701E+01  0.51100000000E-03 0.  1.
         12    1    3    3    0    0 -0.72455135942E+01 -0.95304630767E+01 -0.18656736348E+02  0.22167566507E+02  0.00000000000E+00 0. -1.
</event>
<event>
 7    1  0.3449452E-011  0.5052886E+02  0.7816164E-02  0.1300439E+00
        -11   -1    0    0    0    0  0.00000000000E+00  0.00000000000E+00  0.45593999997E+02  0.45594000000E+02  0.51100000000E-03 0.  1.
         11   -1    0    0    0    0 -0.00000000000E+00 -0.00000000000E+00 -0.45593999997E+02  0.45594000000E+02  0.51100000000E-03 0. -1.
    9900012    2    1    2    0    0 -0.28120832360E+01  0.15860958668E+02 -0.37332133057E+02  0.50528856126E+02  0.29999988680E+02 0.  0.
        -12    1    1    2    0    0  0.28120832360E+01 -0.15860958668E+02  0.37332133057E+02  0.40659143874E+02  0.00000000000E+00 0.  1.
         11    1    3    3    0    0 -0.27074801087E+01  0.63571644955E+01  0.38420350822E+01  0.79060244621E+01  0.51100000000E-03 0.  1.
        -11    1    3    3    0    0 -0.14795480826E+01  0.44516982115E+00 -0.10384371775E+02  0.10498686400E+02  0.51100000000E-03 0. -1.
        -12    1    3    3    0    0  0.13749449553E+01  0.90586243513E+01 -0.30789796365E+02  0.32124145264E+02  0.00000000000E+00 0.  1.
</event>
<event>
 7    1  0.3449452E-011  0.5052887E+02  0.7816164E-02  0.1300439E+00
        -11   -1    0    0    0    0  0.00000000000E+00  0.00000000000E+00  0.45593999997E+02  0.45594000000E+02  0.51100000000E-03 0.  1.
         11   -1    0    0    0    0 -0.00000000000E+00 -0.00000000000E+00 -0.45593999997E+02  0.45594000000E+02  0.51100000000E-03 0. -1.
    9900012    2    1    2    0    0 -0.21229072627E+02 -0.13362583118E+02 -0.31998953966E+02  0.50528865637E+02  0.30000017591E+02 0.  0.
        -12    1    1    2    0    0  0.21229072627E+02  0.13362583118E+02  0.31998953966E+02  0.40659134363E+02  0.00000000000E+00 0.  1.
         11    1    3    3    0    0 -0.83105303865E+01 -0.55831017602E+00 -0.17727121321E+02  0.19586409986E+02  0.51100000000E-03 0. -1.
        -11    1    3    3    0    0 -0.52337519529E+00  0.47236442020E+01  0.65179930300E+00  0.47970385379E+01  0.51100000000E-03 0.  1.
         12    1    3    3    0    0 -0.12395167046E+02 -0.17527917144E+02 -0.14923631948E+02  0.26145417113E+02  0.00000000000E+00 0. -1.
</event>
<event>
 7    1  0.3449452E-011  0.5052884E+02  0.7816164E-02  0.1300439E+00
        -11   -1    0    0    0    0  0.00000000000E+00  0.00000000000E+00  0.45593999997E+02  0.45594000000E+02  0.51100000000E-03 0.  1.
         11   -1    0    0    0    0 -0.00000000000E+00 -0.00000000000E+00 -0.45593999997E+02  0.45594000000E+02  0.51100000000E-03 0. -1.
    9900012    2    1    2    0    0  0.32217393620E+02  0.19149881552E+02 -0.15763530587E+02  0.50528839757E+02  0.29999938925E+02 0.  0.
        -12    1    1    2    0    0 -0.32217393620E+02 -0.19149881552E+02  0.15763530587E+02  0.40659160243E+02  0.00000000000E+00 0.  1.
         11    1    3    3    0    0  0.18931591984E+02 -0.89079217949E+00 -0.14309396071E+02  0.23747789412E+02  0.51100000000E-03 0. -1.
        -11    1    3    3    0    0 -0.76107368440E+00  0.58585010389E+01 -0.32439854130E+01  0.67397855453E+01  0.51100000000E-03 0.  1.
        -12    1    3    3    0    0  0.14046875320E+02  0.14182172693E+02  0.17898508970E+01  0.20041264800E+02  0.00000000000E+00 0.  1.
</event>
<event>
 7    1  0.3449452E-011  0.5052886E+02  0.7816164E-02  0.1300439E+00
        -11   -1    0    0    0    0  0.00000000000E+00  0.00000000000E+00  0.45593999997E+02  0.45594000000E+02  0.51100000000E-03 0.  1.
         11   -1    0    0    0    0 -0.00000000000E+00 -0.00000000000E+00 -0.45593999997E+02  0.45594000000E+02  0.51100000000E-03 0. -1.
    9900012    2    1    2    0    0  0.29507625842E+02  0.97180699388E+01 -0.26230222213E+02  0.50528862976E+02  0.30000009502E+02 0.  0.
        -12    1    1    2    0    0 -0.29507625842E+02 -0.97180699388E+01  0.26230222213E+02  0.40659137024E+02  0.00000000000E+00 0.  1.
         11    1    3    3    0    0  0.16130631109E+02  0.31198241666E+01 -0.22654469357E+02  0.27984916382E+02  0.51100000000E-03 0. -1.
        -11    1    3    3    0    0 -0.22357570420E+01 -0.45831315538E+00 -0.48531582986E+01  0.53630034712E+01  0.51100000000E-03 0.  1.
         12    1    3    3    0    0  0.15612751776E+02  0.70565589275E+01  0.12774054429E+01  0.17180943123E+02  0.00000000000E+00 0. -1.
</event>
<event>
 7    1  0.3449452E-011  0.5052890E+02  0.7816164E-02  0.1300439E+00
        -11   -1    0    0    0    0  0.00000000000E+00  0.00000000000E+00  0.45593999997E+02  0.45594000000E+02  0.51100000000E-03 0.  1.
         11   -1    0    0    0    0 -0.00000000000E+00 -0.00000000000E+00 -0.45593999997E+02  0.45594000000E+02  0.51100000000E-03 0. -1.
    9900012    2    1    2    0    0 -0.17354236791E+02 -0.17429858045E+02 -0.32375803086E+02  0.50528903705E+02  0.30000133300E+02 0.  0.
        -12    1    1    2    0    0  0.17354236791E+02  0.17429858045E+02  0.32375803086E+02  0.40659096295E+02  0.00000000000E+00 0.  1.
         11    1    3    3    0    0 -0.45067229503E+01 -0.11203251113E+02 -0.77591208616E+01  0.14353652638E+02  0.51100000000E-03 0. -1.
        -11    1    3    3    0    0  0.42735233583E+01 -0.51289033928E+01 -0.15207307472E+02  0.16608156211E+02  0.51100000000E-03 0.  1.
        -12    1    3    3    0    0 -0.17121037199E+02 -0.10977035388E+01 -0.94093747525E+01  0.19567094855E+02  0.00000000000E+00 0.  1.
</event>
<event>
 7    1  0.3449452E-011  0.5052885E+02  0.7816164E-02  0.1300439E+00
        -11   -1    0    0    0    0  0.00000000000E+00  0.00000000000E+00  0.45593999997E+02  0.45594000000E+02  0.51100000000E-03 0.  1.
         11   -1    0    0    0    0 -0.00000000000E+00 -0.00000000000E+00 -0.45593999997E+02  0.45594000000E+02  0.51100000000E-03 0. -1.
    9900012    2    1    2    0    0 -0.31078789017E+02 -0.23354350933E+02 -0.11910055267E+02  0.50528852804E+02  0.29999978582E+02 0.  0.
        -12    1    1    2    0    0  0.31078789017E+02  0.23354350933E+02  0.11910055267E+02  0.40659147196E+02  0.00000000000E+00 0.  1.
         11    1    3    3    0    0 -0.13248861544E+02 -0.12013922734E+02 -0.69227002699E+01  0.19177863566E+02  0.51100000000E-03 0. -1.
        -11    1    3    3    0    0 -0.19840347764E+01 -0.14058200878E+02 -0.56000639664E+01  0.15262048441E+02  0.51100000000E-03 0.  1.
         12    1    3    3    0    0 -0.15845892697E+02  0.27177726790E+01  0.61270896940E+00  0.16088940797E+02  0.00000000000E+00 0. -1.
</event>
<event>
 7    1  0.3449452E-011  0.5052886E+02  0.7816164E-02  0.1300439E+00
        -11   -1    0    0    0    0  0.00000000000E+00  0.00000000000E+00  0.45593999997E+02  0.45594000000E+02  0.51100000000E-03 0.  1.
         11   -1    0    0    0    0 -0.00000000000E+00 -0.00000000000E+00 -0.45593999997E+02  0.45594000000E+02  0.51100000000E-03 0. -1.
    9900012    2    1    2    0    0 -0.34280771984E+02  0.17610900747E+02 -0.12955710849E+02  0.50528860848E+02  0.30000003034E+02 0.  0.
        -12    1    1    2    0    0  0.34280771984E+02 -0.17610900747E+02  0.12955710849E+02  0.40659139152E+02  0.00000000000E+00 0.  1.
         11    1    3    3    0    0 -0.10551942794E+02  0.10683175270E+02 -0.75878496546E+01  0.16824065894E+02  0.51100000000E-03 0. -1.
        -11    1    3    3    0    0 -0.16901457554E+02 -0.18124392293E+01 -0.11977106869E+02  0.20794116778E+02  0.51100000000E-03 0.  1.
         12    1    3    3    0    0 -0.68273716369E+01  0.87401647064E+01  0.66092456740E+01  0.12910678175E+02  0.00000000000E+00 0. -1.
</event>
<event>
 7    1  0.3449452E-011  0.5052886E+02  0.7816164E-02  0.1300439E+00
        -11   -1    0    0    0    0  0.00000000000E+00  0.00000000000E+00  0.45593999997E+02  0.45594000000E+02  0.51100000000E-03 0.  1.
         11   -1    0    0    0    0 -0.00000000000E+00 -0.00000000000E+00 -0.45593999997E+02  0.45594000000E+02  0.51100000000E-03 0. -1.
    9900012    2    1    2    0    0 -0.72091242545E+01 -0.89053494467E+01 -0.39011399781E+02  0.50528855467E+02  0.29999986677E+02 0.  0.
        -12    1    1    2    0    0  0.72091242545E+01  0.89053494467E+01  0.39011399781E+02  0.40659144533E+02  0.00000000000E+00 0.  1.
         11    1    3    3    0    0 -0.32247095087E+01  0.27585183209E+01 -0.95256661492E+00  0.43492020141E+01  0.51100000000E-03 0.  1.
        -11    1    3    3    0    0 -0.86522710555E+00 -0.10896806624E+02 -0.35085423103E+01  0.11480369417E+02  0.51100000000E-03 0. -1.
        -12    1    3    3    0    0 -0.31191876402E+01 -0.76706114328E+00 -0.34550290856E+02  0.34699284035E+02  0.00000000000E+00 0.  1.
</event>
<event>
 7    1  0.3449452E-011  0.5052886E+02  0.7816164E-02  0.1300439E+00
        -11   -1    0    0    0    0  0.00000000000E+00  0.00000000000E+00  0.45593999997E+02  0.45594000000E+02  0.51100000000E-03 0.  1.
         11   -1    0    0    0    0 -0.00000000000E+00 -0.00000000000E+00 -0.45593999997E+02  0.45594000000E+02  0.51100000000E-03 0. -1.
    9900012    2    1    2    0    0 -0.17997906505E+02  0.24961739840E+02 -0.26573535298E+02  0.50528857453E+02  0.29999992714E+02 0.  0.
        -12    1    1    2    0    0  0.17997906505E+02 -0.24961739840E+02  0.26573535298E+02  0.40659142547E+02  0.00000000000E+00 0.  1.
         11    1    3    3    0    0 -0.10857458864E+02  0.85746297267E+01 -0.93879691398E+01  0.16719529083E+02  0.51100000000E-03 0.  1.
        -11    1    3    3    0    0  0.36866867266E+01  0.16527602561E+02 -0.53292318819E+01  0.17752577789E+02  0.51100000000E-03 0. -1.
         12    1    3    3    0    0 -0.10827134368E+02 -0.14049244779E+00 -0.11856334276E+02  0.16056750581E+02  0.00000000000E+00 0. -1.
</event>
<event>
 7    1  0.3449452E-011  0.5052886E+02  0.7816164E-02  0.1300439E+00
        -11   -1    0    0    0    0  0.00000000000E+00  0.00000000000E+00  0.45593999997E+02  0.45594000000E+02  0.51100000000E-03 0.  1.
         11   -1    0    0    0    0 -0.00000000000E+00 -0.00000000000E+00 -0.45593999997E+02  0.45594000000E+02  0.51100000000E-03 0. -1.
    9900012    2    1    2    0    0 -0.36821135873E+02 -0.14456482084E+02 -0.94010316010E+01  0.50528864294E+02  0.30000013508E+02 0.  0.
        -12    1    1    2    0    0  0.36821135873E+02  0.14456482084E+02  0.94010316010E+01  0.40659135706E+02  0.00000000000E+00 0.  1.
         11    1    3    3    0    0 -0.52948700535E+01  0.34485936904E+01  0.34870744653E+01  0.72172110897E+01  0.51100000000E-03 0. -1.
        -11    1    3    3    0    0 -0.23637572288E+02 -0.24366736111E+01 -0.52168823915E+01  0.24328749744E+02  0.51100000000E-03 0.  1.
        -12    1    3    3    0    0 -0.78886935310E+01 -0.15468402163E+02 -0.76712236747E+01  0.18982903460E+02  0.00000000000E+00 0.  1.
</event>
<event>
 7    1  0.3449452E-011  0.5052886E+02  0.7816164E-02  0.1300439E+00
        -11   -1    0    0    0    0  0.00000000000E+00  0.00000000000E+00  0.45593999997E+02  0.45594000000E+02  0.51100000000E-03 0.  1.
         11   -1    0    0    0    0 -0.00000000000E+00 -0.00000000000E+00 -0.45593999997E+02  0.45594000000E+02  0.51100000000E-03 0. -1.
    9900012    2    1    2    0    0 -0.87812123864E+01  0.20118245096E+02 -0.34224438273E+02  0.50528860168E+02  0.30000000968E+02 0.  0.
        -12    1    1    2    0    0  0.87812123864E+01 -0.20118245096E+02  0.34224438273E+02  0.40659139832E+02  0.00000000000E+00 0.  1.
         11    1    3    3    0    0 -0.60846457422E+01  0.15838254900E+02 -0.27132189407E+02  0.32000452096E+02  0.51100000000E-03 0.  1.
        -11    1    3    3    0    0 -0.72359205979E+01  0.82359696885E+01 -0.56652310498E+01  0.12340364124E+02  0.51100000000E-03 0. -1.
        -12    1    3    3    0    0  0.45393539537E+01 -0.39559794921E+01 -0.14270178169E+01  0.61880439485E+01  0.00000000000E+00 0.  1.
</event>
<event>
 7    1  0.3673125E-011  0.5052886E+02  0.7816164E-02  0.1300439E+00
        -11   -1    0    0    0    0  0.00000000000E+00  0.00000000000E+00  0.45593999997E+02  0.45594000000E+02  0.51100000000E-03 0. -1.
         11   -1    0    0    0    0 -0.00000000000E+00 -0.00000000000E+00 -0.45593999997E+02  0.45594000000E+02  0.51100000000E-03 0.  1.
    9900012    2    1    2    0    0  0.20113570994E+02  0.35194946226E+02  0.31504796313E+01  0.50528862037E+02  0.30000006649E+02 0.  0.
        -12    1    1    2    0    0 -0.20113570994E+02 -0.35194946226E+02 -0.31504796313E+01  0.40659137963E+02  0.00000000000E+00 0.  1.
         11    1    3    3    0    0  0.92162162696E+01  0.29802231113E+02  0.47654936255E+01  0.31556640369E+02  0.51100000000E-03 0.  1.
        -11    1    3    3    0    0  0.95270859140E+01  0.10054059517E+02 -0.23794664884E+01  0.14053872769E+02  0.51100000000E-03 0. -1.
        -12    1    3    3    0    0  0.13702688102E+01 -0.46613444047E+01  0.76445249425E+00  0.49183488985E+01  0.00000000000E+00 0.  1.
</event>
<event>
 7    1  0.3449452E-011  0.5052886E+02  0.7816164E-02  0.1300439E+00
        -11   -1    0    0    0    0  0.00000000000E+00  0.00000000000E+00  0.45593999997E+02  0.45594000000E+02  0.51100000000E-03 0. -1.
         11   -1    0    0    0    0 -0.00000000000E+00 -0.00000000000E+00 -0.45593999997E+02  0.45594000000E+02  0.51100000000E-03 0.  1.
    9900012    2    1    2    0    0  0.38812043310E+02 -0.12016796245E+02  0.15452233165E+01  0.50528858187E+02  0.29999994945E+02 0.  0.
        -12    1    1    2    0    0 -0.38812043310E+02  0.12016796245E+02 -0.15452233165E+01  0.40659141813E+02  0.00000000000E+00 0.  1.
         11    1    3    3    0    0  0.30133177714E+02 -0.85033788177E+00  0.90240575473E+01  0.31466888765E+02  0.51100000000E-03 0. -1.
        -11    1    3    3    0    0  0.89573420421E+00 -0.28950691428E+01  0.25114450907E+01  0.39358762444E+01  0.51100000000E-03 0.  1.
        -12    1    3    3    0    0  0.77831313913E+01 -0.82713892203E+01 -0.99902793216E+01  0.15126093177E+02  0.00000000000E+00 0.  1.
</event>
<event>
 7    1  0.3449452E-011  0.5052886E+02  0.7816164E-02  0.1300439E+00
        -11   -1    0    0    0    0  0.00000000000E+00  0.00000000000E+00  0.45593999997E+02  0.45594000000E+02  0.51100000000E-03 0. -1.
         11   -1    0    0    0    0 -0.00000000000E+00 -0.00000000000E+00 -0.45593999997E+02  0.45594000000E+02  0.51100000000E-03 0.  1.
    9900012    2    1    2    0    0 -0.31615882525E+02 -0.14378585510E+02  0.21139018489E+02  0.50528857710E+02  0.29999993496E+02 0.  0.
        -12    1    1    2    0    0  0.31615882525E+02  0.14378585510E+02 -0.21139018489E+02  0.40659142290E+02  0.00000000000E+00 0.  1.
         11    1    3    3    0    0 -0.90952344216E+01 -0.14594843679E+02  0.66099843435E+01  0.18423480791E+02  0.51100000000E-03 0. -1.
        -11    1    3    3    0    0 -0.39219638900E+01 -0.59765514649E+01 -0.83792871544E+00  0.71974365548E+01  0.51100000000E-03 0.  1.
        -12    1    3    3    0    0 -0.18598684213E+02  0.61928096339E+01  0.15366962861E+02  0.24907940364E+02  0.00000000000E+00 0.  1.
</event>
<event>
 7    1  0.3449452E-011  0.5052886E+02  0.7816164E-02  0.1300439E+00
        -11   -1    0    0    0    0  0.00000000000E+00  0.00000000000E+00  0.45593999997E+02  0.45594000000E+02  0.51100000000E-03 0.  1.
         11   -1    0    0    0    0 -0.00000000000E+00 -0.00000000000E+00 -0.45593999997E+02  0.45594000000E+02  0.51100000000E-03 0. -1.
    9900012    2    1    2    0    0 -0.22430147849E+02  0.33017117826E+02 -0.77410504105E+01  0.50528862484E+02  0.30000008006E+02 0.  0.
        -12    1    1    2    0    0  0.22430147849E+02 -0.33017117826E+02  0.77410504105E+01  0.40659137516E+02  0.00000000000E+00 0.  1.
         11    1    3    3    0    0 -0.14120529321E+02  0.10989009070E+02 -0.11828435605E+02  0.21448998992E+02  0.51100000000E-03 0. -1.
        -11    1    3    3    0    0  0.13389906854E+01  0.14547655257E+02 -0.30693893709E+01  0.14928105068E+02  0.51100000000E-03 0.  1.
         12    1    3    3    0    0 -0.96486092142E+01  0.74804534994E+01  0.71567745653E+01  0.14151758424E+02  0.00000000000E+00 0. -1.
</event>
<event>
 7    1  0.3449452E-011  0.5052885E+02  0.7816164E-02  0.1300439E+00
        -11   -1    0    0    0    0  0.00000000000E+00  0.00000000000E+00  0.45593999997E+02  0.45594000000E+02  0.51100000000E-03 0. -1.
         11   -1    0    0    0    0 -0.00000000000E+00 -0.00000000000E+00 -0.45593999997E+02  0.45594000000E+02  0.51100000000E-03 0.  1.
    9900012    2    1    2    0    0 -0.26722613229E+02  0.30494517374E+02  0.30254149617E+01  0.50528846253E+02  0.29999958672E+02 0.  0.
        -12    1    1    2    0    0  0.26722613229E+02 -0.30494517374E+02 -0.30254149617E+01  0.40659153747E+02  0.00000000000E+00 0.  1.
         11    1    3    3    0    0 -0.63376024997E+01  0.10331626725E+02  0.86055288652E+01  0.14864818988E+02  0.51100000000E-03 0. -1.
        -11    1    3    3    0    0  0.28254253945E+01  0.46606357264E+01 -0.55134376870E+01  0.77525834032E+01  0.51100000000E-03 0.  1.
        -12    1    3    3    0    0 -0.23210436124E+02  0.15502254923E+02 -0.66676216439E-01  0.27911443862E+02  0.00000000000E+00 0.  1.
</event>
<event>
 7    1  0.3449452E-011  0.5052886E+02  0.7816164E-02  0.1300439E+00
        -11   -1    0    0    0    0  0.00000000000E+00  0.00000000000E+00  0.45593999997E+02  0.45594000000E+02  0.51100000000E-03 0.  1.
         11   -1    0    0    0    0 -0.00000000000E+00 -0.00000000000E+00 -0.45593999997E+02  0.45594000000E+02  0.51100000000E-03 0. -1.
    9900012    2    1    2    0    0  0.30548765489E+02 -0.15285469002E+02 -0.22052050498E+02  0.50528861215E+02  0.30000004150E+02 0.  0.
        -12    1    1    2    0    0 -0.30548765489E+02  0.15285469002E+02  0.22052050498E+02  0.40659138785E+02  0.00000000000E+00 0.  1.
         11    1    3    3    0    0  0.69377293581E+01 -0.15257401465E+02 -0.89661265031E+01  0.19008203830E+02  0.51100000000E-03 0. -1.
        -11    1    3    3    0    0  0.86826768944E+01 -0.46559852376E+01  0.17090469222E+01  0.99993958932E+01  0.51100000000E-03 0.  1.
        -12    1    3    3    0    0  0.14928359237E+02  0.46279177012E+01 -0.14794970917E+02  0.21521261492E+02  0.00000000000E+00 0.  1.
</event>
<event>
 7    1  0.3449452E-011  0.5052886E+02  0.7816164E-02  0.1300439E+00
        -11   -1    0    0    0    0  0.00000000000E+00  0.00000000000E+00  0.45593999997E+02  0.45594000000E+02  0.51100000000E-03 0.  1.
         11   -1    0    0    0    0 -0.00000000000E+00 -0.00000000000E+00 -0.45593999997E+02  0.45594000000E+02  0.51100000000E-03 0. -1.
    9900012    2    1    2    0    0 -0.34227242821E+02  0.20616897203E+02 -0.75236374569E+01  0.50528859306E+02  0.29999998345E+02 0.  0.
        -12    1    1    2    0    0  0.34227242821E+02 -0.20616897203E+02  0.75236374569E+01  0.40659140694E+02  0.00000000000E+00 0.  1.
         11    1    3    3    0    0 -0.20962081186E+02  0.46975707451E+01 -0.74529924727E+00  0.21494917767E+02  0.51100000000E-03 0. -1.
        -11    1    3    3    0    0 -0.61479374874E+01  0.98986929794E+01  0.60867059062E+01  0.13146453784E+02  0.51100000000E-03 0.  1.
         12    1    3    3    0    0 -0.71172241471E+01  0.60206334790E+01 -0.12865044116E+02  0.15887487755E+02  0.00000000000E+00 0. -1.
</event>
<event>
 7    1  0.3449452E-011  0.5052886E+02  0.7816164E-02  0.1300439E+00
        -11   -1    0    0    0    0  0.00000000000E+00  0.00000000000E+00  0.45593999997E+02  0.45594000000E+02  0.51100000000E-03 0. -1.
         11   -1    0    0    0    0 -0.00000000000E+00 -0.00000000000E+00 -0.45593999997E+02  0.45594000000E+02  0.51100000000E-03 0.  1.
    9900012    2    1    2    0    0  0.11975828853E+02  0.10739046057E+01  0.38840598966E+02  0.50528857414E+02  0.29999992594E+02 0.  0.
        -12    1    1    2    0    0 -0.11975828853E+02 -0.10739046057E+01 -0.38840598966E+02  0.40659142586E+02  0.00000000000E+00 0.  1.
         11    1    3    3    0    0  0.13115041662E+02 -0.48263620614E+01  0.13477970447E+02  0.19415297478E+02  0.51100000000E-03 0. -1.
        -11    1    3    3    0    0 -0.71454800663E+00 -0.57349679422E+01  0.49294832436E+01  0.75960674998E+01  0.51100000000E-03 0.  1.
         12    1    3    3    0    0 -0.42466480237E+00  0.11635234609E+02  0.20433145276E+02  0.23517492436E+02  0.00000000000E+00 0. -1.
</event>
<event>
 7    1  0.3449452E-011  0.5052883E+02  0.7816164E-02  0.1300439E+00
        -11   -1    0    0    0    0  0.00000000000E+00  0.00000000000E+00  0.45593999997E+02  0.45594000000E+02  0.51100000000E-03 0.  1.
         11   -1    0    0    0    0 -0.00000000000E+00 -0.00000000000E+00 -0.45593999997E+02  0.45594000000E+02  0.51100000000E-03 0. -1.
    9900012    2    1    2    0    0  0.13930985950E+01 -0.38149673948E+02 -0.13993910765E+02  0.50528832713E+02  0.29999917513E+02 0.  0.
        -12    1    1    2    0    0 -0.13930985950E+01  0.38149673948E+02  0.13993910765E+02  0.40659167287E+02  0.00000000000E+00 0.  1.
         11    1    3    3    0    0  0.58351807390E+01  0.11816451598E+01  0.14124109832E+01  0.61188662828E+01  0.51100000000E-03 0. -1.
        -11    1    3    3    0    0 -0.51649532566E+01 -0.63636877034E+01 -0.46998393766E+00  0.82093939174E+01  0.51100000000E-03 0.  1.
        -12    1    3    3    0    0  0.72287111256E+00 -0.32967631404E+02 -0.14936337811E+02  0.36200572512E+02  0.00000000000E+00 0.  1.
</event>
<event>
 7    1  0.3449452E-011  0.5052886E+02  0.7816164E-02  0.1300439E+00
        -11   -1    0    0    0    0  0.00000000000E+00  0.00000000000E+00  0.45593999997E+02  0.45594000000E+02  0.51100000000E-03 0.  1.
         11   -1    0    0    0    0 -0.00000000000E+00 -0.00000000000E+00 -0.45593999997E+02  0.45594000000E+02  0.51100000000E-03 0. -1.
    9900012    2    1    2    0    0  0.19018396935E+02  0.36425852611E+01 -0.35751894376E+02  0.50528858336E+02  0.29999995399E+02 0.  0.
        -12    1    1    2    0    0 -0.19018396935E+02 -0.36425852611E+01  0.35751894376E+02  0.40659141664E+02  0.00000000000E+00 0.  1.
         11    1    3    3    0    0  0.10198623151E+02 -0.93069412344E+00 -0.22729846191E+02  0.24930383347E+02  0.51100000000E-03 0. -1.
        -11    1    3    3    0    0  0.55695538505E+01 -0.55417394118E+01 -0.12742952685E+02  0.14970425819E+02  0.51100000000E-03 0.  1.
        -12    1    3    3    0    0  0.32502199344E+01  0.10115018796E+02 -0.27909549990E+00  0.10628049170E+02  0.00000000000E+00 0.  1.
</event>
<event>
 7    1  0.3449452E-011  0.5052884E+02  0.7816164E-02  0.1300439E+00
        -11   -1    0    0    0    0  0.00000000000E+00  0.00000000000E+00  0.45593999997E+02  0.45594000000E+02  0.51100000000E-03 0.  1.
         11   -1    0    0    0    0 -0.00000000000E+00 -0.00000000000E+00 -0.45593999997E+02  0.45594000000E+02  0.51100000000E-03 0. -1.
    9900012    2    1    2    0    0 -0.14298022229E+02 -0.11323594585E+02 -0.36338820335E+02  0.50528842393E+02  0.29999946937E+02 0.  0.
        -12    1    1    2    0    0  0.14298022229E+02  0.11323594585E+02  0.36338820335E+02  0.40659157607E+02  0.00000000000E+00 0.  1.
         11    1    3    3    0    0 -0.10283986275E+02 -0.12550739308E+02 -0.23737425679E+02  0.28753205196E+02  0.51100000000E-03 0. -1.
        -11    1    3    3    0    0 -0.26945597149E+01  0.33812164822E+01  0.34471106854E+01  0.55295433170E+01  0.51100000000E-03 0.  1.
         12    1    3    3    0    0 -0.13194762397E+01 -0.21540717588E+01 -0.16048505341E+02  0.16246093880E+02  0.00000000000E+00 0. -1.
</event>
<event>
 7    1  0.3449452E-011  0.5052885E+02  0.7816164E-02  0.1300439E+00
        -11   -1    0    0    0    0  0.00000000000E+00  0.00000000000E+00  0.45593999997E+02  0.45594000000E+02  0.51100000000E-03 0. -1.
         11   -1    0    0    0    0 -0.00000000000E+00 -0.00000000000E+00 -0.45593999997E+02  0.45594000000E+02  0.51100000000E-03 0.  1.
    9900012    2    1    2    0    0  0.27405251621E+02  0.93880703787E+01  0.28530381085E+02  0.50528851869E+02  0.29999975741E+02 0.  0.
        -12    1    1    2    0    0 -0.27405251621E+02 -0.93880703787E+01 -0.28530381085E+02  0.40659148131E+02  0.00000000000E+00 0.  1.
         11    1    3    3    0    0  0.52866895682E+01 -0.41419303244E+01  0.44448197911E+01  0.80536387204E+01  0.51100000000E-03 0. -1.
        -11    1    3    3    0    0  0.17692328768E+02  0.35684679466E+01  0.24044517103E+01  0.18208070986E+02  0.51100000000E-03 0.  1.
        -12    1    3    3    0    0  0.44262332848E+01  0.99615327566E+01  0.21681109584E+02  0.24267142163E+02  0.00000000000E+00 0.  1.
</event>
<event>
 7    1  0.3449452E-011  0.5052886E+02  0.7816164E-02  0.1300439E+00
        -11   -1    0    0    0    0  0.00000000000E+00  0.00000000000E+00  0.45593999997E+02  0.45594000000E+02  0.51100000000E-03 0.  1.
         11   -1    0    0    0    0 -0.00000000000E+00 -0.00000000000E+00 -0.45593999997E+02  0.45594000000E+02  0.51100000000E-03 0. -1.
    9900012    2    1    2    0    0  0.28764027044E+02  0.94474344541E+01 -0.27139309944E+02  0.50528863096E+02  0.30000009866E+02 0.  0.
        -12    1    1    2    0    0 -0.28764027044E+02 -0.94474344541E+01  0.27139309944E+02  0.40659136904E+02  0.00000000000E+00 0.  1.
         11    1    3    3    0    0  0.15631583605E+02  0.36778605446E+01 -0.18823628235E+02  0.24742716997E+02  0.51100000000E-03 0. -1.
        -11    1    3    3    0    0  0.63475365726E+01  0.91084542656E+01  0.36020669613E+01  0.11671762776E+02  0.51100000000E-03 0.  1.
         12    1    3    3    0    0  0.67849068658E+01 -0.33388803560E+01 -0.11917748670E+02  0.14114383323E+02  0.00000000000E+00 0. -1.
</event>
<event>
 7    1  0.4504095E-011  0.5052886E+02  0.7816164E-02  0.1300439E+00
        -11   -1    0    0    0    0  0.00000000000E+00  0.00000000000E+00  0.45593999997E+02  0.45594000000E+02  0.51100000000E-03 0. -1.
         11   -1    0    0    0    0 -0.00000000000E+00 -0.00000000000E+00 -0.45593999997E+02  0.45594000000E+02  0.51100000000E-03 0.  1.
    9900012    2    1    2    0    0 -0.29236415183E+02  0.19008780782E+02  0.20906079274E+02  0.50528857483E+02  0.29999992806E+02 0.  0.
        -12    1    1    2    0    0  0.29236415183E+02 -0.19008780782E+02 -0.20906079274E+02  0.40659142517E+02  0.00000000000E+00 0.  1.
         11    1    3    3    0    0 -0.84256540208E+01  0.14992388592E+02  0.34216355335E+01  0.17534849625E+02  0.51100000000E-03 0. -1.
        -11    1    3    3    0    0  0.32557414255E+01  0.65949948203E-01  0.38878164633E+01  0.50714217670E+01  0.51100000000E-03 0.  1.
         12    1    3    3    0    0 -0.24066502588E+02  0.39504422412E+01  0.13596627278E+02  0.27922586091E+02  0.00000000000E+00 0. -1.
</event>
<event>
 7    1  0.3449452E-011  0.5052887E+02  0.7816164E-02  0.1300439E+00
        -11   -1    0    0    0    0  0.00000000000E+00  0.00000000000E+00  0.45593999997E+02  0.45594000000E+02  0.51100000000E-03 0.  1.
         11   -1    0    0    0    0 -0.00000000000E+00 -0.00000000000E+00 -0.45593999997E+02  0.45594000000E+02  0.51100000000E-03 0. -1.
    9900012    2    1    2    0    0  0.30429391804E+02  0.51336766055E+01 -0.26473804391E+02  0.50528870152E+02  0.30000031314E+02 0.  0.
        -12    1    1    2    0    0 -0.30429391804E+02 -0.51336766055E+01  0.26473804391E+02  0.40659129848E+02  0.00000000000E+00 0.  1.
         11    1    3    3    0    0  0.88619545650E+01 -0.60559155108E+01  0.20987239316E+01  0.10936772549E+02  0.51100000000E-03 0.  1.
        -11    1    3    3    0    0  0.73398109493E+01 -0.18755783380E+01 -0.11732404495E+02  0.13965669850E+02  0.51100000000E-03 0. -1.
        -12    1    3    3    0    0  0.14227626290E+02  0.13065170454E+02 -0.16840123828E+02  0.25626427753E+02  0.00000000000E+00 0.  1.
</event>
<event>
 7    1  0.3449452E-011  0.5052886E+02  0.7816164E-02  0.1300439E+00
        -11   -1    0    0    0    0  0.00000000000E+00  0.00000000000E+00  0.45593999997E+02  0.45594000000E+02  0.51100000000E-03 0. -1.
         11   -1    0    0    0    0 -0.00000000000E+00 -0.00000000000E+00 -0.45593999997E+02  0.45594000000E+02  0.51100000000E-03 0.  1.
    9900012    2    1    2    0    0  0.37049503689E+02  0.16387843235E+02 -0.34551814906E+01  0.50528863160E+02  0.30000010061E+02 0.  0.
        -12    1    1    2    0    0 -0.37049503689E+02 -0.16387843235E+02  0.34551814906E+01  0.40659136840E+02  0.00000000000E+00 0.  1.
         11    1    3    3    0    0  0.56334735865E+01  0.11781643366E+02  0.81048624491E+00  0.13084343058E+02  0.51100000000E-03 0. -1.
        -11    1    3    3    0    0  0.49751726409E+00 -0.15049326306E+01 -0.56791286324E+01  0.58961723122E+01  0.51100000000E-03 0.  1.
         12    1    3    3    0    0  0.30918512838E+02  0.61111324995E+01  0.14134608969E+01  0.31548347790E+02  0.00000000000E+00 0. -1.
</event>
<event>
 7    1  0.3449452E-011  0.5052883E+02  0.7816164E-02  0.1300439E+00
        -11   -1    0    0    0    0  0.00000000000E+00  0.00000000000E+00  0.45593999997E+02  0.45594000000E+02  0.51100000000E-03 0.  1.
         11   -1    0    0    0    0 -0.00000000000E+00 -0.00000000000E+00 -0.45593999997E+02  0.45594000000E+02  0.51100000000E-03 0. -1.
    9900012    2    1    2    0    0  0.28826284545E+02 -0.28636429132E+02  0.14724535677E+01  0.50528832847E+02  0.29999917920E+02 0.  0.
        -12    1    1    2    0    0 -0.28826284545E+02  0.28636429132E+02 -0.14724535677E+01  0.40659167153E+02  0.00000000000E+00 0.  1.
         11    1    3    3    0    0  0.11359817183E+02 -0.16488765880E+02 -0.11977075110E+01  0.20058897034E+02  0.51100000000E-03 0. -1.
        -11    1    3    3    0    0  0.12013391387E+02 -0.10778584235E+01 -0.77348253641E+01  0.14328673179E+02  0.51100000000E-03 0.  1.
        -12    1    3    3    0    0  0.54530759750E+01 -0.11069804828E+02  0.10404986443E+02  0.16141262633E+02  0.00000000000E+00 0.  1.
</event>
<event>
 7    1  0.3449452E-011  0.5052891E+02  0.7816164E-02  0.1300439E+00
        -11   -1    0    0    0    0  0.00000000000E+00  0.00000000000E+00  0.45593999997E+02  0.45594000000E+02  0.51100000000E-03 0. -1.
         11   -1    0    0    0    0 -0.00000000000E+00 -0.00000000000E+00 -0.45593999997E+02  0.45594000000E+02  0.51100000000E-03 0.  1.
    9900012    2    1    2    0    0  0.39367957264E+02  0.90037189953E+01  0.47178838849E+01  0.50528911923E+02  0.30000158281E+02 0.  0.
        -12    1    1    2    0    0 -0.39367957264E+02 -0.90037189953E+01 -0.47178838849E+01  0.40659088077E+02  0.00000000000E+00 0.  1.
         11    1    3    3    0    0  0.77915892084E+01  0.16177326096E+01 -0.69335123057E+01  0.10554596835E+02  0.51100000000E-03 0. -1.
        -11    1    3    3    0    0  0.13029465339E+02  0.12959569311E+02  0.88822473743E+01  0.20411068625E+02  0.51100000000E-03 0.  1.
         12    1    3    3    0    0  0.18546902716E+02 -0.55735829252E+01  0.27691488164E+01  0.19563246463E+02  0.00000000000E+00 0. -1.
</event>
<event>
 7    1  0.3449452E-011  0.5052885E+02  0.7816164E-02  0.1300439E+00
        -11   -1    0    0    0    0  0.00000000000E+00  0.00000000000E+00  0.45593999997E+02  0.45594000000E+02  0.51100000000E-03 0. -1.
         11   -1    0    0    0    0 -0.00000000000E+00 -0.00000000000E+00 -0.45593999997E+02  0.45594000000E+02  0.51100000000E-03 0.  1.
    9900012    2    1    2    0    0  0.17920712098E+02 -0.12937778704E+02  0.34126654870E+02  0.50528848354E+02  0.29999965058E+02 0.  0.
        -12    1    1    2    0    0 -0.17920712098E+02  0.12937778704E+02 -0.34126654870E+02  0.40659151646E+02  0.00000000000E+00 0.  1.
         11    1    3    3    0    0  0.98047766100E+01 -0.12891308910E+02  0.10136167814E+02  0.19106579704E+02  0.51100000000E-03 0. -1.
        -11    1    3    3    0    0  0.61341809026E+01 -0.47390136620E+00 -0.10999911879E+01  0.62500190980E+01  0.51100000000E-03 0.  1.
        -12    1    3    3    0    0  0.19817545856E+01  0.42743157140E+00  0.25090478244E+02  0.25172249552E+02  0.00000000000E+00 0.  1.
</event>
<event>
 7    1  0.3449452E-011  0.5052886E+02  0.7816164E-02  0.1300439E+00
        -11   -1    0    0    0    0  0.00000000000E+00  0.00000000000E+00  0.45593999997E+02  0.45594000000E+02  0.51100000000E-03 0.  1.
         11   -1    0    0    0    0 -0.00000000000E+00 -0.00000000000E+00 -0.45593999997E+02  0.45594000000E+02  0.51100000000E-03 0. -1.
    9900012    2    1    2    0    0 -0.24661179022E+01  0.36464157028E+01 -0.40420138990E+02  0.50528859318E+02  0.29999998383E+02 0.  0.
        -12    1    1    2    0    0  0.24661179022E+01 -0.36464157028E+01  0.40420138990E+02  0.40659140682E+02  0.00000000000E+00 0.  1.
         11    1    3    3    0    0 -0.82712018406E+01  0.13941533066E+01 -0.13191762582E+02  0.15632627534E+02  0.51100000000E-03 0. -1.
        -11    1    3    3    0    0  0.93150489528E+00 -0.80986889030E+01 -0.19372559608E+02  0.21017909728E+02  0.51100000000E-03 0.  1.
        -12    1    3    3    0    0  0.48735790431E+01  0.10350951299E+02 -0.78558168006E+01  0.13878322056E+02  0.00000000000E+00 0.  1.
</event>
<event>
 7    1  0.3449452E-011  0.5052879E+02  0.7816164E-02  0.1300439E+00
        -11   -1    0    0    0    0  0.00000000000E+00  0.00000000000E+00  0.45593999997E+02  0.45594000000E+02  0.51100000000E-03 0.  1.
         11   -1    0    0    0    0 -0.00000000000E+00 -0.00000000000E+00 -0.45593999997E+02  0.45594000000E+02  0.51100000000E-03 0. -1.
    9900012    2    1    2    0    0 -0.30802925401E+02 -0.25302416484E+02 -0.80086988261E+01  0.50528785176E+02  0.29999773021E+02 0.  0.
        -12    1    1    2    0    0  0.30802925401E+02  0.25302416484E+02  0.80086988261E+01  0.40659214824E+02  0.00000000000E+00 0.  1.
         11    1    3    3    0    0 -0.13200533611E+02 -0.89337202544E+01 -0.11585356668E+02  0.19704972331E+02  0.51100000000E-03 0. -1.
        -11    1    3    3    0    0 -0.19277690925E+02 -0.79235858752E+01  0.63333621477E+01  0.21783573097E+02  0.51100000000E-03 0.  1.
         12    1    3    3    0    0  0.16752991340E+01 -0.84451103540E+01 -0.27567043059E+01  0.90402397485E+01  0.00000000000E+00 0. -1.
</event>
<event>
 7    1  0.3449452E-011  0.5052886E+02  0.7816164E-02  0.1300439E+00
        -11   -1    0    0    0    0  0.00000000000E+00  0.00000000000E+00  0.45593999997E+02  0.45594000000E+02  0.51100000000E-03 0.  1.
         11   -1    0    0    0    0 -0.00000000000E+00 -0.00000000000E+00 -0.45593999997E+02  0.45594000000E+02  0.51100000000E-03 0. -1.
    9900012    2    1    2    0    0  0.18821406498E+02  0.16765638665E+02 -0.31903501868E+02  0.50528863095E+02  0.30000009865E+02 0.  0.
        -12    1    1    2    0    0 -0.18821406498E+02 -0.16765638665E+02  0.31903501868E+02  0.40659136905E+02  0.00000000000E+00 0.  1.
         11    1    3    3    0    0  0.92832014398E+01  0.71741669630E+01 -0.11208235985E+02  0.16225629564E+02  0.51100000000E-03 0. -1.
        -11    1    3    3    0    0  0.85844981840E+01  0.65840810494E+01  0.23267402029E+01  0.11066049547E+02  0.51100000000E-03 0.  1.
         12    1    3    3    0    0  0.95370687433E+00  0.30073906526E+01 -0.23022006086E+02  0.23237183985E+02  0.00000000000E+00 0. -1.
</event>
<event>
 7    1  0.3449452E-011  0.5052887E+02  0.7816164E-02  0.1300439E+00
        -11   -1    0    0    0    0  0.00000000000E+00  0.00000000000E+00  0.45593999997E+02  0.45594000000E+02  0.51100000000E-03 0. -1.
         11   -1    0    0    0    0 -0.00000000000E+00 -0.00000000000E+00 -0.45593999997E+02  0.45594000000E+02  0.51100000000E-03 0.  1.
    9900012    2    1    2    0    0  0.23805595482E+02  0.31603701221E+02  0.93629286741E+01  0.50528871376E+02  0.30000035033E+02 0.  0.
        -12    1    1    2    0    0 -0.23805595482E+02 -0.31603701221E+02 -0.93629286741E+01  0.40659128624E+02  0.00000000000E+00 0.  1.
         11    1    3    3    0    0  0.10834341176E+02  0.49213796277E+01  0.56682092218E+01  0.13180725405E+02  0.51100000000E-03 0. -1.
        -11    1    3    3    0    0 -0.18016172618E+01  0.10573604250E+02  0.99324289780E+01  0.14618484096E+02  0.51100000000E-03 0.  1.
         12    1    3    3    0    0  0.14772871568E+02  0.16108717343E+02 -0.62377095257E+01  0.22729661874E+02  0.00000000000E+00 0. -1.
</event>
<event>
 7    1  0.3449452E-011  0.5052886E+02  0.7816164E-02  0.1300439E+00
        -11   -1    0    0    0    0  0.00000000000E+00  0.00000000000E+00  0.45593999997E+02  0.45594000000E+02  0.51100000000E-03 0. -1.
         11   -1    0    0    0    0 -0.00000000000E+00 -0.00000000000E+00 -0.45593999997E+02  0.45594000000E+02  0.51100000000E-03 0.  1.
    9900012    2    1    2    0    0  0.12420817666E+01 -0.27082482557E+01  0.40549828560E+02  0.50528856231E+02  0.29999989001E+02 0.  0.
        -12    1    1    2    0    0 -0.12420817666E+01  0.27082482557E+01 -0.40549828560E+02  0.40659143769E+02  0.00000000000E+00 0.  1.
         11    1    3    3    0    0  0.63501055840E+01 -0.65281978709E+01  0.75310647699E+01  0.11817704735E+02  0.51100000000E-03 0. -1.
        -11    1    3    3    0    0  0.47818225120E+00  0.10332540568E+02  0.11097482070E+02  0.15170503004E+02  0.51100000000E-03 0.  1.
        -12    1    3    3    0    0 -0.55862060687E+01 -0.65125909527E+01  0.21921281721E+02  0.23540648492E+02  0.00000000000E+00 0.  1.
</event>
<event>
 7    1  0.3449452E-011  0.5052877E+02  0.7816164E-02  0.1300439E+00
        -11   -1    0    0    0    0  0.00000000000E+00  0.00000000000E+00  0.45593999997E+02  0.45594000000E+02  0.51100000000E-03 0.  1.
         11   -1    0    0    0    0 -0.00000000000E+00 -0.00000000000E+00 -0.45593999997E+02  0.45594000000E+02  0.51100000000E-03 0. -1.
    9900012    2    1    2    0    0  0.36472564079E+02 -0.11245604552E+02 -0.14016476092E+02  0.50528767908E+02  0.29999720532E+02 0.  0.
        -12    1    1    2    0    0 -0.36472564079E+02  0.11245604552E+02  0.14016476092E+02  0.40659232092E+02  0.00000000000E+00 0.  1.
         11    1    3    3    0    0  0.14449078273E+02  0.38053060072E+00  0.43092747213E+00  0.14460510545E+02  0.51100000000E-03 0. -1.
        -11    1    3    3    0    0  0.21352127427E+02 -0.13315718882E+02 -0.40193148765E+01  0.25482868900E+02  0.51100000000E-03 0.  1.
        -12    1    3    3    0    0  0.67135837919E+00  0.16895837295E+01 -0.10428088687E+02  0.10585388463E+02  0.00000000000E+00 0.  1.
</event>
<event>
 7    1  0.3449452E-011  0.5052883E+02  0.7816164E-02  0.1300439E+00
        -11   -1    0    0    0    0  0.00000000000E+00  0.00000000000E+00  0.45593999997E+02  0.45594000000E+02  0.51100000000E-03 0.  1.
         11   -1    0    0    0    0 -0.00000000000E+00 -0.00000000000E+00 -0.45593999997E+02  0.45594000000E+02  0.51100000000E-03 0. -1.
    9900012    2    1    2    0    0 -0.19553368871E+02  0.21610963084E+02 -0.28351364753E+02  0.50528833224E+02  0.29999919067E+02 0.  0.
        -12    1    1    2    0    0  0.19553368871E+02 -0.21610963084E+02  0.28351364753E+02  0.40659166776E+02  0.00000000000E+00 0.  1.
         11    1    3    3    0    0 -0.24051994392E+01  0.70246607427E+01 -0.12347420513E+02  0.14407971283E+02  0.51100000000E-03 0. -1.
        -11    1    3    3    0    0  0.54456479581E+01  0.87094526214E+00 -0.64757197223E+00  0.55527450016E+01  0.51100000000E-03 0.  1.
         12    1    3    3    0    0 -0.22593817389E+02  0.13715357079E+02 -0.15356372267E+02  0.30568116940E+02  0.00000000000E+00 0. -1.
</event>
<event>
 7    1  0.3449452E-011  0.5052886E+02  0.7816164E-02  0.1300439E+00
        -11   -1    0    0    0    0  0.00000000000E+00  0.00000000000E+00  0.45593999997E+02  0.45594000000E+02  0.51100000000E-03 0.  1.
         11   -1    0    0    0    0 -0.00000000000E+00 -0.00000000000E+00 -0.45593999997E+02  0.45594000000E+02  0.51100000000E-03 0. -1.
    9900012    2    1    2    0    0  0.30441125346E+02  0.70934630024E+01 -0.26003583748E+02  0.50528859608E+02  0.29999999264E+02 0.  0.
        -12    1    1    2    0    0 -0.30441125346E+02 -0.70934630024E+01  0.26003583748E+02  0.40659140392E+02  0.00000000000E+00 0.  1.
         11    1    3    3    0    0  0.17002625744E+02  0.11172888947E+02 -0.24998861366E+02  0.32231441163E+02  0.51100000000E-03 0. -1.
        -11    1    3    3    0    0  0.90338450803E+01  0.32898730486E+01 -0.13308583860E+01  0.97059160266E+01  0.51100000000E-03 0.  1.
        -12    1    3    3    0    0  0.44046545216E+01 -0.73692989928E+01  0.32613600413E+00  0.85915024177E+01  0.00000000000E+00 0.  1.
</event>
<event>
 7    1  0.3449452E-011  0.5052890E+02  0.7816164E-02  0.1300439E+00
        -11   -1    0    0    0    0  0.00000000000E+00  0.00000000000E+00  0.45593999997E+02  0.45594000000E+02  0.51100000000E-03 0. -1.
         11   -1    0    0    0    0 -0.00000000000E+00 -0.00000000000E+00 -0.45593999997E+02  0.45594000000E+02  0.51100000000E-03 0.  1.
    9900012    2    1    2    0    0  0.28452291249E+02  0.16681479593E+02  0.23777248865E+02  0.50528902588E+02  0.30000129907E+02 0.  0.
        -12    1    1    2    0    0 -0.28452291249E+02 -0.16681479593E+02 -0.23777248865E+02  0.40659097412E+02  0.00000000000E+00 0.  1.
         11    1    3    3    0    0  0.13594868038E+02  0.12176173807E+02  0.17977482220E+02  0.25617757762E+02  0.51100000000E-03 0. -1.
        -11    1    3    3    0    0  0.49317060891E+01  0.31595765415E+01  0.11843442143E+02  0.13212561104E+02  0.51100000000E-03 0.  1.
        -12    1    3    3    0    0  0.99257171221E+01  0.13457292444E+01 -0.60436754976E+01  0.11698583722E+02  0.00000000000E+00 0.  1.
</event>
<event>
 7    1  0.3449452E-011  0.5052886E+02  0.7816164E-02  0.1300439E+00
        -11   -1    0    0    0    0  0.00000000000E+00  0.00000000000E+00  0.45593999997E+02  0.45594000000E+02  0.51100000000E-03 0.  1.
         11   -1    0    0    0    0 -0.00000000000E+00 -0.00000000000E+00 -0.45593999997E+02  0.45594000000E+02  0.51100000000E-03 0. -1.
    9900012    2    1    2    0    0  0.16637252861E+01  0.67013765911E+01 -0.40068561733E+02  0.50528855034E+02  0.29999985360E+02 0.  0.
        -12    1    1    2    0    0 -0.16637252861E+01 -0.67013765911E+01  0.40068561733E+02  0.40659144966E+02  0.00000000000E+00 0.  1.
         11    1    3    3    0    0 -0.59997144924E+01  0.26812162267E+00 -0.30194781793E+02  0.30786251981E+02  0.51100000000E-03 0. -1.
        -11    1    3    3    0    0  0.78170409976E+00 -0.34903940658E+01  0.75432949679E+00  0.36555335158E+01  0.51100000000E-03 0.  1.
        -12    1    3    3    0    0  0.68817356787E+01  0.99236490343E+01 -0.10628109436E+02  0.16087069537E+02  0.00000000000E+00 0.  1.
</event>
<event>
 7    1  0.3449452E-011  0.5052886E+02  0.7816164E-02  0.1300439E+00
        -11   -1    0    0    0    0  0.00000000000E+00  0.00000000000E+00  0.45593999997E+02  0.45594000000E+02  0.51100000000E-03 0. -1.
         11   -1    0    0    0    0 -0.00000000000E+00 -0.00000000000E+00 -0.45593999997E+02  0.45594000000E+02  0.51100000000E-03 0.  1.
    9900012    2    1    2    0    0 -0.34754255535E+02 -0.20848649453E+02  0.32621300242E+01  0.50528856451E+02  0.29999989670E+02 0.  0.
        -12    1    1    2    0    0  0.34754255535E+02  0.20848649453E+02 -0.32621300242E+01  0.40659143549E+02  0.00000000000E+00 0.  1.
         11    1    3    3    0    0 -0.60572895081E+01 -0.15355730837E+02  0.31947078047E+01  0.16813547631E+02  0.51100000000E-03 0. -1.
        -11    1    3    3    0    0 -0.20973903242E+02 -0.10912997891E+02 -0.29098165317E+01  0.23821527505E+02  0.51100000000E-03 0.  1.
        -12    1    3    3    0    0 -0.77230627854E+01  0.54200792751E+01  0.29772387513E+01  0.98937813154E+01  0.00000000000E+00 0.  1.
</event>
<event>
 7    1  0.3449452E-011  0.5052886E+02  0.7816164E-02  0.1300439E+00
        -11   -1    0    0    0    0  0.00000000000E+00  0.00000000000E+00  0.45593999997E+02  0.45594000000E+02  0.51100000000E-03 0.  1.
         11   -1    0    0    0    0 -0.00000000000E+00 -0.00000000000E+00 -0.45593999997E+02  0.45594000000E+02  0.51100000000E-03 0. -1.
    9900012    2    1    2    0    0  0.66959206563E+01 -0.16544977235E+02 -0.36532099026E+02  0.50528857309E+02  0.29999992275E+02 0.  0.
        -12    1    1    2    0    0 -0.66959206563E+01  0.16544977235E+02  0.36532099026E+02  0.40659142691E+02  0.00000000000E+00 0.  1.
         11    1    3    3    0    0 -0.19621858536E+01  0.37801204140E+01 -0.22718890733E+02  0.23114659420E+02  0.51100000000E-03 0. -1.
        -11    1    3    3    0    0  0.64108314184E+00 -0.12357707346E+02 -0.74276323009E+01  0.14432381658E+02  0.51100000000E-03 0.  1.
        -12    1    3    3    0    0  0.80170233680E+01 -0.79673903031E+01 -0.63855759917E+01  0.12981816232E+02  0.00000000000E+00 0.  1.
</event>
<event>
 7    1  0.3449452E-011  0.5052886E+02  0.7816164E-02  0.1300439E+00
        -11   -1    0    0    0    0  0.00000000000E+00  0.00000000000E+00  0.45593999997E+02  0.45594000000E+02  0.51100000000E-03 0. -1.
         11   -1    0    0    0    0 -0.00000000000E+00 -0.00000000000E+00 -0.45593999997E+02  0.45594000000E+02  0.51100000000E-03 0.  1.
    9900012    2    1    2    0    0 -0.28437495799E+02  0.18936790247E+02  0.22042521174E+02  0.50528856725E+02  0.29999990501E+02 0.  0.
        -12    1    1    2    0    0  0.28437495799E+02 -0.18936790247E+02 -0.22042521174E+02  0.40659143275E+02  0.00000000000E+00 0.  1.
         11    1    3    3    0    0 -0.21783301734E+02  0.20242754374E+02  0.18793350060E+02  0.35177710924E+02  0.51100000000E-03 0. -1.
        -11    1    3    3    0    0 -0.10103816030E+02 -0.36423681410E+01  0.15498214917E+01  0.10851538645E+02  0.51100000000E-03 0.  1.
        -12    1    3    3    0    0  0.34496219655E+01  0.23364040135E+01  0.16993496215E+01  0.44996071557E+01  0.00000000000E+00 0.  1.
</event>
<event>
 7    1  0.3449452E-011  0.5052885E+02  0.7816164E-02  0.1300439E+00
        -11   -1    0    0    0    0  0.00000000000E+00  0.00000000000E+00  0.45593999997E+02  0.45594000000E+02  0.51100000000E-03 0.  1.
         11   -1    0    0    0    0 -0.00000000000E+00 -0.00000000000E+00 -0.45593999997E+02  0.45594000000E+02  0.51100000000E-03 0. -1.
    9900012    2    1    2    0    0 -0.31307239486E+02 -0.20644830529E+02 -0.15710310891E+02  0.50528854164E+02  0.29999982718E+02 0.  0.
        -12    1    1    2    0    0  0.31307239486E+02  0.20644830529E+02  0.15710310891E+02  0.40659145836E+02  0.00000000000E+00 0.  1.
         11    1    3    3    0    0 -0.11125172257E+02 -0.23497855708E+01 -0.56659053778E+01  0.12704071552E+02  0.51100000000E-03 0. -1.
        -11    1    3    3    0    0 -0.23518284341E+02 -0.15856876802E+02 -0.14408820791E+02  0.31814530597E+02  0.51100000000E-03 0.  1.
        -12    1    3    3    0    0  0.33362171128E+01 -0.24381681562E+01  0.43644152769E+01  0.60102520156E+01  0.00000000000E+00 0.  1.
</event>
<event>
 7    1  0.3449452E-011  0.5052886E+02  0.7816164E-02  0.1300439E+00
        -11   -1    0    0    0    0  0.00000000000E+00  0.00000000000E+00  0.45593999997E+02  0.45594000000E+02  0.51100000000E-03 0.  1.
         11   -1    0    0    0    0 -0.00000000000E+00 -0.00000000000E+00 -0.45593999997E+02  0.45594000000E+02  0.51100000000E-03 0. -1.
    9900012    2    1    2    0    0 -0.66198969777E+01  0.33540715486E+02 -0.22008251446E+02  0.50528858801E+02  0.29999996810E+02 0.  0.
        -12    1    1    2    0    0  0.66198969777E+01 -0.33540715486E+02  0.22008251446E+02  0.40659141199E+02  0.00000000000E+00 0.  1.
         11    1    3    3    0    0  0.27371367195E+01  0.18864716720E+02 -0.60752009726E+01  0.20006936834E+02  0.51100000000E-03 0. -1.
        -11    1    3    3    0    0  0.44457421837E+01  0.19563835873E+01  0.13136262367E+01  0.50316671646E+01  0.51100000000E-03 0.  1.
         12    1    3    3    0    0 -0.13802775881E+02  0.12719615179E+02 -0.17246676711E+02  0.25490254802E+02  0.00000000000E+00 0. -1.
</event>
<event>
 7    1  0.3449452E-011  0.5052886E+02  0.7816164E-02  0.1300439E+00
        -11   -1    0    0    0    0  0.00000000000E+00  0.00000000000E+00  0.45593999997E+02  0.45594000000E+02  0.51100000000E-03 0. -1.
         11   -1    0    0    0    0 -0.00000000000E+00 -0.00000000000E+00 -0.45593999997E+02  0.45594000000E+02  0.51100000000E-03 0.  1.
    9900012    2    1    2    0    0  0.36115686960E+01  0.32667308421E+02  0.23936767303E+02  0.50528864535E+02  0.30000014239E+02 0.  0.
        -12    1    1    2    0    0 -0.36115686960E+01 -0.32667308421E+02 -0.23936767303E+02  0.40659135465E+02  0.00000000000E+00 0.  1.
         11    1    3    3    0    0 -0.29609365920E+01  0.26952812516E+00  0.34095398340E+01  0.45237985204E+01  0.51100000000E-03 0. -1.
        -11    1    3    3    0    0  0.86115181342E+01  0.99989156473E+00  0.44992963424E+00  0.86810405283E+01  0.51100000000E-03 0.  1.
        -12    1    3    3    0    0 -0.20390128462E+01  0.31397888731E+02  0.20077297835E+02  0.37324025486E+02  0.00000000000E+00 0.  1.
</event>
<event>
 7    1  0.3449452E-011  0.5052886E+02  0.7816164E-02  0.1300439E+00
        -11   -1    0    0    0    0  0.00000000000E+00  0.00000000000E+00  0.45593999997E+02  0.45594000000E+02  0.51100000000E-03 0. -1.
         11   -1    0    0    0    0 -0.00000000000E+00 -0.00000000000E+00 -0.45593999997E+02  0.45594000000E+02  0.51100000000E-03 0.  1.
    9900012    2    1    2    0    0 -0.13922633464E+02  0.21072386964E+02  0.31863460659E+02  0.50528864002E+02  0.30000012620E+02 0.  0.
        -12    1    1    2    0    0  0.13922633464E+02 -0.21072386964E+02 -0.31863460659E+02  0.40659135998E+02  0.00000000000E+00 0.  1.
         11    1    3    3    0    0  0.58360371293E+01 -0.35364584678E+00  0.31956865147E+01  0.66630929245E+01  0.51100000000E-03 0. -1.
        -11    1    3    3    0    0 -0.74647855267E+01  0.98224573086E+01  0.23083094399E+01  0.12551174577E+02  0.51100000000E-03 0.  1.
        -12    1    3    3    0    0 -0.12293885066E+02  0.11603575503E+02  0.26359464704E+02  0.31314596500E+02  0.00000000000E+00 0.  1.
</event>
<event>
 7    1  0.3449452E-011  0.5052885E+02  0.7816164E-02  0.1300439E+00
        -11   -1    0    0    0    0  0.00000000000E+00  0.00000000000E+00  0.45593999997E+02  0.45594000000E+02  0.51100000000E-03 0.  1.
         11   -1    0    0    0    0 -0.00000000000E+00 -0.00000000000E+00 -0.45593999997E+02  0.45594000000E+02  0.51100000000E-03 0. -1.
    9900012    2    1    2    0    0  0.19194923793E+02  0.35547506388E+02 -0.45930576793E+01  0.50528849877E+02  0.29999969687E+02 0.  0.
        -12    1    1    2    0    0 -0.19194923793E+02 -0.35547506388E+02  0.45930576793E+01  0.40659150123E+02  0.00000000000E+00 0.  1.
         11    1    3    3    0    0  0.13120425373E+02  0.44085980978E+01 -0.44909434028E+01  0.14551627815E+02  0.51100000000E-03 0. -1.
        -11    1    3    3    0    0  0.10563803874E+02  0.17575640254E+02 -0.45678493880E+01  0.21008625156E+02  0.51100000000E-03 0.  1.
        -12    1    3    3    0    0 -0.44893054539E+01  0.13563268036E+02  0.44657351115E+01  0.14968596907E+02  0.00000000000E+00 0.  1.
</event>
<event>
 7    1  0.3449452E-011  0.5052886E+02  0.7816164E-02  0.1300439E+00
        -11   -1    0    0    0    0  0.00000000000E+00  0.00000000000E+00  0.45593999997E+02  0.45594000000E+02  0.51100000000E-03 0.  1.
         11   -1    0    0    0    0 -0.00000000000E+00 -0.00000000000E+00 -0.45593999997E+02  0.45594000000E+02  0.51100000000E-03 0. -1.
    9900012    2    1    2    0    0 -0.36333470532E+02  0.13909853127E+02 -0.11813559421E+02  0.50528864728E+02  0.30000014826E+02 0.  0.
        -12    1    1    2    0    0  0.36333470532E+02 -0.13909853127E+02  0.11813559421E+02  0.40659135272E+02  0.00000000000E+00 0.  1.
         11    1    3    3    0    0 -0.22090914764E+02  0.14585449569E+01 -0.53944832150E+01  0.22786757512E+02  0.51100000000E-03 0. -1.
        -11    1    3    3    0    0 -0.78448891874E+01  0.16809060002E+02 -0.15879528609E+01  0.18617421386E+02  0.51100000000E-03 0.  1.
         12    1    3    3    0    0 -0.63976665805E+01 -0.43577518323E+01 -0.48311233451E+01  0.91246858292E+01  0.00000000000E+00 0. -1.
</event>
<event>
 7    1  0.3449452E-011  0.5052886E+02  0.7816164E-02  0.1300439E+00
        -11   -1    0    0    0    0  0.00000000000E+00  0.00000000000E+00  0.45593999997E+02  0.45594000000E+02  0.51100000000E-03 0. -1.
         11   -1    0    0    0    0 -0.00000000000E+00 -0.00000000000E+00 -0.45593999997E+02  0.45594000000E+02  0.51100000000E-03 0.  1.
    9900012    2    1    2    0    0  0.47981606671E+01 -0.35290843550E+02  0.19613759558E+02  0.50528861442E+02  0.30000004839E+02 0.  0.
        -12    1    1    2    0    0 -0.47981606671E+01  0.35290843550E+02 -0.19613759558E+02  0.40659138558E+02  0.00000000000E+00 0.  1.
         11    1    3    3    0    0  0.15124088449E+01 -0.53414474720E+01 -0.13996393000E+01  0.57251578180E+01  0.51100000000E-03 0. -1.
        -11    1    3    3    0    0 -0.11261945919E+02 -0.13884497771E+02  0.87959236228E+01  0.19924331278E+02  0.51100000000E-03 0.  1.
         12    1    3    3    0    0  0.14547697742E+02 -0.16064898307E+02  0.12217475235E+02  0.24879372346E+02  0.00000000000E+00 0. -1.
</event>
<event>
 7    1  0.3449452E-011  0.5052887E+02  0.7816164E-02  0.1300439E+00
        -11   -1    0    0    0    0  0.00000000000E+00  0.00000000000E+00  0.45593999997E+02  0.45594000000E+02  0.51100000000E-03 0. -1.
         11   -1    0    0    0    0 -0.00000000000E+00 -0.00000000000E+00 -0.45593999997E+02  0.45594000000E+02  0.51100000000E-03 0.  1.
    9900012    2    1    2    0    0 -0.33713970389E+02  0.18454314235E+02  0.13265432133E+02  0.50528865689E+02  0.30000017747E+02 0.  0.
        -12    1    1    2    0    0  0.33713970389E+02 -0.18454314235E+02 -0.13265432133E+02  0.40659134311E+02  0.00000000000E+00 0.  1.
         11    1    3    3    0    0 -0.15811185463E+02  0.14319065085E+01  0.23232798639E+01  0.16044985870E+02  0.51100000000E-03 0. -1.
        -11    1    3    3    0    0 -0.10396162866E+02  0.74356822513E+01 -0.55910328373E+01  0.13950957721E+02  0.51100000000E-03 0.  1.
         12    1    3    3    0    0 -0.75066220594E+01  0.95867254754E+01  0.16533185107E+02  0.20532922097E+02  0.00000000000E+00 0. -1.
</event>
<event>
 7    1  0.3449452E-011  0.5052886E+02  0.7816164E-02  0.1300439E+00
        -11   -1    0    0    0    0  0.00000000000E+00  0.00000000000E+00  0.45593999997E+02  0.45594000000E+02  0.51100000000E-03 0.  1.
         11   -1    0    0    0    0 -0.00000000000E+00 -0.00000000000E+00 -0.45593999997E+02  0.45594000000E+02  0.51100000000E-03 0. -1.
    9900012    2    1    2    0    0 -0.86193453386E+01 -0.10955489592E+02 -0.38194894028E+02  0.50528858395E+02  0.29999995577E+02 0.  0.
        -12    1    1    2    0    0  0.86193453386E+01  0.10955489592E+02  0.38194894028E+02  0.40659141605E+02  0.00000000000E+00 0.  1.
         11    1    3    3    0    0  0.81365746157E+01 -0.44896132342E+01 -0.17731187968E+02  0.20018878602E+02  0.51100000000E-03 0. -1.
        -11    1    3    3    0    0  0.89877480312E-01 -0.46797232607E+01 -0.87214075108E+01  0.98980218725E+01  0.51100000000E-03 0.  1.
        -12    1    3    3    0    0 -0.16845797435E+02 -0.17861530973E+01 -0.11742298549E+02  0.20611957921E+02  0.00000000000E+00 0.  1.
</event>
<event>
 7    1  0.3449452E-011  0.5052886E+02  0.7816164E-02  0.1300439E+00
        -11   -1    0    0    0    0  0.00000000000E+00  0.00000000000E+00  0.45593999997E+02  0.45594000000E+02  0.51100000000E-03 0. -1.
         11   -1    0    0    0    0 -0.00000000000E+00 -0.00000000000E+00 -0.45593999997E+02  0.45594000000E+02  0.51100000000E-03 0.  1.
    9900012    2    1    2    0    0  0.26329139540E+02 -0.65255988804E+01 -0.30287924212E+02  0.50528863478E+02  0.30000011027E+02 0.  0.
        -12    1    1    2    0    0 -0.26329139540E+02  0.65255988804E+01  0.30287924212E+02  0.40659136522E+02  0.00000000000E+00 0.  1.
         11    1    3    3    0    0  0.16185985068E+02 -0.65508055256E+01 -0.25753306114E+01  0.17650254777E+02  0.51100000000E-03 0. -1.
        -11    1    3    3    0    0 -0.22032008621E+01  0.23440672284E+00  0.32779306112E+00  0.22397520181E+01  0.51100000000E-03 0.  1.
        -12    1    3    3    0    0  0.12346355334E+02 -0.20920007766E+00 -0.28040386661E+02  0.30638856683E+02  0.00000000000E+00 0.  1.
</event>
<event>
 7    1  0.3449452E-011  0.5052886E+02  0.7816164E-02  0.1300439E+00
        -11   -1    0    0    0    0  0.00000000000E+00  0.00000000000E+00  0.45593999997E+02  0.45594000000E+02  0.51100000000E-03 0.  1.
         11   -1    0    0    0    0 -0.00000000000E+00 -0.00000000000E+00 -0.45593999997E+02  0.45594000000E+02  0.51100000000E-03 0. -1.
    9900012    2    1    2    0    0 -0.40625439405E+02  0.16521931918E+01 -0.99295454219E-01  0.50528856763E+02  0.29999990616E+02 0.  0.
        -12    1    1    2    0    0  0.40625439405E+02 -0.16521931918E+01  0.99295454219E-01  0.40659143237E+02  0.00000000000E+00 0.  1.
         11    1    3    3    0    0 -0.83155624922E+01 -0.89733996732E+01 -0.35667158718E+01  0.12743309760E+02  0.51100000000E-03 0. -1.
        -11    1    3    3    0    0 -0.10917487234E+02  0.26219012530E+01  0.88768799981E+01  0.14313102125E+02  0.51100000000E-03 0.  1.
         12    1    3    3    0    0 -0.21392389679E+02  0.80036916120E+01 -0.54094595805E+01  0.23472444878E+02  0.00000000000E+00 0. -1.
</event>
<event>
 7    1  0.3449452E-011  0.5052886E+02  0.7816164E-02  0.1300439E+00
        -11   -1    0    0    0    0  0.00000000000E+00  0.00000000000E+00  0.45593999997E+02  0.45594000000E+02  0.51100000000E-03 0.  1.
         11   -1    0    0    0    0 -0.00000000000E+00 -0.00000000000E+00 -0.45593999997E+02  0.45594000000E+02  0.51100000000E-03 0. -1.
    9900012    2    1    2    0    0 -0.10519694798E+02 -0.37692881284E+02 -0.11033972869E+02  0.50528857911E+02  0.29999994106E+02 0.  0.
        -12    1    1    2    0    0  0.10519694798E+02  0.37692881284E+02  0.11033972869E+02  0.40659142089E+02  0.00000000000E+00 0.  1.
         11    1    3    3    0    0  0.13495751552E+01 -0.20810301967E+01 -0.79626476371E+01  0.83400118365E+01  0.51100000000E-03 0. -1.
        -11    1    3    3    0    0 -0.89395221636E+01 -0.50513147708E+01 -0.50140531684E+01  0.11426791626E+02  0.51100000000E-03 0.  1.
         12    1    3    3    0    0 -0.29297477899E+01 -0.30560536316E+02  0.19427279366E+01  0.30762054449E+02  0.00000000000E+00 0. -1.
</event>
<event>
 7    1  0.3449452E-011  0.5052890E+02  0.7816164E-02  0.1300439E+00
        -11   -1    0    0    0    0  0.00000000000E+00  0.00000000000E+00  0.45593999997E+02  0.45594000000E+02  0.51100000000E-03 0.  1.
         11   -1    0    0    0    0 -0.00000000000E+00 -0.00000000000E+00 -0.45593999997E+02  0.45594000000E+02  0.51100000000E-03 0. -1.
    9900012    2    1    2    0    0 -0.35236550411E+01 -0.20655959994E+02 -0.34843621095E+02  0.50528895741E+02  0.30000109095E+02 0.  0.
        -12    1    1    2    0    0  0.35236550411E+01  0.20655959994E+02  0.34843621095E+02  0.40659104259E+02  0.00000000000E+00 0.  1.
         11    1    3    3    0    0 -0.68981741447E+01  0.29945324852E+01 -0.11146645823E+02  0.13446179558E+02  0.51100000000E-03 0. -1.
        -11    1    3    3    0    0 -0.38157907034E+00 -0.45297221730E+01  0.18879023544E+01  0.49222109984E+01  0.51100000000E-03 0.  1.
         12    1    3    3    0    0  0.37560981740E+01 -0.19120770306E+02 -0.25584877626E+02  0.32160505185E+02  0.00000000000E+00 0. -1.
</event>
<event>
 7    1  0.3449452E-011  0.5052886E+02  0.7816164E-02  0.1300439E+00
        -11   -1    0    0    0    0  0.00000000000E+00  0.00000000000E+00  0.45593999997E+02  0.45594000000E+02  0.51100000000E-03 0. -1.
         11   -1    0    0    0    0 -0.00000000000E+00 -0.00000000000E+00 -0.45593999997E+02  0.45594000000E+02  0.51100000000E-03 0.  1.
    9900012    2    1    2    0    0  0.22222935519E+02  0.30638729597E+02  0.14851776566E+02  0.50528857343E+02  0.29999992381E+02 0.  0.
        -12    1    1    2    0    0 -0.22222935519E+02 -0.30638729597E+02 -0.14851776566E+02  0.40659142657E+02  0.00000000000E+00 0.  1.
         11    1    3    3    0    0  0.44958258580E+00  0.32249336282E+01  0.45080919582E+01  0.55610443958E+01  0.51100000000E-03 0. -1.
        -11    1    3    3    0    0  0.13005265397E+02  0.31016920103E+02  0.47661425629E+01  0.33969138580E+02  0.51100000000E-03 0.  1.
         12    1    3    3    0    0  0.87680875363E+01 -0.36031241340E+01  0.55775420451E+01  0.10998674367E+02  0.00000000000E+00 0. -1.
</event>
<event>
 7    1  0.3449452E-011  0.5052887E+02  0.7816164E-02  0.1300439E+00
        -11   -1    0    0    0    0  0.00000000000E+00  0.00000000000E+00  0.45593999997E+02  0.45594000000E+02  0.51100000000E-03 0. -1.
         11   -1    0    0    0    0 -0.00000000000E+00 -0.00000000000E+00 -0.45593999997E+02  0.45594000000E+02  0.51100000000E-03 0.  1.
    9900012    2    1    2    0    0 -0.19865933222E+02  0.20338075848E+02  0.29066692039E+02  0.50528865503E+02  0.30000017184E+02 0.  0.
        -12    1    1    2    0    0  0.19865933222E+02 -0.20338075848E+02 -0.29066692039E+02  0.40659134497E+02  0.00000000000E+00 0.  1.
         11    1    3    3    0    0 -0.47413753414E+01  0.18693198410E+02  0.11559306775E+02  0.22484080597E+02  0.51100000000E-03 0. -1.
        -11    1    3    3    0    0 -0.17667875601E+01  0.38032669510E+01  0.13191632637E+02  0.13842165643E+02  0.51100000000E-03 0.  1.
        -12    1    3    3    0    0 -0.13357770320E+02 -0.21583895136E+01  0.43157526271E+01  0.14202619264E+02  0.00000000000E+00 0.  1.
</event>
<event>
 7    1  0.3449452E-011  0.5052886E+02  0.7816164E-02  0.1300439E+00
        -11   -1    0    0    0    0  0.00000000000E+00  0.00000000000E+00  0.45593999997E+02  0.45594000000E+02  0.51100000000E-03 0. -1.
         11   -1    0    0    0    0 -0.00000000000E+00 -0.00000000000E+00 -0.45593999997E+02  0.45594000000E+02  0.51100000000E-03 0.  1.
    9900012    2    1    2    0    0  0.31255094865E+02  0.99916731112E+01  0.24009404928E+02  0.50528855745E+02  0.29999987523E+02 0.  0.
        -12    1    1    2    0    0 -0.31255094865E+02 -0.99916731112E+01 -0.24009404928E+02  0.40659144255E+02  0.00000000000E+00 0.  1.
         11    1    3    3    0    0  0.18115681364E+02  0.62974012955E+01  0.17011264137E+02  0.25636268881E+02  0.51100000000E-03 0. -1.
        -11    1    3    3    0    0  0.17986320970E+02  0.33867265927E+00  0.54666086429E+01  0.18801761926E+02  0.51100000000E-03 0.  1.
         12    1    3    3    0    0 -0.48469074687E+01  0.33555991564E+01  0.15315321482E+01  0.60908249383E+01  0.00000000000E+00 0. -1.
</event>
<event>
 7    1  0.3449452E-011  0.5052886E+02  0.7816164E-02  0.1300439E+00
        -11   -1    0    0    0    0  0.00000000000E+00  0.00000000000E+00  0.45593999997E+02  0.45594000000E+02  0.51100000000E-03 0. -1.
         11   -1    0    0    0    0 -0.00000000000E+00 -0.00000000000E+00 -0.45593999997E+02  0.45594000000E+02  0.51100000000E-03 0.  1.
    9900012    2    1    2    0    0 -0.21472331104E+02 -0.20897040996E+02  0.27484875005E+02  0.50528859829E+02  0.29999999937E+02 0.  0.
        -12    1    1    2    0    0  0.21472331104E+02  0.20897040996E+02 -0.27484875005E+02  0.40659140171E+02  0.00000000000E+00 0.  1.
         11    1    3    3    0    0 -0.13257338580E+02 -0.10846749013E+02  0.33179892636E+01  0.17447579872E+02  0.51100000000E-03 0. -1.
        -11    1    3    3    0    0 -0.13393021879E+02 -0.56283474646E+01  0.21089471496E+02  0.25608926930E+02  0.51100000000E-03 0.  1.
        -12    1    3    3    0    0  0.51780293557E+01 -0.44219445178E+01  0.30774142450E+01  0.74723530271E+01  0.00000000000E+00 0.  1.
</event>
<event>
 7    1  0.3449452E-011  0.5052888E+02  0.7816164E-02  0.1300439E+00
        -11   -1    0    0    0    0  0.00000000000E+00  0.00000000000E+00  0.45593999997E+02  0.45594000000E+02  0.51100000000E-03 0. -1.
         11   -1    0    0    0    0 -0.00000000000E+00 -0.00000000000E+00 -0.45593999997E+02  0.45594000000E+02  0.51100000000E-03 0.  1.
    9900012    2    1    2    0    0 -0.23720913690E+02  0.32809697963E+02  0.37424708065E+01  0.50528879074E+02  0.30000058435E+02 0.  0.
        -12    1    1    2    0    0  0.23720913690E+02 -0.32809697963E+02 -0.37424708065E+01  0.40659120926E+02  0.00000000000E+00 0.  1.
         11    1    3    3    0    0 -0.14757285202E+02  0.13067300595E+02  0.62960131257E+01  0.20692307578E+02  0.51100000000E-03 0. -1.
        -11    1    3    3    0    0  0.26929392385E+01 -0.62309612996E-01  0.49724002078E+01  0.56551364544E+01  0.51100000000E-03 0.  1.
        -12    1    3    3    0    0 -0.11656567727E+02  0.19804706981E+02 -0.75259425270E+01  0.24181435042E+02  0.00000000000E+00 0.  1.
</event>
<event>
 7    1  0.3449452E-011  0.5052884E+02  0.7816164E-02  0.1300439E+00
        -11   -1    0    0    0    0  0.00000000000E+00  0.00000000000E+00  0.45593999997E+02  0.45594000000E+02  0.51100000000E-03 0. -1.
         11   -1    0    0    0    0 -0.00000000000E+00 -0.00000000000E+00 -0.45593999997E+02  0.45594000000E+02  0.51100000000E-03 0.  1.
    9900012    2    1    2    0    0  0.41494663096E+01  0.22036761590E+02  0.33916515082E+02  0.50528844483E+02  0.29999953290E+02 0.  0.
        -12    1    1    2    0    0 -0.41494663096E+01 -0.22036761590E+02 -0.33916515082E+02  0.40659155517E+02  0.00000000000E+00 0.  1.
         11    1    3    3    0    0  0.40563297150E+01  0.11029526339E+02  0.37412329680E+01  0.12332926919E+02  0.51100000000E-03 0. -1.
        -11    1    3    3    0    0 -0.21214068405E+01  0.16945131163E+02  0.21748600198E+02  0.27652114710E+02  0.51100000000E-03 0.  1.
        -12    1    3    3    0    0  0.22145434351E+01 -0.59378959120E+01  0.84266819167E+01  0.10543802853E+02  0.00000000000E+00 0.  1.
</event>
<event>
 7    1  0.3449452E-011  0.5052887E+02  0.7816164E-02  0.1300439E+00
        -11   -1    0    0    0    0  0.00000000000E+00  0.00000000000E+00  0.45593999997E+02  0.45594000000E+02  0.51100000000E-03 0. -1.
         11   -1    0    0    0    0 -0.00000000000E+00 -0.00000000000E+00 -0.45593999997E+02  0.45594000000E+02  0.51100000000E-03 0.  1.
    9900012    2    1    2    0    0 -0.33246098671E+02 -0.20097448832E+02  0.11998104118E+02  0.50528867830E+02  0.30000024256E+02 0.  0.
        -12    1    1    2    0    0  0.33246098671E+02  0.20097448832E+02 -0.11998104118E+02  0.40659132170E+02  0.00000000000E+00 0.  1.
         11    1    3    3    0    0 -0.73712328761E+01 -0.32945287118E+01  0.71388952802E+01  0.10777421752E+02  0.51100000000E-03 0. -1.
        -11    1    3    3    0    0 -0.26671702201E+02 -0.21748546908E+02  0.47481164070E+01  0.34740805987E+02  0.51100000000E-03 0.  1.
        -12    1    3    3    0    0  0.79683640626E+00  0.49456267886E+01  0.11109243121E+00  0.50106400908E+01  0.00000000000E+00 0.  1.
</event>
<event>
 7    1  0.3449452E-011  0.5052886E+02  0.7816164E-02  0.1300439E+00
        -11   -1    0    0    0    0  0.00000000000E+00  0.00000000000E+00  0.45593999997E+02  0.45594000000E+02  0.51100000000E-03 0.  1.
         11   -1    0    0    0    0 -0.00000000000E+00 -0.00000000000E+00 -0.45593999997E+02  0.45594000000E+02  0.51100000000E-03 0. -1.
    9900012    2    1    2    0    0 -0.38017713326E+02  0.14492238515E+01 -0.14342906469E+02  0.50528859056E+02  0.29999997588E+02 0.  0.
        -12    1    1    2    0    0  0.38017713326E+02 -0.14492238515E+01  0.14342906469E+02  0.40659140944E+02  0.00000000000E+00 0.  1.
         11    1    3    3    0    0  0.25778872446E+01  0.47696135520E+01 -0.14258834340E+01  0.56060556463E+01  0.51100000000E-03 0. -1.
        -11    1    3    3    0    0 -0.55918456955E+01 -0.36229287786E+01  0.18735104467E+01  0.69212999409E+01  0.51100000000E-03 0.  1.
         12    1    3    3    0    0 -0.35003754875E+02  0.30253907800E+00 -0.14790533482E+02  0.38001503469E+02  0.00000000000E+00 0. -1.
</event>
<event>
 7    1  0.3449452E-011  0.5052886E+02  0.7816164E-02  0.1300439E+00
        -11   -1    0    0    0    0  0.00000000000E+00  0.00000000000E+00  0.45593999997E+02  0.45594000000E+02  0.51100000000E-03 0.  1.
         11   -1    0    0    0    0 -0.00000000000E+00 -0.00000000000E+00 -0.45593999997E+02  0.45594000000E+02  0.51100000000E-03 0. -1.
    9900012    2    1    2    0    0  0.23758799843E+02 -0.12936425071E+00 -0.32994973769E+02  0.50528860816E+02  0.30000002938E+02 0.  0.
        -12    1    1    2    0    0 -0.23758799843E+02  0.12936425071E+00  0.32994973769E+02  0.40659139184E+02  0.00000000000E+00 0.  1.
         11    1    3    3    0    0  0.19412629745E+02 -0.29423042468E+01 -0.29493241754E+02  0.35431040873E+02  0.51100000000E-03 0. -1.
        -11    1    3    3    0    0  0.74099960698E+01 -0.20470242223E+01 -0.49874916013E+01  0.91637013621E+01  0.51100000000E-03 0.  1.
         12    1    3    3    0    0 -0.30638259715E+01  0.48599642183E+01  0.14857595864E+01  0.59341185812E+01  0.00000000000E+00 0. -1.
</event>
<event>
 7    1  0.3449452E-011  0.5052890E+02  0.7816164E-02  0.1300439E+00
        -11   -1    0    0    0    0  0.00000000000E+00  0.00000000000E+00  0.45593999997E+02  0.45594000000E+02  0.51100000000E-03 0. -1.
         11   -1    0    0    0    0 -0.00000000000E+00 -0.00000000000E+00 -0.45593999997E+02  0.45594000000E+02  0.51100000000E-03 0.  1.
    9900012    2    1    2    0    0  0.31186514544E+02 -0.16366952695E+02 -0.20314681233E+02  0.50528903803E+02  0.30000133600E+02 0.  0.
        -12    1    1    2    0    0 -0.31186514544E+02  0.16366952695E+02  0.20314681233E+02  0.40659096197E+02  0.00000000000E+00 0.  1.
         11    1    3    3    0    0  0.10111601129E+02  0.23794750450E+01  0.27691819993E+01  0.10750569664E+02  0.51100000000E-03 0. -1.
        -11    1    3    3    0    0  0.61522036371E+01 -0.13940669687E+00 -0.11981003154E+02  0.13468982169E+02  0.51100000000E-03 0.  1.
         12    1    3    3    0    0  0.14922709778E+02 -0.18607021043E+02 -0.11102860078E+02  0.26309351971E+02  0.00000000000E+00 0. -1.
</event>
<event>
 7    1  0.3449452E-011  0.5052879E+02  0.7816164E-02  0.1300439E+00
        -11   -1    0    0    0    0  0.00000000000E+00  0.00000000000E+00  0.45593999997E+02  0.45594000000E+02  0.51100000000E-03 0. -1.
         11   -1    0    0    0    0 -0.00000000000E+00 -0.00000000000E+00 -0.45593999997E+02  0.45594000000E+02  0.51100000000E-03 0.  1.
    9900012    2    1    2    0    0 -0.10997606246E+02  0.15560951411E+02  0.35917698438E+02  0.50528786862E+02  0.29999778144E+02 0.  0.
        -12    1    1    2    0    0  0.10997606246E+02 -0.15560951411E+02 -0.35917698438E+02  0.40659213138E+02  0.00000000000E+00 0.  1.
         11    1    3    3    0    0 -0.36818380354E+01  0.93508587317E+01  0.14682100991E+02  0.17792093191E+02  0.51100000000E-03 0. -1.
        -11    1    3    3    0    0 -0.91557886224E+01  0.23836761773E+01  0.25206358246E+02  0.26923426114E+02  0.51100000000E-03 0.  1.
        -12    1    3    3    0    0  0.18400204123E+01  0.38264165017E+01 -0.39707607994E+01  0.58132675569E+01  0.00000000000E+00 0.  1.
</event>
<event>
 7    1  0.3449452E-011  0.5052885E+02  0.7816164E-02  0.1300439E+00
        -11   -1    0    0    0    0  0.00000000000E+00  0.00000000000E+00  0.45593999997E+02  0.45594000000E+02  0.51100000000E-03 0.  1.
         11   -1    0    0    0    0 -0.00000000000E+00 -0.00000000000E+00 -0.45593999997E+02  0.45594000000E+02  0.51100000000E-03 0. -1.
    9900012    2    1    2    0    0  0.36178246427E+02 -0.70633084053E+01 -0.17158390693E+02  0.50528853289E+02  0.29999980056E+02 0.  0.
        -12    1    1    2    0    0 -0.36178246427E+02  0.70633084053E+01  0.17158390693E+02  0.40659146711E+02  0.00000000000E+00 0.  1.
         11    1    3    3    0    0  0.15297708025E+02 -0.94312768435E+00 -0.25712884596E+00  0.15328909816E+02  0.51100000000E-03 0. -1.
        -11    1    3    3    0    0  0.12279850067E+02  0.44602337849E+01  0.52246852539E+00  0.13075219948E+02  0.51100000000E-03 0.  1.
         12    1    3    3    0    0  0.86006883355E+01 -0.10580414506E+02 -0.17423730372E+02  0.22124723525E+02  0.00000000000E+00 0. -1.
</event>
<event>
 7    1  0.3449452E-011  0.5052883E+02  0.7816164E-02  0.1300439E+00
        -11   -1    0    0    0    0  0.00000000000E+00  0.00000000000E+00  0.45593999997E+02  0.45594000000E+02  0.51100000000E-03 0.  1.
         11   -1    0    0    0    0 -0.00000000000E+00 -0.00000000000E+00 -0.45593999997E+02  0.45594000000E+02  0.51100000000E-03 0. -1.
    9900012    2    1    2    0    0 -0.30961795256E+02 -0.23128332590E+02 -0.12633901849E+02  0.50528831172E+02  0.29999912830E+02 0.  0.
        -12    1    1    2    0    0  0.30961795256E+02  0.23128332590E+02  0.12633901849E+02  0.40659168828E+02  0.00000000000E+00 0.  1.
         11    1    3    3    0    0 -0.12273663150E+02 -0.70182771712E+01 -0.43057731617E+01  0.14779671998E+02  0.51100000000E-03 0. -1.
        -11    1    3    3    0    0 -0.96346441289E+01 -0.21482798912E+02 -0.23979706022E+01  0.23666163184E+02  0.51100000000E-03 0.  1.
        -12    1    3    3    0    0 -0.90534879768E+01  0.53727434931E+01 -0.59301580856E+01  0.12082995991E+02  0.00000000000E+00 0.  1.
</event>
<event>
 7    1  0.3449452E-011  0.5052886E+02  0.7816164E-02  0.1300439E+00
        -11   -1    0    0    0    0  0.00000000000E+00  0.00000000000E+00  0.45593999997E+02  0.45594000000E+02  0.51100000000E-03 0.  1.
         11   -1    0    0    0    0 -0.00000000000E+00 -0.00000000000E+00 -0.45593999997E+02  0.45594000000E+02  0.51100000000E-03 0. -1.
    9900012    2    1    2    0    0  0.20623923320E+02 -0.30882028060E+02 -0.16556551995E+02  0.50528864690E+02  0.30000014712E+02 0.  0.
        -12    1    1    2    0    0 -0.20623923320E+02  0.30882028060E+02  0.16556551995E+02  0.40659135310E+02  0.00000000000E+00 0.  1.
         11    1    3    3    0    0  0.17192439960E+02 -0.99831182111E+01 -0.58136192400E+01  0.20713300314E+02  0.51100000000E-03 0. -1.
        -11    1    3    3    0    0  0.28137248899E+01 -0.26161873602E+00 -0.86067808085E+01  0.90588171560E+01  0.51100000000E-03 0.  1.
        -12    1    3    3    0    0  0.61775847016E+00 -0.20637291113E+02 -0.21361519463E+01  0.20756747220E+02  0.00000000000E+00 0.  1.
</event>
<event>
 7    1  0.3449452E-011  0.5052886E+02  0.7816164E-02  0.1300439E+00
        -11   -1    0    0    0    0  0.00000000000E+00  0.00000000000E+00  0.45593999997E+02  0.45594000000E+02  0.51100000000E-03 0.  1.
         11   -1    0    0    0    0 -0.00000000000E+00 -0.00000000000E+00 -0.45593999997E+02  0.45594000000E+02  0.51100000000E-03 0. -1.
    9900012    2    1    2    0    0 -0.78265973462E+01  0.53402004782E+01 -0.39539751546E+02  0.50528864256E+02  0.30000013393E+02 0.  0.
        -12    1    1    2    0    0  0.78265973462E+01 -0.53402004782E+01  0.39539751546E+02  0.40659135744E+02  0.00000000000E+00 0.  1.
         11    1    3    3    0    0  0.77803813363E+00  0.16708664352E+01 -0.30465241517E+02  0.30520944922E+02  0.51100000000E-03 0. -1.
        -11    1    3    3    0    0  0.11848252125E+01  0.49561238406E+01  0.17205476688E+01  0.53784067203E+01  0.51100000000E-03 0.  1.
        -12    1    3    3    0    0 -0.97894606923E+01 -0.12867897977E+01 -0.10795057698E+02  0.14629512614E+02  0.00000000000E+00 0.  1.
</event>
<event>
 7    1  0.3449452E-011  0.5052887E+02  0.7816164E-02  0.1300439E+00
        -11   -1    0    0    0    0  0.00000000000E+00  0.00000000000E+00  0.45593999997E+02  0.45594000000E+02  0.51100000000E-03 0.  1.
         11   -1    0    0    0    0 -0.00000000000E+00 -0.00000000000E+00 -0.45593999997E+02  0.45594000000E+02  0.51100000000E-03 0. -1.
    9900012    2    1    2    0    0  0.18222020271E+02 -0.14287593833E+02 -0.33421365748E+02  0.50528867585E+02  0.30000023512E+02 0.  0.
        -12    1    1    2    0    0 -0.18222020271E+02  0.14287593833E+02  0.33421365748E+02  0.40659132415E+02  0.00000000000E+00 0.  1.
         11    1    3    3    0    0  0.49286032969E+01 -0.11348141632E+02 -0.22324269822E+02  0.25523410280E+02  0.51100000000E-03 0. -1.
        -11    1    3    3    0    0  0.81282197958E+00  0.62517125526E+01 -0.59625836432E+01  0.86773840167E+01  0.51100000000E-03 0.  1.
         12    1    3    3    0    0  0.12480594994E+02 -0.91911647540E+01 -0.51345122822E+01  0.16328073289E+02  0.00000000000E+00 0. -1.
</event>
<event>
 7    1  0.3449452E-011  0.5052887E+02  0.7816164E-02  0.1300439E+00
        -11   -1    0    0    0    0  0.00000000000E+00  0.00000000000E+00  0.45593999997E+02  0.45594000000E+02  0.51100000000E-03 0.  1.
         11   -1    0    0    0    0 -0.00000000000E+00 -0.00000000000E+00 -0.45593999997E+02  0.45594000000E+02  0.51100000000E-03 0. -1.
    9900012    2    1    2    0    0 -0.33079424651E+01 -0.35883214487E+02 -0.18831288838E+02  0.50528868128E+02  0.30000025162E+02 0.  0.
        -12    1    1    2    0    0  0.33079424651E+01  0.35883214487E+02  0.18831288838E+02  0.40659131872E+02  0.00000000000E+00 0.  1.
         11    1    3    3    0    0  0.30903498354E+01 -0.19376961471E+02 -0.89847664050E+01  0.21581077952E+02  0.51100000000E-03 0. -1.
        -11    1    3    3    0    0 -0.44438317732E+01 -0.10872053663E+02  0.51382523152E+01  0.12819938721E+02  0.51100000000E-03 0.  1.
        -12    1    3    3    0    0 -0.19544605274E+01 -0.56341993526E+01 -0.14984774748E+02  0.16127851455E+02  0.00000000000E+00 0.  1.
</event>
<event>
 7    1  0.3449452E-011  0.5052885E+02  0.7816164E-02  0.1300439E+00
        -11   -1    0    0    0    0  0.00000000000E+00  0.00000000000E+00  0.45593999997E+02  0.45594000000E+02  0.51100000000E-03 0.  1.
         11   -1    0    0    0    0 -0.00000000000E+00 -0.00000000000E+00 -0.45593999997E+02  0.45594000000E+02  0.51100000000E-03 0. -1.
    9900012    2    1    2    0    0 -0.34753421796E+01  0.35275356194E+01 -0.40356470155E+02  0.50528853499E+02  0.29999980697E+02 0.  0.
        -12    1    1    2    0    0  0.34753421796E+01 -0.35275356194E+01  0.40356470155E+02  0.40659146501E+02  0.00000000000E+00 0.  1.
         11    1    3    3    0    0  0.60421365820E+01  0.48007610471E+01 -0.72626681493E+01  0.10597219919E+02  0.51100000000E-03 0. -1.
        -11    1    3    3    0    0 -0.25131958530E+01 -0.81867745821E+01 -0.44639223235E+01  0.96574341429E+01  0.51100000000E-03 0.  1.
        -12    1    3    3    0    0 -0.70042829086E+01  0.69135491543E+01 -0.28629879682E+02  0.30274199437E+02  0.00000000000E+00 0.  1.
</event>
<event>
 7    1  0.3449452E-011  0.5052887E+02  0.7816164E-02  0.1300439E+00
        -11   -1    0    0    0    0  0.00000000000E+00  0.00000000000E+00  0.45593999997E+02  0.45594000000E+02  0.51100000000E-03 0.  1.
         11   -1    0    0    0    0 -0.00000000000E+00 -0.00000000000E+00 -0.45593999997E+02  0.45594000000E+02  0.51100000000E-03 0. -1.
    9900012    2    1    2    0    0  0.24073861319E+01  0.39761839541E+02 -0.81465157746E+01  0.50528866820E+02  0.30000021186E+02 0.  0.
        -12    1    1    2    0    0 -0.24073861319E+01 -0.39761839541E+02  0.81465157746E+01  0.40659133180E+02  0.00000000000E+00 0.  1.
         11    1    3    3    0    0  0.35141428735E+01  0.11765092345E+02 -0.10117353138E+00  0.12279121889E+02  0.51100000000E-03 0. -1.
        -11    1    3    3    0    0  0.84767238224E+01  0.12378130451E+01  0.46646452294E+00  0.85793133354E+01  0.51100000000E-03 0.  1.
        -12    1    3    3    0    0 -0.95834805640E+01  0.26758934151E+02 -0.85118067662E+01  0.29670431595E+02  0.00000000000E+00 0.  1.
</event>
<event>
 7    1  0.3449452E-011  0.5052879E+02  0.7816164E-02  0.1300439E+00
        -11   -1    0    0    0    0  0.00000000000E+00  0.00000000000E+00  0.45593999997E+02  0.45594000000E+02  0.51100000000E-03 0.  1.
         11   -1    0    0    0    0 -0.00000000000E+00 -0.00000000000E+00 -0.45593999997E+02  0.45594000000E+02  0.51100000000E-03 0. -1.
    9900012    2    1    2    0    0 -0.24797236240E+02  0.13745723793E+02 -0.29143160245E+02  0.50528786570E+02  0.29999777256E+02 0.  0.
        -12    1    1    2    0    0  0.24797236240E+02 -0.13745723793E+02  0.29143160245E+02  0.40659213430E+02  0.00000000000E+00 0.  1.
         11    1    3    3    0    0 -0.13395898851E+02  0.15547594852E+02 -0.18761059635E+02  0.27805667958E+02  0.51100000000E-03 0. -1.
        -11    1    3    3    0    0 -0.10456841238E+02  0.40871488501E+01 -0.57142798837E+00  0.11241745621E+02  0.51100000000E-03 0.  1.
        -12    1    3    3    0    0 -0.94449615106E+00 -0.58890199093E+01 -0.98106726212E+01  0.11481372991E+02  0.00000000000E+00 0.  1.
</event>
<event>
 7    1  0.3449452E-011  0.5052886E+02  0.7816164E-02  0.1300439E+00
        -11   -1    0    0    0    0  0.00000000000E+00  0.00000000000E+00  0.45593999997E+02  0.45594000000E+02  0.51100000000E-03 0.  1.
         11   -1    0    0    0    0 -0.00000000000E+00 -0.00000000000E+00 -0.45593999997E+02  0.45594000000E+02  0.51100000000E-03 0. -1.
    9900012    2    1    2    0    0 -0.34107240640E+02  0.90318878359E+01 -0.20206103195E+02  0.50528862426E+02  0.30000007829E+02 0.  0.
        -12    1    1    2    0    0  0.34107240640E+02 -0.90318878359E+01  0.20206103195E+02  0.40659137574E+02  0.00000000000E+00 0.  1.
         11    1    3    3    0    0 -0.83445961770E+01  0.11557047425E+01  0.28740405731E+01  0.89010138909E+01  0.51100000000E-03 0. -1.
        -11    1    3    3    0    0  0.14516230289E+01 -0.41899431670E+01 -0.95224101145E+00  0.45353716899E+01  0.51100000000E-03 0.  1.
         12    1    3    3    0    0 -0.27214267492E+02  0.12066126260E+02 -0.22127902757E+02  0.37092476845E+02  0.00000000000E+00 0. -1.
</event>
<event>
 7    1  0.3449452E-011  0.5052887E+02  0.7816164E-02  0.1300439E+00
        -11   -1    0    0    0    0  0.00000000000E+00  0.00000000000E+00  0.45593999997E+02  0.45594000000E+02  0.51100000000E-03 0.  1.
         11   -1    0    0    0    0 -0.00000000000E+00 -0.00000000000E+00 -0.45593999997E+02  0.45594000000E+02  0.51100000000E-03 0. -1.
    9900012    2    1    2    0    0  0.28694198234E+02  0.21025275642E+02 -0.19691264095E+02  0.50528866835E+02  0.30000021231E+02 0.  0.
        -12    1    1    2    0    0 -0.28694198234E+02 -0.21025275642E+02  0.19691264095E+02  0.40659133165E+02  0.00000000000E+00 0.  1.
         11    1    3    3    0    0  0.10081250751E+01  0.13622450406E+02 -0.75822407088E+01  0.15622990932E+02  0.51100000000E-03 0. -1.
        -11    1    3    3    0    0  0.16560159095E+02  0.11965569039E+02 -0.98062050220E+01  0.22662201325E+02  0.51100000000E-03 0.  1.
        -12    1    3    3    0    0  0.11125914063E+02 -0.45627438033E+01 -0.23028183642E+01  0.12243674578E+02  0.00000000000E+00 0.  1.
</event>
<event>
 7    1  0.3449452E-011  0.5052886E+02  0.7816164E-02  0.1300439E+00
        -11   -1    0    0    0    0  0.00000000000E+00  0.00000000000E+00  0.45593999997E+02  0.45594000000E+02  0.51100000000E-03 0.  1.
         11   -1    0    0    0    0 -0.00000000000E+00 -0.00000000000E+00 -0.45593999997E+02  0.45594000000E+02  0.51100000000E-03 0. -1.
    9900012    2    1    2    0    0 -0.22566526226E+02 -0.66911971062E+01 -0.33153362228E+02  0.50528860171E+02  0.30000000975E+02 0.  0.
        -12    1    1    2    0    0  0.22566526226E+02  0.66911971062E+01  0.33153362228E+02  0.40659139829E+02  0.00000000000E+00 0.  1.
         11    1    3    3    0    0 -0.21179519188E+01  0.14356780623E+01 -0.75977868889E+00  0.26691114151E+01  0.51100000000E-03 0. -1.
        -11    1    3    3    0    0 -0.15029144771E+01 -0.61315331378E+01  0.35040932049E+01  0.72203268621E+01  0.51100000000E-03 0.  1.
         12    1    3    3    0    0 -0.18945659830E+02 -0.19953420307E+01 -0.35897676744E+02  0.40639421894E+02  0.00000000000E+00 0. -1.
</event>
<event>
 7    1  0.3449452E-011  0.5052883E+02  0.7816164E-02  0.1300439E+00
        -11   -1    0    0    0    0  0.00000000000E+00  0.00000000000E+00  0.45593999997E+02  0.45594000000E+02  0.51100000000E-03 0.  1.
         11   -1    0    0    0    0 -0.00000000000E+00 -0.00000000000E+00 -0.45593999997E+02  0.45594000000E+02  0.51100000000E-03 0. -1.
    9900012    2    1    2    0    0  0.27624105967E+02  0.15675500210E+02 -0.25384165238E+02  0.50528826593E+02  0.29999898911E+02 0.  0.
        -12    1    1    2    0    0 -0.27624105967E+02 -0.15675500210E+02  0.25384165238E+02  0.40659173407E+02  0.00000000000E+00 0.  1.
         11    1    3    3    0    0  0.36163552876E+01  0.81433360978E+01 -0.17343541126E+02  0.19498470899E+02  0.51100000000E-03 0.  1.
        -11    1    3    3    0    0  0.11571920237E+02  0.23242508586E+01 -0.12146607584E+02  0.16936692596E+02  0.51100000000E-03 0. -1.
        -12    1    3    3    0    0  0.12435830442E+02  0.52079132536E+01  0.41059834708E+01  0.14093663098E+02  0.00000000000E+00 0.  1.
</event>
<event>
 7    1  0.3449452E-011  0.5052886E+02  0.7816164E-02  0.1300439E+00
        -11   -1    0    0    0    0  0.00000000000E+00  0.00000000000E+00  0.45593999997E+02  0.45594000000E+02  0.51100000000E-03 0. -1.
         11   -1    0    0    0    0 -0.00000000000E+00 -0.00000000000E+00 -0.45593999997E+02  0.45594000000E+02  0.51100000000E-03 0.  1.
    9900012    2    1    2    0    0  0.69623217012E+01 -0.13060388724E+02  0.37869748902E+02  0.50528861310E+02  0.30000004437E+02 0.  0.
        -12    1    1    2    0    0 -0.69623217012E+01  0.13060388724E+02 -0.37869748902E+02  0.40659138690E+02  0.00000000000E+00 0.  1.
         11    1    3    3    0    0 -0.33371821714E+01  0.56849611942E+01  0.15005423597E+02  0.16389579196E+02  0.51100000000E-03 0. -1.
        -11    1    3    3    0    0 -0.18548585934E+01 -0.10224650551E+02  0.78232167498E+01  0.13007178782E+02  0.51100000000E-03 0.  1.
         12    1    3    3    0    0  0.12154362466E+02 -0.85206993671E+01  0.15041108555E+02  0.21132103332E+02  0.00000000000E+00 0. -1.
</event>
<event>
 7    1  0.3449452E-011  0.5052887E+02  0.7816164E-02  0.1300439E+00
        -11   -1    0    0    0    0  0.00000000000E+00  0.00000000000E+00  0.45593999997E+02  0.45594000000E+02  0.51100000000E-03 0.  1.
         11   -1    0    0    0    0 -0.00000000000E+00 -0.00000000000E+00 -0.45593999997E+02  0.45594000000E+02  0.51100000000E-03 0. -1.
    9900012    2    1    2    0    0 -0.14873799182E+00 -0.25627223776E+02 -0.31565619352E+02  0.50528867612E+02  0.30000023594E+02 0.  0.
        -12    1    1    2    0    0  0.14873799182E+00  0.25627223776E+02  0.31565619352E+02  0.40659132388E+02  0.00000000000E+00 0.  1.
         11    1    3    3    0    0 -0.56724394558E+01 -0.15487622736E+02 -0.26069583036E+02  0.30849087302E+02  0.51100000000E-03 0. -1.
        -11    1    3    3    0    0 -0.41790627739E+01  0.81557111487E+00 -0.14221931046E+01  0.44891374895E+01  0.51100000000E-03 0.  1.
        -12    1    3    3    0    0  0.97027642379E+01 -0.10955172155E+02 -0.40738432109E+01  0.15190642821E+02  0.00000000000E+00 0.  1.
</event>
<event>
 7    1  0.3449452E-011  0.5052887E+02  0.7816164E-02  0.1300439E+00
        -11   -1    0    0    0    0  0.00000000000E+00  0.00000000000E+00  0.45593999997E+02  0.45594000000E+02  0.51100000000E-03 0.  1.
         11   -1    0    0    0    0 -0.00000000000E+00 -0.00000000000E+00 -0.45593999997E+02  0.45594000000E+02  0.51100000000E-03 0. -1.
    9900012    2    1    2    0    0  0.25547850199E+02  0.63537837265E+01 -0.30985509721E+02  0.50528867814E+02  0.30000024208E+02 0.  0.
        -12    1    1    2    0    0 -0.25547850199E+02 -0.63537837265E+01  0.30985509721E+02  0.40659132186E+02  0.00000000000E+00 0.  1.
         11    1    3    3    0    0  0.10913603315E+02 -0.55904164731E+00 -0.19368297529E+02  0.22238484982E+02  0.51100000000E-03 0. -1.
        -11    1    3    3    0    0  0.16314778822E+02 -0.22064678219E+01 -0.65063956313E+01  0.17702364041E+02  0.51100000000E-03 0.  1.
        -12    1    3    3    0    0 -0.16805319392E+01  0.91192931957E+01 -0.51108165614E+01  0.10588018791E+02  0.00000000000E+00 0.  1.
</event>
<event>
 7    1  0.3449452E-011  0.5052886E+02  0.7816164E-02  0.1300439E+00
        -11   -1    0    0    0    0  0.00000000000E+00  0.00000000000E+00  0.45593999997E+02  0.45594000000E+02  0.51100000000E-03 0.  1.
         11   -1    0    0    0    0 -0.00000000000E+00 -0.00000000000E+00 -0.45593999997E+02  0.45594000000E+02  0.51100000000E-03 0. -1.
    9900012    2    1    2    0    0 -0.10188214424E+02 -0.13657171789E+02 -0.36916768240E+02  0.50528857957E+02  0.29999994245E+02 0.  0.
        -12    1    1    2    0    0  0.10188214424E+02  0.13657171789E+02  0.36916768240E+02  0.40659142043E+02  0.00000000000E+00 0.  1.
         11    1    3    3    0    0  0.12342172828E+01 -0.11888056480E+02 -0.15570053448E+02  0.19628442216E+02  0.51100000000E-03 0. -1.
        -11    1    3    3    0    0 -0.10908898214E+02 -0.89329674992E+01 -0.18292305111E+02  0.23095679144E+02  0.51100000000E-03 0.  1.
         12    1    3    3    0    0 -0.51353349296E+00  0.71638521900E+01 -0.30544096801E+01  0.78047365966E+01  0.00000000000E+00 0. -1.
</event>
<event>
 7    1  0.3449452E-011  0.5052886E+02  0.7816164E-02  0.1300439E+00
        -11   -1    0    0    0    0  0.00000000000E+00  0.00000000000E+00  0.45593999997E+02  0.45594000000E+02  0.51100000000E-03 0.  1.
         11   -1    0    0    0    0 -0.00000000000E+00 -0.00000000000E+00 -0.45593999997E+02  0.45594000000E+02  0.51100000000E-03 0. -1.
    9900012    2    1    2    0    0 -0.35667405590E+02  0.72982641236E+01 -0.18103509696E+02  0.50528861494E+02  0.30000004997E+02 0.  0.
        -12    1    1    2    0    0  0.35667405590E+02 -0.72982641236E+01  0.18103509696E+02  0.40659138506E+02  0.00000000000E+00 0.  1.
         11    1    3    3    0    0 -0.24914801070E+02  0.11267332202E+02 -0.14563352074E+02  0.30980498886E+02  0.51100000000E-03 0. -1.
        -11    1    3    3    0    0 -0.14350171147E+02 -0.37155875363E+01 -0.50061787366E+00  0.14831844835E+02  0.51100000000E-03 0.  1.
        -12    1    3    3    0    0  0.35975666274E+01 -0.25348054170E+00 -0.30395397479E+01  0.47165177730E+01  0.00000000000E+00 0.  1.
</event>
<event>
 7    1  0.3449452E-011  0.5052886E+02  0.7816164E-02  0.1300439E+00
        -11   -1    0    0    0    0  0.00000000000E+00  0.00000000000E+00  0.45593999997E+02  0.45594000000E+02  0.51100000000E-03 0.  1.
         11   -1    0    0    0    0 -0.00000000000E+00 -0.00000000000E+00 -0.45593999997E+02  0.45594000000E+02  0.51100000000E-03 0. -1.
    9900012    2    1    2    0    0 -0.40249175643E+02  0.56992304826E+01  0.82987922926E+00  0.50528855056E+02  0.29999985428E+02 0.  0.
        -12    1    1    2    0    0  0.40249175643E+02 -0.56992304826E+01 -0.82987922926E+00  0.40659144944E+02  0.00000000000E+00 0.  1.
         11    1    3    3    0    0 -0.92328030764E+01 -0.42317313875E+01  0.94817305037E+01  0.13894438340E+02  0.51100000000E-03 0. -1.
        -11    1    3    3    0    0  0.94136623334E+00  0.25011086553E+01  0.10976053984E+00  0.26746518518E+01  0.51100000000E-03 0.  1.
        -12    1    3    3    0    0 -0.31957738800E+02  0.74298532148E+01 -0.87616118143E+01  0.33959764864E+02  0.00000000000E+00 0.  1.
</event>
<event>
 7    1  0.3449452E-011  0.5052886E+02  0.7816164E-02  0.1300439E+00
        -11   -1    0    0    0    0  0.00000000000E+00  0.00000000000E+00  0.45593999997E+02  0.45594000000E+02  0.51100000000E-03 0. -1.
         11   -1    0    0    0    0 -0.00000000000E+00 -0.00000000000E+00 -0.45593999997E+02  0.45594000000E+02  0.51100000000E-03 0.  1.
    9900012    2    1    2    0    0 -0.32979506260E+02  0.23259015636E+02  0.49533644507E+01  0.50528862517E+02  0.30000008105E+02 0.  0.
        -12    1    1    2    0    0  0.32979506260E+02 -0.23259015636E+02 -0.49533644507E+01  0.40659137483E+02  0.00000000000E+00 0.  1.
         11    1    3    3    0    0 -0.28618272179E+02  0.11055784493E+02  0.54099713108E+01  0.31152907779E+02  0.51100000000E-03 0. -1.
        -11    1    3    3    0    0  0.22381832339E+01 -0.24158527846E+01 -0.53291853100E+00  0.33361371805E+01  0.51100000000E-03 0.  1.
         12    1    3    3    0    0 -0.65994173151E+01  0.14619083928E+02  0.76311670899E-01  0.16039817557E+02  0.00000000000E+00 0. -1.
</event>
<event>
 7    1  0.3449452E-011  0.5052886E+02  0.7816164E-02  0.1300439E+00
        -11   -1    0    0    0    0  0.00000000000E+00  0.00000000000E+00  0.45593999997E+02  0.45594000000E+02  0.51100000000E-03 0.  1.
         11   -1    0    0    0    0 -0.00000000000E+00 -0.00000000000E+00 -0.45593999997E+02  0.45594000000E+02  0.51100000000E-03 0. -1.
    9900012    2    1    2    0    0 -0.31112658225E+02 -0.18609667848E+01 -0.26109480975E+02  0.50528859626E+02  0.29999999319E+02 0.  0.
        -12    1    1    2    0    0  0.31112658225E+02  0.18609667848E+01  0.26109480975E+02  0.40659140374E+02  0.00000000000E+00 0.  1.
         11    1    3    3    0    0  0.16219602743E-01 -0.28429209306E+01  0.76908790095E+00  0.29451585618E+01  0.51100000000E-03 0. -1.
        -11    1    3    3    0    0  0.54765683395E-01  0.53395116833E+01 -0.11203698172E+02  0.12411133602E+02  0.51100000000E-03 0.  1.
         12    1    3    3    0    0 -0.31183643511E+02 -0.43575575375E+01 -0.15674870703E+02  0.35172567462E+02  0.00000000000E+00 0. -1.
</event>
<event>
 7    1  0.3449452E-011  0.5052886E+02  0.7816164E-02  0.1300439E+00
        -11   -1    0    0    0    0  0.00000000000E+00  0.00000000000E+00  0.45593999997E+02  0.45594000000E+02  0.51100000000E-03 0.  1.
         11   -1    0    0    0    0 -0.00000000000E+00 -0.00000000000E+00 -0.45593999997E+02  0.45594000000E+02  0.51100000000E-03 0. -1.
    9900012    2    1    2    0    0 -0.98389873714E+01  0.17520151925E+02 -0.35346910493E+02  0.50528862314E+02  0.30000007489E+02 0.  0.
        -12    1    1    2    0    0  0.98389873714E+01 -0.17520151925E+02  0.35346910493E+02  0.40659137686E+02  0.00000000000E+00 0.  1.
         11    1    3    3    0    0 -0.15945649384E+02  0.91836896494E+01 -0.17985719856E+02  0.25731109748E+02  0.51100000000E-03 0. -1.
        -11    1    3    3    0    0 -0.12167650232E+01  0.48705955046E+00  0.21559130613E+01  0.25230349812E+01  0.51100000000E-03 0.  1.
         12    1    3    3    0    0  0.73234270361E+01  0.78494027250E+01 -0.19517103698E+02  0.22274717584E+02  0.00000000000E+00 0. -1.
</event>
<event>
 7    1  0.3449452E-011  0.5052885E+02  0.7816164E-02  0.1300439E+00
        -11   -1    0    0    0    0  0.00000000000E+00  0.00000000000E+00  0.45593999997E+02  0.45594000000E+02  0.51100000000E-03 0.  1.
         11   -1    0    0    0    0 -0.00000000000E+00 -0.00000000000E+00 -0.45593999997E+02  0.45594000000E+02  0.51100000000E-03 0. -1.
    9900012    2    1    2    0    0  0.11430075694E+02 -0.36893291089E+02 -0.12704522189E+02  0.50528850454E+02  0.29999971439E+02 0.  0.
        -12    1    1    2    0    0 -0.11430075694E+02  0.36893291089E+02  0.12704522189E+02  0.40659149546E+02  0.00000000000E+00 0.  1.
         11    1    3    3    0    0 -0.40928521990E+00 -0.26992978825E+02 -0.98516787312E+01  0.28737501532E+02  0.51100000000E-03 0. -1.
        -11    1    3    3    0    0  0.94357199703E+01 -0.12877433816E+02  0.14538290083E+01  0.16030431438E+02  0.51100000000E-03 0.  1.
         12    1    3    3    0    0  0.24036409439E+01  0.29771215518E+01 -0.43066724657E+01  0.57609174832E+01  0.00000000000E+00 0. -1.
</event>
<event>
 7    1  0.3449452E-011  0.5052884E+02  0.7816164E-02  0.1300439E+00
        -11   -1    0    0    0    0  0.00000000000E+00  0.00000000000E+00  0.45593999997E+02  0.45594000000E+02  0.51100000000E-03 0.  1.
         11   -1    0    0    0    0 -0.00000000000E+00 -0.00000000000E+00 -0.45593999997E+02  0.45594000000E+02  0.51100000000E-03 0. -1.
    9900012    2    1    2    0    0 -0.77057628965E+01 -0.38594093377E+02  0.10211992328E+02  0.50528836055E+02  0.29999927674E+02 0.  0.
        -12    1    1    2    0    0  0.77057628965E+01  0.38594093377E+02 -0.10211992328E+02  0.40659163945E+02  0.00000000000E+00 0.  1.
         11    1    3    3    0    0  0.66250733567E+01 -0.15853290719E+02 -0.37565037312E+01  0.17587772575E+02  0.51100000000E-03 0. -1.
        -11    1    3    3    0    0 -0.21823214918E+01 -0.14033833496E+02  0.33089851121E+01  0.14582880114E+02  0.51100000000E-03 0.  1.
        -12    1    3    3    0    0 -0.12148514761E+02 -0.87069691614E+01  0.10659510947E+02  0.18358183366E+02  0.00000000000E+00 0.  1.
</event>
<event>
 7    1  0.3449452E-011  0.5052887E+02  0.7816164E-02  0.1300439E+00
        -11   -1    0    0    0    0  0.00000000000E+00  0.00000000000E+00  0.45593999997E+02  0.45594000000E+02  0.51100000000E-03 0.  1.
         11   -1    0    0    0    0 -0.00000000000E+00 -0.00000000000E+00 -0.45593999997E+02  0.45594000000E+02  0.51100000000E-03 0. -1.
    9900012    2    1    2    0    0  0.17644377967E+02  0.81822625803E+01 -0.35705625494E+02  0.50528865888E+02  0.30000018354E+02 0.  0.
        -12    1    1    2    0    0 -0.17644377967E+02 -0.81822625803E+01  0.35705625494E+02  0.40659134112E+02  0.00000000000E+00 0.  1.
         11    1    3    3    0    0  0.55764255300E+01 -0.28838378485E+01 -0.45310209964E+00  0.62943104627E+01  0.51100000000E-03 0. -1.
        -11    1    3    3    0    0  0.10963153098E+02 -0.11863640679E+01 -0.61213204921E+01  0.12612246048E+02  0.51100000000E-03 0.  1.
         12    1    3    3    0    0  0.11047993392E+01  0.12252464497E+02 -0.29131202902E+02  0.31622309377E+02  0.00000000000E+00 0. -1.
</event>
<event>
 7    1  0.3449452E-011  0.5052885E+02  0.7816164E-02  0.1300439E+00
        -11   -1    0    0    0    0  0.00000000000E+00  0.00000000000E+00  0.45593999997E+02  0.45594000000E+02  0.51100000000E-03 0.  1.
         11   -1    0    0    0    0 -0.00000000000E+00 -0.00000000000E+00 -0.45593999997E+02  0.45594000000E+02  0.51100000000E-03 0. -1.
    9900012    2    1    2    0    0 -0.14958094712E+02 -0.20727273101E+02 -0.31619644112E+02  0.50528851689E+02  0.29999975195E+02 0.  0.
        -12    1    1    2    0    0  0.14958094712E+02  0.20727273101E+02  0.31619644112E+02  0.40659148311E+02  0.00000000000E+00 0.  1.
         11    1    3    3    0    0  0.47124552740E+00 -0.91479958421E+01 -0.18298435456E+01  0.93411042140E+01  0.51100000000E-03 0. -1.
        -11    1    3    3    0    0 -0.10056707343E+02 -0.34999264967E+01 -0.87010629256E+00  0.10683816420E+02  0.51100000000E-03 0.  1.
        -12    1    3    3    0    0 -0.53726328959E+01 -0.80793507619E+01 -0.28919694274E+02  0.30503931056E+02  0.00000000000E+00 0.  1.
</event>
<event>
 7    1  0.3449452E-011  0.5052886E+02  0.7816164E-02  0.1300439E+00
        -11   -1    0    0    0    0  0.00000000000E+00  0.00000000000E+00  0.45593999997E+02  0.45594000000E+02  0.51100000000E-03 0. -1.
         11   -1    0    0    0    0 -0.00000000000E+00 -0.00000000000E+00 -0.45593999997E+02  0.45594000000E+02  0.51100000000E-03 0.  1.
    9900012    2    1    2    0    0 -0.76138793938E+01  0.39907744217E+02  0.16019768245E+01  0.50528861573E+02  0.30000005236E+02 0.  0.
        -12    1    1    2    0    0  0.76138793938E+01 -0.39907744217E+02 -0.16019768245E+01  0.40659138427E+02  0.00000000000E+00 0.  1.
         11    1    3    3    0    0 -0.28288401371E+01 -0.62645098974E+00 -0.11146763346E+01  0.31043970358E+01  0.51100000000E-03 0. -1.
        -11    1    3    3    0    0 -0.84993823857E+01  0.27119568408E+01 -0.19579043877E+01  0.91338710686E+01  0.51100000000E-03 0.  1.
         12    1    3    3    0    0  0.37143431290E+01  0.37822238366E+02  0.46745575468E+01  0.38290593468E+02  0.00000000000E+00 0. -1.
</event>
<event>
 7    1  0.3449452E-011  0.5052886E+02  0.7816164E-02  0.1300439E+00
        -11   -1    0    0    0    0  0.00000000000E+00  0.00000000000E+00  0.45593999997E+02  0.45594000000E+02  0.51100000000E-03 0. -1.
         11   -1    0    0    0    0 -0.00000000000E+00 -0.00000000000E+00 -0.45593999997E+02  0.45594000000E+02  0.51100000000E-03 0.  1.
    9900012    2    1    2    0    0  0.14404071002E+02 -0.37851293871E+02  0.36011116067E+01  0.50528859405E+02  0.29999998646E+02 0.  0.
        -12    1    1    2    0    0 -0.14404071002E+02  0.37851293871E+02 -0.36011116067E+01  0.40659140595E+02  0.00000000000E+00 0.  1.
         11    1    3    3    0    0  0.98112279058E+01 -0.30936104554E+02  0.13074069341E+02  0.34989056109E+02  0.51100000000E-03 0. -1.
        -11    1    3    3    0    0  0.66640632009E+01 -0.53987504663E+01 -0.39356076535E+01  0.94363792212E+01  0.51100000000E-03 0.  1.
        -12    1    3    3    0    0 -0.20712201043E+01 -0.15164388501E+01 -0.55373500811E+01  0.61034240740E+01  0.00000000000E+00 0.  1.
</event>
<event>
 7    1  0.3449452E-011  0.5052897E+02  0.7816164E-02  0.1300438E+00
        -11   -1    0    0    0    0  0.00000000000E+00  0.00000000000E+00  0.45593999997E+02  0.45594000000E+02  0.51100000000E-03 0.  1.
         11   -1    0    0    0    0 -0.00000000000E+00 -0.00000000000E+00 -0.45593999997E+02  0.45594000000E+02  0.51100000000E-03 0. -1.
    9900012    2    1    2    0    0 -0.62656805671E+01 -0.55640857941E+01 -0.39786166205E+02  0.50528968716E+02  0.30000330908E+02 0.  0.
        -12    1    1    2    0    0  0.62656805671E+01  0.55640857941E+01  0.39786166205E+02  0.40659031284E+02  0.00000000000E+00 0.  1.
         11    1    3    3    0    0  0.29795800012E+01 -0.19186343677E+01 -0.19748711017E+02  0.20064163125E+02  0.51100000000E-03 0. -1.
        -11    1    3    3    0    0  0.63974262500E+01 -0.15371500262E+01 -0.29739307220E+01  0.72203986751E+01  0.51100000000E-03 0.  1.
         12    1    3    3    0    0 -0.15642686818E+02 -0.21083014001E+01 -0.17063524466E+02  0.23244406916E+02  0.00000000000E+00 0. -1.
</event>
<event>
 7    1  0.3449452E-011  0.5052886E+02  0.7816164E-02  0.1300439E+00
        -11   -1    0    0    0    0  0.00000000000E+00  0.00000000000E+00  0.45593999997E+02  0.45594000000E+02  0.51100000000E-03 0.  1.
         11   -1    0    0    0    0 -0.00000000000E+00 -0.00000000000E+00 -0.45593999997E+02  0.45594000000E+02  0.51100000000E-03 0. -1.
    9900012    2    1    2    0    0  0.40357213756E+02 -0.13145630043E+01 -0.47679279765E+01  0.50528856930E+02  0.29999991124E+02 0.  0.
        -12    1    1    2    0    0 -0.40357213756E+02  0.13145630043E+01  0.47679279765E+01  0.40659143070E+02  0.00000000000E+00 0.  1.
         11    1    3    3    0    0  0.21843214611E+02 -0.88705776982E+01 -0.97583074702E+01  0.25515441172E+02  0.51100000000E-03 0.  1.
        -11    1    3    3    0    0  0.77945489448E+01  0.80398878227E+01 -0.30488150417E+01  0.11605604804E+02  0.51100000000E-03 0. -1.
         12    1    3    3    0    0  0.10719450199E+02 -0.48387312877E+00  0.80391945355E+01  0.13407810953E+02  0.00000000000E+00 0. -1.
</event>
<event>
 7    1  0.3449452E-011  0.5052886E+02  0.7816164E-02  0.1300439E+00
        -11   -1    0    0    0    0  0.00000000000E+00  0.00000000000E+00  0.45593999997E+02  0.45594000000E+02  0.51100000000E-03 0. -1.
         11   -1    0    0    0    0 -0.00000000000E+00 -0.00000000000E+00 -0.45593999997E+02  0.45594000000E+02  0.51100000000E-03 0.  1.
    9900012    2    1    2    0    0  0.27420525688E+02  0.29768880790E+02  0.38850824199E+01  0.50528863783E+02  0.30000011955E+02 0.  0.
        -12    1    1    2    0    0 -0.27420525688E+02 -0.29768880790E+02 -0.38850824199E+01  0.40659136217E+02  0.00000000000E+00 0.  1.
         11    1    3    3    0    0  0.15024233154E+02  0.11442649134E+02  0.17153446294E+01  0.18963233072E+02  0.51100000000E-03 0. -1.
        -11    1    3    3    0    0  0.41550835830E+01  0.21942873195E+02  0.11004104075E+00  0.22333081134E+02  0.51100000000E-03 0.  1.
         12    1    3    3    0    0  0.82412089511E+01 -0.36166415397E+01  0.20596967498E+01  0.92325495776E+01  0.00000000000E+00 0. -1.
</event>
<event>
 7    1  0.3449452E-011  0.5052886E+02  0.7816164E-02  0.1300439E+00
        -11   -1    0    0    0    0  0.00000000000E+00  0.00000000000E+00  0.45593999997E+02  0.45594000000E+02  0.51100000000E-03 0.  1.
         11   -1    0    0    0    0 -0.00000000000E+00 -0.00000000000E+00 -0.45593999997E+02  0.45594000000E+02  0.51100000000E-03 0. -1.
    9900012    2    1    2    0    0  0.33458299862E+02  0.23101759262E+02  0.12742920637E+00  0.50528863894E+02  0.30000012293E+02 0.  0.
        -12    1    1    2    0    0 -0.33458299862E+02 -0.23101759262E+02 -0.12742920637E+00  0.40659136106E+02  0.00000000000E+00 0.  1.
         11    1    3    3    0    0  0.12429285479E+00  0.34513382841E+01 -0.14423966202E+01  0.37426852574E+01  0.51100000000E-03 0. -1.
        -11    1    3    3    0    0  0.18648395292E+01  0.14471824901E+02 -0.18613263130E+01  0.14709720539E+02  0.51100000000E-03 0.  1.
         12    1    3    3    0    0  0.31469167478E+02  0.51785960765E+01  0.34311521396E+01  0.32076458098E+02  0.00000000000E+00 0. -1.
</event>
<event>
 7    1  0.3449452E-011  0.5052887E+02  0.7816164E-02  0.1300439E+00
        -11   -1    0    0    0    0  0.00000000000E+00  0.00000000000E+00  0.45593999997E+02  0.45594000000E+02  0.51100000000E-03 0.  1.
         11   -1    0    0    0    0 -0.00000000000E+00 -0.00000000000E+00 -0.45593999997E+02  0.45594000000E+02  0.51100000000E-03 0. -1.
    9900012    2    1    2    0    0 -0.31678434824E+01 -0.74388117967E+01 -0.39847127153E+02  0.50528871928E+02  0.30000036712E+02 0.  0.
        -12    1    1    2    0    0  0.31678434824E+01  0.74388117967E+01  0.39847127153E+02  0.40659128072E+02  0.00000000000E+00 0.  1.
         11    1    3    3    0    0 -0.84741258716E+01  0.32738240476E+01 -0.12292963881E+02  0.15285473314E+02  0.51100000000E-03 0. -1.
        -11    1    3    3    0    0 -0.48734775750E+01 -0.92253675579E+01 -0.79982372241E+01  0.13146482009E+02  0.51100000000E-03 0.  1.
        -12    1    3    3    0    0  0.10179759964E+02 -0.14872682865E+01 -0.19555926048E+02  0.22096916605E+02  0.00000000000E+00 0.  1.
</event>
<event>
 7    1  0.3449452E-011  0.5052887E+02  0.7816164E-02  0.1300439E+00
        -11   -1    0    0    0    0  0.00000000000E+00  0.00000000000E+00  0.45593999997E+02  0.45594000000E+02  0.51100000000E-03 0.  1.
         11   -1    0    0    0    0 -0.00000000000E+00 -0.00000000000E+00 -0.45593999997E+02  0.45594000000E+02  0.51100000000E-03 0. -1.
    9900012    2    1    2    0    0 -0.25050892210E+02 -0.28769616800E+02 -0.14068651932E+02  0.50528867957E+02  0.30000024641E+02 0.  0.
        -12    1    1    2    0    0  0.25050892210E+02  0.28769616800E+02  0.14068651932E+02  0.40659132043E+02  0.00000000000E+00 0.  1.
         11    1    3    3    0    0  0.38031960375E+01 -0.46921127819E+01 -0.22029265240E+01  0.64290829820E+01  0.51100000000E-03 0.  1.
        -11    1    3    3    0    0  0.22711742467E+01 -0.36741535381E+01 -0.43530802946E+01  0.61324501623E+01  0.51100000000E-03 0. -1.
        -12    1    3    3    0    0 -0.31125262494E+02 -0.20403350480E+02 -0.75126451130E+01  0.37967334812E+02  0.00000000000E+00 0.  1.
</event>
<event>
 7    1  0.3449452E-011  0.5052886E+02  0.7816164E-02  0.1300439E+00
        -11   -1    0    0    0    0  0.00000000000E+00  0.00000000000E+00  0.45593999997E+02  0.45594000000E+02  0.51100000000E-03 0.  1.
         11   -1    0    0    0    0 -0.00000000000E+00 -0.00000000000E+00 -0.45593999997E+02  0.45594000000E+02  0.51100000000E-03 0. -1.
    9900012    2    1    2    0    0  0.59513838393E+01  0.40212008316E+02 -0.86101842687E+00  0.50528856685E+02  0.29999990379E+02 0.  0.
        -12    1    1    2    0    0 -0.59513838393E+01 -0.40212008316E+02  0.86101842687E+00  0.40659143315E+02  0.00000000000E+00 0.  1.
         11    1    3    3    0    0 -0.32427806343E+01 -0.77943982138E+00  0.77148068759E+00  0.34232054262E+01  0.51100000000E-03 0. -1.
        -11    1    3    3    0    0  0.13475738599E+02  0.21036799340E+02  0.53239657839E+01  0.25543826440E+02  0.51100000000E-03 0.  1.
         12    1    3    3    0    0 -0.42815741255E+01  0.19954648798E+02 -0.69564648984E+01  0.21561824819E+02  0.00000000000E+00 0. -1.
</event>
<event>
 7    1  0.3449452E-011  0.5052886E+02  0.7816164E-02  0.1300439E+00
        -11   -1    0    0    0    0  0.00000000000E+00  0.00000000000E+00  0.45593999997E+02  0.45594000000E+02  0.51100000000E-03 0. -1.
         11   -1    0    0    0    0 -0.00000000000E+00 -0.00000000000E+00 -0.45593999997E+02  0.45594000000E+02  0.51100000000E-03 0.  1.
    9900012    2    1    2    0    0 -0.18464245604E+01  0.32264393476E+02  0.24673162549E+02  0.50528864247E+02  0.30000013366E+02 0.  0.
        -12    1    1    2    0    0  0.18464245604E+01 -0.32264393476E+02 -0.24673162549E+02  0.40659135753E+02  0.00000000000E+00 0.  1.
         11    1    3    3    0    0 -0.95588083588E+01  0.23513197562E+01  0.11554540423E+01  0.99113367484E+01  0.51100000000E-03 0. -1.
        -11    1    3    3    0    0  0.21752696034E+01  0.35956061856E+01 -0.89432801765E+00  0.42965107417E+01  0.51100000000E-03 0.  1.
         12    1    3    3    0    0  0.55371141950E+01  0.26317467534E+02  0.24412036524E+02  0.36321016757E+02  0.00000000000E+00 0. -1.
</event>
<event>
 7    1  0.3449452E-011  0.5052886E+02  0.7816164E-02  0.1300439E+00
        -11   -1    0    0    0    0  0.00000000000E+00  0.00000000000E+00  0.45593999997E+02  0.45594000000E+02  0.51100000000E-03 0.  1.
         11   -1    0    0    0    0 -0.00000000000E+00 -0.00000000000E+00 -0.45593999997E+02  0.45594000000E+02  0.51100000000E-03 0. -1.
    9900012    2    1    2    0    0  0.19909956131E+02  0.69111291227E+01 -0.34770614837E+02  0.50528859391E+02  0.29999998606E+02 0.  0.
        -12    1    1    2    0    0 -0.19909956131E+02 -0.69111291227E+01  0.34770614837E+02  0.40659140609E+02  0.00000000000E+00 0.  1.
         11    1    3    3    0    0 -0.28379562441E+01 -0.69507226031E+00 -0.63544253674E+00  0.29901352092E+01  0.51100000000E-03 0. -1.
        -11    1    3    3    0    0  0.12916310975E+02  0.15168269711E+02 -0.25791761812E+02  0.32590220509E+02  0.51100000000E-03 0.  1.
         12    1    3    3    0    0  0.98316014001E+01 -0.75620683278E+01 -0.83434104887E+01  0.14948503673E+02  0.00000000000E+00 0. -1.
</event>
<event>
 7    1  0.3449452E-011  0.5052886E+02  0.7816164E-02  0.1300439E+00
        -11   -1    0    0    0    0  0.00000000000E+00  0.00000000000E+00  0.45593999997E+02  0.45594000000E+02  0.51100000000E-03 0.  1.
         11   -1    0    0    0    0 -0.00000000000E+00 -0.00000000000E+00 -0.45593999997E+02  0.45594000000E+02  0.51100000000E-03 0. -1.
    9900012    2    1    2    0    0 -0.36407047334E+02  0.42900334386E+01 -0.17586590885E+02  0.50528860050E+02  0.30000000609E+02 0.  0.
        -12    1    1    2    0    0  0.36407047334E+02 -0.42900334386E+01  0.17586590885E+02  0.40659139950E+02  0.00000000000E+00 0.  1.
         11    1    3    3    0    0 -0.30142278749E+01  0.52829404715E+01 -0.39857148622E+01  0.72719291066E+01  0.51100000000E-03 0. -1.
        -11    1    3    3    0    0 -0.25988305554E+02 -0.29514324639E+01  0.16327149168E+01  0.26206272864E+02  0.51100000000E-03 0.  1.
         12    1    3    3    0    0 -0.74045139047E+01  0.19585254310E+01 -0.15233590940E+02  0.17050658080E+02  0.00000000000E+00 0. -1.
</event>
<event>
 7    1  0.3449452E-011  0.5052886E+02  0.7816164E-02  0.1300439E+00
        -11   -1    0    0    0    0  0.00000000000E+00  0.00000000000E+00  0.45593999997E+02  0.45594000000E+02  0.51100000000E-03 0.  1.
         11   -1    0    0    0    0 -0.00000000000E+00 -0.00000000000E+00 -0.45593999997E+02  0.45594000000E+02  0.51100000000E-03 0. -1.
    9900012    2    1    2    0    0  0.12053549194E+02  0.19236765229E+02 -0.33731654566E+02  0.50528859522E+02  0.29999999003E+02 0.  0.
        -12    1    1    2    0    0 -0.12053549194E+02 -0.19236765229E+02  0.33731654566E+02  0.40659140478E+02  0.00000000000E+00 0.  1.
         11    1    3    3    0    0 -0.55590545540E-01  0.11030771352E+02 -0.10742854041E+01  0.11083099581E+02  0.51100000000E-03 0. -1.
        -11    1    3    3    0    0  0.49994947527E+01  0.12721434636E+02 -0.19150390140E+02  0.23528010748E+02  0.51100000000E-03 0.  1.
        -12    1    3    3    0    0  0.71096449870E+01 -0.45154407589E+01 -0.13506979022E+02  0.15917749193E+02  0.00000000000E+00 0.  1.
</event>
<event>
 7    1  0.3449452E-011  0.5052886E+02  0.7816164E-02  0.1300439E+00
        -11   -1    0    0    0    0  0.00000000000E+00  0.00000000000E+00  0.45593999997E+02  0.45594000000E+02  0.51100000000E-03 0.  1.
         11   -1    0    0    0    0 -0.00000000000E+00 -0.00000000000E+00 -0.45593999997E+02  0.45594000000E+02  0.51100000000E-03 0. -1.
    9900012    2    1    2    0    0  0.20889261926E+02  0.17474093926E+02 -0.30190404010E+02  0.50528859372E+02  0.29999998546E+02 0.  0.
        -12    1    1    2    0    0 -0.20889261926E+02 -0.17474093926E+02  0.30190404010E+02  0.40659140628E+02  0.00000000000E+00 0.  1.
         11    1    3    3    0    0 -0.22394667770E+00  0.54328169096E+01 -0.43044046573E+01  0.69349514348E+01  0.51100000000E-03 0. -1.
        -11    1    3    3    0    0  0.87060617961E+01  0.78220707341E+01  0.28193275138E+01  0.12038642384E+02  0.51100000000E-03 0.  1.
        -12    1    3    3    0    0  0.12407146808E+02  0.42192062820E+01 -0.28705326867E+02  0.31555265552E+02  0.00000000000E+00 0.  1.
</event>
<event>
 7    1  0.3449452E-011  0.5052885E+02  0.7816164E-02  0.1300439E+00
        -11   -1    0    0    0    0  0.00000000000E+00  0.00000000000E+00  0.45593999997E+02  0.45594000000E+02  0.51100000000E-03 0.  1.
         11   -1    0    0    0    0 -0.00000000000E+00 -0.00000000000E+00 -0.45593999997E+02  0.45594000000E+02  0.51100000000E-03 0. -1.
    9900012    2    1    2    0    0  0.15402263750E+02  0.89012526028E+00 -0.37618401758E+02  0.50528853398E+02  0.29999980388E+02 0.  0.
        -12    1    1    2    0    0 -0.15402263750E+02 -0.89012526028E+00  0.37618401758E+02  0.40659146602E+02  0.00000000000E+00 0.  1.
         11    1    3    3    0    0  0.58519669999E+00  0.26544716845E+01 -0.44284387662E+00  0.27540490304E+01  0.51100000000E-03 0. -1.
        -11    1    3    3    0    0 -0.67976432591E+01  0.71739880369E+00 -0.34920088799E+01  0.76757241482E+01  0.51100000000E-03 0.  1.
         12    1    3    3    0    0  0.21614710309E+02 -0.24817452279E+01 -0.33683549001E+02  0.40099080219E+02  0.00000000000E+00 0. -1.
</event>
<event>
 7    1  0.3449452E-011  0.5052885E+02  0.7816164E-02  0.1300439E+00
        -11   -1    0    0    0    0  0.00000000000E+00  0.00000000000E+00  0.45593999997E+02  0.45594000000E+02  0.51100000000E-03 0.  1.
         11   -1    0    0    0    0 -0.00000000000E+00 -0.00000000000E+00 -0.45593999997E+02  0.45594000000E+02  0.51100000000E-03 0. -1.
    9900012    2    1    2    0    0 -0.29179185658E+02 -0.28121974698E+02 -0.33009071213E+01  0.50528851898E+02  0.29999975829E+02 0.  0.
        -12    1    1    2    0    0  0.29179185658E+02  0.28121974698E+02  0.33009071213E+01  0.40659148102E+02  0.00000000000E+00 0.  1.
         11    1    3    3    0    0 -0.16952561468E+02 -0.18406375339E+02  0.50232439834E+01  0.25522871583E+02  0.51100000000E-03 0. -1.
        -11    1    3    3    0    0 -0.35994385155E+01 -0.11719262924E+01  0.54555267534E+01  0.66401913587E+01  0.51100000000E-03 0.  1.
        -12    1    3    3    0    0 -0.86271856740E+01 -0.85436730670E+01 -0.13779677858E+02  0.18365788957E+02  0.00000000000E+00 0.  1.
</event>
<event>
 7    1  0.3449452E-011  0.5052886E+02  0.7816164E-02  0.1300439E+00
        -11   -1    0    0    0    0  0.00000000000E+00  0.00000000000E+00  0.45593999997E+02  0.45594000000E+02  0.51100000000E-03 0.  1.
         11   -1    0    0    0    0 -0.00000000000E+00 -0.00000000000E+00 -0.45593999997E+02  0.45594000000E+02  0.51100000000E-03 0. -1.
    9900012    2    1    2    0    0 -0.22731357914E+02 -0.16814550765E+02 -0.29218519052E+02  0.50528860737E+02  0.30000002695E+02 0.  0.
        -12    1    1    2    0    0  0.22731357914E+02  0.16814550765E+02  0.29218519052E+02  0.40659139263E+02  0.00000000000E+00 0.  1.
         11    1    3    3    0    0 -0.71416710664E+01 -0.14517652571E+02 -0.15330842203E+02  0.22289020272E+02  0.51100000000E-03 0. -1.
        -11    1    3    3    0    0 -0.37754250962E+01  0.72683162870E+01 -0.92328629799E+01  0.12342123617E+02  0.51100000000E-03 0.  1.
         12    1    3    3    0    0 -0.11814261752E+02 -0.95652144815E+01 -0.46548138688E+01  0.15897716848E+02  0.00000000000E+00 0. -1.
</event>
<event>
 7    1  0.3449452E-011  0.5052886E+02  0.7816164E-02  0.1300439E+00
        -11   -1    0    0    0    0  0.00000000000E+00  0.00000000000E+00  0.45593999997E+02  0.45594000000E+02  0.51100000000E-03 0.  1.
         11   -1    0    0    0    0 -0.00000000000E+00 -0.00000000000E+00 -0.45593999997E+02  0.45594000000E+02  0.51100000000E-03 0. -1.
    9900012    2    1    2    0    0  0.20255045276E+02  0.13721821363E+01 -0.35228052991E+02  0.50528862521E+02  0.30000008120E+02 0.  0.
        -12    1    1    2    0    0 -0.20255045276E+02 -0.13721821363E+01  0.35228052991E+02  0.40659137479E+02  0.00000000000E+00 0.  1.
         11    1    3    3    0    0  0.39212674081E+01 -0.58648535219E+01 -0.13858016606E+01  0.71898046859E+01  0.51100000000E-03 0. -1.
        -11    1    3    3    0    0 -0.26375612112E+01 -0.20739764214E+01 -0.13840308612E+02  0.14241216594E+02  0.51100000000E-03 0.  1.
        -12    1    3    3    0    0  0.18971339079E+02  0.93110120796E+01 -0.20001942719E+02  0.29097841241E+02  0.00000000000E+00 0.  1.
</event>
<event>
 7    1  0.3449452E-011  0.5052886E+02  0.7816164E-02  0.1300439E+00
        -11   -1    0    0    0    0  0.00000000000E+00  0.00000000000E+00  0.45593999997E+02  0.45594000000E+02  0.51100000000E-03 0.  1.
         11   -1    0    0    0    0 -0.00000000000E+00 -0.00000000000E+00 -0.45593999997E+02  0.45594000000E+02  0.51100000000E-03 0. -1.
    9900012    2    1    2    0    0 -0.31379284266E+02 -0.11328305667E+01 -0.25830658481E+02  0.50528859531E+02  0.29999999029E+02 0.  0.
        -12    1    1    2    0    0  0.31379284266E+02  0.11328305667E+01  0.25830658481E+02  0.40659140469E+02  0.00000000000E+00 0.  1.
         11    1    3    3    0    0 -0.43379832747E+01  0.32860632695E+01  0.18185835769E+01  0.57379052964E+01  0.51100000000E-03 0. -1.
        -11    1    3    3    0    0 -0.62831500438E+01 -0.88590243568E+01 -0.12755970987E+01  0.10935604018E+02  0.51100000000E-03 0.  1.
         12    1    3    3    0    0 -0.20758150948E+02  0.44401305206E+01 -0.26373644959E+02  0.33855350216E+02  0.00000000000E+00 0. -1.
</event>
<event>
 7    1  0.3449452E-011  0.5052886E+02  0.7816164E-02  0.1300439E+00
        -11   -1    0    0    0    0  0.00000000000E+00  0.00000000000E+00  0.45593999997E+02  0.45594000000E+02  0.51100000000E-03 0.  1.
         11   -1    0    0    0    0 -0.00000000000E+00 -0.00000000000E+00 -0.45593999997E+02  0.45594000000E+02  0.51100000000E-03 0. -1.
    9900012    2    1    2    0    0 -0.21641623947E+02  0.17968037138E+02 -0.29359078713E+02  0.50528858980E+02  0.29999997354E+02 0.  0.
        -12    1    1    2    0    0  0.21641623947E+02 -0.17968037138E+02  0.29359078713E+02  0.40659141020E+02  0.00000000000E+00 0.  1.
         11    1    3    3    0    0 -0.17550870468E+02  0.95090722427E+01 -0.13603021391E+02  0.24155697057E+02  0.51100000000E-03 0. -1.
        -11    1    3    3    0    0 -0.75191249859E+01 -0.27948287446E+01 -0.19898101616E+01  0.82648444030E+01  0.51100000000E-03 0.  1.
         12    1    3    3    0    0  0.34283715075E+01  0.11253793640E+02 -0.13766247161E+02  0.18108317519E+02  0.00000000000E+00 0. -1.
</event>
<event>
 7    1  0.3449452E-011  0.5052886E+02  0.7816164E-02  0.1300439E+00
        -11   -1    0    0    0    0  0.00000000000E+00  0.00000000000E+00  0.45593999997E+02  0.45594000000E+02  0.51100000000E-03 0.  1.
         11   -1    0    0    0    0 -0.00000000000E+00 -0.00000000000E+00 -0.45593999997E+02  0.45594000000E+02  0.51100000000E-03 0. -1.
    9900012    2    1    2    0    0 -0.19660685065E+02 -0.27235531182E+02 -0.22909584397E+02  0.50528858922E+02  0.29999997178E+02 0.  0.
        -12    1    1    2    0    0  0.19660685065E+02  0.27235531182E+02  0.22909584397E+02  0.40659141078E+02  0.00000000000E+00 0.  1.
         11    1    3    3    0    0 -0.40964244175E+01 -0.93557313693E+01 -0.12835589876E+02  0.16403132939E+02  0.51100000000E-03 0.  1.
        -11    1    3    3    0    0 -0.20697592530E+02 -0.12369006039E+02 -0.11064987582E+02  0.26529541974E+02  0.51100000000E-03 0. -1.
        -12    1    3    3    0    0  0.51333318831E+01 -0.55107937744E+01  0.99099306111E+00  0.75961840086E+01  0.00000000000E+00 0.  1.
</event>
<event>
 7    1  0.4551309E-011  0.5052886E+02  0.7816164E-02  0.1300439E+00
        -11   -1    0    0    0    0  0.00000000000E+00  0.00000000000E+00  0.45593999997E+02  0.45594000000E+02  0.51100000000E-03 0. -1.
         11   -1    0    0    0    0 -0.00000000000E+00 -0.00000000000E+00 -0.45593999997E+02  0.45594000000E+02  0.51100000000E-03 0.  1.
    9900012    2    1    2    0    0  0.75618920701E-01 -0.46830485584E+01  0.40388477008E+02  0.50528859120E+02  0.29999997782E+02 0.  0.
        -12    1    1    2    0    0 -0.75618920701E-01  0.46830485584E+01 -0.40388477008E+02  0.40659140880E+02  0.00000000000E+00 0.  1.
         11    1    3    3    0    0 -0.19249402701E+00 -0.70135029421E+01  0.25429149231E+02  0.26379308337E+02  0.51100000000E-03 0. -1.
        -11    1    3    3    0    0  0.84550880859E+01 -0.27385830153E+01  0.97828870686E+01  0.13217156696E+02  0.51100000000E-03 0.  1.
        -12    1    3    3    0    0 -0.81869751382E+01  0.50690373990E+01  0.51764407086E+01  0.10932394087E+02  0.00000000000E+00 0.  1.
</event>
<event>
 7    1  0.3847141E-011  0.5052883E+02  0.7816164E-02  0.1300439E+00
        -11   -1    0    0    0    0  0.00000000000E+00  0.00000000000E+00  0.45593999997E+02  0.45594000000E+02  0.51100000000E-03 0. -1.
         11   -1    0    0    0    0 -0.00000000000E+00 -0.00000000000E+00 -0.45593999997E+02  0.45594000000E+02  0.51100000000E-03 0.  1.
    9900012    2    1    2    0    0  0.12584618182E+02 -0.31170324213E+02  0.22873710926E+02  0.50528826646E+02  0.29999899073E+02 0.  0.
        -12    1    1    2    0    0 -0.12584618182E+02  0.31170324213E+02 -0.22873710926E+02  0.40659173354E+02  0.00000000000E+00 0.  1.
         11    1    3    3    0    0  0.95796027808E+01 -0.92862527357E+01  0.23486353544E+01  0.13546932036E+02  0.51100000000E-03 0. -1.
        -11    1    3    3    0    0  0.94069493072E+01 -0.11407443775E+02  0.19761040853E+02  0.24680340447E+02  0.51100000000E-03 0.  1.
        -12    1    3    3    0    0 -0.64019339062E+01 -0.10476627702E+02  0.76403471842E+00  0.12301554162E+02  0.00000000000E+00 0.  1.
</event>
<event>
 7    1  0.3449452E-011  0.5052886E+02  0.7816164E-02  0.1300439E+00
        -11   -1    0    0    0    0  0.00000000000E+00  0.00000000000E+00  0.45593999997E+02  0.45594000000E+02  0.51100000000E-03 0. -1.
         11   -1    0    0    0    0 -0.00000000000E+00 -0.00000000000E+00 -0.45593999997E+02  0.45594000000E+02  0.51100000000E-03 0.  1.
    9900012    2    1    2    0    0  0.12857560234E+02 -0.38510914951E+02 -0.21814087496E+01  0.50528856260E+02  0.29999989088E+02 0.  0.
        -12    1    1    2    0    0 -0.12857560234E+02  0.38510914951E+02  0.21814087496E+01  0.40659143740E+02  0.00000000000E+00 0.  1.
         11    1    3    3    0    0  0.78294826239E+01 -0.29573233395E+02 -0.25480043702E+01  0.30698033457E+02  0.51100000000E-03 0. -1.
        -11    1    3    3    0    0 -0.24380968863E+01 -0.94770021812E+01 -0.46352229976E+01  0.10827888957E+02  0.51100000000E-03 0.  1.
         12    1    3    3    0    0  0.74661744961E+01  0.53932062496E+00  0.50018186182E+01  0.90029338458E+01  0.00000000000E+00 0. -1.
</event>
<event>
 7    1  0.3449452E-011  0.5052886E+02  0.7816164E-02  0.1300439E+00
        -11   -1    0    0    0    0  0.00000000000E+00  0.00000000000E+00  0.45593999997E+02  0.45594000000E+02  0.51100000000E-03 0.  1.
         11   -1    0    0    0    0 -0.00000000000E+00 -0.00000000000E+00 -0.45593999997E+02  0.45594000000E+02  0.51100000000E-03 0. -1.
    9900012    2    1    2    0    0  0.33997770544E+02  0.16471500390E+02 -0.15033531790E+02  0.50528858283E+02  0.29999995237E+02 0.  0.
        -12    1    1    2    0    0 -0.33997770544E+02 -0.16471500390E+02  0.15033531790E+02  0.40659141717E+02  0.00000000000E+00 0.  1.
         11    1    3    3    0    0  0.13109978785E+02 -0.25952648914E+01 -0.12025699711E+02  0.17978442574E+02  0.51100000000E-03 0.  1.
        -11    1    3    3    0    0  0.82677735687E+01  0.20980954816E+01 -0.69943502346E+01  0.11030821361E+02  0.51100000000E-03 0. -1.
         12    1    3    3    0    0  0.12620018191E+02  0.16968669799E+02  0.39865181550E+01  0.21519594348E+02  0.00000000000E+00 0. -1.
</event>
<event>
 7    1  0.3449452E-011  0.5052887E+02  0.7816164E-02  0.1300439E+00
        -11   -1    0    0    0    0  0.00000000000E+00  0.00000000000E+00  0.45593999997E+02  0.45594000000E+02  0.51100000000E-03 0.  1.
         11   -1    0    0    0    0 -0.00000000000E+00 -0.00000000000E+00 -0.45593999997E+02  0.45594000000E+02  0.51100000000E-03 0. -1.
    9900012    2    1    2    0    0  0.38730119795E+02  0.12270365242E+02 -0.16065954148E+01  0.50528865832E+02  0.30000018183E+02 0.  0.
        -12    1    1    2    0    0 -0.38730119795E+02 -0.12270365242E+02  0.16065954148E+01  0.40659134168E+02  0.00000000000E+00 0.  1.
         11    1    3    3    0    0  0.61988373960E+01 -0.49664419276E+01  0.23037946069E+00  0.79463328296E+01  0.51100000000E-03 0. -1.
        -11    1    3    3    0    0 -0.16295758602E+01  0.26186855399E+01  0.39137352180E+01  0.49830066284E+01  0.51100000000E-03 0.  1.
         12    1    3    3    0    0  0.34160858259E+02  0.14618121630E+02 -0.57507100935E+01  0.37599526374E+02  0.00000000000E+00 0. -1.
</event>
<event>
 7    1  0.3449452E-011  0.5052886E+02  0.7816164E-02  0.1300439E+00
        -11   -1    0    0    0    0  0.00000000000E+00  0.00000000000E+00  0.45593999997E+02  0.45594000000E+02  0.51100000000E-03 0.  1.
         11   -1    0    0    0    0 -0.00000000000E+00 -0.00000000000E+00 -0.45593999997E+02  0.45594000000E+02  0.51100000000E-03 0. -1.
    9900012    2    1    2    0    0 -0.46542228587E+01 -0.31511309397E+02 -0.25269374082E+02  0.50528859861E+02  0.30000000034E+02 0.  0.
        -12    1    1    2    0    0  0.46542228587E+01  0.31511309397E+02  0.25269374082E+02  0.40659140139E+02  0.00000000000E+00 0.  1.
         11    1    3    3    0    0 -0.85531864967E+01 -0.13768794904E+02 -0.16722158065E+02  0.23288780195E+02  0.51100000000E-03 0. -1.
        -11    1    3    3    0    0  0.43013842401E+01  0.18438012545E+01 -0.58083245562E+01  0.74590980594E+01  0.51100000000E-03 0.  1.
         12    1    3    3    0    0 -0.40242060215E+00 -0.19586315747E+02 -0.27388914607E+01  0.19780981606E+02  0.00000000000E+00 0. -1.
</event>
<event>
 7    1  0.3449452E-011  0.5052887E+02  0.7816164E-02  0.1300439E+00
        -11   -1    0    0    0    0  0.00000000000E+00  0.00000000000E+00  0.45593999997E+02  0.45594000000E+02  0.51100000000E-03 0.  1.
         11   -1    0    0    0    0 -0.00000000000E+00 -0.00000000000E+00 -0.45593999997E+02  0.45594000000E+02  0.51100000000E-03 0. -1.
    9900012    2    1    2    0    0 -0.39750519341E+02  0.83736978375E+00 -0.85064554461E+01  0.50528871132E+02  0.30000034292E+02 0.  0.
        -12    1    1    2    0    0  0.39750519341E+02 -0.83736978375E+00  0.85064554461E+01  0.40659128868E+02  0.00000000000E+00 0.  1.
         11    1    3    3    0    0 -0.64884071634E+01  0.44490381160E+01  0.54329251667E+01  0.95608599929E+01  0.51100000000E-03 0. -1.
        -11    1    3    3    0    0 -0.70497995695E+01  0.69577029905E+01 -0.61203886017E+01  0.11643387040E+02  0.51100000000E-03 0.  1.
         12    1    3    3    0    0 -0.26212312609E+02 -0.10569371323E+02 -0.78189920111E+01  0.29324624098E+02  0.00000000000E+00 0. -1.
</event>
<event>
 7    1  0.3449452E-011  0.5052885E+02  0.7816164E-02  0.1300439E+00
        -11   -1    0    0    0    0  0.00000000000E+00  0.00000000000E+00  0.45593999997E+02  0.45594000000E+02  0.51100000000E-03 0.  1.
         11   -1    0    0    0    0 -0.00000000000E+00 -0.00000000000E+00 -0.45593999997E+02  0.45594000000E+02  0.51100000000E-03 0. -1.
    9900012    2    1    2    0    0 -0.40631739447E+01  0.36784864864E+02 -0.16838381417E+02  0.50528846611E+02  0.29999959758E+02 0.  0.
        -12    1    1    2    0    0  0.40631739447E+01 -0.36784864864E+02  0.16838381417E+02  0.40659153389E+02  0.00000000000E+00 0.  1.
         11    1    3    3    0    0 -0.51669610152E+01  0.14599708173E+02 -0.12701049987E+02  0.20029119698E+02  0.51100000000E-03 0. -1.
        -11    1    3    3    0    0  0.25360441196E+01 -0.35353183086E+01  0.29508730511E+00  0.43608568079E+01  0.51100000000E-03 0.  1.
         12    1    3    3    0    0 -0.14322570491E+01  0.25720475000E+02 -0.44324187358E+01  0.26138870105E+02  0.00000000000E+00 0. -1.
</event>
<event>
 7    1  0.3449452E-011  0.5052886E+02  0.7816164E-02  0.1300439E+00
        -11   -1    0    0    0    0  0.00000000000E+00  0.00000000000E+00  0.45593999997E+02  0.45594000000E+02  0.51100000000E-03 0. -1.
         11   -1    0    0    0    0 -0.00000000000E+00 -0.00000000000E+00 -0.45593999997E+02  0.45594000000E+02  0.51100000000E-03 0.  1.
    9900012    2    1    2    0    0 -0.90800061824E+01  0.20441561926E+02  0.33953812243E+02  0.50528864101E+02  0.30000012921E+02 0.  0.
        -12    1    1    2    0    0  0.90800061824E+01 -0.20441561926E+02 -0.33953812243E+02  0.40659135899E+02  0.00000000000E+00 0.  1.
         11    1    3    3    0    0 -0.28738862605E+01  0.17075177764E+01  0.14408919792E+02  0.14791612794E+02  0.51100000000E-03 0. -1.
        -11    1    3    3    0    0 -0.44643840515E+01  0.11123594990E+02  0.23943620498E+02  0.26776147096E+02  0.51100000000E-03 0.  1.
        -12    1    3    3    0    0 -0.17417358704E+01  0.76104491593E+01 -0.43987280479E+01  0.89611042114E+01  0.00000000000E+00 0.  1.
</event>
<event>
 7    1  0.3449452E-011  0.5052886E+02  0.7816164E-02  0.1300439E+00
        -11   -1    0    0    0    0  0.00000000000E+00  0.00000000000E+00  0.45593999997E+02  0.45594000000E+02  0.51100000000E-03 0.  1.
         11   -1    0    0    0    0 -0.00000000000E+00 -0.00000000000E+00 -0.45593999997E+02  0.45594000000E+02  0.51100000000E-03 0. -1.
    9900012    2    1    2    0    0 -0.23972452600E+02 -0.76188327150E+01 -0.31944336775E+02  0.50528858991E+02  0.29999997390E+02 0.  0.
        -12    1    1    2    0    0  0.23972452600E+02  0.76188327150E+01  0.31944336775E+02  0.40659141009E+02  0.00000000000E+00 0.  1.
         11    1    3    3    0    0 -0.10078601676E+02 -0.99171949210E+01 -0.13999838707E+02  0.19897850410E+02  0.51100000000E-03 0. -1.
        -11    1    3    3    0    0 -0.18168832369E+01 -0.37544133263E+01  0.33930128154E+01  0.53767295216E+01  0.51100000000E-03 0.  1.
        -12    1    3    3    0    0 -0.12076967687E+02  0.60527755324E+01 -0.21337510883E+02  0.25254279060E+02  0.00000000000E+00 0.  1.
</event>
<event>
 7    1  0.3449452E-011  0.5052886E+02  0.7816164E-02  0.1300439E+00
        -11   -1    0    0    0    0  0.00000000000E+00  0.00000000000E+00  0.45593999997E+02  0.45594000000E+02  0.51100000000E-03 0.  1.
         11   -1    0    0    0    0 -0.00000000000E+00 -0.00000000000E+00 -0.45593999997E+02  0.45594000000E+02  0.51100000000E-03 0. -1.
    9900012    2    1    2    0    0  0.32846374034E+02  0.50828345865E+01 -0.23418931487E+02  0.50528857773E+02  0.29999993687E+02 0.  0.
        -12    1    1    2    0    0 -0.32846374034E+02 -0.50828345865E+01  0.23418931487E+02  0.40659142227E+02  0.00000000000E+00 0.  1.
         11    1    3    3    0    0  0.21093987143E+01  0.91965940011E+01 -0.19342884925E+01  0.96316341495E+01  0.51100000000E-03 0. -1.
        -11    1    3    3    0    0  0.16771804001E+02  0.29670301651E+01 -0.18146594572E+02  0.24887659035E+02  0.51100000000E-03 0.  1.
        -12    1    3    3    0    0  0.13965171319E+02 -0.70807895797E+01 -0.33380484233E+01  0.16009564588E+02  0.00000000000E+00 0.  1.
</event>
<event>
 7    1  0.3449452E-011  0.5052886E+02  0.7816164E-02  0.1300439E+00
        -11   -1    0    0    0    0  0.00000000000E+00  0.00000000000E+00  0.45593999997E+02  0.45594000000E+02  0.51100000000E-03 0.  1.
         11   -1    0    0    0    0 -0.00000000000E+00 -0.00000000000E+00 -0.45593999997E+02  0.45594000000E+02  0.51100000000E-03 0. -1.
    9900012    2    1    2    0    0 -0.14569033580E+02 -0.36000573723E+02 -0.12036090181E+02  0.50528861855E+02  0.30000006095E+02 0.  0.
        -12    1    1    2    0    0  0.14569033580E+02  0.36000573723E+02  0.12036090181E+02  0.40659138145E+02  0.00000000000E+00 0.  1.
         11    1    3    3    0    0 -0.76359807098E+01 -0.24346516673E+02 -0.26703929361E+01  0.25655254319E+02  0.51100000000E-03 0. -1.
        -11    1    3    3    0    0 -0.63001859728E+01 -0.73796972760E+01  0.42467338520E+01  0.10591837605E+02  0.51100000000E-03 0.  1.
         12    1    3    3    0    0 -0.63286689767E+00 -0.42743597739E+01 -0.13612431097E+02  0.14281769931E+02  0.00000000000E+00 0. -1.
</event>
<event>
 7    1  0.3449452E-011  0.5052886E+02  0.7816164E-02  0.1300439E+00
        -11   -1    0    0    0    0  0.00000000000E+00  0.00000000000E+00  0.45593999997E+02  0.45594000000E+02  0.51100000000E-03 0.  1.
         11   -1    0    0    0    0 -0.00000000000E+00 -0.00000000000E+00 -0.45593999997E+02  0.45594000000E+02  0.51100000000E-03 0. -1.
    9900012    2    1    2    0    0 -0.40591787023E+01 -0.38337217146E+02  0.12920771640E+02  0.50528862158E+02  0.30000007016E+02 0.  0.
        -12    1    1    2    0    0  0.40591787023E+01  0.38337217146E+02 -0.12920771640E+02  0.40659137842E+02  0.00000000000E+00 0.  1.
         11    1    3    3    0    0  0.94133971525E+00  0.42985125386E+00 -0.28787230821E+01  0.30590749263E+01  0.51100000000E-03 0.  1.
        -11    1    3    3    0    0  0.29558169690E+01 -0.25591008184E+02  0.49770920844E+00  0.25765951730E+02  0.51100000000E-03 0. -1.
        -12    1    3    3    0    0 -0.79563353865E+01 -0.13176060216E+02  0.15301785513E+02  0.21703835502E+02  0.00000000000E+00 0.  1.
</event>
<event>
 7    1  0.3449452E-011  0.5052889E+02  0.7816164E-02  0.1300439E+00
        -11   -1    0    0    0    0  0.00000000000E+00  0.00000000000E+00  0.45593999997E+02  0.45594000000E+02  0.51100000000E-03 0.  1.
         11   -1    0    0    0    0 -0.00000000000E+00 -0.00000000000E+00 -0.45593999997E+02  0.45594000000E+02  0.51100000000E-03 0. -1.
    9900012    2    1    2    0    0 -0.65607827663E+01  0.30228508000E+02 -0.26388564632E+02  0.50528893889E+02  0.30000103466E+02 0.  0.
        -12    1    1    2    0    0  0.65607827663E+01 -0.30228508000E+02  0.26388564632E+02  0.40659106111E+02  0.00000000000E+00 0.  1.
         11    1    3    3    0    0 -0.52936179546E+01  0.28494960369E+02 -0.27223562086E+02  0.39763142361E+02  0.51100000000E-03 0. -1.
        -11    1    3    3    0    0 -0.52677283667E+01  0.74013306243E+00 -0.20857939897E+01  0.57137812282E+01  0.51100000000E-03 0.  1.
        -12    1    3    3    0    0  0.40005635550E+01  0.99341456768E+00  0.29207914435E+01  0.50519703005E+01  0.00000000000E+00 0.  1.
</event>
<event>
 7    1  0.3449452E-011  0.5052887E+02  0.7816164E-02  0.1300439E+00
        -11   -1    0    0    0    0  0.00000000000E+00  0.00000000000E+00  0.45593999997E+02  0.45594000000E+02  0.51100000000E-03 0.  1.
         11   -1    0    0    0    0 -0.00000000000E+00 -0.00000000000E+00 -0.45593999997E+02  0.45594000000E+02  0.51100000000E-03 0. -1.
    9900012    2    1    2    0    0 -0.23060017738E+01 -0.33386372373E+02 -0.23091070649E+02  0.50528867593E+02  0.30000023534E+02 0.  0.
        -12    1    1    2    0    0  0.23060017738E+01  0.33386372373E+02  0.23091070649E+02  0.40659132407E+02  0.00000000000E+00 0.  1.
         11    1    3    3    0    0 -0.37772169049E+01 -0.10695127270E+01 -0.78124427321E+01  0.87433109704E+01  0.51100000000E-03 0. -1.
        -11    1    3    3    0    0  0.87938190036E+01 -0.50338169706E+01 -0.11410401144E+01  0.10196692541E+02  0.51100000000E-03 0.  1.
         12    1    3    3    0    0 -0.73226038725E+01 -0.27283042675E+02 -0.14137587803E+02  0.31588864082E+02  0.00000000000E+00 0. -1.
</event>
<event>
 7    1  0.3449452E-011  0.5052886E+02  0.7816164E-02  0.1300439E+00
        -11   -1    0    0    0    0  0.00000000000E+00  0.00000000000E+00  0.45593999997E+02  0.45594000000E+02  0.51100000000E-03 0.  1.
         11   -1    0    0    0    0 -0.00000000000E+00 -0.00000000000E+00 -0.45593999997E+02  0.45594000000E+02  0.51100000000E-03 0. -1.
    9900012    2    1    2    0    0 -0.74720251598E+00  0.19128074515E+02 -0.35870941581E+02  0.50528855934E+02  0.29999988097E+02 0.  0.
        -12    1    1    2    0    0  0.74720251598E+00 -0.19128074515E+02  0.35870941581E+02  0.40659144066E+02  0.00000000000E+00 0.  1.
         11    1    3    3    0    0  0.76498904760E+01  0.99759564506E+01 -0.14394519662E+02  0.19111324600E+02  0.51100000000E-03 0. -1.
        -11    1    3    3    0    0  0.32716898282E+00  0.10626606271E+02 -0.31849480443E+01  0.11098454608E+02  0.51100000000E-03 0.  1.
        -12    1    3    3    0    0 -0.87242619749E+01 -0.14744882070E+01 -0.18291473875E+02  0.20319076726E+02  0.00000000000E+00 0.  1.
</event>
<event>
 7    1  0.3449452E-011  0.5052886E+02  0.7816164E-02  0.1300439E+00
        -11   -1    0    0    0    0  0.00000000000E+00  0.00000000000E+00  0.45593999997E+02  0.45594000000E+02  0.51100000000E-03 0.  1.
         11   -1    0    0    0    0 -0.00000000000E+00 -0.00000000000E+00 -0.45593999997E+02  0.45594000000E+02  0.51100000000E-03 0. -1.
    9900012    2    1    2    0    0 -0.27248942600E+02  0.23898419961E+01 -0.30082377610E+02  0.50528860065E+02  0.30000000653E+02 0.  0.
        -12    1    1    2    0    0  0.27248942600E+02 -0.23898419961E+01  0.30082377610E+02  0.40659139935E+02  0.00000000000E+00 0.  1.
         11    1    3    3    0    0 -0.21607031261E+02  0.51197956626E+01 -0.14943562377E+02  0.26765391167E+02  0.51100000000E-03 0. -1.
        -11    1    3    3    0    0 -0.83752368653E+01  0.17233129807E+01 -0.90209280970E+00  0.85981493286E+01  0.51100000000E-03 0.  1.
         12    1    3    3    0    0  0.27333255268E+01 -0.44532666472E+01 -0.14236722424E+02  0.15165319570E+02  0.00000000000E+00 0. -1.
</event>
<event>
 7    1  0.3449452E-011  0.5052888E+02  0.7816164E-02  0.1300439E+00
        -11   -1    0    0    0    0  0.00000000000E+00  0.00000000000E+00  0.45593999997E+02  0.45594000000E+02  0.51100000000E-03 0. -1.
         11   -1    0    0    0    0 -0.00000000000E+00 -0.00000000000E+00 -0.45593999997E+02  0.45594000000E+02  0.51100000000E-03 0.  1.
    9900012    2    1    2    0    0 -0.58893559567E+01  0.39950439720E+02  0.47372735633E+01  0.50528881610E+02  0.30000066143E+02 0.  0.
        -12    1    1    2    0    0  0.58893559567E+01 -0.39950439720E+02 -0.47372735633E+01  0.40659118390E+02  0.00000000000E+00 0.  1.
         11    1    3    3    0    0  0.29419132028E+01  0.96289532659E+01  0.57169960651E+01  0.11578239873E+02  0.51100000000E-03 0. -1.
        -11    1    3    3    0    0  0.65055794309E+01  0.12717438915E+02 -0.52433161108E+01  0.15216707278E+02  0.51100000000E-03 0.  1.
         12    1    3    3    0    0 -0.15336848590E+02  0.17604047539E+02  0.42635936090E+01  0.23733934459E+02  0.00000000000E+00 0. -1.
</event>
<event>
 7    1  0.3449452E-011  0.5052888E+02  0.7816164E-02  0.1300439E+00
        -11   -1    0    0    0    0  0.00000000000E+00  0.00000000000E+00  0.45593999997E+02  0.45594000000E+02  0.51100000000E-03 0. -1.
         11   -1    0    0    0    0 -0.00000000000E+00 -0.00000000000E+00 -0.45593999997E+02  0.45594000000E+02  0.51100000000E-03 0.  1.
    9900012    2    1    2    0    0  0.36075710644E+02 -0.18697914522E+02 -0.14474446760E+01  0.50528880456E+02  0.30000062635E+02 0.  0.
        -12    1    1    2    0    0 -0.36075710644E+02  0.18697914522E+02  0.14474446760E+01  0.40659119544E+02  0.00000000000E+00 0.  1.
         11    1    3    3    0    0  0.17086717429E+02  0.11781720580E+00  0.51356385124E+01  0.17842213332E+02  0.51100000000E-03 0. -1.
        -11    1    3    3    0    0  0.75629569226E+01 -0.15578533448E+00 -0.76787388584E+01  0.10778943232E+02  0.51100000000E-03 0.  1.
         12    1    3    3    0    0  0.11426036293E+02 -0.18659946394E+02  0.10956556700E+01  0.21907723892E+02  0.00000000000E+00 0. -1.
</event>
<event>
 7    1  0.3449452E-011  0.5052887E+02  0.7816164E-02  0.1300439E+00
        -11   -1    0    0    0    0  0.00000000000E+00  0.00000000000E+00  0.45593999997E+02  0.45594000000E+02  0.51100000000E-03 0.  1.
         11   -1    0    0    0    0 -0.00000000000E+00 -0.00000000000E+00 -0.45593999997E+02  0.45594000000E+02  0.51100000000E-03 0. -1.
    9900012    2    1    2    0    0  0.26967745367E+02  0.98312602944E+01 -0.28796734679E+02  0.50528869447E+02  0.30000029171E+02 0.  0.
        -12    1    1    2    0    0 -0.26967745367E+02 -0.98312602944E+01  0.28796734679E+02  0.40659130553E+02  0.00000000000E+00 0.  1.
         11    1    3    3    0    0  0.23732990033E+02  0.84437533025E+01 -0.25672654235E+02  0.35967165046E+02  0.51100000000E-03 0. -1.
        -11    1    3    3    0    0 -0.88219799792E+00  0.28272975052E+01 -0.76941116319E+01  0.82444671480E+01  0.51100000000E-03 0.  1.
         12    1    3    3    0    0  0.41169533314E+01 -0.14397905133E+01  0.45700311874E+01  0.63172372528E+01  0.00000000000E+00 0. -1.
</event>
<event>
 7    1  0.3449452E-011  0.5052885E+02  0.7816164E-02  0.1300439E+00
        -11   -1    0    0    0    0  0.00000000000E+00  0.00000000000E+00  0.45593999997E+02  0.45594000000E+02  0.51100000000E-03 0.  1.
         11   -1    0    0    0    0 -0.00000000000E+00 -0.00000000000E+00 -0.45593999997E+02  0.45594000000E+02  0.51100000000E-03 0. -1.
    9900012    2    1    2    0    0  0.14442721647E+02  0.32918252743E+02 -0.18999029458E+02  0.50528847370E+02  0.29999962066E+02 0.  0.
        -12    1    1    2    0    0 -0.14442721647E+02 -0.32918252743E+02  0.18999029458E+02  0.40659152630E+02  0.00000000000E+00 0.  1.
         11    1    3    3    0    0  0.81301357017E+01  0.25571895050E+01 -0.10711594998E+02  0.13688556986E+02  0.51100000000E-03 0.  1.
        -11    1    3    3    0    0  0.11704788127E+02  0.13779710003E+02 -0.68901779402E+01  0.19348308070E+02  0.51100000000E-03 0. -1.
         12    1    3    3    0    0 -0.53922021821E+01  0.16581353236E+02 -0.13972565197E+01  0.17491982314E+02  0.00000000000E+00 0. -1.
</event>
<event>
 7    1  0.3449452E-011  0.5052887E+02  0.7816164E-02  0.1300439E+00
        -11   -1    0    0    0    0  0.00000000000E+00  0.00000000000E+00  0.45593999997E+02  0.45594000000E+02  0.51100000000E-03 0.  1.
         11   -1    0    0    0    0 -0.00000000000E+00 -0.00000000000E+00 -0.45593999997E+02  0.45594000000E+02  0.51100000000E-03 0. -1.
    9900012    2    1    2    0    0 -0.93130377107E+01 -0.38971477860E+02 -0.69033605037E+01  0.50528866410E+02  0.30000019940E+02 0.  0.
        -12    1    1    2    0    0  0.93130377107E+01  0.38971477860E+02  0.69033605037E+01  0.40659133590E+02  0.00000000000E+00 0.  1.
         11    1    3    3    0    0  0.39710735672E+01 -0.32903702854E+01 -0.49740833210E+01  0.71650168902E+01  0.51100000000E-03 0. -1.
        -11    1    3    3    0    0 -0.14654087073E+02 -0.14299626703E+02  0.45616021143E+01  0.20976887422E+02  0.51100000000E-03 0.  1.
         12    1    3    3    0    0  0.13699757947E+01 -0.21381480872E+02 -0.64908792970E+01  0.22386962099E+02  0.00000000000E+00 0. -1.
</event>
<event>
 7    1  0.3497266E-011  0.5052886E+02  0.7816164E-02  0.1300439E+00
        -11   -1    0    0    0    0  0.00000000000E+00  0.00000000000E+00  0.45593999997E+02  0.45594000000E+02  0.51100000000E-03 0.  1.
         11   -1    0    0    0    0 -0.00000000000E+00 -0.00000000000E+00 -0.45593999997E+02  0.45594000000E+02  0.51100000000E-03 0. -1.
    9900012    2    1    2    0    0 -0.40360266824E+02 -0.48141850982E+01 -0.10188473433E+01  0.50528861222E+02  0.30000004170E+02 0.  0.
        -12    1    1    2    0    0  0.40360266824E+02  0.48141850982E+01  0.10188473433E+01  0.40659138778E+02  0.00000000000E+00 0.  1.
         11    1    3    3    0    0 -0.17674653349E+02 -0.27264712022E+01  0.20880250673E+01  0.18005189951E+02  0.51100000000E-03 0. -1.
        -11    1    3    3    0    0 -0.83119209299E+01  0.81584959084E+01  0.55058987775E+01  0.12882701838E+02  0.51100000000E-03 0.  1.
        -12    1    3    3    0    0 -0.14373692545E+02 -0.10246209804E+02 -0.86127711881E+01  0.19640969433E+02  0.00000000000E+00 0.  1.
</event>
<event>
 7    1  0.3449452E-011  0.5052886E+02  0.7816164E-02  0.1300439E+00
        -11   -1    0    0    0    0  0.00000000000E+00  0.00000000000E+00  0.45593999997E+02  0.45594000000E+02  0.51100000000E-03 0.  1.
         11   -1    0    0    0    0 -0.00000000000E+00 -0.00000000000E+00 -0.45593999997E+02  0.45594000000E+02  0.51100000000E-03 0. -1.
    9900012    2    1    2    0    0  0.69277322341E+01  0.39160680585E+02  0.84624605124E+01  0.50528860613E+02  0.30000002320E+02 0.  0.
        -12    1    1    2    0    0 -0.69277322341E+01 -0.39160680585E+02 -0.84624605124E+01  0.40659139387E+02  0.00000000000E+00 0.  1.
         11    1    3    3    0    0 -0.64609516758E+00  0.58769457573E+01  0.29333577503E+01  0.66000392690E+01  0.51100000000E-03 0. -1.
        -11    1    3    3    0    0  0.12516542199E+02  0.31856453645E+01  0.33878539890E+01  0.13352517362E+02  0.51100000000E-03 0.  1.
         12    1    3    3    0    0 -0.49427147971E+01  0.30098089463E+02  0.21412487730E+01  0.30576303982E+02  0.00000000000E+00 0. -1.
</event>
<event>
 7    1  0.3449452E-011  0.5052885E+02  0.7816164E-02  0.1300439E+00
        -11   -1    0    0    0    0  0.00000000000E+00  0.00000000000E+00  0.45593999997E+02  0.45594000000E+02  0.51100000000E-03 0.  1.
         11   -1    0    0    0    0 -0.00000000000E+00 -0.00000000000E+00 -0.45593999997E+02  0.45594000000E+02  0.51100000000E-03 0. -1.
    9900012    2    1    2    0    0  0.10216336760E+02  0.35907498085E+02 -0.16107278253E+02  0.50528851359E+02  0.29999974189E+02 0.  0.
        -12    1    1    2    0    0 -0.10216336760E+02 -0.35907498085E+02  0.16107278253E+02  0.40659148641E+02  0.00000000000E+00 0.  1.
         11    1    3    3    0    0 -0.56001294380E+00  0.24148048067E+02 -0.72989583505E+01  0.25233244603E+02  0.51100000000E-03 0. -1.
        -11    1    3    3    0    0 -0.27600545581E+00  0.71587182244E+01  0.36306502016E+01  0.80315033945E+01  0.51100000000E-03 0.  1.
         12    1    3    3    0    0  0.11052355159E+02  0.46007317940E+01 -0.12438970104E+02  0.17264103361E+02  0.00000000000E+00 0. -1.
</event>
<event>
 7    1  0.3449452E-011  0.5052885E+02  0.7816164E-02  0.1300439E+00
        -11   -1    0    0    0    0  0.00000000000E+00  0.00000000000E+00  0.45593999997E+02  0.45594000000E+02  0.51100000000E-03 0.  1.
         11   -1    0    0    0    0 -0.00000000000E+00 -0.00000000000E+00 -0.45593999997E+02  0.45594000000E+02  0.51100000000E-03 0. -1.
    9900012    2    1    2    0    0  0.20303225754E+02  0.30195642705E+02 -0.18142994820E+02  0.50528854960E+02  0.29999985135E+02 0.  0.
        -12    1    1    2    0    0 -0.20303225754E+02 -0.30195642705E+02  0.18142994820E+02  0.40659145040E+02  0.00000000000E+00 0.  1.
         11    1    3    3    0    0  0.12790482522E+01  0.17660588246E+02  0.25151600409E+01  0.17884584756E+02  0.51100000000E-03 0. -1.
        -11    1    3    3    0    0 -0.19194022610E+00  0.12270650585E+01  0.97413638318E+00  0.15784396290E+01  0.51100000000E-03 0.  1.
         12    1    3    3    0    0  0.19216117728E+02  0.11307989401E+02 -0.21632291244E+02  0.31065830574E+02  0.00000000000E+00 0. -1.
</event>
<event>
 7    1  0.3449452E-011  0.5052889E+02  0.7816164E-02  0.1300439E+00
        -11   -1    0    0    0    0  0.00000000000E+00  0.00000000000E+00  0.45593999997E+02  0.45594000000E+02  0.51100000000E-03 0.  1.
         11   -1    0    0    0    0 -0.00000000000E+00 -0.00000000000E+00 -0.45593999997E+02  0.45594000000E+02  0.51100000000E-03 0. -1.
    9900012    2    1    2    0    0  0.31072547202E+02 -0.25894814805E+02 -0.41374319701E+01  0.50528893189E+02  0.30000101336E+02 0.  0.
        -12    1    1    2    0    0 -0.31072547202E+02  0.25894814805E+02  0.41374319701E+01  0.40659106811E+02  0.00000000000E+00 0.  1.
         11    1    3    3    0    0  0.25502911809E+02 -0.11407798768E+02  0.13867048381E+00  0.27938425390E+02  0.51100000000E-03 0. -1.
        -11    1    3    3    0    0  0.22510248885E+01  0.16971258270E+00 -0.69671071010E+01  0.73236942200E+01  0.51100000000E-03 0.  1.
         12    1    3    3    0    0  0.33186105037E+01 -0.14656728620E+02  0.26910046471E+01  0.15266773579E+02  0.00000000000E+00 0. -1.
</event>
<event>
 7    1  0.3449452E-011  0.5052886E+02  0.7816164E-02  0.1300439E+00
        -11   -1    0    0    0    0  0.00000000000E+00  0.00000000000E+00  0.45593999997E+02  0.45594000000E+02  0.51100000000E-03 0.  1.
         11   -1    0    0    0    0 -0.00000000000E+00 -0.00000000000E+00 -0.45593999997E+02  0.45594000000E+02  0.51100000000E-03 0. -1.
    9900012    2    1    2    0    0 -0.18143079830E+02  0.11061668978E+02 -0.34664589454E+02  0.50528860457E+02  0.30000001846E+02 0.  0.
        -12    1    1    2    0    0  0.18143079830E+02 -0.11061668978E+02  0.34664589454E+02  0.40659139543E+02  0.00000000000E+00 0.  1.
         11    1    3    3    0    0 -0.21220073085E+01  0.41255600398E+00 -0.11496735148E+02  0.11698206563E+02  0.51100000000E-03 0. -1.
        -11    1    3    3    0    0 -0.49866748199E+01 -0.60704597776E+01 -0.15506636860E+02  0.17383129598E+02  0.51100000000E-03 0.  1.
        -12    1    3    3    0    0 -0.11034397702E+02  0.16719572752E+02 -0.76612174468E+01  0.21447524296E+02  0.00000000000E+00 0.  1.
</event>
<event>
 7    1  0.3449452E-011  0.5052886E+02  0.7816164E-02  0.1300439E+00
        -11   -1    0    0    0    0  0.00000000000E+00  0.00000000000E+00  0.45593999997E+02  0.45594000000E+02  0.51100000000E-03 0.  1.
         11   -1    0    0    0    0 -0.00000000000E+00 -0.00000000000E+00 -0.45593999997E+02  0.45594000000E+02  0.51100000000E-03 0. -1.
    9900012    2    1    2    0    0  0.11292840437E+02  0.38770715826E+02  0.47401341177E+01  0.50528861762E+02  0.30000005812E+02 0.  0.
        -12    1    1    2    0    0 -0.11292840437E+02 -0.38770715826E+02 -0.47401341177E+01  0.40659138238E+02  0.00000000000E+00 0.  1.
         11    1    3    3    0    0  0.42490078169E+01  0.25203309100E+02  0.24259782234E+01  0.25673843258E+02  0.51100000000E-03 0. -1.
        -11    1    3    3    0    0 -0.67235142938E+01  0.47174885042E+01  0.21400037077E+01  0.84876356175E+01  0.51100000000E-03 0.  1.
         12    1    3    3    0    0  0.13767346914E+02  0.88499182221E+01  0.17415218658E+00  0.16367382887E+02  0.00000000000E+00 0. -1.
</event>
<event>
 7    1  0.3449452E-011  0.5052886E+02  0.7816164E-02  0.1300439E+00
        -11   -1    0    0    0    0  0.00000000000E+00  0.00000000000E+00  0.45593999997E+02  0.45594000000E+02  0.51100000000E-03 0.  1.
         11   -1    0    0    0    0 -0.00000000000E+00 -0.00000000000E+00 -0.45593999997E+02  0.45594000000E+02  0.51100000000E-03 0. -1.
    9900012    2    1    2    0    0  0.27873272802E+02  0.11603026464E+02 -0.27232632112E+02  0.50528858205E+02  0.29999994998E+02 0.  0.
        -12    1    1    2    0    0 -0.27873272802E+02 -0.11603026464E+02  0.27232632112E+02  0.40659141795E+02  0.00000000000E+00 0.  1.
         11    1    3    3    0    0  0.70669018762E+01  0.14925169645E+02 -0.33213177189E+01  0.16844374215E+02  0.51100000000E-03 0. -1.
        -11    1    3    3    0    0  0.23149922404E+01 -0.25671961610E+01 -0.11339343304E-01  0.34568503068E+01  0.51100000000E-03 0.  1.
         12    1    3    3    0    0  0.18491378685E+02 -0.75494701933E+00 -0.23899975049E+02  0.30227633683E+02  0.00000000000E+00 0. -1.
</event>
<event>
 7    1  0.3449452E-011  0.5052887E+02  0.7816164E-02  0.1300439E+00
        -11   -1    0    0    0    0  0.00000000000E+00  0.00000000000E+00  0.45593999997E+02  0.45594000000E+02  0.51100000000E-03 0. -1.
         11   -1    0    0    0    0 -0.00000000000E+00 -0.00000000000E+00 -0.45593999997E+02  0.45594000000E+02  0.51100000000E-03 0.  1.
    9900012    2    1    2    0    0 -0.11759984906E+01 -0.14663975801E+02  0.37904486491E+02  0.50528865050E+02  0.30000015806E+02 0.  0.
        -12    1    1    2    0    0  0.11759984906E+01  0.14663975801E+02 -0.37904486491E+02  0.40659134950E+02  0.00000000000E+00 0.  1.
         11    1    3    3    0    0  0.61650956998E+00 -0.77176537106E+01  0.37795819982E+02  0.38580646329E+02  0.51100000000E-03 0. -1.
        -11    1    3    3    0    0  0.29583571359E+01 -0.60638811248E+01  0.15161370157E+01  0.69152876260E+01  0.51100000000E-03 0.  1.
        -12    1    3    3    0    0 -0.47508651966E+01 -0.88244096607E+00 -0.14074705066E+01  0.50329310945E+01  0.00000000000E+00 0.  1.
</event>
<event>
 7    1  0.3449452E-011  0.5052886E+02  0.7816164E-02  0.1300439E+00
        -11   -1    0    0    0    0  0.00000000000E+00  0.00000000000E+00  0.45593999997E+02  0.45594000000E+02  0.51100000000E-03 0.  1.
         11   -1    0    0    0    0 -0.00000000000E+00 -0.00000000000E+00 -0.45593999997E+02  0.45594000000E+02  0.51100000000E-03 0. -1.
    9900012    2    1    2    0    0 -0.28397413876E+02 -0.11272745488E+02 -0.26826815719E+02  0.50528856535E+02  0.29999989925E+02 0.  0.
        -12    1    1    2    0    0  0.28397413876E+02  0.11272745488E+02  0.26826815719E+02  0.40659143465E+02  0.00000000000E+00 0.  1.
         11    1    3    3    0    0  0.88245293917E+00 -0.29400997999E+01 -0.11824649408E+02  0.12216597067E+02  0.51100000000E-03 0. -1.
        -11    1    3    3    0    0 -0.13326626101E+02 -0.12998970748E+02 -0.73726317238E+01  0.20023184126E+02  0.51100000000E-03 0.  1.
         12    1    3    3    0    0 -0.15953240715E+02  0.46663250608E+01 -0.76295345872E+01  0.18289075343E+02  0.00000000000E+00 0. -1.
</event>
<event>
 7    1  0.3449452E-011  0.5052890E+02  0.7816164E-02  0.1300439E+00
        -11   -1    0    0    0    0  0.00000000000E+00  0.00000000000E+00  0.45593999997E+02  0.45594000000E+02  0.51100000000E-03 0.  1.
         11   -1    0    0    0    0 -0.00000000000E+00 -0.00000000000E+00 -0.45593999997E+02  0.45594000000E+02  0.51100000000E-03 0. -1.
    9900012    2    1    2    0    0 -0.37939433526E+01  0.40204781150E+02  0.47269781878E+01  0.50528895776E+02  0.30000109200E+02 0.  0.
        -12    1    1    2    0    0  0.37939433526E+01 -0.40204781150E+02 -0.47269781878E+01  0.40659104224E+02  0.00000000000E+00 0.  1.
         11    1    3    3    0    0 -0.32402945431E+01  0.19384937160E+02  0.57756421030E+01  0.20484953975E+02  0.51100000000E-03 0. -1.
        -11    1    3    3    0    0  0.24701692223E+01 -0.94683109112E+00  0.63316236739E+01  0.68620466125E+01  0.51100000000E-03 0.  1.
         12    1    3    3    0    0 -0.30238180319E+01  0.21766675082E+02 -0.73802875891E+01  0.23181895188E+02  0.00000000000E+00 0. -1.
</event>
<event>
 7    1  0.3449452E-011  0.5052879E+02  0.7816164E-02  0.1300439E+00
        -11   -1    0    0    0    0  0.00000000000E+00  0.00000000000E+00  0.45593999997E+02  0.45594000000E+02  0.51100000000E-03 0. -1.
         11   -1    0    0    0    0 -0.00000000000E+00 -0.00000000000E+00 -0.45593999997E+02  0.45594000000E+02  0.51100000000E-03 0.  1.
    9900012    2    1    2    0    0  0.19629079793E+02 -0.12421695215E+02 -0.33370230962E+02  0.50528787022E+02  0.29999778632E+02 0.  0.
        -12    1    1    2    0    0 -0.19629079793E+02  0.12421695215E+02  0.33370230962E+02  0.40659212978E+02  0.00000000000E+00 0.  1.
         11    1    3    3    0    0  0.16133589029E+02 -0.96389966772E+01 -0.88906353761E+01  0.20790535095E+02  0.51100000000E-03 0. -1.
        -11    1    3    3    0    0  0.82007721893E+00 -0.83605983923E+01 -0.62019172668E+01  0.10442026152E+02  0.51100000000E-03 0.  1.
        -12    1    3    3    0    0  0.26754135452E+01  0.55778998544E+01 -0.18277678319E+02  0.19296225775E+02  0.00000000000E+00 0.  1.
</event>
<event>
 7    1  0.3449452E-011  0.5052886E+02  0.7816164E-02  0.1300439E+00
        -11   -1    0    0    0    0  0.00000000000E+00  0.00000000000E+00  0.45593999997E+02  0.45594000000E+02  0.51100000000E-03 0. -1.
         11   -1    0    0    0    0 -0.00000000000E+00 -0.00000000000E+00 -0.45593999997E+02  0.45594000000E+02  0.51100000000E-03 0.  1.
    9900012    2    1    2    0    0  0.23314859467E+02  0.30792099967E+02  0.12705507457E+02  0.50528855738E+02  0.29999987501E+02 0.  0.
        -12    1    1    2    0    0 -0.23314859467E+02 -0.30792099967E+02 -0.12705507457E+02  0.40659144262E+02  0.00000000000E+00 0.  1.
         11    1    3    3    0    0  0.25106230883E+01  0.16877023810E+02  0.22633691125E+01  0.17212205000E+02  0.51100000000E-03 0. -1.
        -11    1    3    3    0    0  0.23079864379E+02  0.11681683914E+02  0.40628383535E+01  0.26184891342E+02  0.51100000000E-03 0.  1.
         12    1    3    3    0    0 -0.22756280002E+01  0.22333922434E+01  0.63792999909E+01  0.71317593960E+01  0.00000000000E+00 0. -1.
</event>
<event>
 7    1  0.3449452E-011  0.5052886E+02  0.7816164E-02  0.1300439E+00
        -11   -1    0    0    0    0  0.00000000000E+00  0.00000000000E+00  0.45593999997E+02  0.45594000000E+02  0.51100000000E-03 0.  1.
         11   -1    0    0    0    0 -0.00000000000E+00 -0.00000000000E+00 -0.45593999997E+02  0.45594000000E+02  0.51100000000E-03 0. -1.
    9900012    2    1    2    0    0  0.12294193019E+02  0.69809455300E+01 -0.38121978401E+02  0.50528855645E+02  0.29999987217E+02 0.  0.
        -12    1    1    2    0    0 -0.12294193019E+02 -0.69809455300E+01  0.38121978401E+02  0.40659144355E+02  0.00000000000E+00 0.  1.
         11    1    3    3    0    0  0.72988007286E+01 -0.33937807589E+01 -0.36485842068E+02  0.37363175877E+02  0.51100000000E-03 0. -1.
        -11    1    3    3    0    0  0.38485043391E+01  0.53233428048E+01 -0.37582219516E+01  0.75679057054E+01  0.51100000000E-03 0.  1.
        -12    1    3    3    0    0  0.11468879517E+01  0.50513834841E+01  0.21220856189E+01  0.55977740622E+01  0.00000000000E+00 0.  1.
</event>
<event>
 7    1  0.3449452E-011  0.5052878E+02  0.7816164E-02  0.1300439E+00
        -11   -1    0    0    0    0  0.00000000000E+00  0.00000000000E+00  0.45593999997E+02  0.45594000000E+02  0.51100000000E-03 0.  1.
         11   -1    0    0    0    0 -0.00000000000E+00 -0.00000000000E+00 -0.45593999997E+02  0.45594000000E+02  0.51100000000E-03 0. -1.
    9900012    2    1    2    0    0 -0.81462359747E+01  0.25389371006E+02 -0.30695124515E+02  0.50528782231E+02  0.29999764068E+02 0.  0.
        -12    1    1    2    0    0  0.81462359747E+01 -0.25389371006E+02  0.30695124515E+02  0.40659217769E+02  0.00000000000E+00 0.  1.
         11    1    3    3    0    0 -0.10111925466E+02  0.10211973646E+01 -0.10018418203E+01  0.10212618077E+02  0.51100000000E-03 0. -1.
        -11    1    3    3    0    0 -0.98063067489E+00  0.90931198053E+01 -0.19986262213E+02  0.21979470918E+02  0.51100000000E-03 0.  1.
        -12    1    3    3    0    0  0.29463201664E+01  0.15275053836E+02 -0.97070204812E+01  0.18336693236E+02  0.00000000000E+00 0.  1.
</event>
<event>
 7    1  0.3449452E-011  0.5052886E+02  0.7816164E-02  0.1300439E+00
        -11   -1    0    0    0    0  0.00000000000E+00  0.00000000000E+00  0.45593999997E+02  0.45594000000E+02  0.51100000000E-03 0.  1.
         11   -1    0    0    0    0 -0.00000000000E+00 -0.00000000000E+00 -0.45593999997E+02  0.45594000000E+02  0.51100000000E-03 0. -1.
    9900012    2    1    2    0    0 -0.10726016493E+02 -0.31490560462E+02 -0.23376543597E+02  0.50528860578E+02  0.30000002213E+02 0.  0.
        -12    1    1    2    0    0  0.10726016493E+02  0.31490560462E+02  0.23376543597E+02  0.40659139422E+02  0.00000000000E+00 0.  1.
         11    1    3    3    0    0  0.20868686195E+00 -0.19610234961E+02  0.25327777110E+01  0.19774221315E+02  0.51100000000E-03 0. -1.
        -11    1    3    3    0    0 -0.16245815415E+01 -0.20719940536E+00 -0.24732613938E+01  0.29663477479E+01  0.51100000000E-03 0.  1.
         12    1    3    3    0    0 -0.93101218138E+01 -0.11673126095E+02 -0.23436059914E+02  0.27788291515E+02  0.00000000000E+00 0. -1.
</event>
<event>
 7    1  0.3449452E-011  0.5052888E+02  0.7816164E-02  0.1300439E+00
        -11   -1    0    0    0    0  0.00000000000E+00  0.00000000000E+00  0.45593999997E+02  0.45594000000E+02  0.51100000000E-03 0.  1.
         11   -1    0    0    0    0 -0.00000000000E+00 -0.00000000000E+00 -0.45593999997E+02  0.45594000000E+02  0.51100000000E-03 0. -1.
    9900012    2    1    2    0    0  0.29049673729E+02 -0.25410088071E+02  0.12790936376E+02  0.50528878356E+02  0.30000056249E+02 0.  0.
        -12    1    1    2    0    0 -0.29049673729E+02  0.25410088071E+02 -0.12790936376E+02  0.40659121644E+02  0.00000000000E+00 0.  1.
         11    1    3    3    0    0  0.10554093948E+02 -0.13147183466E+02  0.11657697725E+02  0.20497298570E+02  0.51100000000E-03 0. -1.
        -11    1    3    3    0    0  0.21778671396E+01  0.13287107696E+01  0.74504691089E+01  0.78751550963E+01  0.51100000000E-03 0.  1.
         12    1    3    3    0    0  0.16317712641E+02 -0.13591615375E+02 -0.63172304587E+01  0.22156424689E+02  0.00000000000E+00 0. -1.
</event>
<event>
 7    1  0.3449452E-011  0.5052887E+02  0.7816164E-02  0.1300439E+00
        -11   -1    0    0    0    0  0.00000000000E+00  0.00000000000E+00  0.45593999997E+02  0.45594000000E+02  0.51100000000E-03 0. -1.
         11   -1    0    0    0    0 -0.00000000000E+00 -0.00000000000E+00 -0.45593999997E+02  0.45594000000E+02  0.51100000000E-03 0.  1.
    9900012    2    1    2    0    0  0.10479477532E+01  0.20574809704E+02  0.35053444914E+02  0.50528868318E+02  0.30000025739E+02 0.  0.
        -12    1    1    2    0    0 -0.10479477532E+01 -0.20574809704E+02 -0.35053444914E+02  0.40659131682E+02  0.00000000000E+00 0.  1.
         11    1    3    3    0    0  0.72986664455E+01  0.12235163514E+02  0.20314044555E+02  0.24811895626E+02  0.51100000000E-03 0. -1.
        -11    1    3    3    0    0  0.44123075537E+01  0.59514781572E+00 -0.15947989505E+01  0.47292750845E+01  0.51100000000E-03 0.  1.
        -12    1    3    3    0    0 -0.10663026246E+02  0.77444983734E+01  0.16334199309E+02  0.20987697607E+02  0.00000000000E+00 0.  1.
</event>
<event>
 7    1  0.3449452E-011  0.5052886E+02  0.7816164E-02  0.1300439E+00
        -11   -1    0    0    0    0  0.00000000000E+00  0.00000000000E+00  0.45593999997E+02  0.45594000000E+02  0.51100000000E-03 0. -1.
         11   -1    0    0    0    0 -0.00000000000E+00 -0.00000000000E+00 -0.45593999997E+02  0.45594000000E+02  0.51100000000E-03 0.  1.
    9900012    2    1    2    0    0 -0.13968721310E+02  0.37085127797E+02  0.90958086452E+01  0.50528860638E+02  0.30000002394E+02 0.  0.
        -12    1    1    2    0    0  0.13968721310E+02 -0.37085127797E+02 -0.90958086452E+01  0.40659139362E+02  0.00000000000E+00 0.  1.
         11    1    3    3    0    0 -0.11714194831E+01  0.23527344212E+02  0.92160185290E+01  0.25295121013E+02  0.51100000000E-03 0. -1.
        -11    1    3    3    0    0 -0.72956218046E+01  0.15804247536E+02  0.41759354916E+01  0.17900803758E+02  0.51100000000E-03 0.  1.
        -12    1    3    3    0    0 -0.55016800223E+01 -0.22464639499E+01 -0.42961453754E+01  0.73329358672E+01  0.00000000000E+00 0.  1.
</event>
<event>
 7    1  0.3449452E-011  0.5052886E+02  0.7816164E-02  0.1300439E+00
        -11   -1    0    0    0    0  0.00000000000E+00  0.00000000000E+00  0.45593999997E+02  0.45594000000E+02  0.51100000000E-03 0. -1.
         11   -1    0    0    0    0 -0.00000000000E+00 -0.00000000000E+00 -0.45593999997E+02  0.45594000000E+02  0.51100000000E-03 0.  1.
    9900012    2    1    2    0    0  0.15419655729E+02 -0.32380401791E+02  0.19154882680E+02  0.50528859165E+02  0.29999997917E+02 0.  0.
        -12    1    1    2    0    0 -0.15419655729E+02  0.32380401791E+02 -0.19154882680E+02  0.40659140835E+02  0.00000000000E+00 0.  1.
         11    1    3    3    0    0  0.13960844809E+02 -0.25366389831E+02  0.13945125189E+00  0.28954764163E+02  0.51100000000E-03 0.  1.
        -11    1    3    3    0    0 -0.28120639512E+01 -0.15645425807E+01  0.50803062274E+01  0.60137350106E+01  0.51100000000E-03 0. -1.
        -12    1    3    3    0    0  0.42708748717E+01 -0.54494693799E+01  0.13935125201E+02  0.15560359991E+02  0.00000000000E+00 0.  1.
</event>
<event>
 7    1  0.3449452E-011  0.5052895E+02  0.7816164E-02  0.1300438E+00
        -11   -1    0    0    0    0  0.00000000000E+00  0.00000000000E+00  0.45593999997E+02  0.45594000000E+02  0.51100000000E-03 0.  1.
         11   -1    0    0    0    0 -0.00000000000E+00 -0.00000000000E+00 -0.45593999997E+02  0.45594000000E+02  0.51100000000E-03 0. -1.
    9900012    2    1    2    0    0 -0.11088083521E+02  0.32634029758E+02 -0.21569259747E+02  0.50528948603E+02  0.30000269773E+02 0.  0.
        -12    1    1    2    0    0  0.11088083521E+02 -0.32634029758E+02  0.21569259747E+02  0.40659051397E+02  0.00000000000E+00 0.  1.
         11    1    3    3    0    0 -0.47401983491E+01 -0.13533663865E+01 -0.31676169797E+01  0.58595971326E+01  0.51100000000E-03 0.  1.
        -11    1    3    3    0    0 -0.12328096908E+02  0.31963640517E+02 -0.16798911714E+02  0.38155729891E+02  0.51100000000E-03 0. -1.
         12    1    3    3    0    0  0.59802117362E+01  0.20237556274E+01 -0.16027310536E+01  0.65136215794E+01  0.00000000000E+00 0. -1.
</event>
<event>
 7    1  0.3449452E-011  0.5052887E+02  0.7816164E-02  0.1300439E+00
        -11   -1    0    0    0    0  0.00000000000E+00  0.00000000000E+00  0.45593999997E+02  0.45594000000E+02  0.51100000000E-03 0. -1.
         11   -1    0    0    0    0 -0.00000000000E+00 -0.00000000000E+00 -0.45593999997E+02  0.45594000000E+02  0.51100000000E-03 0.  1.
    9900012    2    1    2    0    0 -0.87296201659E+01  0.31483253747E+02 -0.24202549000E+02  0.50528869256E+02  0.30000028592E+02 0.  0.
        -12    1    1    2    0    0  0.87296201659E+01 -0.31483253747E+02  0.24202549000E+02  0.40659130744E+02  0.00000000000E+00 0.  1.
         11    1    3    3    0    0  0.20481469991E+01  0.15916379404E+00  0.96886848354E+00  0.22713312490E+01  0.51100000000E-03 0.  1.
        -11    1    3    3    0    0 -0.13354950006E+02  0.94228688263E+01 -0.23332114682E+01  0.16510270216E+02  0.51100000000E-03 0. -1.
         12    1    3    3    0    0  0.25771828413E+01  0.21901221127E+02 -0.22838206015E+02  0.31747267791E+02  0.00000000000E+00 0. -1.
</event>
<event>
 7    1  0.3449452E-011  0.5052886E+02  0.7816164E-02  0.1300439E+00
        -11   -1    0    0    0    0  0.00000000000E+00  0.00000000000E+00  0.45593999997E+02  0.45594000000E+02  0.51100000000E-03 0. -1.
         11   -1    0    0    0    0 -0.00000000000E+00 -0.00000000000E+00 -0.45593999997E+02  0.45594000000E+02  0.51100000000E-03 0.  1.
    9900012    2    1    2    0    0  0.11280595555E+02  0.17503539647E+02  0.34921912057E+02  0.50528859847E+02  0.29999999991E+02 0.  0.
        -12    1    1    2    0    0 -0.11280595555E+02 -0.17503539647E+02 -0.34921912057E+02  0.40659140153E+02  0.00000000000E+00 0.  1.
         11    1    3    3    0    0 -0.45312246931E+01  0.10780945339E+01  0.24367839821E-01  0.46577761964E+01  0.51100000000E-03 0.  1.
        -11    1    3    3    0    0  0.71679521591E+01  0.11663375213E+02  0.33127554735E+02  0.35844786825E+02  0.51100000000E-03 0. -1.
         12    1    3    3    0    0  0.86438680892E+01  0.47620698994E+01  0.17699894819E+01  0.10026296826E+02  0.00000000000E+00 0. -1.
</event>
<event>
 7    1  0.3449452E-011  0.5052886E+02  0.7816164E-02  0.1300439E+00
        -11   -1    0    0    0    0  0.00000000000E+00  0.00000000000E+00  0.45593999997E+02  0.45594000000E+02  0.51100000000E-03 0. -1.
         11   -1    0    0    0    0 -0.00000000000E+00 -0.00000000000E+00 -0.45593999997E+02  0.45594000000E+02  0.51100000000E-03 0.  1.
    9900012    2    1    2    0    0  0.25676647040E+02 -0.27044349576E+02  0.16201185778E+02  0.50528862431E+02  0.30000007846E+02 0.  0.
        -12    1    1    2    0    0 -0.25676647040E+02  0.27044349576E+02 -0.16201185778E+02  0.40659137569E+02  0.00000000000E+00 0.  1.
         11    1    3    3    0    0  0.48787252920E+01 -0.12900627681E+02  0.19070221957E+01  0.13923537228E+02  0.51100000000E-03 0. -1.
        -11    1    3    3    0    0  0.42574007420E+01 -0.16346140255E+02  0.56402691631E+01  0.17808267710E+02  0.51100000000E-03 0.  1.
        -12    1    3    3    0    0  0.16540521006E+02  0.22024183603E+01  0.86538944192E+01  0.18797057494E+02  0.00000000000E+00 0.  1.
</event>
<event>
 7    1  0.3449452E-011  0.5052885E+02  0.7816164E-02  0.1300439E+00
        -11   -1    0    0    0    0  0.00000000000E+00  0.00000000000E+00  0.45593999997E+02  0.45594000000E+02  0.51100000000E-03 0. -1.
         11   -1    0    0    0    0 -0.00000000000E+00 -0.00000000000E+00 -0.45593999997E+02  0.45594000000E+02  0.51100000000E-03 0.  1.
    9900012    2    1    2    0    0 -0.29860948293E+02  0.16346727734E+02  0.22232286210E+02  0.50528852312E+02  0.29999977089E+02 0.  0.
        -12    1    1    2    0    0  0.29860948293E+02 -0.16346727734E+02 -0.22232286210E+02  0.40659147688E+02  0.00000000000E+00 0.  1.
         11    1    3    3    0    0 -0.23014933922E+02  0.75972358628E+01 -0.75550226060E+00  0.24248215607E+02  0.51100000000E-03 0. -1.
        -11    1    3    3    0    0  0.93699550645E+00  0.10430671890E+01  0.10203211104E+01  0.17340718466E+01  0.51100000000E-03 0.  1.
         12    1    3    3    0    0 -0.77830098769E+01  0.77064246824E+01  0.21967467361E+02  0.24546564859E+02  0.00000000000E+00 0. -1.
</event>
<event>
 7    1  0.3449452E-011  0.5052889E+02  0.7816164E-02  0.1300439E+00
        -11   -1    0    0    0    0  0.00000000000E+00  0.00000000000E+00  0.45593999997E+02  0.45594000000E+02  0.51100000000E-03 0.  1.
         11   -1    0    0    0    0 -0.00000000000E+00 -0.00000000000E+00 -0.45593999997E+02  0.45594000000E+02  0.51100000000E-03 0. -1.
    9900012    2    1    2    0    0  0.25462568296E+02 -0.12331550918E+02 -0.29201945118E+02  0.50528891168E+02  0.30000095195E+02 0.  0.
        -12    1    1    2    0    0 -0.25462568296E+02  0.12331550918E+02  0.29201945118E+02  0.40659108832E+02  0.00000000000E+00 0.  1.
         11    1    3    3    0    0  0.67640302817E+01 -0.94580413858E+01  0.11597227179E+01  0.11685529922E+02  0.51100000000E-03 0.  1.
        -11    1    3    3    0    0  0.46687042604E+01 -0.78916747771E+01 -0.94613133733E+01  0.13175423381E+02  0.51100000000E-03 0. -1.
        -12    1    3    3    0    0  0.14029833754E+02  0.50181652453E+01 -0.20900354463E+02  0.25667937866E+02  0.00000000000E+00 0.  1.
</event>
<event>
 7    1  0.3449452E-011  0.5052886E+02  0.7816164E-02  0.1300439E+00
        -11   -1    0    0    0    0  0.00000000000E+00  0.00000000000E+00  0.45593999997E+02  0.45594000000E+02  0.51100000000E-03 0.  1.
         11   -1    0    0    0    0 -0.00000000000E+00 -0.00000000000E+00 -0.45593999997E+02  0.45594000000E+02  0.51100000000E-03 0. -1.
    9900012    2    1    2    0    0  0.10916625483E+02 -0.34982532520E+02 -0.17612927519E+02  0.50528861922E+02  0.30000006297E+02 0.  0.
        -12    1    1    2    0    0 -0.10916625483E+02  0.34982532520E+02  0.17612927519E+02  0.40659138078E+02  0.00000000000E+00 0.  1.
         11    1    3    3    0    0  0.11648526983E+02 -0.14271642113E+02 -0.10805156221E+02  0.21356950875E+02  0.51100000000E-03 0. -1.
        -11    1    3    3    0    0 -0.33712657077E+01 -0.43061474501E+01 -0.10780099658E+02  0.12087964561E+02  0.51100000000E-03 0.  1.
         12    1    3    3    0    0  0.26393642076E+01 -0.16404742957E+02  0.39723283599E+01  0.17083946485E+02  0.00000000000E+00 0. -1.
</event>
<event>
 7    1  0.3449452E-011  0.5052893E+02  0.7816164E-02  0.1300439E+00
        -11   -1    0    0    0    0  0.00000000000E+00  0.00000000000E+00  0.45593999997E+02  0.45594000000E+02  0.51100000000E-03 0. -1.
         11   -1    0    0    0    0 -0.00000000000E+00 -0.00000000000E+00 -0.45593999997E+02  0.45594000000E+02  0.51100000000E-03 0.  1.
    9900012    2    1    2    0    0  0.37186740254E+02  0.26059313711E+01  0.16233160771E+02  0.50528929208E+02  0.30000210819E+02 0.  0.
        -12    1    1    2    0    0 -0.37186740254E+02 -0.26059313711E+01 -0.16233160771E+02  0.40659070792E+02  0.00000000000E+00 0.  1.
         11    1    3    3    0    0  0.30260757412E+02  0.79131623785E+01  0.10688076696E+02  0.33053994641E+02  0.51100000000E-03 0. -1.
        -11    1    3    3    0    0  0.27795549851E+01  0.46856930828E+01  0.34682886272E+01  0.64583799706E+01  0.51100000000E-03 0.  1.
         12    1    3    3    0    0  0.41464278571E+01 -0.99929240902E+01  0.20767954483E+01  0.11016554597E+02  0.00000000000E+00 0. -1.
</event>
<event>
 7    1  0.3449452E-011  0.5052886E+02  0.7816164E-02  0.1300439E+00
        -11   -1    0    0    0    0  0.00000000000E+00  0.00000000000E+00  0.45593999997E+02  0.45594000000E+02  0.51100000000E-03 0.  1.
         11   -1    0    0    0    0 -0.00000000000E+00 -0.00000000000E+00 -0.45593999997E+02  0.45594000000E+02  0.51100000000E-03 0. -1.
    9900012    2    1    2    0    0 -0.11491641252E+02 -0.34789562109E+02 -0.17629346117E+02  0.50528864557E+02  0.30000014308E+02 0.  0.
        -12    1    1    2    0    0  0.11491641252E+02  0.34789562109E+02  0.17629346117E+02  0.40659135443E+02  0.00000000000E+00 0.  1.
         11    1    3    3    0    0 -0.33813365234E+01 -0.18842443676E+01 -0.83228576880E+01  0.91789854492E+01  0.51100000000E-03 0. -1.
        -11    1    3    3    0    0 -0.36924263839E+01 -0.12163942033E+00  0.42222356132E+01  0.56103549428E+01  0.51100000000E-03 0.  1.
         12    1    3    3    0    0 -0.44178783451E+01 -0.32783678321E+02 -0.13528724043E+02  0.35739524165E+02  0.00000000000E+00 0. -1.
</event>
<event>
 7    1  0.3449452E-011  0.5052887E+02  0.7816164E-02  0.1300439E+00
        -11   -1    0    0    0    0  0.00000000000E+00  0.00000000000E+00  0.45593999997E+02  0.45594000000E+02  0.51100000000E-03 0.  1.
         11   -1    0    0    0    0 -0.00000000000E+00 -0.00000000000E+00 -0.45593999997E+02  0.45594000000E+02  0.51100000000E-03 0. -1.
    9900012    2    1    2    0    0  0.49703584567E+01  0.13234840737E+01 -0.40332475082E+02  0.50528872863E+02  0.30000039556E+02 0.  0.
        -12    1    1    2    0    0 -0.49703584567E+01 -0.13234840737E+01  0.40332475082E+02  0.40659127137E+02  0.00000000000E+00 0.  1.
         11    1    3    3    0    0  0.38159607103E+01  0.13523251418E+00 -0.22703870889E+02  0.23022719161E+02  0.51100000000E-03 0. -1.
        -11    1    3    3    0    0 -0.79523596206E+01  0.65029274943E+01 -0.64016534601E+01  0.12104100826E+02  0.51100000000E-03 0.  1.
         12    1    3    3    0    0  0.91067573671E+01 -0.53146759348E+01 -0.11226950733E+02  0.15402052876E+02  0.00000000000E+00 0. -1.
</event>
<event>
 7    1  0.3449452E-011  0.5052886E+02  0.7816164E-02  0.1300439E+00
        -11   -1    0    0    0    0  0.00000000000E+00  0.00000000000E+00  0.45593999997E+02  0.45594000000E+02  0.51100000000E-03 0.  1.
         11   -1    0    0    0    0 -0.00000000000E+00 -0.00000000000E+00 -0.45593999997E+02  0.45594000000E+02  0.51100000000E-03 0. -1.
    9900012    2    1    2    0    0 -0.24820675607E+01 -0.13278664732E+02 -0.38349473585E+02  0.50528859322E+02  0.29999998396E+02 0.  0.
        -12    1    1    2    0    0  0.24820675607E+01  0.13278664732E+02  0.38349473585E+02  0.40659140678E+02  0.00000000000E+00 0.  1.
         11    1    3    3    0    0 -0.93982967099E+01 -0.39538650327E+01 -0.17289509066E+02  0.20072073977E+02  0.51100000000E-03 0. -1.
        -11    1    3    3    0    0 -0.46063136384E+01 -0.48320405149E+01 -0.80446903882E+00  0.67241290565E+01  0.51100000000E-03 0.  1.
         12    1    3    3    0    0  0.11522542788E+02 -0.44927591839E+01 -0.20255495480E+02  0.23732656289E+02  0.00000000000E+00 0. -1.
</event>
<event>
 7    1  0.6766573E-011  0.5052886E+02  0.7816164E-02  0.1300439E+00
        -11   -1    0    0    0    0  0.00000000000E+00  0.00000000000E+00  0.45593999997E+02  0.45594000000E+02  0.51100000000E-03 0.  1.
         11   -1    0    0    0    0 -0.00000000000E+00 -0.00000000000E+00 -0.45593999997E+02  0.45594000000E+02  0.51100000000E-03 0. -1.
    9900012    2    1    2    0    0  0.31285966300E+02  0.23653391399E+02  0.10717791226E+02  0.50528860058E+02  0.30000000634E+02 0.  0.
        -12    1    1    2    0    0 -0.31285966300E+02 -0.23653391399E+02 -0.10717791226E+02  0.40659139942E+02  0.00000000000E+00 0.  1.
         11    1    3    3    0    0  0.24649502248E+02  0.20541667581E+02  0.10921940071E+02  0.33894643283E+02  0.51100000000E-03 0. -1.
        -11    1    3    3    0    0  0.13366778649E+01  0.59685071932E+01  0.55843765770E+01  0.82822127384E+01  0.51100000000E-03 0.  1.
        -12    1    3    3    0    0  0.52997861867E+01 -0.28567833749E+01 -0.57885254218E+01  0.83520040370E+01  0.00000000000E+00 0.  1.
</event>
<event>
 7    1  0.3449452E-011  0.5052885E+02  0.7816164E-02  0.1300439E+00
        -11   -1    0    0    0    0  0.00000000000E+00  0.00000000000E+00  0.45593999997E+02  0.45594000000E+02  0.51100000000E-03 0.  1.
         11   -1    0    0    0    0 -0.00000000000E+00 -0.00000000000E+00 -0.45593999997E+02  0.45594000000E+02  0.51100000000E-03 0. -1.
    9900012    2    1    2    0    0  0.16527889537E+02 -0.33714403805E+02 -0.15599167658E+02  0.50528853574E+02  0.29999980922E+02 0.  0.
        -12    1    1    2    0    0 -0.16527889537E+02  0.33714403805E+02  0.15599167658E+02  0.40659146426E+02  0.00000000000E+00 0.  1.
         11    1    3    3    0    0 -0.64987857207E+01 -0.93585750065E+01 -0.52484710145E+01  0.12544464526E+02  0.51100000000E-03 0. -1.
        -11    1    3    3    0    0  0.27578522936E+01 -0.17347331005E+01  0.33419603095E+01  0.46673062011E+01  0.51100000000E-03 0.  1.
         12    1    3    3    0    0  0.20268822964E+02 -0.22621095698E+02 -0.13692656953E+02  0.33317082846E+02  0.00000000000E+00 0. -1.
</event>
<event>
 7    1  0.3449452E-011  0.5052886E+02  0.7816164E-02  0.1300439E+00
        -11   -1    0    0    0    0  0.00000000000E+00  0.00000000000E+00  0.45593999997E+02  0.45594000000E+02  0.51100000000E-03 0.  1.
         11   -1    0    0    0    0 -0.00000000000E+00 -0.00000000000E+00 -0.45593999997E+02  0.45594000000E+02  0.51100000000E-03 0. -1.
    9900012    2    1    2    0    0  0.24433713734E+02 -0.17157173607E+02 -0.27600561504E+02  0.50528856277E+02  0.29999989138E+02 0.  0.
        -12    1    1    2    0    0 -0.24433713734E+02  0.17157173607E+02  0.27600561504E+02  0.40659143723E+02  0.00000000000E+00 0.  1.
         11    1    3    3    0    0  0.36810011338E+00  0.17008043020E+01 -0.14556670293E+02  0.14660316615E+02  0.51100000000E-03 0. -1.
        -11    1    3    3    0    0 -0.36734259536E+00 -0.37465202424E+01  0.99433489534E+00  0.38935917421E+01  0.51100000000E-03 0.  1.
        -12    1    3    3    0    0  0.24432956215E+02 -0.15111457667E+02 -0.14038226106E+02  0.31974947919E+02  0.00000000000E+00 0.  1.
</event>
<event>
 7    1  0.3449452E-011  0.5052899E+02  0.7816164E-02  0.1300438E+00
        -11   -1    0    0    0    0  0.00000000000E+00  0.00000000000E+00  0.45593999997E+02  0.45594000000E+02  0.51100000000E-03 0. -1.
         11   -1    0    0    0    0 -0.00000000000E+00 -0.00000000000E+00 -0.45593999997E+02  0.45594000000E+02  0.51100000000E-03 0.  1.
    9900012    2    1    2    0    0 -0.78637833786E+01  0.35731487324E+02 -0.17736314971E+02  0.50528989386E+02  0.30000393735E+02 0.  0.
        -12    1    1    2    0    0  0.78637833786E+01 -0.35731487324E+02  0.17736314971E+02  0.40659010614E+02  0.00000000000E+00 0.  1.
         11    1    3    3    0    0 -0.62180595938E+01  0.27111536984E+02 -0.20311740176E+02  0.34442219615E+02  0.51100000000E-03 0. -1.
        -11    1    3    3    0    0 -0.14989846575E+01 -0.21399286059E+01 -0.29909868551E+01  0.39714294744E+01  0.51100000000E-03 0.  1.
         12    1    3    3    0    0 -0.14673912731E+00  0.10759878945E+02  0.55664120599E+01  0.12115340297E+02  0.00000000000E+00 0. -1.
</event>
<event>
 7    1  0.3449452E-011  0.5052884E+02  0.7816164E-02  0.1300439E+00
        -11   -1    0    0    0    0  0.00000000000E+00  0.00000000000E+00  0.45593999997E+02  0.45594000000E+02  0.51100000000E-03 0. -1.
         11   -1    0    0    0    0 -0.00000000000E+00 -0.00000000000E+00 -0.45593999997E+02  0.45594000000E+02  0.51100000000E-03 0.  1.
    9900012    2    1    2    0    0 -0.72281899021E+01  0.35865518833E+02  0.17736547389E+02  0.50528840100E+02  0.29999939969E+02 0.  0.
        -12    1    1    2    0    0  0.72281899021E+01 -0.35865518833E+02 -0.17736547389E+02  0.40659159900E+02  0.00000000000E+00 0.  1.
         11    1    3    3    0    0  0.23798918482E+01  0.51311824693E+01  0.13244855820E+02  0.14402052794E+02  0.51100000000E-03 0.  1.
        -11    1    3    3    0    0  0.37361682664E+01  0.96860671559E+01 -0.15141166094E+01  0.10491491773E+02  0.51100000000E-03 0. -1.
        -12    1    3    3    0    0 -0.13344250017E+02  0.21048269208E+02  0.60058081790E+01  0.25635295533E+02  0.00000000000E+00 0.  1.
</event>
<event>
 7    1  0.3568868E-011  0.5052893E+02  0.7816164E-02  0.1300439E+00
        -11   -1    0    0    0    0  0.00000000000E+00  0.00000000000E+00  0.45593999997E+02  0.45594000000E+02  0.51100000000E-03 0. -1.
         11   -1    0    0    0    0 -0.00000000000E+00 -0.00000000000E+00 -0.45593999997E+02  0.45594000000E+02  0.51100000000E-03 0.  1.
    9900012    2    1    2    0    0 -0.87093670921E+01 -0.19039859934E+00  0.39714870603E+02  0.50528926305E+02  0.30000201995E+02 0.  0.
        -12    1    1    2    0    0  0.87093670921E+01  0.19039859934E+00 -0.39714870603E+02  0.40659073695E+02  0.00000000000E+00 0.  1.
         11    1    3    3    0    0  0.43500120463E+01  0.11437570663E+01  0.12788757239E+02  0.13556662458E+02  0.51100000000E-03 0. -1.
        -11    1    3    3    0    0 -0.12992460670E+01  0.42129242068E+01 -0.23084199904E+01  0.49765021679E+01  0.51100000000E-03 0.  1.
         12    1    3    3    0    0 -0.11760133071E+02 -0.55470798724E+01  0.29234533354E+02  0.31995761679E+02  0.00000000000E+00 0. -1.
</event>
<event>
 7    1  0.3449452E-011  0.5052886E+02  0.7816164E-02  0.1300439E+00
        -11   -1    0    0    0    0  0.00000000000E+00  0.00000000000E+00  0.45593999997E+02  0.45594000000E+02  0.51100000000E-03 0.  1.
         11   -1    0    0    0    0 -0.00000000000E+00 -0.00000000000E+00 -0.45593999997E+02  0.45594000000E+02  0.51100000000E-03 0. -1.
    9900012    2    1    2    0    0  0.10821176496E+02  0.39169249056E+02  0.13555727563E+01  0.50528861914E+02  0.30000006275E+02 0.  0.
        -12    1    1    2    0    0 -0.10821176496E+02 -0.39169249056E+02 -0.13555727563E+01  0.40659138086E+02  0.00000000000E+00 0.  1.
         11    1    3    3    0    0 -0.36243479892E+01  0.14827053076E+02  0.72222695754E+00  0.15280674505E+02  0.51100000000E-03 0. -1.
        -11    1    3    3    0    0  0.44311913862E+01  0.10874544713E+02  0.10523311536E+02  0.15768045717E+02  0.51100000000E-03 0.  1.
        -12    1    3    3    0    0  0.10014333099E+02  0.13467651267E+02 -0.98899657369E+01  0.19480141692E+02  0.00000000000E+00 0.  1.
</event>
<event>
 7    1  0.3449452E-011  0.5052886E+02  0.7816164E-02  0.1300439E+00
        -11   -1    0    0    0    0  0.00000000000E+00  0.00000000000E+00  0.45593999997E+02  0.45594000000E+02  0.51100000000E-03 0.  1.
         11   -1    0    0    0    0 -0.00000000000E+00 -0.00000000000E+00 -0.45593999997E+02  0.45594000000E+02  0.51100000000E-03 0. -1.
    9900012    2    1    2    0    0  0.19778652650E+02  0.43451825758E+01 -0.35257479800E+02  0.50528860879E+02  0.30000003127E+02 0.  0.
        -12    1    1    2    0    0 -0.19778652650E+02 -0.43451825758E+01  0.35257479800E+02  0.40659139121E+02  0.00000000000E+00 0.  1.
         11    1    3    3    0    0  0.74396586132E+01  0.46022265954E+00 -0.67719295808E+01  0.10070717734E+02  0.51100000000E-03 0. -1.
        -11    1    3    3    0    0  0.19753260204E+02  0.61227237010E+01 -0.23213924926E+02  0.31089634043E+02  0.51100000000E-03 0.  1.
         12    1    3    3    0    0 -0.74142661673E+01 -0.22377637848E+01 -0.52716252928E+01  0.93685091015E+01  0.00000000000E+00 0. -1.
</event>
<event>
 7    1  0.3449452E-011  0.5052886E+02  0.7816164E-02  0.1300439E+00
        -11   -1    0    0    0    0  0.00000000000E+00  0.00000000000E+00  0.45593999997E+02  0.45594000000E+02  0.51100000000E-03 0.  1.
         11   -1    0    0    0    0 -0.00000000000E+00 -0.00000000000E+00 -0.45593999997E+02  0.45594000000E+02  0.51100000000E-03 0. -1.
    9900012    2    1    2    0    0 -0.14864548839E+02  0.30726945394E+00 -0.37843312983E+02  0.50528861246E+02  0.30000004244E+02 0.  0.
        -12    1    1    2    0    0  0.14864548839E+02 -0.30726945394E+00  0.37843312983E+02  0.40659138754E+02  0.00000000000E+00 0.  1.
         11    1    3    3    0    0  0.64917233344E+01  0.53262681496E+00 -0.96194879652E+01  0.11617259236E+02  0.51100000000E-03 0. -1.
        -11    1    3    3    0    0 -0.15421462827E+02  0.60513444134E+01 -0.11749333366E+02  0.20309778919E+02  0.51100000000E-03 0.  1.
         12    1    3    3    0    0 -0.59348093458E+01 -0.62767017744E+01 -0.16474491652E+02  0.18601823091E+02  0.00000000000E+00 0. -1.
</event>
<event>
 7    1  0.3449452E-011  0.5052887E+02  0.7816164E-02  0.1300439E+00
        -11   -1    0    0    0    0  0.00000000000E+00  0.00000000000E+00  0.45593999997E+02  0.45594000000E+02  0.51100000000E-03 0.  1.
         11   -1    0    0    0    0 -0.00000000000E+00 -0.00000000000E+00 -0.45593999997E+02  0.45594000000E+02  0.51100000000E-03 0. -1.
    9900012    2    1    2    0    0 -0.23990397235E+02 -0.17205554681E+02 -0.27957008313E+02  0.50528873285E+02  0.30000040838E+02 0.  0.
        -12    1    1    2    0    0  0.23990397235E+02  0.17205554681E+02  0.27957008313E+02  0.40659126715E+02  0.00000000000E+00 0.  1.
         11    1    3    3    0    0 -0.10739892464E+02 -0.10952177115E+02 -0.95756648204E+01  0.18082832486E+02  0.51100000000E-03 0.  1.
        -11    1    3    3    0    0 -0.11355450477E+02  0.69395954275E+01 -0.10590056711E+02  0.17007455472E+02  0.51100000000E-03 0. -1.
         12    1    3    3    0    0 -0.18950542940E+01 -0.13192972994E+02 -0.77912867817E+01  0.15438585327E+02  0.00000000000E+00 0. -1.
</event>
<event>
 7    1  0.3449452E-011  0.5052886E+02  0.7816164E-02  0.1300439E+00
        -11   -1    0    0    0    0  0.00000000000E+00  0.00000000000E+00  0.45593999997E+02  0.45594000000E+02  0.51100000000E-03 0.  1.
         11   -1    0    0    0    0 -0.00000000000E+00 -0.00000000000E+00 -0.45593999997E+02  0.45594000000E+02  0.51100000000E-03 0. -1.
    9900012    2    1    2    0    0 -0.31041795269E+02 -0.25960068091E+02  0.39556895185E+01  0.50528859965E+02  0.30000000351E+02 0.  0.
        -12    1    1    2    0    0  0.31041795269E+02  0.25960068091E+02 -0.39556895185E+01  0.40659140035E+02  0.00000000000E+00 0.  1.
         11    1    3    3    0    0 -0.10279195458E+02 -0.32066218078E+01 -0.67532222314E+01  0.12710243642E+02  0.51100000000E-03 0. -1.
        -11    1    3    3    0    0  0.78249457116E+00  0.27608685406E+01  0.64923157710E+00  0.29421411853E+01  0.51100000000E-03 0.  1.
        -12    1    3    3    0    0 -0.21545094382E+02 -0.25514314824E+02  0.10059680173E+02  0.34876475138E+02  0.00000000000E+00 0.  1.
</event>
<event>
 7    1  0.3449452E-011  0.5052885E+02  0.7816164E-02  0.1300439E+00
        -11   -1    0    0    0    0  0.00000000000E+00  0.00000000000E+00  0.45593999997E+02  0.45594000000E+02  0.51100000000E-03 0. -1.
         11   -1    0    0    0    0 -0.00000000000E+00 -0.00000000000E+00 -0.45593999997E+02  0.45594000000E+02  0.51100000000E-03 0.  1.
    9900012    2    1    2    0    0  0.43554707903E+01 -0.29587182387E+02 -0.27546231202E+02  0.50528851696E+02  0.29999975215E+02 0.  0.
        -12    1    1    2    0    0 -0.43554707903E+01  0.29587182387E+02  0.27546231202E+02  0.40659148304E+02  0.00000000000E+00 0.  1.
         11    1    3    3    0    0 -0.14245058501E+01 -0.17693162904E+02 -0.58577621419E+01  0.18691993153E+02  0.51100000000E-03 0. -1.
        -11    1    3    3    0    0  0.32453214487E+01 -0.16613327024E+02 -0.20039371604E+02  0.26231872992E+02  0.51100000000E-03 0.  1.
         12    1    3    3    0    0  0.25346551917E+01  0.47193075412E+01 -0.16490974558E+01  0.56049855511E+01  0.00000000000E+00 0. -1.
</event>
<event>
 7    1  0.3449452E-011  0.5052885E+02  0.7816164E-02  0.1300439E+00
        -11   -1    0    0    0    0  0.00000000000E+00  0.00000000000E+00  0.45593999997E+02  0.45594000000E+02  0.51100000000E-03 0. -1.
         11   -1    0    0    0    0 -0.00000000000E+00 -0.00000000000E+00 -0.45593999997E+02  0.45594000000E+02  0.51100000000E-03 0.  1.
    9900012    2    1    2    0    0  0.10073866424E+02  0.82580420288E+01  0.38516080808E+02  0.50528849447E+02  0.29999968379E+02 0.  0.
        -12    1    1    2    0    0 -0.10073866424E+02 -0.82580420288E+01 -0.38516080808E+02  0.40659150553E+02  0.00000000000E+00 0.  1.
         11    1    3    3    0    0  0.37941410758E+01  0.33660291596E+01 -0.37819435513E+01  0.63268282806E+01  0.51100000000E-03 0.  1.
        -11    1    3    3    0    0  0.33509918873E+01 -0.28238772403E+01  0.11179552920E+02  0.12007740547E+02  0.51100000000E-03 0. -1.
         12    1    3    3    0    0  0.29287334606E+01  0.77158901095E+01  0.31118471440E+02  0.32194280619E+02  0.00000000000E+00 0. -1.
</event>
<event>
 7    1  0.3449452E-011  0.5052886E+02  0.7816164E-02  0.1300439E+00
        -11   -1    0    0    0    0  0.00000000000E+00  0.00000000000E+00  0.45593999997E+02  0.45594000000E+02  0.51100000000E-03 0.  1.
         11   -1    0    0    0    0 -0.00000000000E+00 -0.00000000000E+00 -0.45593999997E+02  0.45594000000E+02  0.51100000000E-03 0. -1.
    9900012    2    1    2    0    0 -0.26171853836E+02  0.75030096677E+01 -0.30197762809E+02  0.50528856305E+02  0.29999989226E+02 0.  0.
        -12    1    1    2    0    0  0.26171853836E+02 -0.75030096677E+01  0.30197762809E+02  0.40659143695E+02  0.00000000000E+00 0.  1.
         11    1    3    3    0    0 -0.27159499140E+02 -0.18480349685E+01 -0.26368736363E+02  0.37899391610E+02  0.51100000000E-03 0. -1.
        -11    1    3    3    0    0 -0.51738073372E+00 -0.10949029188E+00  0.15537191989E+01  0.16412539590E+01  0.51100000000E-03 0.  1.
        -12    1    3    3    0    0  0.15050260376E+01  0.94605349281E+01 -0.53827456453E+01  0.10988210736E+02  0.00000000000E+00 0.  1.
</event>
<event>
 7    1  0.3449452E-011  0.5052886E+02  0.7816164E-02  0.1300439E+00
        -11   -1    0    0    0    0  0.00000000000E+00  0.00000000000E+00  0.45593999997E+02  0.45594000000E+02  0.51100000000E-03 0. -1.
         11   -1    0    0    0    0 -0.00000000000E+00 -0.00000000000E+00 -0.45593999997E+02  0.45594000000E+02  0.51100000000E-03 0.  1.
    9900012    2    1    2    0    0 -0.26111714961E+02 -0.29474446769E+02 -0.10129205123E+02  0.50528862442E+02  0.30000007880E+02 0.  0.
        -12    1    1    2    0    0  0.26111714961E+02  0.29474446769E+02  0.10129205123E+02  0.40659137558E+02  0.00000000000E+00 0.  1.
         11    1    3    3    0    0 -0.12980422562E+02 -0.85451491139E+01  0.65544122169E+01  0.16866275909E+02  0.51100000000E-03 0.  1.
        -11    1    3    3    0    0 -0.66974602040E+01 -0.20510461338E+02 -0.83723488794E+01  0.23143708076E+02  0.51100000000E-03 0. -1.
        -12    1    3    3    0    0 -0.64338321941E+01 -0.41883631626E+00 -0.83112684608E+01  0.10518878457E+02  0.00000000000E+00 0.  1.
</event>
<event>
 7    1  0.3449452E-011  0.5052888E+02  0.7816164E-02  0.1300439E+00
        -11   -1    0    0    0    0  0.00000000000E+00  0.00000000000E+00  0.45593999997E+02  0.45594000000E+02  0.51100000000E-03 0. -1.
         11   -1    0    0    0    0 -0.00000000000E+00 -0.00000000000E+00 -0.45593999997E+02  0.45594000000E+02  0.51100000000E-03 0.  1.
    9900012    2    1    2    0    0  0.71345427556E+01 -0.39388195508E+02  0.71296797026E+01  0.50528880747E+02  0.30000063519E+02 0.  0.
        -12    1    1    2    0    0 -0.71345427556E+01  0.39388195508E+02 -0.71296797026E+01  0.40659119253E+02  0.00000000000E+00 0.  1.
         11    1    3    3    0    0  0.70018663424E+01 -0.23373132607E+02 -0.37778663823E+01  0.24690114111E+02  0.51100000000E-03 0. -1.
        -11    1    3    3    0    0  0.26096804956E+01 -0.19080675611E+02  0.76371982172E+01  0.20717369788E+02  0.51100000000E-03 0.  1.
        -12    1    3    3    0    0 -0.24770040823E+01  0.30656127092E+01  0.32703478677E+01  0.51213968488E+01  0.00000000000E+00 0.  1.
</event>
<event>
 7    1  0.3449452E-011  0.5052888E+02  0.7816164E-02  0.1300439E+00
        -11   -1    0    0    0    0  0.00000000000E+00  0.00000000000E+00  0.45593999997E+02  0.45594000000E+02  0.51100000000E-03 0.  1.
         11   -1    0    0    0    0 -0.00000000000E+00 -0.00000000000E+00 -0.45593999997E+02  0.45594000000E+02  0.51100000000E-03 0. -1.
    9900012    2    1    2    0    0 -0.35428080884E+02 -0.17235702506E+02  0.10047186775E+02  0.50528876570E+02  0.30000050822E+02 0.  0.
        -12    1    1    2    0    0  0.35428080884E+02  0.17235702506E+02 -0.10047186775E+02  0.40659123430E+02  0.00000000000E+00 0.  1.
         11    1    3    3    0    0 -0.26163371786E+02 -0.13289970205E+02  0.11572250286E+01  0.29368086442E+02  0.51100000000E-03 0. -1.
        -11    1    3    3    0    0 -0.49575409766E+01  0.49207897025E+01 -0.11631939198E+01  0.70812713680E+01  0.51100000000E-03 0.  1.
         12    1    3    3    0    0 -0.43071681217E+01 -0.88665220030E+01  0.10053155666E+02  0.14079518760E+02  0.00000000000E+00 0. -1.
</event>
<event>
 7    1  0.3449452E-011  0.5052885E+02  0.7816164E-02  0.1300439E+00
        -11   -1    0    0    0    0  0.00000000000E+00  0.00000000000E+00  0.45593999997E+02  0.45594000000E+02  0.51100000000E-03 0.  1.
         11   -1    0    0    0    0 -0.00000000000E+00 -0.00000000000E+00 -0.45593999997E+02  0.45594000000E+02  0.51100000000E-03 0. -1.
    9900012    2    1    2    0    0  0.63752636871E+01  0.39661294805E+02 -0.62852049005E+01  0.50528854739E+02  0.29999984465E+02 0.  0.
        -12    1    1    2    0    0 -0.63752636871E+01 -0.39661294805E+02  0.62852049005E+01  0.40659145261E+02  0.00000000000E+00 0.  1.
         11    1    3    3    0    0 -0.26404657428E-02  0.19099782439E+02  0.88298832624E+00  0.19120182134E+02  0.51100000000E-03 0. -1.
        -11    1    3    3    0    0  0.27790458978E+01  0.82787223120E+01  0.78037757918E+01  0.11711501018E+02  0.51100000000E-03 0.  1.
         12    1    3    3    0    0  0.35988582550E+01  0.12282790054E+02 -0.14971969019E+02  0.19697171587E+02  0.00000000000E+00 0. -1.
</event>
<event>
 7    1  0.3449452E-011  0.5052886E+02  0.7816164E-02  0.1300439E+00
        -11   -1    0    0    0    0  0.00000000000E+00  0.00000000000E+00  0.45593999997E+02  0.45594000000E+02  0.51100000000E-03 0.  1.
         11   -1    0    0    0    0 -0.00000000000E+00 -0.00000000000E+00 -0.45593999997E+02  0.45594000000E+02  0.51100000000E-03 0. -1.
    9900012    2    1    2    0    0  0.16310473263E+02  0.63467728312E+01 -0.36699489849E+02  0.50528860577E+02  0.30000002211E+02 0.  0.
        -12    1    1    2    0    0 -0.16310473263E+02 -0.63467728312E+01  0.36699489849E+02  0.40659139423E+02  0.00000000000E+00 0.  1.
         11    1    3    3    0    0  0.10074679645E+01 -0.70596326898E+00 -0.47997810766E+01  0.49549242660E+01  0.51100000000E-03 0. -1.
        -11    1    3    3    0    0  0.14909702218E+02  0.28236099166E+01 -0.19209827183E+01  0.15295821915E+02  0.51100000000E-03 0.  1.
         12    1    3    3    0    0  0.39330308041E+00  0.42291261836E+01 -0.29978726054E+02  0.30278114396E+02  0.00000000000E+00 0. -1.
</event>
<event>
 7    1  0.3449452E-011  0.5052886E+02  0.7816164E-02  0.1300439E+00
        -11   -1    0    0    0    0  0.00000000000E+00  0.00000000000E+00  0.45593999997E+02  0.45594000000E+02  0.51100000000E-03 0.  1.
         11   -1    0    0    0    0 -0.00000000000E+00 -0.00000000000E+00 -0.45593999997E+02  0.45594000000E+02  0.51100000000E-03 0. -1.
    9900012    2    1    2    0    0 -0.14982067728E+02  0.22779042623E+02 -0.30163203998E+02  0.50528855744E+02  0.29999987519E+02 0.  0.
        -12    1    1    2    0    0  0.14982067728E+02 -0.22779042623E+02  0.30163203998E+02  0.40659144256E+02  0.00000000000E+00 0.  1.
         11    1    3    3    0    0 -0.96697586747E+00  0.14591891784E+02 -0.16221222804E+02  0.21840018720E+02  0.51100000000E-03 0. -1.
        -11    1    3    3    0    0  0.82001637057E+00 -0.11348561393E+01 -0.10797686205E+02  0.10888083070E+02  0.51100000000E-03 0.  1.
        -12    1    3    3    0    0 -0.14835108231E+02  0.93220069784E+01 -0.31442949887E+01  0.17800753953E+02  0.00000000000E+00 0.  1.
</event>
<event>
 7    1  0.3449452E-011  0.5052885E+02  0.7816164E-02  0.1300439E+00
        -11   -1    0    0    0    0  0.00000000000E+00  0.00000000000E+00  0.45593999997E+02  0.45594000000E+02  0.51100000000E-03 0. -1.
         11   -1    0    0    0    0 -0.00000000000E+00 -0.00000000000E+00 -0.45593999997E+02  0.45594000000E+02  0.51100000000E-03 0.  1.
    9900012    2    1    2    0    0 -0.19589573383E+02  0.22221817727E+02  0.27849697738E+02  0.50528853028E+02  0.29999979265E+02 0.  0.
        -12    1    1    2    0    0  0.19589573383E+02 -0.22221817727E+02 -0.27849697738E+02  0.40659146972E+02  0.00000000000E+00 0.  1.
         11    1    3    3    0    0 -0.26378988902E+01 -0.35436430323E+01  0.36630706508E+01  0.57388155005E+01  0.51100000000E-03 0.  1.
        -11    1    3    3    0    0 -0.55625805085E+01  0.16979035654E+02  0.24595052590E+02  0.30399779042E+02  0.51100000000E-03 0. -1.
        -12    1    3    3    0    0 -0.11389093984E+02  0.87864251048E+01 -0.40842550263E+00  0.14390258486E+02  0.00000000000E+00 0.  1.
</event>
<event>
 7    1  0.3449452E-011  0.5052887E+02  0.7816164E-02  0.1300439E+00
        -11   -1    0    0    0    0  0.00000000000E+00  0.00000000000E+00  0.45593999997E+02  0.45594000000E+02  0.51100000000E-03 0.  1.
         11   -1    0    0    0    0 -0.00000000000E+00 -0.00000000000E+00 -0.45593999997E+02  0.45594000000E+02  0.51100000000E-03 0. -1.
    9900012    2    1    2    0    0  0.85908800932E+01 -0.84264611762E+01 -0.38837560111E+02  0.50528873791E+02  0.30000042374E+02 0.  0.
        -12    1    1    2    0    0 -0.85908800932E+01  0.84264611762E+01  0.38837560111E+02  0.40659126209E+02  0.00000000000E+00 0.  1.
         11    1    3    3    0    0  0.40511168636E+01  0.41061625481E+01 -0.96088407107E+01  0.11207227078E+02  0.51100000000E-03 0. -1.
        -11    1    3    3    0    0  0.22649831412E+01 -0.99927862298E+01 -0.36032470896E+00  0.10252597691E+02  0.51100000000E-03 0.  1.
         12    1    3    3    0    0  0.22747800884E+01 -0.25398374945E+01 -0.28868394691E+02  0.29069049021E+02  0.00000000000E+00 0. -1.
</event>
<event>
 7    1  0.3449452E-011  0.5052886E+02  0.7816164E-02  0.1300439E+00
        -11   -1    0    0    0    0  0.00000000000E+00  0.00000000000E+00  0.45593999997E+02  0.45594000000E+02  0.51100000000E-03 0.  1.
         11   -1    0    0    0    0 -0.00000000000E+00 -0.00000000000E+00 -0.45593999997E+02  0.45594000000E+02  0.51100000000E-03 0. -1.
    9900012    2    1    2    0    0 -0.78580221432E-01 -0.36372479102E+02 -0.18171473672E+02  0.50528857531E+02  0.29999992951E+02 0.  0.
        -12    1    1    2    0    0  0.78580221432E-01  0.36372479102E+02  0.18171473672E+02  0.40659142469E+02  0.00000000000E+00 0.  1.
         11    1    3    3    0    0  0.53818373722E+01 -0.48079859116E+01  0.64332713812E+01  0.96678789273E+01  0.51100000000E-03 0. -1.
        -11    1    3    3    0    0  0.35292697655E+00 -0.66127152237E+01 -0.26928520813E+01  0.71487070630E+01  0.51100000000E-03 0.  1.
         12    1    3    3    0    0 -0.58133445702E+01 -0.24951777967E+02 -0.21911892972E+02  0.33712271541E+02  0.00000000000E+00 0. -1.
</event>
<event>
 7    1  0.3449452E-011  0.5052885E+02  0.7816164E-02  0.1300439E+00
        -11   -1    0    0    0    0  0.00000000000E+00  0.00000000000E+00  0.45593999997E+02  0.45594000000E+02  0.51100000000E-03 0. -1.
         11   -1    0    0    0    0 -0.00000000000E+00 -0.00000000000E+00 -0.45593999997E+02  0.45594000000E+02  0.51100000000E-03 0.  1.
    9900012    2    1    2    0    0 -0.25491329102E+02 -0.20245887225E+02  0.24361086347E+02  0.50528851743E+02  0.29999975359E+02 0.  0.
        -12    1    1    2    0    0  0.25491329102E+02  0.20245887225E+02 -0.24361086347E+02  0.40659148257E+02  0.00000000000E+00 0.  1.
         11    1    3    3    0    0 -0.21597417332E+02 -0.19701073814E+02  0.14195722066E+02  0.32497680995E+02  0.51100000000E-03 0. -1.
        -11    1    3    3    0    0 -0.84319345165E+01 -0.40065407376E+00  0.19794549585E+01  0.86704259163E+01  0.51100000000E-03 0.  1.
        -12    1    3    3    0    0  0.45380227467E+01 -0.14415933800E+00  0.81859093229E+01  0.93607448319E+01  0.00000000000E+00 0.  1.
</event>
<event>
 7    1  0.3449452E-011  0.5052888E+02  0.7816164E-02  0.1300439E+00
        -11   -1    0    0    0    0  0.00000000000E+00  0.00000000000E+00  0.45593999997E+02  0.45594000000E+02  0.51100000000E-03 0.  1.
         11   -1    0    0    0    0 -0.00000000000E+00 -0.00000000000E+00 -0.45593999997E+02  0.45594000000E+02  0.51100000000E-03 0. -1.
    9900012    2    1    2    0    0 -0.83895699390E+01 -0.39607725653E+02  0.37426487397E+01  0.50528877595E+02  0.30000053938E+02 0.  0.
        -12    1    1    2    0    0  0.83895699390E+01  0.39607725653E+02 -0.37426487397E+01  0.40659122405E+02  0.00000000000E+00 0.  1.
         11    1    3    3    0    0 -0.11718035671E+02 -0.10480682199E+02  0.35368066031E+01  0.16114157147E+02  0.51100000000E-03 0.  1.
        -11    1    3    3    0    0 -0.34704003321E+01 -0.20533082462E+02  0.64526566939E+01  0.21801099342E+02  0.51100000000E-03 0. -1.
         12    1    3    3    0    0  0.67988660643E+01 -0.85939609921E+01 -0.62468145572E+01  0.12613621106E+02  0.00000000000E+00 0. -1.
</event>
<event>
 7    1  0.3449452E-011  0.5052886E+02  0.7816164E-02  0.1300439E+00
        -11   -1    0    0    0    0  0.00000000000E+00  0.00000000000E+00  0.45593999997E+02  0.45594000000E+02  0.51100000000E-03 0.  1.
         11   -1    0    0    0    0 -0.00000000000E+00 -0.00000000000E+00 -0.45593999997E+02  0.45594000000E+02  0.51100000000E-03 0. -1.
    9900012    2    1    2    0    0 -0.39013779453E+02 -0.69864046108E+00 -0.11428150212E+02  0.50528859540E+02  0.29999999057E+02 0.  0.
        -12    1    1    2    0    0  0.39013779453E+02  0.69864046108E+00  0.11428150212E+02  0.40659140460E+02  0.00000000000E+00 0.  1.
         11    1    3    3    0    0 -0.42032152604E+01  0.22445368206E+01  0.95502577551E-01  0.47659296121E+01  0.51100000000E-03 0. -1.
        -11    1    3    3    0    0 -0.16042738002E+02  0.46325586383E+01  0.72064189583E+01  0.18186877594E+02  0.51100000000E-03 0.  1.
         12    1    3    3    0    0 -0.18767826190E+02 -0.75757359200E+01 -0.18730071748E+02  0.27576052334E+02  0.00000000000E+00 0. -1.
</event>
<event>
 7    1  0.3449452E-011  0.5052887E+02  0.7816164E-02  0.1300439E+00
        -11   -1    0    0    0    0  0.00000000000E+00  0.00000000000E+00  0.45593999997E+02  0.45594000000E+02  0.51100000000E-03 0.  1.
         11   -1    0    0    0    0 -0.00000000000E+00 -0.00000000000E+00 -0.45593999997E+02  0.45594000000E+02  0.51100000000E-03 0. -1.
    9900012    2    1    2    0    0 -0.33955587424E+01  0.32950447011E+02 -0.23577600906E+02  0.50528867669E+02  0.30000023767E+02 0.  0.
        -12    1    1    2    0    0  0.33955587424E+01 -0.32950447011E+02  0.23577600906E+02  0.40659132331E+02  0.00000000000E+00 0.  1.
         11    1    3    3    0    0  0.80707387454E+00  0.27315670823E+02 -0.12578752981E+02  0.30083588010E+02  0.51100000000E-03 0. -1.
        -11    1    3    3    0    0  0.54795834143E+01  0.43496048961E+01 -0.22954993196E+01  0.73630302548E+01  0.51100000000E-03 0.  1.
         12    1    3    3    0    0 -0.96822160312E+01  0.12851712922E+01 -0.87033486062E+01  0.13082249405E+02  0.00000000000E+00 0. -1.
</event>
<event>
 7    1  0.3449452E-011  0.5052887E+02  0.7816164E-02  0.1300439E+00
        -11   -1    0    0    0    0  0.00000000000E+00  0.00000000000E+00  0.45593999997E+02  0.45594000000E+02  0.51100000000E-03 0. -1.
         11   -1    0    0    0    0 -0.00000000000E+00 -0.00000000000E+00 -0.45593999997E+02  0.45594000000E+02  0.51100000000E-03 0.  1.
    9900012    2    1    2    0    0 -0.11899551967E+02  0.17746488869E+02  0.34592311930E+02  0.50528865124E+02  0.30000016030E+02 0.  0.
        -12    1    1    2    0    0  0.11899551967E+02 -0.17746488869E+02 -0.34592311930E+02  0.40659134876E+02  0.00000000000E+00 0.  1.
         11    1    3    3    0    0 -0.55186331683E+01 -0.59700804001E+01  0.43948053441E+01  0.92418334925E+01  0.51100000000E-03 0. -1.
        -11    1    3    3    0    0  0.27437535443E+01  0.44869333112E+01  0.13369762006E+01  0.54266250721E+01  0.51100000000E-03 0.  1.
         12    1    3    3    0    0 -0.91246723435E+01  0.19229635958E+02  0.28860530386E+02  0.35860406559E+02  0.00000000000E+00 0. -1.
</event>
<event>
 7    1  0.3449452E-011  0.5052887E+02  0.7816164E-02  0.1300439E+00
        -11   -1    0    0    0    0  0.00000000000E+00  0.00000000000E+00  0.45593999997E+02  0.45594000000E+02  0.51100000000E-03 0. -1.
         11   -1    0    0    0    0 -0.00000000000E+00 -0.00000000000E+00 -0.45593999997E+02  0.45594000000E+02  0.51100000000E-03 0.  1.
    9900012    2    1    2    0    0  0.48949979852E+01  0.39360054565E+02 -0.89436990856E+01  0.50528872440E+02  0.30000038269E+02 0.  0.
        -12    1    1    2    0    0 -0.48949979852E+01 -0.39360054565E+02  0.89436990856E+01  0.40659127560E+02  0.00000000000E+00 0.  1.
         11    1    3    3    0    0  0.70457318551E+01  0.75757983256E+01  0.52871112547E+01  0.11618459593E+02  0.51100000000E-03 0.  1.
        -11    1    3    3    0    0  0.74133669669E+01  0.17121113126E+02 -0.63100579908E+01  0.19695363834E+02  0.51100000000E-03 0. -1.
        -12    1    3    3    0    0 -0.95641008368E+01  0.14663143113E+02 -0.79207523494E+01  0.19215049013E+02  0.00000000000E+00 0.  1.
</event>
<event>
 7    1  0.3449452E-011  0.5052884E+02  0.7816164E-02  0.1300439E+00
        -11   -1    0    0    0    0  0.00000000000E+00  0.00000000000E+00  0.45593999997E+02  0.45594000000E+02  0.51100000000E-03 0.  1.
         11   -1    0    0    0    0 -0.00000000000E+00 -0.00000000000E+00 -0.45593999997E+02  0.45594000000E+02  0.51100000000E-03 0. -1.
    9900012    2    1    2    0    0  0.36130957237E+02 -0.90528243085E+01  0.16302388953E+02  0.50528836404E+02  0.29999928733E+02 0.  0.
        -12    1    1    2    0    0 -0.36130957237E+02  0.90528243085E+01 -0.16302388953E+02  0.40659163596E+02  0.00000000000E+00 0.  1.
         11    1    3    3    0    0  0.22218576074E+02 -0.14330736914E+02  0.11328318539E+02  0.28763969553E+02  0.51100000000E-03 0. -1.
        -11    1    3    3    0    0  0.14056995390E+02 -0.42487776702E+00  0.70025095053E+01  0.15710339912E+02  0.51100000000E-03 0.  1.
        -12    1    3    3    0    0 -0.14461422765E+00  0.57027903723E+01 -0.20284390918E+01  0.60545269390E+01  0.00000000000E+00 0.  1.
</event>
<event>
 7    1  0.3449452E-011  0.5052887E+02  0.7816164E-02  0.1300439E+00
        -11   -1    0    0    0    0  0.00000000000E+00  0.00000000000E+00  0.45593999997E+02  0.45594000000E+02  0.51100000000E-03 0.  1.
         11   -1    0    0    0    0 -0.00000000000E+00 -0.00000000000E+00 -0.45593999997E+02  0.45594000000E+02  0.51100000000E-03 0. -1.
    9900012    2    1    2    0    0  0.31480261843E+02 -0.18879600452E+02 -0.17484817894E+02  0.50528867499E+02  0.30000023250E+02 0.  0.
        -12    1    1    2    0    0 -0.31480261843E+02  0.18879600452E+02  0.17484817894E+02  0.40659132501E+02  0.00000000000E+00 0.  1.
         11    1    3    3    0    0  0.92365901370E+01 -0.14259315433E+02 -0.80166844507E+01  0.18785896407E+02  0.51100000000E-03 0. -1.
        -11    1    3    3    0    0  0.70902846674E+01 -0.86194514634E+01 -0.11397882129E+02  0.15952391591E+02  0.51100000000E-03 0.  1.
        -12    1    3    3    0    0  0.15153387039E+02  0.39991664440E+01  0.19297486851E+01  0.15790579501E+02  0.00000000000E+00 0.  1.
</event>
<event>
 7    1  0.3449452E-011  0.5052885E+02  0.7816164E-02  0.1300439E+00
        -11   -1    0    0    0    0  0.00000000000E+00  0.00000000000E+00  0.45593999997E+02  0.45594000000E+02  0.51100000000E-03 0.  1.
         11   -1    0    0    0    0 -0.00000000000E+00 -0.00000000000E+00 -0.45593999997E+02  0.45594000000E+02  0.51100000000E-03 0. -1.
    9900012    2    1    2    0    0 -0.69502703363E+01 -0.93630679189E+01 -0.38951160318E+02  0.50528853566E+02  0.29999980901E+02 0.  0.
        -12    1    1    2    0    0  0.69502703363E+01  0.93630679189E+01  0.38951160318E+02  0.40659146434E+02  0.00000000000E+00 0.  1.
         11    1    3    3    0    0 -0.27932270663E+01 -0.50574591432E+01 -0.82527332292E+01  0.10074106235E+02  0.51100000000E-03 0.  1.
        -11    1    3    3    0    0  0.33470357556E+01  0.89938667024E+01 -0.18757833091E+02  0.21070087545E+02  0.51100000000E-03 0. -1.
         12    1    3    3    0    0 -0.75040790257E+01 -0.13299475478E+02 -0.11940593998E+02  0.19384659786E+02  0.00000000000E+00 0. -1.
</event>
<event>
 7    1  0.3449452E-011  0.5052884E+02  0.7816164E-02  0.1300439E+00
        -11   -1    0    0    0    0  0.00000000000E+00  0.00000000000E+00  0.45593999997E+02  0.45594000000E+02  0.51100000000E-03 0.  1.
         11   -1    0    0    0    0 -0.00000000000E+00 -0.00000000000E+00 -0.45593999997E+02  0.45594000000E+02  0.51100000000E-03 0. -1.
    9900012    2    1    2    0    0 -0.30971305300E+02  0.21270629730E+02 -0.15540470185E+02  0.50528835539E+02  0.29999926104E+02 0.  0.
        -12    1    1    2    0    0  0.30971305300E+02 -0.21270629730E+02  0.15540470185E+02  0.40659164461E+02  0.00000000000E+00 0.  1.
         11    1    3    3    0    0 -0.16200433464E+02  0.51931961075E+01 -0.49496677266E+00  0.17019645196E+02  0.51100000000E-03 0. -1.
        -11    1    3    3    0    0 -0.11251355025E+02  0.17816462662E+01  0.13526696195E+01  0.11471572197E+02  0.51100000000E-03 0.  1.
         12    1    3    3    0    0 -0.35195168105E+01  0.14295787356E+02 -0.16398173032E+02  0.22037618145E+02  0.00000000000E+00 0. -1.
</event>
<event>
 7    1  0.3449452E-011  0.5052886E+02  0.7816164E-02  0.1300439E+00
        -11   -1    0    0    0    0  0.00000000000E+00  0.00000000000E+00  0.45593999997E+02  0.45594000000E+02  0.51100000000E-03 0. -1.
         11   -1    0    0    0    0 -0.00000000000E+00 -0.00000000000E+00 -0.45593999997E+02  0.45594000000E+02  0.51100000000E-03 0.  1.
    9900012    2    1    2    0    0 -0.33147240359E+01  0.34862546033E+02 -0.20658689802E+02  0.50528856186E+02  0.29999988862E+02 0.  0.
        -12    1    1    2    0    0  0.33147240359E+01 -0.34862546033E+02  0.20658689802E+02  0.40659143814E+02  0.00000000000E+00 0.  1.
         11    1    3    3    0    0 -0.74618784724E+01  0.12519242150E+02 -0.40050125646E+01  0.15114601558E+02  0.51100000000E-03 0. -1.
        -11    1    3    3    0    0 -0.49136938663E+01 -0.10157958003E+01 -0.68917627597E+01  0.85248239112E+01  0.51100000000E-03 0.  1.
        -12    1    3    3    0    0  0.90608483028E+01  0.23359099684E+02 -0.97619144778E+01  0.26889430717E+02  0.00000000000E+00 0.  1.
</event>
<event>
 7    1  0.3449452E-011  0.5052890E+02  0.7816164E-02  0.1300439E+00
        -11   -1    0    0    0    0  0.00000000000E+00  0.00000000000E+00  0.45593999997E+02  0.45594000000E+02  0.51100000000E-03 0.  1.
         11   -1    0    0    0    0 -0.00000000000E+00 -0.00000000000E+00 -0.45593999997E+02  0.45594000000E+02  0.51100000000E-03 0. -1.
    9900012    2    1    2    0    0  0.29562481475E+02 -0.68844838997E+01 -0.27052283702E+02  0.50528899137E+02  0.30000119416E+02 0.  0.
        -12    1    1    2    0    0 -0.29562481475E+02  0.68844838997E+01  0.27052283702E+02  0.40659100863E+02  0.00000000000E+00 0.  1.
         11    1    3    3    0    0  0.15839775578E+01 -0.31083082222E+00  0.20686231361E+01  0.26238907454E+01  0.51100000000E-03 0. -1.
        -11    1    3    3    0    0  0.19047857835E+02  0.78084879222E+01 -0.12004559984E+02  0.23830711957E+02  0.51100000000E-03 0.  1.
         12    1    3    3    0    0  0.89306460823E+01 -0.14382141000E+02 -0.17116346854E+02  0.24074296434E+02  0.00000000000E+00 0. -1.
</event>
<event>
 7    1  0.3449452E-011  0.5052887E+02  0.7816164E-02  0.1300439E+00
        -11   -1    0    0    0    0  0.00000000000E+00  0.00000000000E+00  0.45593999997E+02  0.45594000000E+02  0.51100000000E-03 0. -1.
         11   -1    0    0    0    0 -0.00000000000E+00 -0.00000000000E+00 -0.45593999997E+02  0.45594000000E+02  0.51100000000E-03 0.  1.
    9900012    2    1    2    0    0  0.31651679840E+02  0.23385259682E+02  0.10220840458E+02  0.50528870807E+02  0.30000033305E+02 0.  0.
        -12    1    1    2    0    0 -0.31651679840E+02 -0.23385259682E+02 -0.10220840458E+02  0.40659129193E+02  0.00000000000E+00 0.  1.
         11    1    3    3    0    0  0.13357597006E+02  0.83711609350E+01  0.42564916727E+01  0.16328485992E+02  0.51100000000E-03 0. -1.
        -11    1    3    3    0    0  0.13871807038E+02 -0.32660841308E+01  0.58162691262E+01  0.15392313759E+02  0.51100000000E-03 0.  1.
         12    1    3    3    0    0  0.44222757957E+01  0.18280182878E+02  0.14807965891E+00  0.18808071056E+02  0.00000000000E+00 0. -1.
</event>
<event>
 7    1  0.3449452E-011  0.5052887E+02  0.7816164E-02  0.1300439E+00
        -11   -1    0    0    0    0  0.00000000000E+00  0.00000000000E+00  0.45593999997E+02  0.45594000000E+02  0.51100000000E-03 0.  1.
         11   -1    0    0    0    0 -0.00000000000E+00 -0.00000000000E+00 -0.45593999997E+02  0.45594000000E+02  0.51100000000E-03 0. -1.
    9900012    2    1    2    0    0 -0.16887308582E+02  0.70598522772E+00 -0.36979529342E+02  0.50528865766E+02  0.30000017984E+02 0.  0.
        -12    1    1    2    0    0  0.16887308582E+02 -0.70598522772E+00  0.36979529342E+02  0.40659134234E+02  0.00000000000E+00 0.  1.
         11    1    3    3    0    0 -0.23932789886E+01  0.10482025587E+01  0.14499219796E+01  0.29881075833E+01  0.51100000000E-03 0. -1.
        -11    1    3    3    0    0  0.55139204502E+01 -0.44187578421E+01 -0.62711152193E+01  0.94475195662E+01  0.51100000000E-03 0.  1.
         12    1    3    3    0    0 -0.20007950043E+02  0.40765405112E+01 -0.32158336102E+02  0.38093238617E+02  0.00000000000E+00 0. -1.
</event>
<event>
 7    1  0.3449452E-011  0.5052887E+02  0.7816164E-02  0.1300439E+00
        -11   -1    0    0    0    0  0.00000000000E+00  0.00000000000E+00  0.45593999997E+02  0.45594000000E+02  0.51100000000E-03 0.  1.
         11   -1    0    0    0    0 -0.00000000000E+00 -0.00000000000E+00 -0.45593999997E+02  0.45594000000E+02  0.51100000000E-03 0. -1.
    9900012    2    1    2    0    0 -0.21044217187E+01 -0.99149667010E+01 -0.39375497957E+02  0.50528868249E+02  0.30000025528E+02 0.  0.
        -12    1    1    2    0    0  0.21044217187E+01  0.99149667010E+01  0.39375497957E+02  0.40659131751E+02  0.00000000000E+00 0.  1.
         11    1    3    3    0    0 -0.80176240036E+01  0.37318395150E+01 -0.32984016023E+01  0.94386637942E+01  0.51100000000E-03 0.  1.
        -11    1    3    3    0    0  0.28839155241E+00 -0.67144732455E+00 -0.18571566113E+02  0.18585937678E+02  0.51100000000E-03 0. -1.
        -12    1    3    3    0    0  0.56248107326E+01 -0.12975358891E+02 -0.17505530241E+02  0.22504266777E+02  0.00000000000E+00 0.  1.
</event>
<event>
 7    1  0.3449452E-011  0.5052886E+02  0.7816164E-02  0.1300439E+00
        -11   -1    0    0    0    0  0.00000000000E+00  0.00000000000E+00  0.45593999997E+02  0.45594000000E+02  0.51100000000E-03 0.  1.
         11   -1    0    0    0    0 -0.00000000000E+00 -0.00000000000E+00 -0.45593999997E+02  0.45594000000E+02  0.51100000000E-03 0. -1.
    9900012    2    1    2    0    0 -0.36727999431E+02 -0.56662988989E+01 -0.16495844344E+02  0.50528858764E+02  0.29999996700E+02 0.  0.
        -12    1    1    2    0    0  0.36727999431E+02  0.56662988989E+01  0.16495844344E+02  0.40659141236E+02  0.00000000000E+00 0.  1.
         11    1    3    3    0    0 -0.31129540107E+02 -0.10464071756E+02 -0.16568702112E+02  0.36784058435E+02  0.51100000000E-03 0. -1.
        -11    1    3    3    0    0 -0.37495534451E+00 -0.32935147360E+01 -0.20300264753E+01  0.38870089501E+01  0.51100000000E-03 0.  1.
        -12    1    3    3    0    0 -0.52235039795E+01  0.80912875932E+01  0.21028842435E+01  0.98577913795E+01  0.00000000000E+00 0.  1.
</event>
<event>
 7    1  0.3449452E-011  0.5052886E+02  0.7816164E-02  0.1300439E+00
        -11   -1    0    0    0    0  0.00000000000E+00  0.00000000000E+00  0.45593999997E+02  0.45594000000E+02  0.51100000000E-03 0.  1.
         11   -1    0    0    0    0 -0.00000000000E+00 -0.00000000000E+00 -0.45593999997E+02  0.45594000000E+02  0.51100000000E-03 0. -1.
    9900012    2    1    2    0    0 -0.37042176086E+02 -0.15662565043E+02  0.59771916458E+01  0.50528861140E+02  0.30000003920E+02 0.  0.
        -12    1    1    2    0    0  0.37042176086E+02  0.15662565043E+02 -0.59771916458E+01  0.40659138860E+02  0.00000000000E+00 0.  1.
         11    1    3    3    0    0 -0.21090520464E+02 -0.13158555478E+02  0.20677076899E+00  0.24859613636E+02  0.51100000000E-03 0. -1.
        -11    1    3    3    0    0 -0.96955365806E+01 -0.26763206700E+01 -0.64436104600E+01  0.11945134488E+02  0.51100000000E-03 0.  1.
        -12    1    3    3    0    0 -0.62561190411E+01  0.17231110557E+00  0.12214031337E+02  0.13724113016E+02  0.00000000000E+00 0.  1.
</event>
<event>
 7    1  0.3449452E-011  0.5052880E+02  0.7816164E-02  0.1300439E+00
        -11   -1    0    0    0    0  0.00000000000E+00  0.00000000000E+00  0.45593999997E+02  0.45594000000E+02  0.51100000000E-03 0.  1.
         11   -1    0    0    0    0 -0.00000000000E+00 -0.00000000000E+00 -0.45593999997E+02  0.45594000000E+02  0.51100000000E-03 0. -1.
    9900012    2    1    2    0    0 -0.16914151862E+02  0.49199817249E+01 -0.36645265510E+02  0.50528803775E+02  0.29999829553E+02 0.  0.
        -12    1    1    2    0    0  0.16914151862E+02 -0.49199817249E+01  0.36645265510E+02  0.40659196225E+02  0.00000000000E+00 0.  1.
         11    1    3    3    0    0 -0.12407171395E+02  0.50272447055E+01 -0.18304918450E+02  0.22677767330E+02  0.51100000000E-03 0. -1.
        -11    1    3    3    0    0 -0.67820772820E+01  0.36699780678E+01 -0.21224580452E+02  0.22582031063E+02  0.51100000000E-03 0.  1.
        -12    1    3    3    0    0  0.22750968150E+01 -0.37772410484E+01  0.28842333920E+01  0.52690053819E+01  0.00000000000E+00 0.  1.
</event>
<event>
 7    1  0.3449452E-011  0.5052887E+02  0.7816164E-02  0.1300439E+00
        -11   -1    0    0    0    0  0.00000000000E+00  0.00000000000E+00  0.45593999997E+02  0.45594000000E+02  0.51100000000E-03 0.  1.
         11   -1    0    0    0    0 -0.00000000000E+00 -0.00000000000E+00 -0.45593999997E+02  0.45594000000E+02  0.51100000000E-03 0. -1.
    9900012    2    1    2    0    0  0.20199059390E+02 -0.88290983767E+01 -0.34164451680E+02  0.50528871419E+02  0.30000035165E+02 0.  0.
        -12    1    1    2    0    0 -0.20199059390E+02  0.88290983767E+01  0.34164451680E+02  0.40659128581E+02  0.00000000000E+00 0.  1.
         11    1    3    3    0    0 -0.32349713622E+01  0.27566558760E+00 -0.56087852950E+01  0.64807024293E+01  0.51100000000E-03 0. -1.
        -11    1    3    3    0    0  0.22846259280E+01 -0.79107906335E+01  0.31465425301E+00  0.82400929387E+01  0.51100000000E-03 0.  1.
         12    1    3    3    0    0  0.21149404825E+02 -0.11939733308E+01 -0.28870320638E+02  0.35808076051E+02  0.00000000000E+00 0. -1.
</event>
<event>
 7    1  0.3449452E-011  0.5052886E+02  0.7816164E-02  0.1300439E+00
        -11   -1    0    0    0    0  0.00000000000E+00  0.00000000000E+00  0.45593999997E+02  0.45594000000E+02  0.51100000000E-03 0.  1.
         11   -1    0    0    0    0 -0.00000000000E+00 -0.00000000000E+00 -0.45593999997E+02  0.45594000000E+02  0.51100000000E-03 0. -1.
    9900012    2    1    2    0    0  0.87900482387E+01 -0.19496207420E+02 -0.34580324324E+02  0.50528857336E+02  0.29999992359E+02 0.  0.
        -12    1    1    2    0    0 -0.87900482387E+01  0.19496207420E+02  0.34580324324E+02  0.40659142664E+02  0.00000000000E+00 0.  1.
         11    1    3    3    0    0  0.12178741528E+02 -0.38543667414E+01 -0.13735033298E+02  0.18757106071E+02  0.51100000000E-03 0. -1.
        -11    1    3    3    0    0  0.11222255804E+01 -0.11662364755E+02 -0.22642051618E+02  0.25493776567E+02  0.51100000000E-03 0.  1.
        -12    1    3    3    0    0 -0.45109188702E+01 -0.39794759243E+01  0.17967605918E+01  0.62779746982E+01  0.00000000000E+00 0.  1.
</event>
<event>
 7    1  0.3449452E-011  0.5052886E+02  0.7816164E-02  0.1300439E+00
        -11   -1    0    0    0    0  0.00000000000E+00  0.00000000000E+00  0.45593999997E+02  0.45594000000E+02  0.51100000000E-03 0. -1.
         11   -1    0    0    0    0 -0.00000000000E+00 -0.00000000000E+00 -0.45593999997E+02  0.45594000000E+02  0.51100000000E-03 0.  1.
    9900012    2    1    2    0    0 -0.15034647008E+02 -0.15834061279E+02  0.34298799757E+02  0.50528858691E+02  0.29999996477E+02 0.  0.
        -12    1    1    2    0    0  0.15034647008E+02  0.15834061279E+02 -0.34298799757E+02  0.40659141309E+02  0.00000000000E+00 0.  1.
         11    1    3    3    0    0 -0.11758102957E+02 -0.89884319384E+01  0.69227680138E+01  0.16339204726E+02  0.51100000000E-03 0. -1.
        -11    1    3    3    0    0 -0.98079900437E+01  0.43551137454E+00  0.18674740482E+02  0.21098158005E+02  0.51100000000E-03 0.  1.
        -12    1    3    3    0    0  0.65314459925E+01 -0.72811407152E+01  0.87012912610E+01  0.13091495960E+02  0.00000000000E+00 0.  1.
</event>
<event>
 7    1  0.3449452E-011  0.5052886E+02  0.7816164E-02  0.1300439E+00
        -11   -1    0    0    0    0  0.00000000000E+00  0.00000000000E+00  0.45593999997E+02  0.45594000000E+02  0.51100000000E-03 0. -1.
         11   -1    0    0    0    0 -0.00000000000E+00 -0.00000000000E+00 -0.45593999997E+02  0.45594000000E+02  0.51100000000E-03 0.  1.
    9900012    2    1    2    0    0 -0.10288758166E+02  0.21470602454E+02  0.32959376856E+02  0.50528857890E+02  0.29999994044E+02 0.  0.
        -12    1    1    2    0    0  0.10288758166E+02 -0.21470602454E+02 -0.32959376856E+02  0.40659142110E+02  0.00000000000E+00 0.  1.
         11    1    3    3    0    0  0.20579790406E+01  0.49897261359E+01 -0.26887951780E+00  0.54041596107E+01  0.51100000000E-03 0. -1.
        -11    1    3    3    0    0  0.15388797726E+01 -0.47785908707E+01  0.70467374944E+01  0.86521437367E+01  0.51100000000E-03 0.  1.
        -12    1    3    3    0    0 -0.13885616979E+02  0.21259467189E+02  0.26181518880E+02  0.36472554543E+02  0.00000000000E+00 0.  1.
</event>
<event>
 7    1  0.3449452E-011  0.5052887E+02  0.7816164E-02  0.1300439E+00
        -11   -1    0    0    0    0  0.00000000000E+00  0.00000000000E+00  0.45593999997E+02  0.45594000000E+02  0.51100000000E-03 0.  1.
         11   -1    0    0    0    0 -0.00000000000E+00 -0.00000000000E+00 -0.45593999997E+02  0.45594000000E+02  0.51100000000E-03 0. -1.
    9900012    2    1    2    0    0 -0.31236513820E+02 -0.17442908867E+02 -0.19318127728E+02  0.50528869115E+02  0.30000028163E+02 0.  0.
        -12    1    1    2    0    0  0.31236513820E+02  0.17442908867E+02  0.19318127728E+02  0.40659130885E+02  0.00000000000E+00 0.  1.
         11    1    3    3    0    0 -0.66220910200E+01 -0.95415710974E+00  0.31767812063E+01  0.74063786267E+01  0.51100000000E-03 0.  1.
        -11    1    3    3    0    0 -0.73948201719E+00  0.40181397556E+01 -0.68491447898E+01  0.79751529993E+01  0.51100000000E-03 0. -1.
        -12    1    3    3    0    0 -0.23874940783E+02 -0.20506891513E+02 -0.15645764145E+02  0.35147337489E+02  0.00000000000E+00 0.  1.
</event>
<event>
 7    1  0.3449452E-011  0.5052888E+02  0.7816164E-02  0.1300439E+00
        -11   -1    0    0    0    0  0.00000000000E+00  0.00000000000E+00  0.45593999997E+02  0.45594000000E+02  0.51100000000E-03 0.  1.
         11   -1    0    0    0    0 -0.00000000000E+00 -0.00000000000E+00 -0.45593999997E+02  0.45594000000E+02  0.51100000000E-03 0. -1.
    9900012    2    1    2    0    0  0.31048476695E+02  0.22766363962E+02 -0.13070927248E+02  0.50528875904E+02  0.30000048799E+02 0.  0.
        -12    1    1    2    0    0 -0.31048476695E+02 -0.22766363962E+02  0.13070927248E+02  0.40659124096E+02  0.00000000000E+00 0.  1.
         11    1    3    3    0    0  0.26580642553E+02  0.25057138691E+02 -0.12926623416E+02  0.38749043228E+02  0.51100000000E-03 0. -1.
        -11    1    3    3    0    0  0.75297529596E+00  0.18381705700E+01 -0.43704348850E+01  0.48006816376E+01  0.51100000000E-03 0.  1.
         12    1    3    3    0    0  0.37148588461E+01 -0.41289452995E+01  0.42261310534E+01  0.69791510382E+01  0.00000000000E+00 0. -1.
</event>
<event>
 7    1  0.3449452E-011  0.5052886E+02  0.7816164E-02  0.1300439E+00
        -11   -1    0    0    0    0  0.00000000000E+00  0.00000000000E+00  0.45593999997E+02  0.45594000000E+02  0.51100000000E-03 0.  1.
         11   -1    0    0    0    0 -0.00000000000E+00 -0.00000000000E+00 -0.45593999997E+02  0.45594000000E+02  0.51100000000E-03 0. -1.
    9900012    2    1    2    0    0  0.12973330867E+02 -0.31925870541E+02 -0.21577697528E+02  0.50528861369E+02  0.30000004617E+02 0.  0.
        -12    1    1    2    0    0 -0.12973330867E+02  0.31925870541E+02  0.21577697528E+02  0.40659138631E+02  0.00000000000E+00 0.  1.
         11    1    3    3    0    0  0.24941332634E+01 -0.34398393453E+01 -0.10254341422E+02  0.11099761877E+02  0.51100000000E-03 0. -1.
        -11    1    3    3    0    0 -0.55340444699E+01 -0.13679832595E+02 -0.94854745176E+01  0.17542454079E+02  0.51100000000E-03 0.  1.
        -12    1    3    3    0    0  0.16013242074E+02 -0.14806198602E+02 -0.18378815881E+01  0.21886645414E+02  0.00000000000E+00 0.  1.
</event>
<event>
 7    1  0.3449452E-011  0.5052887E+02  0.7816164E-02  0.1300439E+00
        -11   -1    0    0    0    0  0.00000000000E+00  0.00000000000E+00  0.45593999997E+02  0.45594000000E+02  0.51100000000E-03 0.  1.
         11   -1    0    0    0    0 -0.00000000000E+00 -0.00000000000E+00 -0.45593999997E+02  0.45594000000E+02  0.51100000000E-03 0. -1.
    9900012    2    1    2    0    0 -0.26408028014E+01  0.31795572256E+02 -0.25203825146E+02  0.50528867489E+02  0.30000023221E+02 0.  0.
        -12    1    1    2    0    0  0.26408028014E+01 -0.31795572256E+02  0.25203825146E+02  0.40659132511E+02  0.00000000000E+00 0.  1.
         11    1    3    3    0    0 -0.83605812977E+01  0.75811187754E+01 -0.40146554331E+01  0.11978736996E+02  0.51100000000E-03 0. -1.
        -11    1    3    3    0    0 -0.35660436977E+01  0.22036800627E+02 -0.12179712166E+02  0.25429955530E+02  0.51100000000E-03 0.  1.
         12    1    3    3    0    0  0.92858221940E+01  0.21776528529E+01 -0.90094575476E+01  0.13120174963E+02  0.00000000000E+00 0. -1.
</event>
<event>
 7    1  0.3449452E-011  0.5052886E+02  0.7816164E-02  0.1300439E+00
        -11   -1    0    0    0    0  0.00000000000E+00  0.00000000000E+00  0.45593999997E+02  0.45594000000E+02  0.51100000000E-03 0.  1.
         11   -1    0    0    0    0 -0.00000000000E+00 -0.00000000000E+00 -0.45593999997E+02  0.45594000000E+02  0.51100000000E-03 0. -1.
    9900012    2    1    2    0    0 -0.15402338774E+02  0.25885891127E+02 -0.27310335966E+02  0.50528857735E+02  0.29999993572E+02 0.  0.
        -12    1    1    2    0    0  0.15402338774E+02 -0.25885891127E+02  0.27310335966E+02  0.40659142265E+02  0.00000000000E+00 0.  1.
         11    1    3    3    0    0 -0.26593416744E+01  0.18371710732E+02 -0.49283317182E+01  0.19206256979E+02  0.51100000000E-03 0. -1.
        -11    1    3    3    0    0 -0.24979707857E+01 -0.19927948514E+01  0.15934543571E+01  0.35707403175E+01  0.51100000000E-03 0.  1.
         12    1    3    3    0    0 -0.10245026314E+02  0.95069752463E+01 -0.23975458605E+02  0.27751860439E+02  0.00000000000E+00 0. -1.
</event>
<event>
 7    1  0.3449452E-011  0.5052886E+02  0.7816164E-02  0.1300439E+00
        -11   -1    0    0    0    0  0.00000000000E+00  0.00000000000E+00  0.45593999997E+02  0.45594000000E+02  0.51100000000E-03 0.  1.
         11   -1    0    0    0    0 -0.00000000000E+00 -0.00000000000E+00 -0.45593999997E+02  0.45594000000E+02  0.51100000000E-03 0. -1.
    9900012    2    1    2    0    0 -0.18320758307E+02 -0.32118477611E+02  0.16909133590E+02  0.50528860957E+02  0.30000003364E+02 0.  0.
        -12    1    1    2    0    0  0.18320758307E+02  0.32118477611E+02 -0.16909133590E+02  0.40659139043E+02  0.00000000000E+00 0.  1.
         11    1    3    3    0    0  0.43900058316E+00 -0.11040402878E+02  0.14413408213E+02  0.18161210141E+02  0.51100000000E-03 0. -1.
        -11    1    3    3    0    0  0.43265485548E+00  0.18670403013E+01 -0.11461883470E+01  0.22331094238E+01  0.51100000000E-03 0.  1.
         12    1    3    3    0    0 -0.19192413745E+02 -0.22945115035E+02  0.36419137236E+01  0.30134541392E+02  0.00000000000E+00 0. -1.
</event>
<event>
 7    1  0.3449452E-011  0.5052886E+02  0.7816164E-02  0.1300439E+00
        -11   -1    0    0    0    0  0.00000000000E+00  0.00000000000E+00  0.45593999997E+02  0.45594000000E+02  0.51100000000E-03 0.  1.
         11   -1    0    0    0    0 -0.00000000000E+00 -0.00000000000E+00 -0.45593999997E+02  0.45594000000E+02  0.51100000000E-03 0. -1.
    9900012    2    1    2    0    0 -0.24472532855E+02  0.31811977347E+02 -0.65006692105E+01  0.50528862438E+02  0.30000007868E+02 0.  0.
        -12    1    1    2    0    0  0.24472532855E+02 -0.31811977347E+02  0.65006692105E+01  0.40659137562E+02  0.00000000000E+00 0.  1.
         11    1    3    3    0    0 -0.79192496993E+01  0.61470425575E+01 -0.10600333460E+02  0.14589986900E+02  0.51100000000E-03 0. -1.
        -11    1    3    3    0    0  0.14851736681E+00 -0.11046313998E+01  0.42420825034E+01  0.43860611218E+01  0.51100000000E-03 0.  1.
         12    1    3    3    0    0 -0.16701800523E+02  0.26769566189E+02 -0.14241825376E+00  0.31552814417E+02  0.00000000000E+00 0. -1.
</event>
<event>
 7    1  0.3449452E-011  0.5052887E+02  0.7816164E-02  0.1300439E+00
        -11   -1    0    0    0    0  0.00000000000E+00  0.00000000000E+00  0.45593999997E+02  0.45594000000E+02  0.51100000000E-03 0. -1.
         11   -1    0    0    0    0 -0.00000000000E+00 -0.00000000000E+00 -0.45593999997E+02  0.45594000000E+02  0.51100000000E-03 0.  1.
    9900012    2    1    2    0    0  0.31963803745E+01 -0.13119759250E+02  0.38351271850E+02  0.50528868396E+02  0.30000025977E+02 0.  0.
        -12    1    1    2    0    0 -0.31963803745E+01  0.13119759250E+02 -0.38351271850E+02  0.40659131604E+02  0.00000000000E+00 0.  1.
         11    1    3    3    0    0 -0.61976575833E+01  0.46758837840E+01  0.52657377835E+01  0.93809830693E+01  0.51100000000E-03 0. -1.
        -11    1    3    3    0    0  0.13479406650E+01 -0.42000962218E+01 -0.80107843638E-01  0.44118216007E+01  0.51100000000E-03 0.  1.
        -12    1    3    3    0    0  0.80460972927E+01 -0.13595546813E+02  0.33165641910E+02  0.36736063726E+02  0.00000000000E+00 0.  1.
</event>
<event>
 7    1  0.3449452E-011  0.5052886E+02  0.7816164E-02  0.1300439E+00
        -11   -1    0    0    0    0  0.00000000000E+00  0.00000000000E+00  0.45593999997E+02  0.45594000000E+02  0.51100000000E-03 0. -1.
         11   -1    0    0    0    0 -0.00000000000E+00 -0.00000000000E+00 -0.45593999997E+02  0.45594000000E+02  0.51100000000E-03 0.  1.
    9900012    2    1    2    0    0  0.69840191986E+01 -0.54923677525E+01  0.39676481166E+02  0.50528858526E+02  0.29999995974E+02 0.  0.
        -12    1    1    2    0    0 -0.69840191986E+01  0.54923677525E+01 -0.39676481166E+02  0.40659141474E+02  0.00000000000E+00 0.  1.
         11    1    3    3    0    0  0.10403669054E+02 -0.97355250905E+01  0.89573773944E+01  0.16830073934E+02  0.51100000000E-03 0. -1.
        -11    1    3    3    0    0 -0.20547475172E+01 -0.43263299590E+01  0.14967462204E+02  0.15715089671E+02  0.51100000000E-03 0.  1.
        -12    1    3    3    0    0 -0.13649023379E+01  0.85694872969E+01  0.15751641568E+02  0.17983694921E+02  0.00000000000E+00 0.  1.
</event>
<event>
 7    1  0.3449452E-011  0.5052885E+02  0.7816164E-02  0.1300439E+00
        -11   -1    0    0    0    0  0.00000000000E+00  0.00000000000E+00  0.45593999997E+02  0.45594000000E+02  0.51100000000E-03 0. -1.
         11   -1    0    0    0    0 -0.00000000000E+00 -0.00000000000E+00 -0.45593999997E+02  0.45594000000E+02  0.51100000000E-03 0.  1.
    9900012    2    1    2    0    0  0.27455070440E+02 -0.29572690492E+02  0.49841187540E+01  0.50528851515E+02  0.29999974665E+02 0.  0.
        -12    1    1    2    0    0 -0.27455070440E+02  0.29572690492E+02 -0.49841187540E+01  0.40659148485E+02  0.00000000000E+00 0.  1.
         11    1    3    3    0    0  0.11921903752E+02 -0.83815556465E+01 -0.20632950889E+00  0.14574801414E+02  0.51100000000E-03 0. -1.
        -11    1    3    3    0    0  0.21800054626E+02 -0.15036166285E+02  0.18179200280E+01  0.26544933824E+02  0.51100000000E-03 0.  1.
        -12    1    3    3    0    0 -0.62668879383E+01 -0.61549685601E+01  0.33725282349E+01  0.94091162764E+01  0.00000000000E+00 0.  1.
</event>
<event>
 7    1  0.3449452E-011  0.5052886E+02  0.7816164E-02  0.1300439E+00
        -11   -1    0    0    0    0  0.00000000000E+00  0.00000000000E+00  0.45593999997E+02  0.45594000000E+02  0.51100000000E-03 0. -1.
         11   -1    0    0    0    0 -0.00000000000E+00 -0.00000000000E+00 -0.45593999997E+02  0.45594000000E+02  0.51100000000E-03 0.  1.
    9900012    2    1    2    0    0  0.18109339794E+02 -0.80897435251E+00  0.36394544012E+02  0.50528862514E+02  0.30000008096E+02 0.  0.
        -12    1    1    2    0    0 -0.18109339794E+02  0.80897435251E+00 -0.36394544012E+02  0.40659137486E+02  0.00000000000E+00 0.  1.
         11    1    3    3    0    0 -0.54743628584E+01  0.63904831901E+01  0.87202132603E+01  0.12118128720E+02  0.51100000000E-03 0. -1.
        -11    1    3    3    0    0  0.56779491807E+01  0.21614880659E+01  0.92491524449E+01  0.11066072418E+02  0.51100000000E-03 0.  1.
         12    1    3    3    0    0  0.17905753472E+02 -0.93609456085E+01  0.18425178307E+02  0.27344661375E+02  0.00000000000E+00 0. -1.
</event>
<event>
 7    1  0.3449452E-011  0.5052886E+02  0.7816164E-02  0.1300439E+00
        -11   -1    0    0    0    0  0.00000000000E+00  0.00000000000E+00  0.45593999997E+02  0.45594000000E+02  0.51100000000E-03 0. -1.
         11   -1    0    0    0    0 -0.00000000000E+00 -0.00000000000E+00 -0.45593999997E+02  0.45594000000E+02  0.51100000000E-03 0.  1.
    9900012    2    1    2    0    0 -0.31086718287E+02  0.25286812857E+02 -0.68817701613E+01  0.50528859344E+02  0.29999998462E+02 0.  0.
        -12    1    1    2    0    0  0.31086718287E+02 -0.25286812857E+02  0.68817701613E+01  0.40659140656E+02  0.00000000000E+00 0.  1.
         11    1    3    3    0    0  0.12822065394E+01 -0.15828298147E+01  0.32609613707E+01  0.38449022295E+01  0.51100000000E-03 0. -1.
        -11    1    3    3    0    0 -0.49783383163E+01  0.26984823692E+01 -0.83760739358E+01  0.10110602075E+02  0.51100000000E-03 0.  1.
        -12    1    3    3    0    0 -0.27390586510E+02  0.24171160302E+02 -0.17666575962E+01  0.36573355039E+02  0.00000000000E+00 0.  1.
</event>
<event>
 7    1  0.3449452E-011  0.5052886E+02  0.7816164E-02  0.1300439E+00
        -11   -1    0    0    0    0  0.00000000000E+00  0.00000000000E+00  0.45593999997E+02  0.45594000000E+02  0.51100000000E-03 0. -1.
         11   -1    0    0    0    0 -0.00000000000E+00 -0.00000000000E+00 -0.45593999997E+02  0.45594000000E+02  0.51100000000E-03 0.  1.
    9900012    2    1    2    0    0  0.37513383928E+02  0.13195317138E+02  0.84732107619E+01  0.50528859961E+02  0.30000000339E+02 0.  0.
        -12    1    1    2    0    0 -0.37513383928E+02 -0.13195317138E+02 -0.84732107619E+01  0.40659140039E+02  0.00000000000E+00 0.  1.
         11    1    3    3    0    0  0.21995879049E+02  0.20160923536E+00  0.14683341331E+02  0.26447303347E+02  0.51100000000E-03 0. -1.
        -11    1    3    3    0    0 -0.12911389708E+01 -0.76717109501E-01 -0.19924333766E+01  0.23754402493E+01  0.51100000000E-03 0.  1.
         12    1    3    3    0    0  0.16808643849E+02  0.13070425012E+02 -0.42176971927E+01  0.21706116365E+02  0.00000000000E+00 0. -1.
</event>
<event>
 7    1  0.3449452E-011  0.5052880E+02  0.7816164E-02  0.1300439E+00
        -11   -1    0    0    0    0  0.00000000000E+00  0.00000000000E+00  0.45593999997E+02  0.45594000000E+02  0.51100000000E-03 0.  1.
         11   -1    0    0    0    0 -0.00000000000E+00 -0.00000000000E+00 -0.45593999997E+02  0.45594000000E+02  0.51100000000E-03 0. -1.
    9900012    2    1    2    0    0  0.80710553470E+01 -0.96156125881E+01 -0.38672580040E+02  0.50528801941E+02  0.29999823979E+02 0.  0.
        -12    1    1    2    0    0 -0.80710553470E+01  0.96156125881E+01  0.38672580040E+02  0.40659198059E+02  0.00000000000E+00 0.  1.
         11    1    3    3    0    0 -0.14741398578E+01  0.28555929653E+01 -0.10508873149E+02  0.10989263607E+02  0.51100000000E-03 0. -1.
        -11    1    3    3    0    0 -0.16925736827E-01 -0.10362420438E+02 -0.27880066859E+02  0.29743540007E+02  0.51100000000E-03 0.  1.
        -12    1    3    3    0    0  0.95621209416E+01 -0.21087851150E+01 -0.28364003249E+00  0.97959983274E+01  0.00000000000E+00 0.  1.
</event>
<event>
 7    1  0.3449452E-011  0.5052888E+02  0.7816164E-02  0.1300439E+00
        -11   -1    0    0    0    0  0.00000000000E+00  0.00000000000E+00  0.45593999997E+02  0.45594000000E+02  0.51100000000E-03 0.  1.
         11   -1    0    0    0    0 -0.00000000000E+00 -0.00000000000E+00 -0.45593999997E+02  0.45594000000E+02  0.51100000000E-03 0. -1.
    9900012    2    1    2    0    0  0.10878108610E+02  0.33261144787E+02 -0.20700896371E+02  0.50528879129E+02  0.30000058599E+02 0.  0.
        -12    1    1    2    0    0 -0.10878108610E+02 -0.33261144787E+02  0.20700896371E+02  0.40659120871E+02  0.00000000000E+00 0.  1.
         11    1    3    3    0    0  0.30589161153E+01  0.33375488527E+01 -0.41275762282E+01  0.61264252158E+01  0.51100000000E-03 0. -1.
        -11    1    3    3    0    0  0.44656305241E+01  0.23533623328E+02  0.24285707552E+01  0.24076362663E+02  0.51100000000E-03 0.  1.
        -12    1    3    3    0    0  0.33535619708E+01  0.63899726067E+01 -0.19001890898E+02  0.20326091250E+02  0.00000000000E+00 0.  1.
</event>
<event>
 7    1  0.3449452E-011  0.5052887E+02  0.7816164E-02  0.1300439E+00
        -11   -1    0    0    0    0  0.00000000000E+00  0.00000000000E+00  0.45593999997E+02  0.45594000000E+02  0.51100000000E-03 0.  1.
         11   -1    0    0    0    0 -0.00000000000E+00 -0.00000000000E+00 -0.45593999997E+02  0.45594000000E+02  0.51100000000E-03 0. -1.
    9900012    2    1    2    0    0 -0.12149474567E+02  0.38480772014E+02 -0.49784880762E+01  0.50528869530E+02  0.30000029424E+02 0.  0.
        -12    1    1    2    0    0  0.12149474567E+02 -0.38480772014E+02  0.49784880762E+01  0.40659130470E+02  0.00000000000E+00 0.  1.
         11    1    3    3    0    0 -0.48339574586E+01  0.14594013526E+02 -0.13284483909E+02  0.20318215682E+02  0.51100000000E-03 0. -1.
        -11    1    3    3    0    0  0.33596195747E+01  0.82960498059E+00  0.21259337746E+01  0.40613892679E+01  0.51100000000E-03 0.  1.
         12    1    3    3    0    0 -0.10675136683E+02  0.23057153507E+02  0.61800620581E+01  0.26149264580E+02  0.00000000000E+00 0. -1.
</event>
<event>
 7    1  0.3449452E-011  0.5052886E+02  0.7816164E-02  0.1300439E+00
        -11   -1    0    0    0    0  0.00000000000E+00  0.00000000000E+00  0.45593999997E+02  0.45594000000E+02  0.51100000000E-03 0. -1.
         11   -1    0    0    0    0 -0.00000000000E+00 -0.00000000000E+00 -0.45593999997E+02  0.45594000000E+02  0.51100000000E-03 0.  1.
    9900012    2    1    2    0    0  0.12650864333E+02  0.33124180408E+02  0.19897481519E+02  0.50528862443E+02  0.30000007883E+02 0.  0.
        -12    1    1    2    0    0 -0.12650864333E+02 -0.33124180408E+02 -0.19897481519E+02  0.40659137557E+02  0.00000000000E+00 0.  1.
         11    1    3    3    0    0  0.14863013816E+02  0.15496174777E+02  0.42080501562E+01  0.21880317612E+02  0.51100000000E-03 0. -1.
        -11    1    3    3    0    0  0.12838767372E+00  0.44446225798E+00 -0.30679709774E+01  0.31026563252E+01  0.51100000000E-03 0.  1.
        -12    1    3    3    0    0 -0.23405371566E+01  0.17183543373E+02  0.18757402340E+02  0.25545888506E+02  0.00000000000E+00 0.  1.
</event>
<event>
 7    1  0.3666299E-011  0.5052886E+02  0.7816164E-02  0.1300439E+00
        -11   -1    0    0    0    0  0.00000000000E+00  0.00000000000E+00  0.45593999997E+02  0.45594000000E+02  0.51100000000E-03 0. -1.
         11   -1    0    0    0    0 -0.00000000000E+00 -0.00000000000E+00 -0.45593999997E+02  0.45594000000E+02  0.51100000000E-03 0.  1.
    9900012    2    1    2    0    0 -0.28527014977E+02 -0.13923605693E+02  0.25406850081E+02  0.50528863142E+02  0.30000010005E+02 0.  0.
        -12    1    1    2    0    0  0.28527014977E+02  0.13923605693E+02 -0.25406850081E+02  0.40659136858E+02  0.00000000000E+00 0.  1.
         11    1    3    3    0    0 -0.21408363228E+02 -0.15012040157E+02  0.21306558936E+02  0.33729050086E+02  0.51100000000E-03 0. -1.
        -11    1    3    3    0    0 -0.18324172651E+01 -0.97901159142E+00  0.90397388166E+01  0.92754026793E+01  0.51100000000E-03 0.  1.
        -12    1    3    3    0    0 -0.52862344848E+01  0.20674460549E+01 -0.49394476710E+01  0.75244103764E+01  0.00000000000E+00 0.  1.
</event>
<event>
 7    1  0.3449452E-011  0.5052887E+02  0.7816164E-02  0.1300439E+00
        -11   -1    0    0    0    0  0.00000000000E+00  0.00000000000E+00  0.45593999997E+02  0.45594000000E+02  0.51100000000E-03 0.  1.
         11   -1    0    0    0    0 -0.00000000000E+00 -0.00000000000E+00 -0.45593999997E+02  0.45594000000E+02  0.51100000000E-03 0. -1.
    9900012    2    1    2    0    0 -0.50975311380E+01 -0.95148065560E+01 -0.39200109865E+02  0.50528868419E+02  0.30000026047E+02 0.  0.
        -12    1    1    2    0    0  0.50975311380E+01  0.95148065560E+01  0.39200109865E+02  0.40659131581E+02  0.00000000000E+00 0.  1.
         11    1    3    3    0    0 -0.31497551911E+01 -0.28313193642E+01 -0.17811073182E+02  0.18307693881E+02  0.51100000000E-03 0. -1.
        -11    1    3    3    0    0 -0.90460010930E+01 -0.11939313429E+02 -0.15785085503E+02  0.21761118205E+02  0.51100000000E-03 0.  1.
         12    1    3    3    0    0  0.70982251461E+01  0.52558262371E+01 -0.56039511806E+01  0.10460056333E+02  0.00000000000E+00 0. -1.
</event>
<event>
 7    1  0.3449452E-011  0.5052885E+02  0.7816164E-02  0.1300439E+00
        -11   -1    0    0    0    0  0.00000000000E+00  0.00000000000E+00  0.45593999997E+02  0.45594000000E+02  0.51100000000E-03 0. -1.
         11   -1    0    0    0    0 -0.00000000000E+00 -0.00000000000E+00 -0.45593999997E+02  0.45594000000E+02  0.51100000000E-03 0.  1.
    9900012    2    1    2    0    0  0.29146150509E+02  0.25688829383E+02  0.11989696786E+02  0.50528845144E+02  0.29999955300E+02 0.  0.
        -12    1    1    2    0    0 -0.29146150509E+02 -0.25688829383E+02 -0.11989696786E+02  0.40659154856E+02  0.00000000000E+00 0.  1.
         11    1    3    3    0    0  0.10949990684E+02  0.60197098920E+01  0.10091847462E+02  0.16061898662E+02  0.51100000000E-03 0. -1.
        -11    1    3    3    0    0 -0.20110308473E+01 -0.31119495152E+01 -0.11077684097E+01  0.38672504398E+01  0.51100000000E-03 0.  1.
        -12    1    3    3    0    0  0.20207190672E+02  0.22781069006E+02  0.30056177335E+01  0.30599696042E+02  0.00000000000E+00 0.  1.
</event>
<event>
 7    1  0.3449452E-011  0.5052886E+02  0.7816164E-02  0.1300439E+00
        -11   -1    0    0    0    0  0.00000000000E+00  0.00000000000E+00  0.45593999997E+02  0.45594000000E+02  0.51100000000E-03 0.  1.
         11   -1    0    0    0    0 -0.00000000000E+00 -0.00000000000E+00 -0.45593999997E+02  0.45594000000E+02  0.51100000000E-03 0. -1.
    9900012    2    1    2    0    0  0.53504922291E+01  0.17550506332E+02 -0.36283851180E+02  0.50528857166E+02  0.29999991840E+02 0.  0.
        -12    1    1    2    0    0 -0.53504922291E+01 -0.17550506332E+02  0.36283851180E+02  0.40659142834E+02  0.00000000000E+00 0.  1.
         11    1    3    3    0    0  0.10588912439E+02  0.12061685982E+02 -0.27055472856E+02  0.31458034699E+02  0.51100000000E-03 0. -1.
        -11    1    3    3    0    0 -0.56373233807E+01  0.10343526938E+02 -0.71074216127E+01  0.13758030624E+02  0.51100000000E-03 0.  1.
        -12    1    3    3    0    0  0.39890317106E+00 -0.48547065880E+01 -0.21209567108E+01  0.53127918428E+01  0.00000000000E+00 0.  1.
</event>
<event>
 7    1  0.3449452E-011  0.5052885E+02  0.7816164E-02  0.1300439E+00
        -11   -1    0    0    0    0  0.00000000000E+00  0.00000000000E+00  0.45593999997E+02  0.45594000000E+02  0.51100000000E-03 0.  1.
         11   -1    0    0    0    0 -0.00000000000E+00 -0.00000000000E+00 -0.45593999997E+02  0.45594000000E+02  0.51100000000E-03 0. -1.
    9900012    2    1    2    0    0 -0.11561964955E+02  0.38269582019E+02 -0.74112237499E+01  0.50528853686E+02  0.29999981263E+02 0.  0.
        -12    1    1    2    0    0  0.11561964955E+02 -0.38269582019E+02  0.74112237499E+01  0.40659146314E+02  0.00000000000E+00 0.  1.
         11    1    3    3    0    0 -0.48278743221E+01  0.11936173051E+02 -0.36434530130E+01  0.13381156441E+02  0.51100000000E-03 0. -1.
        -11    1    3    3    0    0  0.34109835565E+01  0.11098408003E+02 -0.12333455802E+02  0.16938819360E+02  0.51100000000E-03 0.  1.
        -12    1    3    3    0    0 -0.10145074190E+02  0.15235000965E+02  0.85656850656E+01  0.20208877885E+02  0.00000000000E+00 0.  1.
</event>
<event>
 7    1  0.3449452E-011  0.5052886E+02  0.7816164E-02  0.1300439E+00
        -11   -1    0    0    0    0  0.00000000000E+00  0.00000000000E+00  0.45593999997E+02  0.45594000000E+02  0.51100000000E-03 0.  1.
         11   -1    0    0    0    0 -0.00000000000E+00 -0.00000000000E+00 -0.45593999997E+02  0.45594000000E+02  0.51100000000E-03 0. -1.
    9900012    2    1    2    0    0  0.26163873868E+01 -0.35060206665E+02 -0.20423075543E+02  0.50528860941E+02  0.30000003318E+02 0.  0.
        -12    1    1    2    0    0 -0.26163873868E+01  0.35060206665E+02  0.20423075543E+02  0.40659139059E+02  0.00000000000E+00 0.  1.
         11    1    3    3    0    0  0.23064753484E+01 -0.33551995943E+01 -0.10948857722E+02  0.11681381704E+02  0.51100000000E-03 0. -1.
        -11    1    3    3    0    0  0.41383406307E+01 -0.15086970359E+02  0.50585246148E+01  0.16441752015E+02  0.51100000000E-03 0.  1.
         12    1    3    3    0    0 -0.38284285923E+01 -0.16618036712E+02 -0.14532742436E+02  0.22405727222E+02  0.00000000000E+00 0. -1.
</event>
<event>
 7    1  0.3449452E-011  0.5052886E+02  0.7816164E-02  0.1300439E+00
        -11   -1    0    0    0    0  0.00000000000E+00  0.00000000000E+00  0.45593999997E+02  0.45594000000E+02  0.51100000000E-03 0.  1.
         11   -1    0    0    0    0 -0.00000000000E+00 -0.00000000000E+00 -0.45593999997E+02  0.45594000000E+02  0.51100000000E-03 0. -1.
    9900012    2    1    2    0    0  0.32096871847E+02 -0.22329419505E+02  0.11151389724E+02  0.50528860184E+02  0.30000001015E+02 0.  0.
        -12    1    1    2    0    0 -0.32096871847E+02  0.22329419505E+02 -0.11151389724E+02  0.40659139816E+02  0.00000000000E+00 0.  1.
         11    1    3    3    0    0  0.90802347418E+01 -0.11768096039E+02 -0.27709020275E+01  0.15120074261E+02  0.51100000000E-03 0. -1.
        -11    1    3    3    0    0  0.23815416338E+02 -0.13722347919E+02  0.79634799027E+01  0.28616322269E+02  0.51100000000E-03 0.  1.
         12    1    3    3    0    0 -0.79877923261E+00  0.31610244524E+01  0.59588118486E+01  0.67924636545E+01  0.00000000000E+00 0. -1.
</event>
<event>
 7    1  0.3449452E-011  0.5052886E+02  0.7816164E-02  0.1300439E+00
        -11   -1    0    0    0    0  0.00000000000E+00  0.00000000000E+00  0.45593999997E+02  0.45594000000E+02  0.51100000000E-03 0.  1.
         11   -1    0    0    0    0 -0.00000000000E+00 -0.00000000000E+00 -0.45593999997E+02  0.45594000000E+02  0.51100000000E-03 0. -1.
    9900012    2    1    2    0    0  0.13993256957E+02  0.23289559967E+02 -0.30248158026E+02  0.50528857022E+02  0.29999991404E+02 0.  0.
        -12    1    1    2    0    0 -0.13993256957E+02 -0.23289559967E+02  0.30248158026E+02  0.40659142978E+02  0.00000000000E+00 0.  1.
         11    1    3    3    0    0  0.42070656402E+01  0.12393854561E+02 -0.15589181443E+01  0.13180942995E+02  0.51100000000E-03 0.  1.
        -11    1    3    3    0    0  0.10288825830E+02  0.14267577425E+02 -0.14624021077E+02  0.22875438690E+02  0.51100000000E-03 0. -1.
        -12    1    3    3    0    0 -0.50263451270E+00 -0.33718720190E+01 -0.14065218805E+02  0.14472475338E+02  0.00000000000E+00 0.  1.
</event>
<event>
 7    1  0.3449452E-011  0.5052886E+02  0.7816164E-02  0.1300439E+00
        -11   -1    0    0    0    0  0.00000000000E+00  0.00000000000E+00  0.45593999997E+02  0.45594000000E+02  0.51100000000E-03 0.  1.
         11   -1    0    0    0    0 -0.00000000000E+00 -0.00000000000E+00 -0.45593999997E+02  0.45594000000E+02  0.51100000000E-03 0. -1.
    9900012    2    1    2    0    0 -0.34485142065E+02  0.21404047811E+02 -0.24099025126E+01  0.50528856919E+02  0.29999991092E+02 0.  0.
        -12    1    1    2    0    0  0.34485142065E+02 -0.21404047811E+02  0.24099025126E+01  0.40659143081E+02  0.00000000000E+00 0.  1.
         11    1    3    3    0    0 -0.20492192526E+02  0.38008199852E+01 -0.79408461284E+00  0.20856815617E+02  0.51100000000E-03 0. -1.
        -11    1    3    3    0    0  0.14833512608E+01  0.11142513508E+01 -0.63088760117E+01  0.65760021159E+01  0.51100000000E-03 0.  1.
         12    1    3    3    0    0 -0.15476300800E+02  0.16488976475E+02  0.46930581120E+01  0.23096039186E+02  0.00000000000E+00 0. -1.
</event>
<event>
 7    1  0.3449452E-011  0.5052886E+02  0.7816164E-02  0.1300439E+00
        -11   -1    0    0    0    0  0.00000000000E+00  0.00000000000E+00  0.45593999997E+02  0.45594000000E+02  0.51100000000E-03 0. -1.
         11   -1    0    0    0    0 -0.00000000000E+00 -0.00000000000E+00 -0.45593999997E+02  0.45594000000E+02  0.51100000000E-03 0.  1.
    9900012    2    1    2    0    0 -0.16423667858E+02 -0.16355458102E+02  0.33405505773E+02  0.50528859679E+02  0.29999999482E+02 0.  0.
        -12    1    1    2    0    0  0.16423667858E+02  0.16355458102E+02 -0.33405505773E+02  0.40659140321E+02  0.00000000000E+00 0.  1.
         11    1    3    3    0    0 -0.17165366049E+01  0.15884524589E+01 -0.14093475079E+01  0.27305566812E+01  0.51100000000E-03 0. -1.
        -11    1    3    3    0    0  0.61049357172E+01 -0.68133864903E+01  0.98729006107E+01  0.13459815835E+02  0.51100000000E-03 0.  1.
         12    1    3    3    0    0 -0.20812066970E+02 -0.11130524071E+02  0.24941952670E+02  0.34338487163E+02  0.00000000000E+00 0. -1.
</event>
<event>
 7    1  0.3449452E-011  0.5052886E+02  0.7816164E-02  0.1300439E+00
        -11   -1    0    0    0    0  0.00000000000E+00  0.00000000000E+00  0.45593999997E+02  0.45594000000E+02  0.51100000000E-03 0.  1.
         11   -1    0    0    0    0 -0.00000000000E+00 -0.00000000000E+00 -0.45593999997E+02  0.45594000000E+02  0.51100000000E-03 0. -1.
    9900012    2    1    2    0    0 -0.61548485874E+00 -0.64804454891E+01 -0.40134659720E+02  0.50528857040E+02  0.29999991460E+02 0.  0.
        -12    1    1    2    0    0  0.61548485874E+00  0.64804454891E+01  0.40134659720E+02  0.40659142960E+02  0.00000000000E+00 0.  1.
         11    1    3    3    0    0  0.44393942814E+00  0.58205178357E+01 -0.79966811313E+01  0.99006272260E+01  0.51100000000E-03 0. -1.
        -11    1    3    3    0    0 -0.45685853081E+01 -0.17600977573E+02 -0.26454000184E+02  0.32101098256E+02  0.51100000000E-03 0.  1.
         12    1    3    3    0    0  0.35091610212E+01  0.53000142483E+01 -0.56839784052E+01  0.85271315585E+01  0.00000000000E+00 0. -1.
</event>
<event>
 7    1  0.3449452E-011  0.5052885E+02  0.7816164E-02  0.1300439E+00
        -11   -1    0    0    0    0  0.00000000000E+00  0.00000000000E+00  0.45593999997E+02  0.45594000000E+02  0.51100000000E-03 0.  1.
         11   -1    0    0    0    0 -0.00000000000E+00 -0.00000000000E+00 -0.45593999997E+02  0.45594000000E+02  0.51100000000E-03 0. -1.
    9900012    2    1    2    0    0  0.16308489951E+02 -0.37231182288E+02  0.10191767795E+01  0.50528849734E+02  0.29999969252E+02 0.  0.
        -12    1    1    2    0    0 -0.16308489951E+02  0.37231182288E+02 -0.10191767795E+01  0.40659150266E+02  0.00000000000E+00 0.  1.
         11    1    3    3    0    0  0.13338780160E+02 -0.25400218087E+02 -0.72488262574E+01  0.29591208447E+02  0.51100000000E-03 0. -1.
        -11    1    3    3    0    0  0.47163175108E+01  0.20973889741E+01  0.16548665715E+01  0.54204497047E+01  0.51100000000E-03 0.  1.
        -12    1    3    3    0    0 -0.17466077192E+01 -0.13928353175E+02  0.66131364654E+01  0.15517191582E+02  0.00000000000E+00 0.  1.
</event>
<event>
 7    1  0.3449452E-011  0.5052887E+02  0.7816164E-02  0.1300439E+00
        -11   -1    0    0    0    0  0.00000000000E+00  0.00000000000E+00  0.45593999997E+02  0.45594000000E+02  0.51100000000E-03 0. -1.
         11   -1    0    0    0    0 -0.00000000000E+00 -0.00000000000E+00 -0.45593999997E+02  0.45594000000E+02  0.51100000000E-03 0.  1.
    9900012    2    1    2    0    0  0.13699768158E+02 -0.12185735535E+02  0.36290348434E+02  0.50528865878E+02  0.30000018322E+02 0.  0.
        -12    1    1    2    0    0 -0.13699768158E+02  0.12185735535E+02 -0.36290348434E+02  0.40659134122E+02  0.00000000000E+00 0.  1.
         11    1    3    3    0    0 -0.55519560347E+01 -0.52389342657E+01  0.14449155900E+02  0.16341626435E+02  0.51100000000E-03 0. -1.
        -11    1    3    3    0    0  0.81250493012E+00  0.35814906561E+01 -0.73524209257E-01  0.36732336778E+01  0.51100000000E-03 0.  1.
         12    1    3    3    0    0  0.18439219263E+02 -0.10528291926E+02  0.21914716743E+02  0.30514005765E+02  0.00000000000E+00 0. -1.
</event>
<event>
 7    1  0.3449452E-011  0.5052884E+02  0.7816164E-02  0.1300439E+00
        -11   -1    0    0    0    0  0.00000000000E+00  0.00000000000E+00  0.45593999997E+02  0.45594000000E+02  0.51100000000E-03 0. -1.
         11   -1    0    0    0    0 -0.00000000000E+00 -0.00000000000E+00 -0.45593999997E+02  0.45594000000E+02  0.51100000000E-03 0.  1.
    9900012    2    1    2    0    0 -0.86002786304E+01 -0.12077397537E+02  0.37859464940E+02  0.50528838556E+02  0.29999935274E+02 0.  0.
        -12    1    1    2    0    0  0.86002786304E+01  0.12077397537E+02 -0.37859464940E+02  0.40659161444E+02  0.00000000000E+00 0.  1.
         11    1    3    3    0    0 -0.93964785667E+01  0.14700439564E+01  0.17163028732E+02  0.19622038483E+02  0.51100000000E-03 0. -1.
        -11    1    3    3    0    0 -0.62981293680E+01 -0.11950433165E+02  0.19210752676E+02  0.23484724929E+02  0.51100000000E-03 0.  1.
         12    1    3    3    0    0  0.70943293043E+01 -0.15970083284E+01  0.14856835315E+01  0.74220751434E+01  0.00000000000E+00 0. -1.
</event>
<event>
 7    1  0.3449452E-011  0.5052886E+02  0.7816164E-02  0.1300439E+00
        -11   -1    0    0    0    0  0.00000000000E+00  0.00000000000E+00  0.45593999997E+02  0.45594000000E+02  0.51100000000E-03 0. -1.
         11   -1    0    0    0    0 -0.00000000000E+00 -0.00000000000E+00 -0.45593999997E+02  0.45594000000E+02  0.51100000000E-03 0.  1.
    9900012    2    1    2    0    0  0.73429202646E+01 -0.39869539615E+02 -0.31091837125E+01  0.50528859693E+02  0.29999999524E+02 0.  0.
        -12    1    1    2    0    0 -0.73429202646E+01  0.39869539615E+02  0.31091837125E+01  0.40659140307E+02  0.00000000000E+00 0.  1.
         11    1    3    3    0    0  0.40871011301E+01 -0.27276421161E+02  0.47468582955E+01  0.27986429049E+02  0.51100000000E-03 0. -1.
        -11    1    3    3    0    0  0.68682332585E+01 -0.15114414564E+02 -0.51939046303E+01  0.17395252262E+02  0.51100000000E-03 0.  1.
         12    1    3    3    0    0 -0.36124141240E+01  0.25212961096E+01 -0.26621373777E+01  0.51471783817E+01  0.00000000000E+00 0. -1.
</event>
<event>
 7    1  0.3449452E-011  0.5052883E+02  0.7816164E-02  0.1300439E+00
        -11   -1    0    0    0    0  0.00000000000E+00  0.00000000000E+00  0.45593999997E+02  0.45594000000E+02  0.51100000000E-03 0.  1.
         11   -1    0    0    0    0 -0.00000000000E+00 -0.00000000000E+00 -0.45593999997E+02  0.45594000000E+02  0.51100000000E-03 0. -1.
    9900012    2    1    2    0    0 -0.31966744937E+02 -0.16096739687E+02 -0.19292240615E+02  0.50528826885E+02  0.29999899799E+02 0.  0.
        -12    1    1    2    0    0  0.31966744937E+02  0.16096739687E+02  0.19292240615E+02  0.40659173115E+02  0.00000000000E+00 0.  1.
         11    1    3    3    0    0 -0.54902694516E+01  0.28826496911E+01 -0.51437974319E+01  0.80567599055E+01  0.51100000000E-03 0. -1.
        -11    1    3    3    0    0 -0.95660256106E+00  0.35792045102E+00  0.50409723003E+01  0.51434032996E+01  0.51100000000E-03 0.  1.
         12    1    3    3    0    0 -0.25519872925E+02 -0.19337309830E+02 -0.19189415483E+02  0.37328663680E+02  0.00000000000E+00 0. -1.
</event>
<event>
 7    1  0.3449452E-011  0.5052886E+02  0.7816164E-02  0.1300439E+00
        -11   -1    0    0    0    0  0.00000000000E+00  0.00000000000E+00  0.45593999997E+02  0.45594000000E+02  0.51100000000E-03 0. -1.
         11   -1    0    0    0    0 -0.00000000000E+00 -0.00000000000E+00 -0.45593999997E+02  0.45594000000E+02  0.51100000000E-03 0.  1.
    9900012    2    1    2    0    0 -0.34196647697E+02  0.17388834952E+02  0.13467869473E+02  0.50528858311E+02  0.29999995323E+02 0.  0.
        -12    1    1    2    0    0  0.34196647697E+02 -0.17388834952E+02 -0.13467869473E+02  0.40659141689E+02  0.00000000000E+00 0.  1.
         11    1    3    3    0    0 -0.37461207981E+02  0.13598399773E+02  0.15998105572E+02  0.42944126047E+02  0.51100000000E-03 0. -1.
        -11    1    3    3    0    0  0.38455212350E+00 -0.17790378801E+00  0.12970997555E+01  0.13645505232E+01  0.51100000000E-03 0.  1.
         12    1    3    3    0    0  0.28800081602E+01  0.39683389669E+01 -0.38273358540E+01  0.62201817416E+01  0.00000000000E+00 0. -1.
</event>
<event>
 7    1  0.3449452E-011  0.5052886E+02  0.7816164E-02  0.1300439E+00
        -11   -1    0    0    0    0  0.00000000000E+00  0.00000000000E+00  0.45593999997E+02  0.45594000000E+02  0.51100000000E-03 0. -1.
         11   -1    0    0    0    0 -0.00000000000E+00 -0.00000000000E+00 -0.45593999997E+02  0.45594000000E+02  0.51100000000E-03 0.  1.
    9900012    2    1    2    0    0 -0.95503027048E+01 -0.31784802113E+02 -0.23487946212E+02  0.50528861490E+02  0.30000004985E+02 0.  0.
        -12    1    1    2    0    0  0.95503027048E+01  0.31784802113E+02  0.23487946212E+02  0.40659138510E+02  0.00000000000E+00 0.  1.
         11    1    3    3    0    0 -0.89900045187E+01 -0.10511047286E+02  0.10188161628E+01  0.13868679927E+02  0.51100000000E-03 0. -1.
        -11    1    3    3    0    0  0.80626027052E+01 -0.78856642016E+01 -0.89462408669E+01  0.14395293960E+02  0.51100000000E-03 0.  1.
        -12    1    3    3    0    0 -0.86229008912E+01 -0.13388090626E+02 -0.15560521508E+02  0.22264887603E+02  0.00000000000E+00 0.  1.
</event>
<event>
 7    1  0.3449452E-011  0.5052886E+02  0.7816164E-02  0.1300439E+00
        -11   -1    0    0    0    0  0.00000000000E+00  0.00000000000E+00  0.45593999997E+02  0.45594000000E+02  0.51100000000E-03 0.  1.
         11   -1    0    0    0    0 -0.00000000000E+00 -0.00000000000E+00 -0.45593999997E+02  0.45594000000E+02  0.51100000000E-03 0. -1.
    9900012    2    1    2    0    0  0.58871801613E+01 -0.13848678691E+02 -0.37771962218E+02  0.50528856851E+02  0.29999990886E+02 0.  0.
        -12    1    1    2    0    0 -0.58871801613E+01  0.13848678691E+02  0.37771962218E+02  0.40659143149E+02  0.00000000000E+00 0.  1.
         11    1    3    3    0    0 -0.51787192847E+01 -0.16074551092E+02 -0.31316134342E+02  0.35579637387E+02  0.51100000000E-03 0. -1.
        -11    1    3    3    0    0  0.64821898769E+01 -0.19298551401E+01 -0.54391142545E+01  0.86791180771E+01  0.51100000000E-03 0.  1.
        -12    1    3    3    0    0  0.45837095690E+01  0.41557275415E+01 -0.10167136223E+01  0.62701013869E+01  0.00000000000E+00 0.  1.
</event>
<event>
 7    1  0.3449452E-011  0.5052887E+02  0.7816164E-02  0.1300439E+00
        -11   -1    0    0    0    0  0.00000000000E+00  0.00000000000E+00  0.45593999997E+02  0.45594000000E+02  0.51100000000E-03 0.  1.
         11   -1    0    0    0    0 -0.00000000000E+00 -0.00000000000E+00 -0.45593999997E+02  0.45594000000E+02  0.51100000000E-03 0. -1.
    9900012    2    1    2    0    0 -0.25424042359E+02  0.30163220328E+02 -0.98469974991E+01  0.50528866338E+02  0.30000019720E+02 0.  0.
        -12    1    1    2    0    0  0.25424042359E+02 -0.30163220328E+02  0.98469974991E+01  0.40659133662E+02  0.00000000000E+00 0.  1.
         11    1    3    3    0    0  0.21322423439E+00  0.10279276540E+02 -0.94633005059E+01  0.13973655481E+02  0.51100000000E-03 0. -1.
        -11    1    3    3    0    0 -0.16857785951E+01  0.10645749769E+02  0.11410300596E+01  0.10838624796E+02  0.51100000000E-03 0.  1.
        -12    1    3    3    0    0 -0.23951487998E+02  0.92381940193E+01 -0.15247270528E+01  0.25716586061E+02  0.00000000000E+00 0.  1.
</event>
<event>
 7    1  0.3449452E-011  0.5052888E+02  0.7816164E-02  0.1300439E+00
        -11   -1    0    0    0    0  0.00000000000E+00  0.00000000000E+00  0.45593999997E+02  0.45594000000E+02  0.51100000000E-03 0.  1.
         11   -1    0    0    0    0 -0.00000000000E+00 -0.00000000000E+00 -0.45593999997E+02  0.45594000000E+02  0.51100000000E-03 0. -1.
    9900012    2    1    2    0    0  0.46084109610E+01 -0.22827057615E+02 -0.33329450439E+02  0.50528877069E+02  0.30000052338E+02 0.  0.
        -12    1    1    2    0    0 -0.46084109610E+01  0.22827057615E+02  0.33329450439E+02  0.40659122931E+02  0.00000000000E+00 0.  1.
         11    1    3    3    0    0 -0.17036785515E+01  0.30183055375E+01 -0.37685685188E+01  0.51200388540E+01  0.51100000000E-03 0. -1.
        -11    1    3    3    0    0  0.13045643457E+02 -0.11705005807E+02 -0.94290146034E+01  0.19902318729E+02  0.51100000000E-03 0.  1.
         12    1    3    3    0    0 -0.67335539446E+01 -0.14140357346E+02 -0.20131867317E+02  0.25506519485E+02  0.00000000000E+00 0. -1.
</event>
<event>
 7    1  0.3449452E-011  0.5052887E+02  0.7816164E-02  0.1300439E+00
        -11   -1    0    0    0    0  0.00000000000E+00  0.00000000000E+00  0.45593999997E+02  0.45594000000E+02  0.51100000000E-03 0.  1.
         11   -1    0    0    0    0 -0.00000000000E+00 -0.00000000000E+00 -0.45593999997E+02  0.45594000000E+02  0.51100000000E-03 0. -1.
    9900012    2    1    2    0    0  0.26556533030E+02 -0.11546035283E+02 -0.28541283410E+02  0.50528865282E+02  0.30000016511E+02 0.  0.
        -12    1    1    2    0    0 -0.26556533030E+02  0.11546035283E+02  0.28541283410E+02  0.40659134718E+02  0.00000000000E+00 0.  1.
         11    1    3    3    0    0  0.29391051330E+00 -0.40834277728E+01 -0.13100963022E+02  0.13725742171E+02  0.51100000000E-03 0. -1.
        -11    1    3    3    0    0  0.36973251559E+01  0.46198141014E+01  0.15053803943E+01  0.61056585257E+01  0.51100000000E-03 0.  1.
        -12    1    3    3    0    0  0.22565297361E+02 -0.12082421611E+02 -0.16945700782E+02  0.30697464586E+02  0.00000000000E+00 0.  1.
</event>
<event>
 7    1  0.3449452E-011  0.5052872E+02  0.7816164E-02  0.1300439E+00
        -11   -1    0    0    0    0  0.00000000000E+00  0.00000000000E+00  0.45593999997E+02  0.45594000000E+02  0.51100000000E-03 0. -1.
         11   -1    0    0    0    0 -0.00000000000E+00 -0.00000000000E+00 -0.45593999997E+02  0.45594000000E+02  0.51100000000E-03 0.  1.
    9900012    2    1    2    0    0 -0.27539306906E+01  0.37825604488E+02  0.14656632368E+02  0.50528716171E+02  0.29999563270E+02 0.  0.
        -12    1    1    2    0    0  0.27539306906E+01 -0.37825604488E+02 -0.14656632368E+02  0.40659283829E+02  0.00000000000E+00 0.  1.
         11    1    3    3    0    0 -0.17874690651E+01  0.15496738521E+01 -0.61979795696E+01  0.66341152924E+01  0.51100000000E-03 0.  1.
        -11    1    3    3    0    0  0.59009151690E+01  0.16295259080E+02  0.73874076538E+01  0.18839587586E+02  0.51100000000E-03 0. -1.
        -12    1    3    3    0    0 -0.68673767945E+01  0.19980671555E+02  0.13467204284E+02  0.25055013292E+02  0.00000000000E+00 0.  1.
</event>
<event>
 7    1  0.3449452E-011  0.5052886E+02  0.7816164E-02  0.1300439E+00
        -11   -1    0    0    0    0  0.00000000000E+00  0.00000000000E+00  0.45593999997E+02  0.45594000000E+02  0.51100000000E-03 0.  1.
         11   -1    0    0    0    0 -0.00000000000E+00 -0.00000000000E+00 -0.45593999997E+02  0.45594000000E+02  0.51100000000E-03 0. -1.
    9900012    2    1    2    0    0 -0.28188164237E+02  0.67280792686E+01 -0.28518868252E+02  0.50528862035E+02  0.30000006642E+02 0.  0.
        -12    1    1    2    0    0  0.28188164237E+02 -0.67280792686E+01  0.28518868252E+02  0.40659137965E+02  0.00000000000E+00 0.  1.
         11    1    3    3    0    0 -0.13614636204E+02  0.44795593467E+00 -0.24663087213E+02  0.28174933090E+02  0.51100000000E-03 0. -1.
        -11    1    3    3    0    0 -0.68223504135E+01  0.10074106711E+02 -0.58446005435E+01  0.13497831195E+02  0.51100000000E-03 0.  1.
         12    1    3    3    0    0 -0.77511776197E+01 -0.37939833767E+01  0.19888195043E+01  0.88560977510E+01  0.00000000000E+00 0. -1.
</event>
<event>
 7    1  0.3449452E-011  0.5052886E+02  0.7816164E-02  0.1300439E+00
        -11   -1    0    0    0    0  0.00000000000E+00  0.00000000000E+00  0.45593999997E+02  0.45594000000E+02  0.51100000000E-03 0. -1.
         11   -1    0    0    0    0 -0.00000000000E+00 -0.00000000000E+00 -0.45593999997E+02  0.45594000000E+02  0.51100000000E-03 0.  1.
    9900012    2    1    2    0    0 -0.24679390556E+01  0.39175586079E+02 -0.10599455927E+02  0.50528859161E+02  0.29999997906E+02 0.  0.
        -12    1    1    2    0    0  0.24679390556E+01 -0.39175586079E+02  0.10599455927E+02  0.40659140839E+02  0.00000000000E+00 0.  1.
         11    1    3    3    0    0  0.12499111807E+01 -0.27523251773E+01  0.22156112964E+01  0.37478667958E+01  0.51100000000E-03 0. -1.
        -11    1    3    3    0    0  0.40245023657E+01  0.60443217579E+01 -0.60541020238E+01  0.94542369539E+01  0.51100000000E-03 0.  1.
        -12    1    3    3    0    0 -0.77423526020E+01  0.35883589498E+02 -0.67609651992E+01  0.37326755411E+02  0.00000000000E+00 0.  1.
</event>
<event>
 7    1  0.3449452E-011  0.5052885E+02  0.7816164E-02  0.1300439E+00
        -11   -1    0    0    0    0  0.00000000000E+00  0.00000000000E+00  0.45593999997E+02  0.45594000000E+02  0.51100000000E-03 0. -1.
         11   -1    0    0    0    0 -0.00000000000E+00 -0.00000000000E+00 -0.45593999997E+02  0.45594000000E+02  0.51100000000E-03 0.  1.
    9900012    2    1    2    0    0 -0.14918281160E+02  0.37781802177E+02 -0.17738615336E+01  0.50528852527E+02  0.29999977741E+02 0.  0.
        -12    1    1    2    0    0  0.14918281160E+02 -0.37781802177E+02  0.17738615336E+01  0.40659147473E+02  0.00000000000E+00 0.  1.
         11    1    3    3    0    0  0.31469643268E+01  0.94217682711E+01 -0.47389068407E+00  0.99447309904E+01  0.51100000000E-03 0. -1.
        -11    1    3    3    0    0 -0.78580910125E+01  0.10068189273E+01 -0.73062960123E+01  0.10777070121E+02  0.51100000000E-03 0.  1.
         12    1    3    3    0    0 -0.10207154474E+02  0.27353214978E+02  0.60063251628E+01  0.29807051415E+02  0.00000000000E+00 0. -1.
</event>
<event>
 7    1  0.3449452E-011  0.5052886E+02  0.7816164E-02  0.1300439E+00
        -11   -1    0    0    0    0  0.00000000000E+00  0.00000000000E+00  0.45593999997E+02  0.45594000000E+02  0.51100000000E-03 0.  1.
         11   -1    0    0    0    0 -0.00000000000E+00 -0.00000000000E+00 -0.45593999997E+02  0.45594000000E+02  0.51100000000E-03 0. -1.
    9900012    2    1    2    0    0  0.33566938839E+02 -0.71404174042E+00 -0.22932873040E+02  0.50528857062E+02  0.29999991525E+02 0.  0.
        -12    1    1    2    0    0 -0.33566938839E+02  0.71404174042E+00  0.22932873040E+02  0.40659142938E+02  0.00000000000E+00 0.  1.
         11    1    3    3    0    0  0.99107892045E+01  0.50026851611E+01  0.31857734609E+01  0.11549881137E+02  0.51100000000E-03 0. -1.
        -11    1    3    3    0    0 -0.16629205606E+01  0.59004139382E+00 -0.53387851825E+01  0.56228178988E+01  0.51100000000E-03 0.  1.
         12    1    3    3    0    0  0.25319070195E+02 -0.63067682954E+01 -0.20779861318E+02  0.33356158026E+02  0.00000000000E+00 0. -1.
</event>
<event>
 7    1  0.3449452E-011  0.5052886E+02  0.7816164E-02  0.1300439E+00
        -11   -1    0    0    0    0  0.00000000000E+00  0.00000000000E+00  0.45593999997E+02  0.45594000000E+02  0.51100000000E-03 0.  1.
         11   -1    0    0    0    0 -0.00000000000E+00 -0.00000000000E+00 -0.45593999997E+02  0.45594000000E+02  0.51100000000E-03 0. -1.
    9900012    2    1    2    0    0  0.24370199460E+02 -0.80448927578E+01 -0.31536308770E+02  0.50528859674E+02  0.29999999465E+02 0.  0.
        -12    1    1    2    0    0 -0.24370199460E+02  0.80448927578E+01  0.31536308770E+02  0.40659140326E+02  0.00000000000E+00 0.  1.
         11    1    3    3    0    0  0.18350624729E+02 -0.20536859465E+01 -0.16867247941E+02  0.25009340401E+02  0.51100000000E-03 0. -1.
        -11    1    3    3    0    0  0.47174856401E+00  0.61570797963E+01 -0.92170331503E+01  0.11094407541E+02  0.51100000000E-03 0.  1.
        -12    1    3    3    0    0  0.55478261677E+01 -0.12148286608E+02 -0.54520276785E+01  0.14425111733E+02  0.00000000000E+00 0.  1.
</event>
<event>
 7    1  0.3868762E-011  0.5052886E+02  0.7816164E-02  0.1300439E+00
        -11   -1    0    0    0    0  0.00000000000E+00  0.00000000000E+00  0.45593999997E+02  0.45594000000E+02  0.51100000000E-03 0.  1.
         11   -1    0    0    0    0 -0.00000000000E+00 -0.00000000000E+00 -0.45593999997E+02  0.45594000000E+02  0.51100000000E-03 0. -1.
    9900012    2    1    2    0    0  0.18217073018E+02  0.35413213256E+02 -0.81980711442E+01  0.50528858433E+02  0.29999995694E+02 0.  0.
        -12    1    1    2    0    0 -0.18217073018E+02 -0.35413213256E+02  0.81980711442E+01  0.40659141567E+02  0.00000000000E+00 0.  1.
         11    1    3    3    0    0  0.99260516101E+01  0.18905668718E+02 -0.58721078791E+01  0.22145709776E+02  0.51100000000E-03 0. -1.
        -11    1    3    3    0    0  0.78195664798E+01  0.12979021331E+02  0.82298031932E+01  0.17243267541E+02  0.51100000000E-03 0.  1.
        -12    1    3    3    0    0  0.47145492795E+00  0.35285232067E+01 -0.10555766458E+02  0.11139881117E+02  0.00000000000E+00 0.  1.
</event>
<event>
 7    1  0.3449452E-011  0.5052887E+02  0.7816164E-02  0.1300439E+00
        -11   -1    0    0    0    0  0.00000000000E+00  0.00000000000E+00  0.45593999997E+02  0.45594000000E+02  0.51100000000E-03 0.  1.
         11   -1    0    0    0    0 -0.00000000000E+00 -0.00000000000E+00 -0.45593999997E+02  0.45594000000E+02  0.51100000000E-03 0. -1.
    9900012    2    1    2    0    0  0.17624542592E+02 -0.13488128879E+02 -0.34067742195E+02  0.50528865965E+02  0.30000018586E+02 0.  0.
        -12    1    1    2    0    0 -0.17624542592E+02  0.13488128879E+02  0.34067742195E+02  0.40659134035E+02  0.00000000000E+00 0.  1.
         11    1    3    3    0    0  0.50298605735E+01  0.12989758804E+01 -0.18331819813E+02  0.19053672970E+02  0.51100000000E-03 0. -1.
        -11    1    3    3    0    0  0.20368041759E+01  0.71446615824E+00 -0.12199819347E+02  0.12389294794E+02  0.51100000000E-03 0.  1.
        -12    1    3    3    0    0  0.10557877843E+02 -0.15501570918E+02 -0.35361030353E+01  0.19085898201E+02  0.00000000000E+00 0.  1.
</event>
<event>
 7    1  0.3449452E-011  0.5052886E+02  0.7816164E-02  0.1300439E+00
        -11   -1    0    0    0    0  0.00000000000E+00  0.00000000000E+00  0.45593999997E+02  0.45594000000E+02  0.51100000000E-03 0.  1.
         11   -1    0    0    0    0 -0.00000000000E+00 -0.00000000000E+00 -0.45593999997E+02  0.45594000000E+02  0.51100000000E-03 0. -1.
    9900012    2    1    2    0    0 -0.17806616894E+01 -0.11705757930E+02 -0.38896919689E+02  0.50528857288E+02  0.29999992212E+02 0.  0.
        -12    1    1    2    0    0  0.17806616894E+01  0.11705757930E+02  0.38896919689E+02  0.40659142712E+02  0.00000000000E+00 0.  1.
         11    1    3    3    0    0 -0.66738366904E+01 -0.59852188259E+01 -0.13265868646E+02  0.16010815462E+02  0.51100000000E-03 0. -1.
        -11    1    3    3    0    0 -0.58844027492E+01 -0.99070198959E+01 -0.11840744153E+02  0.16522059838E+02  0.51100000000E-03 0.  1.
        -12    1    3    3    0    0  0.10777577750E+02  0.41864807916E+01 -0.13790306890E+02  0.17995981988E+02  0.00000000000E+00 0.  1.
</event>
<event>
 7    1  0.3449452E-011  0.5052886E+02  0.7816164E-02  0.1300439E+00
        -11   -1    0    0    0    0  0.00000000000E+00  0.00000000000E+00  0.45593999997E+02  0.45594000000E+02  0.51100000000E-03 0.  1.
         11   -1    0    0    0    0 -0.00000000000E+00 -0.00000000000E+00 -0.45593999997E+02  0.45594000000E+02  0.51100000000E-03 0. -1.
    9900012    2    1    2    0    0 -0.47491829050E+00  0.24379664891E+02 -0.32535707437E+02  0.50528857535E+02  0.29999992963E+02 0.  0.
        -12    1    1    2    0    0  0.47491829050E+00 -0.24379664891E+02  0.32535707437E+02  0.40659142465E+02  0.00000000000E+00 0.  1.
         11    1    3    3    0    0  0.66851235887E+01  0.17523830182E+02 -0.70158336427E+01  0.20024920065E+02  0.51100000000E-03 0.  1.
        -11    1    3    3    0    0  0.90071262765E+00 -0.28689765413E+01 -0.14887231935E+01  0.33553847231E+01  0.51100000000E-03 0. -1.
         12    1    3    3    0    0 -0.80607545068E+01  0.97248112501E+01 -0.24031150601E+02  0.27148552747E+02  0.00000000000E+00 0. -1.
</event>
<event>
 7    1  0.3449452E-011  0.5052886E+02  0.7816164E-02  0.1300439E+00
        -11   -1    0    0    0    0  0.00000000000E+00  0.00000000000E+00  0.45593999997E+02  0.45594000000E+02  0.51100000000E-03 0.  1.
         11   -1    0    0    0    0 -0.00000000000E+00 -0.00000000000E+00 -0.45593999997E+02  0.45594000000E+02  0.51100000000E-03 0. -1.
    9900012    2    1    2    0    0  0.17466516003E+02  0.12129324523E+01 -0.36696253346E+02  0.50528863314E+02  0.30000010531E+02 0.  0.
        -12    1    1    2    0    0 -0.17466516003E+02 -0.12129324523E+01  0.36696253346E+02  0.40659136686E+02  0.00000000000E+00 0.  1.
         11    1    3    3    0    0  0.11721147134E+02  0.47253150823E+01 -0.15748083712E+02  0.20191979438E+02  0.51100000000E-03 0. -1.
        -11    1    3    3    0    0  0.48155528993E+00 -0.39917043173E+01 -0.23931890080E+02  0.24267281717E+02  0.51100000000E-03 0.  1.
         12    1    3    3    0    0  0.52638135786E+01  0.47932168720E+00  0.29837204467E+01  0.60696021595E+01  0.00000000000E+00 0. -1.
</event>
<event>
 7    1  0.3449452E-011  0.5052886E+02  0.7816164E-02  0.1300439E+00
        -11   -1    0    0    0    0  0.00000000000E+00  0.00000000000E+00  0.45593999997E+02  0.45594000000E+02  0.51100000000E-03 0.  1.
         11   -1    0    0    0    0 -0.00000000000E+00 -0.00000000000E+00 -0.45593999997E+02  0.45594000000E+02  0.51100000000E-03 0. -1.
    9900012    2    1    2    0    0 -0.28792424375E+02 -0.11476461856E+02 -0.26314491859E+02  0.50528863758E+02  0.30000011879E+02 0.  0.
        -12    1    1    2    0    0  0.28792424375E+02  0.11476461856E+02  0.26314491859E+02  0.40659136242E+02  0.00000000000E+00 0.  1.
         11    1    3    3    0    0 -0.21375874753E+02  0.18565963243E+01 -0.10001946403E+02  0.23673062825E+02  0.51100000000E-03 0. -1.
        -11    1    3    3    0    0 -0.51346172138E+01  0.52413796048E+00 -0.10415364987E+02  0.11624063085E+02  0.51100000000E-03 0.  1.
        -12    1    3    3    0    0 -0.22819324078E+01 -0.13857196141E+02 -0.58971804688E+01  0.15231737848E+02  0.00000000000E+00 0.  1.
</event>
<event>
 7    1  0.3449452E-011  0.5052886E+02  0.7816164E-02  0.1300439E+00
        -11   -1    0    0    0    0  0.00000000000E+00  0.00000000000E+00  0.45593999997E+02  0.45594000000E+02  0.51100000000E-03 0.  1.
         11   -1    0    0    0    0 -0.00000000000E+00 -0.00000000000E+00 -0.45593999997E+02  0.45594000000E+02  0.51100000000E-03 0. -1.
    9900012    2    1    2    0    0  0.11966528376E+02 -0.10547715262E+02 -0.37399379514E+02  0.50528859740E+02  0.29999999666E+02 0.  0.
        -12    1    1    2    0    0 -0.11966528376E+02  0.10547715262E+02  0.37399379514E+02  0.40659140260E+02  0.00000000000E+00 0.  1.
         11    1    3    3    0    0  0.14150449774E+02 -0.11825568445E+02 -0.16932075263E+02  0.25035464262E+02  0.51100000000E-03 0. -1.
        -11    1    3    3    0    0  0.60974205823E+01  0.20196263659E+01 -0.59071891952E+01  0.87265292565E+01  0.51100000000E-03 0.  1.
        -12    1    3    3    0    0 -0.82813419802E+01 -0.74177318319E+00 -0.14560115056E+02  0.16766866221E+02  0.00000000000E+00 0.  1.
</event>
<event>
 7    1  0.3495278E-011  0.5052887E+02  0.7816164E-02  0.1300439E+00
        -11   -1    0    0    0    0  0.00000000000E+00  0.00000000000E+00  0.45593999997E+02  0.45594000000E+02  0.51100000000E-03 0.  1.
         11   -1    0    0    0    0 -0.00000000000E+00 -0.00000000000E+00 -0.45593999997E+02  0.45594000000E+02  0.51100000000E-03 0. -1.
    9900012    2    1    2    0    0  0.37956390435E+02  0.14332426290E+02  0.26568830460E+01  0.50528867622E+02  0.30000023624E+02 0.  0.
        -12    1    1    2    0    0 -0.37956390435E+02 -0.14332426290E+02 -0.26568830460E+01  0.40659132378E+02  0.00000000000E+00 0.  1.
         11    1    3    3    0    0  0.29567640506E+02  0.14066289745E+02  0.27964126687E+01  0.32862224459E+02  0.51100000000E-03 0. -1.
        -11    1    3    3    0    0 -0.23617417415E+01  0.52907161927E+01  0.15994869044E+00  0.57961267869E+01  0.51100000000E-03 0.  1.
        -12    1    3    3    0    0  0.10750491670E+02 -0.50245796477E+01 -0.29947831316E+00  0.11870516376E+02  0.00000000000E+00 0.  1.
</event>
<event>
 7    1  0.3449452E-011  0.5052885E+02  0.7816164E-02  0.1300439E+00
        -11   -1    0    0    0    0  0.00000000000E+00  0.00000000000E+00  0.45593999997E+02  0.45594000000E+02  0.51100000000E-03 0. -1.
         11   -1    0    0    0    0 -0.00000000000E+00 -0.00000000000E+00 -0.45593999997E+02  0.45594000000E+02  0.51100000000E-03 0.  1.
    9900012    2    1    2    0    0 -0.24936527588E+02  0.17863579102E+02  0.26687616578E+02  0.50528846724E+02  0.29999960104E+02 0.  0.
        -12    1    1    2    0    0  0.24936527588E+02 -0.17863579102E+02 -0.26687616578E+02  0.40659153276E+02  0.00000000000E+00 0.  1.
         11    1    3    3    0    0 -0.23246600700E+02  0.70999019512E+01  0.12847069674E+02  0.27492912747E+02  0.51100000000E-03 0.  1.
        -11    1    3    3    0    0 -0.31636321041E+01 -0.20926067895E+01  0.79690405279E+01  0.88257112157E+01  0.51100000000E-03 0. -1.
        -12    1    3    3    0    0  0.14737052169E+01  0.12856283940E+02  0.58715063763E+01  0.14210222762E+02  0.00000000000E+00 0.  1.
</event>
<event>
 7    1  0.3449452E-011  0.5052884E+02  0.7816164E-02  0.1300439E+00
        -11   -1    0    0    0    0  0.00000000000E+00  0.00000000000E+00  0.45593999997E+02  0.45594000000E+02  0.51100000000E-03 0.  1.
         11   -1    0    0    0    0 -0.00000000000E+00 -0.00000000000E+00 -0.45593999997E+02  0.45594000000E+02  0.51100000000E-03 0. -1.
    9900012    2    1    2    0    0 -0.31602993636E+02  0.19866351480E+02  0.16116643833E+02  0.50528839453E+02  0.29999938002E+02 0.  0.
        -12    1    1    2    0    0  0.31602993636E+02 -0.19866351480E+02 -0.16116643833E+02  0.40659160547E+02  0.00000000000E+00 0.  1.
         11    1    3    3    0    0 -0.15778739334E+02  0.43256012594E+01 -0.54366339940E+01  0.17240546124E+02  0.51100000000E-03 0. -1.
        -11    1    3    3    0    0 -0.44660219774E+01  0.29876542945E+01  0.13522814234E+02  0.14551217666E+02  0.51100000000E-03 0.  1.
         12    1    3    3    0    0 -0.11358232326E+02  0.12553095926E+02  0.80304635933E+01  0.18737075663E+02  0.00000000000E+00 0. -1.
</event>
<event>
 7    1  0.3449452E-011  0.5052886E+02  0.7816164E-02  0.1300439E+00
        -11   -1    0    0    0    0  0.00000000000E+00  0.00000000000E+00  0.45593999997E+02  0.45594000000E+02  0.51100000000E-03 0.  1.
         11   -1    0    0    0    0 -0.00000000000E+00 -0.00000000000E+00 -0.45593999997E+02  0.45594000000E+02  0.51100000000E-03 0. -1.
    9900012    2    1    2    0    0 -0.12896936676E+02 -0.29252516419E+02 -0.25122202593E+02  0.50528858892E+02  0.29999997089E+02 0.  0.
        -12    1    1    2    0    0  0.12896936676E+02  0.29252516419E+02  0.25122202593E+02  0.40659141108E+02  0.00000000000E+00 0.  1.
         11    1    3    3    0    0 -0.59132019459E+01 -0.16890425310E+02 -0.56398559813E+01  0.18763272639E+02  0.51100000000E-03 0. -1.
        -11    1    3    3    0    0 -0.50962970912E+01 -0.17100752909E+02 -0.19800937970E+02  0.26654927103E+02  0.51100000000E-03 0.  1.
        -12    1    3    3    0    0 -0.18874376391E+01  0.47386617998E+01  0.31859135832E+00  0.51106591500E+01  0.00000000000E+00 0.  1.
</event>
<event>
 7    1  0.3449452E-011  0.5052886E+02  0.7816164E-02  0.1300439E+00
        -11   -1    0    0    0    0  0.00000000000E+00  0.00000000000E+00  0.45593999997E+02  0.45594000000E+02  0.51100000000E-03 0.  1.
         11   -1    0    0    0    0 -0.00000000000E+00 -0.00000000000E+00 -0.45593999997E+02  0.45594000000E+02  0.51100000000E-03 0. -1.
    9900012    2    1    2    0    0  0.11557145060E+02  0.27697129357E+02 -0.27431134493E+02  0.50528859378E+02  0.29999998565E+02 0.  0.
        -12    1    1    2    0    0 -0.11557145060E+02 -0.27697129357E+02  0.27431134493E+02  0.40659140622E+02  0.00000000000E+00 0.  1.
         11    1    3    3    0    0 -0.12548541907E+01 -0.27766743001E+01 -0.99237638224E+01  0.10381024413E+02  0.51100000000E-03 0. -1.
        -11    1    3    3    0    0  0.70943457138E+01  0.25248278251E+01 -0.47030528187E+01  0.88782432232E+01  0.51100000000E-03 0.  1.
         12    1    3    3    0    0  0.57176535368E+01  0.27948975832E+02 -0.12804317852E+02  0.31269591741E+02  0.00000000000E+00 0. -1.
</event>
<event>
 7    1  0.3449452E-011  0.5052886E+02  0.7816164E-02  0.1300439E+00
        -11   -1    0    0    0    0  0.00000000000E+00  0.00000000000E+00  0.45593999997E+02  0.45594000000E+02  0.51100000000E-03 0.  1.
         11   -1    0    0    0    0 -0.00000000000E+00 -0.00000000000E+00 -0.45593999997E+02  0.45594000000E+02  0.51100000000E-03 0. -1.
    9900012    2    1    2    0    0  0.24094367737E+02  0.22886675706E+00 -0.32750187782E+02  0.50528859129E+02  0.29999997808E+02 0.  0.
        -12    1    1    2    0    0 -0.24094367737E+02 -0.22886675706E+00  0.32750187782E+02  0.40659140871E+02  0.00000000000E+00 0.  1.
         11    1    3    3    0    0  0.11810744169E+02  0.11346966120E+01 -0.32656917734E+02  0.34745582315E+02  0.51100000000E-03 0. -1.
        -11    1    3    3    0    0 -0.83545345415E+00  0.18518956394E+01 -0.11524099389E+01  0.23357116392E+01  0.51100000000E-03 0.  1.
         12    1    3    3    0    0  0.13119077022E+02 -0.27577254943E+01  0.10591398915E+01  0.13447565175E+02  0.00000000000E+00 0. -1.
</event>
<event>
 7    1  0.3449452E-011  0.5052885E+02  0.7816164E-02  0.1300439E+00
        -11   -1    0    0    0    0  0.00000000000E+00  0.00000000000E+00  0.45593999997E+02  0.45594000000E+02  0.51100000000E-03 0. -1.
         11   -1    0    0    0    0 -0.00000000000E+00 -0.00000000000E+00 -0.45593999997E+02  0.45594000000E+02  0.51100000000E-03 0.  1.
    9900012    2    1    2    0    0 -0.17571463392E+02 -0.23695211163E+02  0.27981199019E+02  0.50528845356E+02  0.29999955945E+02 0.  0.
        -12    1    1    2    0    0  0.17571463392E+02  0.23695211163E+02 -0.27981199019E+02  0.40659154644E+02  0.00000000000E+00 0.  1.
         11    1    3    3    0    0 -0.54344795371E+01 -0.19393724080E+02  0.55811365346E+01  0.20899741309E+02  0.51100000000E-03 0. -1.
        -11    1    3    3    0    0  0.26015798461E+01 -0.38325575683E+00  0.88368898851E+01  0.92198549757E+01  0.51100000000E-03 0.  1.
        -12    1    3    3    0    0 -0.14738563701E+02 -0.39182313265E+01  0.13563172599E+02  0.20409249071E+02  0.00000000000E+00 0.  1.
</event>
<event>
 7    1  0.3449452E-011  0.5052883E+02  0.7816164E-02  0.1300439E+00
        -11   -1    0    0    0    0  0.00000000000E+00  0.00000000000E+00  0.45593999997E+02  0.45594000000E+02  0.51100000000E-03 0.  1.
         11   -1    0    0    0    0 -0.00000000000E+00 -0.00000000000E+00 -0.45593999997E+02  0.45594000000E+02  0.51100000000E-03 0. -1.
    9900012    2    1    2    0    0  0.39963115419E+02  0.66380559550E+01 -0.34718222528E+01  0.50528832146E+02  0.29999915790E+02 0.  0.
        -12    1    1    2    0    0 -0.39963115419E+02 -0.66380559550E+01  0.34718222528E+01  0.40659167854E+02  0.00000000000E+00 0.  1.
         11    1    3    3    0    0  0.15830997830E+02 -0.54722178401E+00 -0.48220733214E+01  0.16558150119E+02  0.51100000000E-03 0. -1.
        -11    1    3    3    0    0  0.13989189438E+02 -0.53398580478E+01  0.74666928551E+01  0.16732095134E+02  0.51100000000E-03 0.  1.
        -12    1    3    3    0    0  0.10142928150E+02  0.12525135787E+02 -0.61164417864E+01  0.17238586893E+02  0.00000000000E+00 0.  1.
</event>
<event>
 7    1  0.3449452E-011  0.5052885E+02  0.7816164E-02  0.1300439E+00
        -11   -1    0    0    0    0  0.00000000000E+00  0.00000000000E+00  0.45593999997E+02  0.45594000000E+02  0.51100000000E-03 0.  1.
         11   -1    0    0    0    0 -0.00000000000E+00 -0.00000000000E+00 -0.45593999997E+02  0.45594000000E+02  0.51100000000E-03 0. -1.
    9900012    2    1    2    0    0 -0.10825137335E+02  0.20661492263E+02 -0.33302938031E+02  0.50528849218E+02  0.29999967682E+02 0.  0.
        -12    1    1    2    0    0  0.10825137335E+02 -0.20661492263E+02  0.33302938031E+02  0.40659150782E+02  0.00000000000E+00 0.  1.
         11    1    3    3    0    0 -0.44414802819E+01  0.14805881496E+02 -0.11511457654E+02  0.19273155724E+02  0.51100000000E-03 0.  1.
        -11    1    3    3    0    0  0.27480728842E+01  0.91934962064E+01 -0.18759759743E+02  0.21071327983E+02  0.51100000000E-03 0. -1.
        -12    1    3    3    0    0 -0.91317299372E+01 -0.33378854403E+01 -0.30317206340E+01  0.10184365511E+02  0.00000000000E+00 0.  1.
</event>
<event>
 7    1  0.3449452E-011  0.5052884E+02  0.7816164E-02  0.1300439E+00
        -11   -1    0    0    0    0  0.00000000000E+00  0.00000000000E+00  0.45593999997E+02  0.45594000000E+02  0.51100000000E-03 0.  1.
         11   -1    0    0    0    0 -0.00000000000E+00 -0.00000000000E+00 -0.45593999997E+02  0.45594000000E+02  0.51100000000E-03 0. -1.
    9900012    2    1    2    0    0  0.18039143630E+02  0.49090365457E+01 -0.36106202563E+02  0.50528841053E+02  0.29999942866E+02 0.  0.
        -12    1    1    2    0    0 -0.18039143630E+02 -0.49090365457E+01  0.36106202563E+02  0.40659158947E+02  0.00000000000E+00 0.  1.
         11    1    3    3    0    0  0.53454900720E+01 -0.93267923388E+01 -0.16702066195E+02  0.19862586309E+02  0.51100000000E-03 0. -1.
        -11    1    3    3    0    0 -0.30805629334E+01  0.18103102317E+01 -0.39594004961E+01  0.53332863857E+01  0.51100000000E-03 0.  1.
         12    1    3    3    0    0  0.15774216491E+02  0.12425518653E+02 -0.15444735873E+02  0.25332968359E+02  0.00000000000E+00 0. -1.
</event>
<event>
 7    1  0.3449452E-011  0.5052874E+02  0.7816164E-02  0.1300439E+00
        -11   -1    0    0    0    0  0.00000000000E+00  0.00000000000E+00  0.45593999997E+02  0.45594000000E+02  0.51100000000E-03 0.  1.
         11   -1    0    0    0    0 -0.00000000000E+00 -0.00000000000E+00 -0.45593999997E+02  0.45594000000E+02  0.51100000000E-03 0. -1.
    9900012    2    1    2    0    0 -0.12032923678E+02  0.10750540530E+02 -0.37320369821E+02  0.50528740568E+02  0.29999637430E+02 0.  0.
        -12    1    1    2    0    0  0.12032923678E+02 -0.10750540530E+02  0.37320369821E+02  0.40659259432E+02  0.00000000000E+00 0.  1.
         11    1    3    3    0    0 -0.34800745135E+01 -0.77922606252E+01 -0.98683844164E+01  0.13046656871E+02  0.51100000000E-03 0. -1.
        -11    1    3    3    0    0 -0.43347549558E+01  0.22146580972E+01  0.44062323356E+00  0.48876333854E+01  0.51100000000E-03 0.  1.
         12    1    3    3    0    0 -0.42180942082E+01  0.16328143057E+02 -0.27892608639E+02  0.32594450312E+02  0.00000000000E+00 0. -1.
</event>
<event>
 7    1  0.3449452E-011  0.5052888E+02  0.7816164E-02  0.1300439E+00
        -11   -1    0    0    0    0  0.00000000000E+00  0.00000000000E+00  0.45593999997E+02  0.45594000000E+02  0.51100000000E-03 0.  1.
         11   -1    0    0    0    0 -0.00000000000E+00 -0.00000000000E+00 -0.45593999997E+02  0.45594000000E+02  0.51100000000E-03 0. -1.
    9900012    2    1    2    0    0  0.12447028789E+01  0.19703187075E+02 -0.35544325819E+02  0.50528880923E+02  0.30000064053E+02 0.  0.
        -12    1    1    2    0    0 -0.12447028789E+01 -0.19703187075E+02  0.35544325819E+02  0.40659119077E+02  0.00000000000E+00 0.  1.
         11    1    3    3    0    0 -0.78131467039E+01  0.73910343196E+01 -0.18211305174E+02  0.21150042226E+02  0.51100000000E-03 0. -1.
        -11    1    3    3    0    0  0.34157134555E+01  0.16205492749E+02 -0.14307386571E+02  0.21885758027E+02  0.51100000000E-03 0.  1.
         12    1    3    3    0    0  0.56421361274E+01 -0.38933399934E+01 -0.30256340739E+01  0.74930806704E+01  0.00000000000E+00 0. -1.
</event>
<event>
 7    1  0.3449452E-011  0.5052887E+02  0.7816164E-02  0.1300439E+00
        -11   -1    0    0    0    0  0.00000000000E+00  0.00000000000E+00  0.45593999997E+02  0.45594000000E+02  0.51100000000E-03 0.  1.
         11   -1    0    0    0    0 -0.00000000000E+00 -0.00000000000E+00 -0.45593999997E+02  0.45594000000E+02  0.51100000000E-03 0. -1.
    9900012    2    1    2    0    0  0.78984615932E+00 -0.40586739509E+02  0.22929763311E+01  0.50528867921E+02  0.30000024533E+02 0.  0.
        -12    1    1    2    0    0 -0.78984615932E+00  0.40586739509E+02 -0.22929763311E+01  0.40659132079E+02  0.00000000000E+00 0.  1.
         11    1    3    3    0    0  0.19388464072E+01 -0.67699022388E+01 -0.82093557273E+01  0.10815924530E+02  0.51100000000E-03 0. -1.
        -11    1    3    3    0    0 -0.36813952685E+01 -0.86678112951E+00 -0.21217735692E+01  0.43365774511E+01  0.51100000000E-03 0.  1.
        -12    1    3    3    0    0  0.25323950206E+01 -0.32950056141E+02  0.12624105628E+02  0.35376365940E+02  0.00000000000E+00 0.  1.
</event>
<event>
 7    1  0.3449452E-011  0.5052887E+02  0.7816164E-02  0.1300439E+00
        -11   -1    0    0    0    0  0.00000000000E+00  0.00000000000E+00  0.45593999997E+02  0.45594000000E+02  0.51100000000E-03 0.  1.
         11   -1    0    0    0    0 -0.00000000000E+00 -0.00000000000E+00 -0.45593999997E+02  0.45594000000E+02  0.51100000000E-03 0. -1.
    9900012    2    1    2    0    0 -0.33669539629E+02 -0.21631229876E+02 -0.71845003632E+01  0.50528867566E+02  0.30000023454E+02 0.  0.
        -12    1    1    2    0    0  0.33669539629E+02  0.21631229876E+02  0.71845003632E+01  0.40659132434E+02  0.00000000000E+00 0.  1.
         11    1    3    3    0    0 -0.24004349273E+02 -0.21934513872E+02  0.21041734348E+01  0.32584647135E+02  0.51100000000E-03 0. -1.
        -11    1    3    3    0    0 -0.29991383915E+01  0.12797393049E+01  0.26725994225E+01  0.42160825080E+01  0.51100000000E-03 0.  1.
         12    1    3    3    0    0 -0.66660519653E+01 -0.97645530826E+00 -0.11961273221E+02  0.13728137923E+02  0.00000000000E+00 0. -1.
</event>
<event>
 7    1  0.3449452E-011  0.5052887E+02  0.7816164E-02  0.1300439E+00
        -11   -1    0    0    0    0  0.00000000000E+00  0.00000000000E+00  0.45593999997E+02  0.45594000000E+02  0.51100000000E-03 0.  1.
         11   -1    0    0    0    0 -0.00000000000E+00 -0.00000000000E+00 -0.45593999997E+02  0.45594000000E+02  0.51100000000E-03 0. -1.
    9900012    2    1    2    0    0  0.37277300654E+02 -0.15157351086E+02 -0.58156884078E+01  0.50528872272E+02  0.30000037756E+02 0.  0.
        -12    1    1    2    0    0 -0.37277300654E+02  0.15157351086E+02  0.58156884078E+01  0.40659127728E+02  0.00000000000E+00 0.  1.
         11    1    3    3    0    0  0.10308463605E+02  0.85509105801E+00  0.56028850138E+01  0.11763839652E+02  0.51100000000E-03 0. -1.
        -11    1    3    3    0    0  0.14497099214E+02 -0.45970745243E+01  0.41681622158E+01  0.15769354975E+02  0.51100000000E-03 0.  1.
        -12    1    3    3    0    0  0.12471737834E+02 -0.11415367619E+02 -0.15586735637E+02  0.22995677644E+02  0.00000000000E+00 0.  1.
</event>
<event>
 7    1  0.3449452E-011  0.5052887E+02  0.7816164E-02  0.1300439E+00
        -11   -1    0    0    0    0  0.00000000000E+00  0.00000000000E+00  0.45593999997E+02  0.45594000000E+02  0.51100000000E-03 0.  1.
         11   -1    0    0    0    0 -0.00000000000E+00 -0.00000000000E+00 -0.45593999997E+02  0.45594000000E+02  0.51100000000E-03 0. -1.
    9900012    2    1    2    0    0  0.27679047081E+02 -0.50861234160E+01 -0.29345639815E+02  0.50528869723E+02  0.30000030011E+02 0.  0.
        -12    1    1    2    0    0 -0.27679047081E+02  0.50861234160E+01  0.29345639815E+02  0.40659130277E+02  0.00000000000E+00 0.  1.
         11    1    3    3    0    0  0.13060069430E+01  0.70005532784E+01 -0.49131829367E+01  0.86517493705E+01  0.51100000000E-03 0.  1.
        -11    1    3    3    0    0  0.13251309702E+02 -0.21115924420E+01 -0.21185596280E+02  0.25077590025E+02  0.51100000000E-03 0. -1.
        -12    1    3    3    0    0  0.13121730436E+02 -0.99750842524E+01 -0.32468605978E+01  0.16799530327E+02  0.00000000000E+00 0.  1.
</event>
<event>
 7    1  0.3449452E-011  0.5052886E+02  0.7816164E-02  0.1300439E+00
        -11   -1    0    0    0    0  0.00000000000E+00  0.00000000000E+00  0.45593999997E+02  0.45594000000E+02  0.51100000000E-03 0.  1.
         11   -1    0    0    0    0 -0.00000000000E+00 -0.00000000000E+00 -0.45593999997E+02  0.45594000000E+02  0.51100000000E-03 0. -1.
    9900012    2    1    2    0    0 -0.29958562309E+02 -0.23904435186E+02 -0.13573056807E+02  0.50528863902E+02  0.30000012316E+02 0.  0.
        -12    1    1    2    0    0  0.29958562309E+02  0.23904435186E+02  0.13573056807E+02  0.40659136098E+02  0.00000000000E+00 0.  1.
         11    1    3    3    0    0 -0.37466058218E+01 -0.86959312783E+01 -0.87431357601E+01  0.12887928428E+02  0.51100000000E-03 0. -1.
        -11    1    3    3    0    0  0.31625026507E+01 -0.48232366846E+01  0.12388240475E+01  0.58991287843E+01  0.51100000000E-03 0.  1.
         12    1    3    3    0    0 -0.29374459137E+02 -0.10385267223E+02 -0.60687450941E+01  0.31741806690E+02  0.00000000000E+00 0. -1.
</event>
<event>
 7    1  0.3449452E-011  0.5052886E+02  0.7816164E-02  0.1300439E+00
        -11   -1    0    0    0    0  0.00000000000E+00  0.00000000000E+00  0.45593999997E+02  0.45594000000E+02  0.51100000000E-03 0.  1.
         11   -1    0    0    0    0 -0.00000000000E+00 -0.00000000000E+00 -0.45593999997E+02  0.45594000000E+02  0.51100000000E-03 0. -1.
    9900012    2    1    2    0    0 -0.22855614557E+02  0.30292422621E+01 -0.33490451962E+02  0.50528858370E+02  0.29999995503E+02 0.  0.
        -12    1    1    2    0    0  0.22855614557E+02 -0.30292422621E+01  0.33490451962E+02  0.40659141630E+02  0.00000000000E+00 0.  1.
         11    1    3    3    0    0 -0.48917332716E+01 -0.13779583527E+01 -0.10977507654E+02  0.12096838355E+02  0.51100000000E-03 0. -1.
        -11    1    3    3    0    0  0.46842514575E+01 -0.46027480283E+01 -0.30527383167E+01  0.72420102610E+01  0.51100000000E-03 0.  1.
         12    1    3    3    0    0 -0.22648132743E+02  0.90099486431E+01 -0.19460205990E+02  0.31190009754E+02  0.00000000000E+00 0. -1.
</event>
<event>
 7    1  0.3449452E-011  0.5052886E+02  0.7816164E-02  0.1300439E+00
        -11   -1    0    0    0    0  0.00000000000E+00  0.00000000000E+00  0.45593999997E+02  0.45594000000E+02  0.51100000000E-03 0.  1.
         11   -1    0    0    0    0 -0.00000000000E+00 -0.00000000000E+00 -0.45593999997E+02  0.45594000000E+02  0.51100000000E-03 0. -1.
    9900012    2    1    2    0    0 -0.20281903776E+02 -0.31321643532E+02 -0.16148214382E+02  0.50528858321E+02  0.29999995353E+02 0.  0.
        -12    1    1    2    0    0  0.20281903776E+02  0.31321643532E+02  0.16148214382E+02  0.40659141679E+02  0.00000000000E+00 0.  1.
         11    1    3    3    0    0  0.93449985213E+00 -0.77483037340E+01 -0.61168411355E+01  0.99159087564E+01  0.51100000000E-03 0. -1.
        -11    1    3    3    0    0 -0.10864696071E+01  0.33817217766E+01 -0.56681216916E+01  0.66891002499E+01  0.51100000000E-03 0.  1.
         12    1    3    3    0    0 -0.20129934021E+02 -0.26955061575E+02 -0.43632515551E+01  0.33923849315E+02  0.00000000000E+00 0. -1.
</event>
<event>
 7    1  0.3449452E-011  0.5052886E+02  0.7816164E-02  0.1300439E+00
        -11   -1    0    0    0    0  0.00000000000E+00  0.00000000000E+00  0.45593999997E+02  0.45594000000E+02  0.51100000000E-03 0. -1.
         11   -1    0    0    0    0 -0.00000000000E+00 -0.00000000000E+00 -0.45593999997E+02  0.45594000000E+02  0.51100000000E-03 0.  1.
    9900012    2    1    2    0    0 -0.50925018812E+01  0.37776744210E+01  0.40161689871E+02  0.50528859174E+02  0.29999997945E+02 0.  0.
        -12    1    1    2    0    0  0.50925018812E+01 -0.37776744210E+01 -0.40161689871E+02  0.40659140826E+02  0.00000000000E+00 0.  1.
         11    1    3    3    0    0 -0.11677439111E+01 -0.35190777158E+01  0.40135391301E+02  0.40306291928E+02  0.51100000000E-03 0. -1.
        -11    1    3    3    0    0  0.13299604744E+01  0.16967428834E+01  0.11790231327E+01  0.24571990323E+01  0.51100000000E-03 0.  1.
        -12    1    3    3    0    0 -0.52547184445E+01  0.56000092534E+01 -0.11527245633E+01  0.77653682133E+01  0.00000000000E+00 0.  1.
</event>
<event>
 7    1  0.3449452E-011  0.5052886E+02  0.7816164E-02  0.1300439E+00
        -11   -1    0    0    0    0  0.00000000000E+00  0.00000000000E+00  0.45593999997E+02  0.45594000000E+02  0.51100000000E-03 0.  1.
         11   -1    0    0    0    0 -0.00000000000E+00 -0.00000000000E+00 -0.45593999997E+02  0.45594000000E+02  0.51100000000E-03 0. -1.
    9900012    2    1    2    0    0 -0.66871539679E+00  0.97537149663E+01 -0.39466231779E+02  0.50528860969E+02  0.30000003402E+02 0.  0.
        -12    1    1    2    0    0  0.66871539679E+00 -0.97537149663E+01  0.39466231779E+02  0.40659139031E+02  0.00000000000E+00 0.  1.
         11    1    3    3    0    0  0.60068157414E+01  0.27000130028E+01 -0.84306997231E+01  0.10698065416E+02  0.51100000000E-03 0. -1.
        -11    1    3    3    0    0 -0.17396553615E+00 -0.81587666686E+01 -0.76535542114E+01  0.11188057467E+02  0.51100000000E-03 0.  1.
        -12    1    3    3    0    0 -0.65015656020E+01  0.15212468632E+02 -0.23381977844E+02  0.28642738086E+02  0.00000000000E+00 0.  1.
</event>
<event>
 7    1  0.3449452E-011  0.5052886E+02  0.7816164E-02  0.1300439E+00
        -11   -1    0    0    0    0  0.00000000000E+00  0.00000000000E+00  0.45593999997E+02  0.45594000000E+02  0.51100000000E-03 0. -1.
         11   -1    0    0    0    0 -0.00000000000E+00 -0.00000000000E+00 -0.45593999997E+02  0.45594000000E+02  0.51100000000E-03 0.  1.
    9900012    2    1    2    0    0 -0.33338311212E+02 -0.23215593865E+02  0.16609810507E+01  0.50528860178E+02  0.30000000998E+02 0.  0.
        -12    1    1    2    0    0  0.33338311212E+02  0.23215593865E+02 -0.16609810507E+01  0.40659139822E+02  0.00000000000E+00 0.  1.
         11    1    3    3    0    0 -0.11366330726E+02 -0.47791815848E+01 -0.40769611121E+00  0.12336947239E+02  0.51100000000E-03 0. -1.
        -11    1    3    3    0    0 -0.79284608050E+01 -0.97361701531E+01 -0.11336997941E+02  0.16916885723E+02  0.51100000000E-03 0.  1.
         12    1    3    3    0    0 -0.14043519681E+02 -0.87002421268E+01  0.13405675103E+02  0.21275027216E+02  0.00000000000E+00 0. -1.
</event>
<event>
 7    1  0.3449452E-011  0.5052886E+02  0.7816164E-02  0.1300439E+00
        -11   -1    0    0    0    0  0.00000000000E+00  0.00000000000E+00  0.45593999997E+02  0.45594000000E+02  0.51100000000E-03 0.  1.
         11   -1    0    0    0    0 -0.00000000000E+00 -0.00000000000E+00 -0.45593999997E+02  0.45594000000E+02  0.51100000000E-03 0. -1.
    9900012    2    1    2    0    0 -0.23481436060E+01 -0.39766632693E+02  0.81404295503E+01  0.50528862682E+02  0.30000008609E+02 0.  0.
        -12    1    1    2    0    0  0.23481436060E+01  0.39766632693E+02 -0.81404295503E+01  0.40659137318E+02  0.00000000000E+00 0.  1.
         11    1    3    3    0    0  0.45942994284E+00 -0.28750683994E+02  0.70943992230E-01  0.28754442079E+02  0.51100000000E-03 0. -1.
        -11    1    3    3    0    0 -0.77388009179E+01 -0.10915846598E+02  0.13636826414E+01  0.13450069784E+02  0.51100000000E-03 0.  1.
         12    1    3    3    0    0  0.49312273691E+01 -0.10010210182E+00  0.67058029167E+01  0.83243508188E+01  0.00000000000E+00 0. -1.
</event>
<event>
 7    1  0.3449452E-011  0.5052886E+02  0.7816164E-02  0.1300439E+00
        -11   -1    0    0    0    0  0.00000000000E+00  0.00000000000E+00  0.45593999997E+02  0.45594000000E+02  0.51100000000E-03 0. -1.
         11   -1    0    0    0    0 -0.00000000000E+00 -0.00000000000E+00 -0.45593999997E+02  0.45594000000E+02  0.51100000000E-03 0.  1.
    9900012    2    1    2    0    0  0.31351567903E+02 -0.19619146716E+02  0.16891829961E+02  0.50528860225E+02  0.30000001139E+02 0.  0.
        -12    1    1    2    0    0 -0.31351567903E+02  0.19619146716E+02 -0.16891829961E+02  0.40659139775E+02  0.00000000000E+00 0.  1.
         11    1    3    3    0    0  0.11419101409E+02 -0.14517676842E+02  0.15485213945E+02  0.24102918269E+02  0.51100000000E-03 0. -1.
        -11    1    3    3    0    0  0.20460526722E+02 -0.89368235006E+01  0.23223918518E+01  0.22447571633E+02  0.51100000000E-03 0.  1.
         12    1    3    3    0    0 -0.52806022819E+00  0.38353536265E+01 -0.91577583628E+00  0.39783703230E+01  0.00000000000E+00 0. -1.
</event>
<event>
 7    1  0.3449452E-011  0.5052886E+02  0.7816164E-02  0.1300439E+00
        -11   -1    0    0    0    0  0.00000000000E+00  0.00000000000E+00  0.45593999997E+02  0.45594000000E+02  0.51100000000E-03 0.  1.
         11   -1    0    0    0    0 -0.00000000000E+00 -0.00000000000E+00 -0.45593999997E+02  0.45594000000E+02  0.51100000000E-03 0. -1.
    9900012    2    1    2    0    0  0.32546858527E+01  0.34626877635E+02 -0.21060673971E+02  0.50528860525E+02  0.30000002053E+02 0.  0.
        -12    1    1    2    0    0 -0.32546858527E+01 -0.34626877635E+02  0.21060673971E+02  0.40659139475E+02  0.00000000000E+00 0.  1.
         11    1    3    3    0    0  0.55098872870E+01  0.11563613736E+02 -0.49009300459E+01  0.13714778019E+02  0.51100000000E-03 0. -1.
        -11    1    3    3    0    0  0.41237666167E+01  0.54705271733E-01  0.38648957831E+01  0.56520671839E+01  0.51100000000E-03 0.  1.
         12    1    3    3    0    0 -0.63789680511E+01  0.23008558627E+02 -0.20024639708E+02  0.31162015322E+02  0.00000000000E+00 0. -1.
</event>
<event>
 7    1  0.3449452E-011  0.5052885E+02  0.7816164E-02  0.1300439E+00
        -11   -1    0    0    0    0  0.00000000000E+00  0.00000000000E+00  0.45593999997E+02  0.45594000000E+02  0.51100000000E-03 0. -1.
         11   -1    0    0    0    0 -0.00000000000E+00 -0.00000000000E+00 -0.45593999997E+02  0.45594000000E+02  0.51100000000E-03 0.  1.
    9900012    2    1    2    0    0  0.36936993731E+02  0.25703888885E+00  0.16992914270E+02  0.50528847153E+02  0.29999961406E+02 0.  0.
        -12    1    1    2    0    0 -0.36936993731E+02 -0.25703888885E+00 -0.16992914270E+02  0.40659152847E+02  0.00000000000E+00 0.  1.
         11    1    3    3    0    0  0.24929664501E+02 -0.34665358035E+01  0.10359243664E+01  0.25190835282E+02  0.51100000000E-03 0. -1.
        -11    1    3    3    0    0  0.81545148308E+01 -0.53400287555E+01  0.67526899229E+01  0.11857944202E+02  0.51100000000E-03 0.  1.
         12    1    3    3    0    0  0.38528143984E+01  0.90636034478E+01  0.92042999808E+01  0.13480067670E+02  0.00000000000E+00 0. -1.
</event>
<event>
 7    1  0.3449452E-011  0.5052886E+02  0.7816164E-02  0.1300439E+00
        -11   -1    0    0    0    0  0.00000000000E+00  0.00000000000E+00  0.45593999997E+02  0.45594000000E+02  0.51100000000E-03 0.  1.
         11   -1    0    0    0    0 -0.00000000000E+00 -0.00000000000E+00 -0.45593999997E+02  0.45594000000E+02  0.51100000000E-03 0. -1.
    9900012    2    1    2    0    0  0.95887645362E+01 -0.35962852929E+02 -0.16367485917E+02  0.50528858453E+02  0.29999995753E+02 0.  0.
        -12    1    1    2    0    0 -0.95887645362E+01  0.35962852929E+02  0.16367485917E+02  0.40659141547E+02  0.00000000000E+00 0.  1.
         11    1    3    3    0    0  0.33830215578E+01  0.95833033676E-01 -0.48235232568E+01  0.58924015224E+01  0.51100000000E-03 0. -1.
        -11    1    3    3    0    0  0.78123176184E+01 -0.65876107835E+01  0.43590114998E+01  0.11109901166E+02  0.51100000000E-03 0.  1.
         12    1    3    3    0    0 -0.16065746400E+01 -0.29471075179E+02 -0.15902974160E+02  0.33526555764E+02  0.00000000000E+00 0. -1.
</event>
<event>
 7    1  0.3449452E-011  0.5052887E+02  0.7816164E-02  0.1300439E+00
        -11   -1    0    0    0    0  0.00000000000E+00  0.00000000000E+00  0.45593999997E+02  0.45594000000E+02  0.51100000000E-03 0. -1.
         11   -1    0    0    0    0 -0.00000000000E+00 -0.00000000000E+00 -0.45593999997E+02  0.45594000000E+02  0.51100000000E-03 0.  1.
    9900012    2    1    2    0    0 -0.27751646323E+02  0.23697541514E+01  0.29620860266E+02  0.50528868537E+02  0.30000026406E+02 0.  0.
        -12    1    1    2    0    0  0.27751646323E+02 -0.23697541514E+01 -0.29620860266E+02  0.40659131463E+02  0.00000000000E+00 0.  1.
         11    1    3    3    0    0 -0.12799805931E+02  0.28162455592E+01  0.43258333063E+01  0.13801416774E+02  0.51100000000E-03 0. -1.
        -11    1    3    3    0    0 -0.78090456075E+01 -0.77591131334E+01  0.18659129763E+01  0.11165422581E+02  0.51100000000E-03 0.  1.
         12    1    3    3    0    0 -0.71427947843E+01  0.73126217256E+01  0.23429113984E+02  0.25562029182E+02  0.00000000000E+00 0. -1.
</event>
<event>
 7    1  0.3449452E-011  0.5052886E+02  0.7816164E-02  0.1300439E+00
        -11   -1    0    0    0    0  0.00000000000E+00  0.00000000000E+00  0.45593999997E+02  0.45594000000E+02  0.51100000000E-03 0. -1.
         11   -1    0    0    0    0 -0.00000000000E+00 -0.00000000000E+00 -0.45593999997E+02  0.45594000000E+02  0.51100000000E-03 0.  1.
    9900012    2    1    2    0    0 -0.11780344616E+00 -0.40513183999E+02  0.34400434997E+01  0.50528857674E+02  0.29999993386E+02 0.  0.
        -12    1    1    2    0    0  0.11780344616E+00  0.40513183999E+02 -0.34400434997E+01  0.40659142326E+02  0.00000000000E+00 0.  1.
         11    1    3    3    0    0 -0.55087673600E+01 -0.17801673525E+02 -0.41621856299E+01  0.19093713301E+02  0.51100000000E-03 0.  1.
        -11    1    3    3    0    0 -0.56404831553E+01 -0.48020780400E+00  0.93722341867E+00  0.57379471728E+01  0.51100000000E-03 0. -1.
        -12    1    3    3    0    0  0.11031447069E+02 -0.22231302670E+02  0.66650057110E+01  0.25697197201E+02  0.00000000000E+00 0.  1.
</event>
<event>
 7    1  0.3449452E-011  0.5052886E+02  0.7816164E-02  0.1300439E+00
        -11   -1    0    0    0    0  0.00000000000E+00  0.00000000000E+00  0.45593999997E+02  0.45594000000E+02  0.51100000000E-03 0.  1.
         11   -1    0    0    0    0 -0.00000000000E+00 -0.00000000000E+00 -0.45593999997E+02  0.45594000000E+02  0.51100000000E-03 0. -1.
    9900012    2    1    2    0    0  0.15333795034E+02 -0.95050963406E+01 -0.36437529675E+02  0.50528859632E+02  0.29999999338E+02 0.  0.
        -12    1    1    2    0    0 -0.15333795034E+02  0.95050963406E+01  0.36437529675E+02  0.40659140368E+02  0.00000000000E+00 0.  1.
         11    1    3    3    0    0  0.13823764597E+02 -0.49718449003E+01 -0.15828721156E+02  0.21595465335E+02  0.51100000000E-03 0. -1.
        -11    1    3    3    0    0  0.21380896034E+01  0.74097444068E+01 -0.11730915388E+02  0.14038878710E+02  0.51100000000E-03 0.  1.
         12    1    3    3    0    0 -0.62805916606E+00 -0.11942995847E+02 -0.88778931312E+01  0.14894515587E+02  0.00000000000E+00 0. -1.
</event>
<event>
 7    1  0.3449452E-011  0.5052887E+02  0.7816164E-02  0.1300439E+00
        -11   -1    0    0    0    0  0.00000000000E+00  0.00000000000E+00  0.45593999997E+02  0.45594000000E+02  0.51100000000E-03 0.  1.
         11   -1    0    0    0    0 -0.00000000000E+00 -0.00000000000E+00 -0.45593999997E+02  0.45594000000E+02  0.51100000000E-03 0. -1.
    9900012    2    1    2    0    0  0.24448218910E+01  0.38027958667E+02  0.14179647550E+02  0.50528865736E+02  0.30000017890E+02 0.  0.
        -12    1    1    2    0    0 -0.24448218910E+01 -0.38027958667E+02 -0.14179647550E+02  0.40659134264E+02  0.00000000000E+00 0.  1.
         11    1    3    3    0    0  0.41536753122E+00  0.44890333055E+01  0.71695042870E+01  0.84691051585E+01  0.51100000000E-03 0.  1.
        -11    1    3    3    0    0  0.34492675959E+01  0.30131796545E+02 -0.38663304944E+01  0.30574026914E+02  0.51100000000E-03 0. -1.
         12    1    3    3    0    0 -0.14198132361E+01  0.34071288172E+01  0.10876473757E+02  0.11485733664E+02  0.00000000000E+00 0. -1.
</event>
<event>
 7    1  0.3449452E-011  0.5052885E+02  0.7816164E-02  0.1300439E+00
        -11   -1    0    0    0    0  0.00000000000E+00  0.00000000000E+00  0.45593999997E+02  0.45594000000E+02  0.51100000000E-03 0.  1.
         11   -1    0    0    0    0 -0.00000000000E+00 -0.00000000000E+00 -0.45593999997E+02  0.45594000000E+02  0.51100000000E-03 0. -1.
    9900012    2    1    2    0    0  0.17028352060E+02 -0.35582565083E+02 -0.98530590239E+01  0.50528849937E+02  0.29999969867E+02 0.  0.
        -12    1    1    2    0    0 -0.17028352060E+02  0.35582565083E+02  0.98530590239E+01  0.40659150063E+02  0.00000000000E+00 0.  1.
         11    1    3    3    0    0 -0.94972864288E+00 -0.14527572588E+01 -0.54855286353E+01  0.57535652267E+01  0.51100000000E-03 0. -1.
        -11    1    3    3    0    0 -0.27584756062E+01 -0.18185797929E+02 -0.13266372555E+01  0.18441594309E+02  0.51100000000E-03 0.  1.
        -12    1    3    3    0    0  0.20736556309E+02 -0.15944009895E+02 -0.30408931330E+01  0.26333690401E+02  0.00000000000E+00 0.  1.
</event>
<event>
 7    1  0.3449452E-011  0.5052886E+02  0.7816164E-02  0.1300439E+00
        -11   -1    0    0    0    0  0.00000000000E+00  0.00000000000E+00  0.45593999997E+02  0.45594000000E+02  0.51100000000E-03 0. -1.
         11   -1    0    0    0    0 -0.00000000000E+00 -0.00000000000E+00 -0.45593999997E+02  0.45594000000E+02  0.51100000000E-03 0.  1.
    9900012    2    1    2    0    0 -0.19758966656E+02  0.32235089680E+02  0.14954872657E+02  0.50528856057E+02  0.29999988470E+02 0.  0.
        -12    1    1    2    0    0  0.19758966656E+02 -0.32235089680E+02 -0.14954872657E+02  0.40659143943E+02  0.00000000000E+00 0.  1.
         11    1    3    3    0    0 -0.14396043118E+02  0.20587147419E+02 -0.69983801431E-01  0.25121337431E+02  0.51100000000E-03 0. -1.
        -11    1    3    3    0    0 -0.17841341557E+01  0.47820811242E+01 -0.29081784150E+01  0.58744307400E+01  0.51100000000E-03 0.  1.
         12    1    3    3    0    0 -0.35787893822E+01  0.68658611370E+01  0.17933034874E+02  0.19533087886E+02  0.00000000000E+00 0. -1.
</event>
<event>
 7    1  0.3449452E-011  0.5052886E+02  0.7816164E-02  0.1300439E+00
        -11   -1    0    0    0    0  0.00000000000E+00  0.00000000000E+00  0.45593999997E+02  0.45594000000E+02  0.51100000000E-03 0.  1.
         11   -1    0    0    0    0 -0.00000000000E+00 -0.00000000000E+00 -0.45593999997E+02  0.45594000000E+02  0.51100000000E-03 0. -1.
    9900012    2    1    2    0    0 -0.26275921514E+02  0.18830745413E+02  0.24660583513E+02  0.50528863224E+02  0.30000010255E+02 0.  0.
        -12    1    1    2    0    0  0.26275921514E+02 -0.18830745413E+02 -0.24660583513E+02  0.40659136776E+02  0.00000000000E+00 0.  1.
         11    1    3    3    0    0 -0.22326121341E+02  0.20615847166E+02  0.11721839803E+02  0.32571005160E+02  0.51100000000E-03 0. -1.
        -11    1    3    3    0    0  0.16534804601E+01 -0.87871442648E+00 -0.15284019359E+01  0.24170538708E+01  0.51100000000E-03 0.  1.
        -12    1    3    3    0    0 -0.56032806327E+01 -0.90638732703E+00  0.14467145645E+02  0.15540804193E+02  0.00000000000E+00 0.  1.
</event>
<event>
 7    1  0.3449452E-011  0.5052889E+02  0.7816164E-02  0.1300439E+00
        -11   -1    0    0    0    0  0.00000000000E+00  0.00000000000E+00  0.45593999997E+02  0.45594000000E+02  0.51100000000E-03 0.  1.
         11   -1    0    0    0    0 -0.00000000000E+00 -0.00000000000E+00 -0.45593999997E+02  0.45594000000E+02  0.51100000000E-03 0. -1.
    9900012    2    1    2    0    0 -0.72116342403E+01  0.40009472702E+02 -0.63063310758E+00  0.50528889429E+02  0.30000089909E+02 0.  0.
        -12    1    1    2    0    0  0.72116342403E+01 -0.40009472702E+02  0.63063310758E+00  0.40659110571E+02  0.00000000000E+00 0.  1.
         11    1    3    3    0    0 -0.76072802458E+01  0.13136318394E+02 -0.41499973614E+01  0.15737091600E+02  0.51100000000E-03 0. -1.
        -11    1    3    3    0    0 -0.92968290503E+01  0.10765265245E+02  0.67042160548E+01  0.15724772792E+02  0.51100000000E-03 0.  1.
         12    1    3    3    0    0  0.96924750558E+01  0.16107889063E+02 -0.31848518010E+01  0.19067025037E+02  0.00000000000E+00 0. -1.
</event>
<event>
 7    1  0.3449452E-011  0.5052886E+02  0.7816164E-02  0.1300439E+00
        -11   -1    0    0    0    0  0.00000000000E+00  0.00000000000E+00  0.45593999997E+02  0.45594000000E+02  0.51100000000E-03 0.  1.
         11   -1    0    0    0    0 -0.00000000000E+00 -0.00000000000E+00 -0.45593999997E+02  0.45594000000E+02  0.51100000000E-03 0. -1.
    9900012    2    1    2    0    0 -0.38509738999E+02  0.73606951011E+01 -0.10769665195E+02  0.50528861807E+02  0.30000005949E+02 0.  0.
        -12    1    1    2    0    0  0.38509738999E+02 -0.73606951011E+01  0.10769665195E+02  0.40659138193E+02  0.00000000000E+00 0.  1.
         11    1    3    3    0    0 -0.10869639899E+02 -0.26392381572E+01 -0.30600971261E+01  0.11596501381E+02  0.51100000000E-03 0. -1.
        -11    1    3    3    0    0 -0.18232398775E+01 -0.52877021858E+01  0.38378084130E+01  0.67832714624E+01  0.51100000000E-03 0.  1.
        -12    1    3    3    0    0 -0.25816859223E+02  0.15287635444E+02 -0.11547376482E+02  0.32149088964E+02  0.00000000000E+00 0.  1.
</event>
<event>
 7    1  0.3449452E-011  0.5052886E+02  0.7816164E-02  0.1300439E+00
        -11   -1    0    0    0    0  0.00000000000E+00  0.00000000000E+00  0.45593999997E+02  0.45594000000E+02  0.51100000000E-03 0. -1.
         11   -1    0    0    0    0 -0.00000000000E+00 -0.00000000000E+00 -0.45593999997E+02  0.45594000000E+02  0.51100000000E-03 0.  1.
    9900012    2    1    2    0    0  0.29509398746E+02 -0.18785226516E+02  0.20723814591E+02  0.50528857844E+02  0.29999993904E+02 0.  0.
        -12    1    1    2    0    0 -0.29509398746E+02  0.18785226516E+02 -0.20723814591E+02  0.40659142156E+02  0.00000000000E+00 0.  1.
         11    1    3    3    0    0 -0.29795295858E+01 -0.27032873564E+00  0.80357041054E+01  0.85745679139E+01  0.51100000000E-03 0. -1.
        -11    1    3    3    0    0  0.20596268581E+02 -0.68494443123E+01  0.12394587895E+01  0.21740685942E+02  0.51100000000E-03 0.  1.
         12    1    3    3    0    0  0.11892659751E+02 -0.11665453468E+02  0.11448651696E+02  0.20213603989E+02  0.00000000000E+00 0. -1.
</event>
<event>
 7    1  0.3449452E-011  0.5052886E+02  0.7816164E-02  0.1300439E+00
        -11   -1    0    0    0    0  0.00000000000E+00  0.00000000000E+00  0.45593999997E+02  0.45594000000E+02  0.51100000000E-03 0. -1.
         11   -1    0    0    0    0 -0.00000000000E+00 -0.00000000000E+00 -0.45593999997E+02  0.45594000000E+02  0.51100000000E-03 0.  1.
    9900012    2    1    2    0    0 -0.87602277027E+01 -0.40647609446E+01  0.39495591149E+02  0.50528860915E+02  0.30000003237E+02 0.  0.
        -12    1    1    2    0    0  0.87602277027E+01  0.40647609446E+01 -0.39495591149E+02  0.40659139085E+02  0.00000000000E+00 0.  1.
         11    1    3    3    0    0 -0.45991016042E+01 -0.60764088372E+01  0.79568180034E+01  0.11017505749E+02  0.51100000000E-03 0. -1.
        -11    1    3    3    0    0 -0.26737316170E+01 -0.43251207428E+01 -0.19125742520E+01  0.54326283446E+01  0.51100000000E-03 0.  1.
         12    1    3    3    0    0 -0.14873944814E+01  0.63367686354E+01  0.33451347397E+02  0.34078726822E+02  0.00000000000E+00 0. -1.
</event>
<event>
 7    1  0.3449452E-011  0.5052890E+02  0.7816164E-02  0.1300439E+00
        -11   -1    0    0    0    0  0.00000000000E+00  0.00000000000E+00  0.45593999997E+02  0.45594000000E+02  0.51100000000E-03 0.  1.
         11   -1    0    0    0    0 -0.00000000000E+00 -0.00000000000E+00 -0.45593999997E+02  0.45594000000E+02  0.51100000000E-03 0. -1.
    9900012    2    1    2    0    0  0.30179773645E+01  0.39306401836E+02 -0.99529265363E+01  0.50528903117E+02  0.30000131515E+02 0.  0.
        -12    1    1    2    0    0 -0.30179773645E+01 -0.39306401836E+02  0.99529265363E+01  0.40659096883E+02  0.00000000000E+00 0.  1.
         11    1    3    3    0    0  0.10178501696E+02  0.25738246499E+02 -0.18326083941E+01  0.27738379250E+02  0.51100000000E-03 0. -1.
        -11    1    3    3    0    0 -0.26975808768E+01  0.11938654765E+02  0.12310959196E+01  0.12301382752E+02  0.51100000000E-03 0.  1.
         12    1    3    3    0    0 -0.44629434547E+01  0.16295005729E+01 -0.93514140617E+01  0.10489141116E+02  0.00000000000E+00 0. -1.
</event>
<event>
 7    1  0.3449452E-011  0.5052885E+02  0.7816164E-02  0.1300439E+00
        -11   -1    0    0    0    0  0.00000000000E+00  0.00000000000E+00  0.45593999997E+02  0.45594000000E+02  0.51100000000E-03 0.  1.
         11   -1    0    0    0    0 -0.00000000000E+00 -0.00000000000E+00 -0.45593999997E+02  0.45594000000E+02  0.51100000000E-03 0. -1.
    9900012    2    1    2    0    0 -0.36225309888E+02  0.15253900966E+02 -0.10402480083E+02  0.50528853882E+02  0.29999981861E+02 0.  0.
        -12    1    1    2    0    0  0.36225309888E+02 -0.15253900966E+02  0.10402480083E+02  0.40659146118E+02  0.00000000000E+00 0.  1.
         11    1    3    3    0    0 -0.28584707288E+02  0.14961688568E+02 -0.11639358458E+02  0.34298867052E+02  0.51100000000E-03 0. -1.
        -11    1    3    3    0    0 -0.11631836817E+02  0.18585882050E+01  0.17616706977E+01  0.11910393015E+02  0.51100000000E-03 0.  1.
         12    1    3    3    0    0  0.39912342172E+01 -0.15663758070E+01 -0.52479232319E+00  0.43195938152E+01  0.00000000000E+00 0. -1.
</event>
<event>
 7    1  0.3449452E-011  0.5052885E+02  0.7816164E-02  0.1300439E+00
        -11   -1    0    0    0    0  0.00000000000E+00  0.00000000000E+00  0.45593999997E+02  0.45594000000E+02  0.51100000000E-03 0.  1.
         11   -1    0    0    0    0 -0.00000000000E+00 -0.00000000000E+00 -0.45593999997E+02  0.45594000000E+02  0.51100000000E-03 0. -1.
    9900012    2    1    2    0    0  0.13136308486E+02 -0.31100237424E+02 -0.22657869485E+02  0.50528850746E+02  0.29999972328E+02 0.  0.
        -12    1    1    2    0    0 -0.13136308486E+02  0.31100237424E+02  0.22657869485E+02  0.40659149254E+02  0.00000000000E+00 0.  1.
         11    1    3    3    0    0 -0.33791504748E+01 -0.14388787764E+02 -0.36117657090E+01  0.15215147815E+02  0.51100000000E-03 0. -1.
        -11    1    3    3    0    0  0.69003053112E+01 -0.90889780741E+01  0.13706735137E+01  0.11493584383E+02  0.51100000000E-03 0.  1.
        -12    1    3    3    0    0  0.96151536492E+01 -0.76224715863E+01 -0.20416777289E+02  0.23820118549E+02  0.00000000000E+00 0.  1.
</event>
<event>
 7    1  0.3449452E-011  0.5052885E+02  0.7816164E-02  0.1300439E+00
        -11   -1    0    0    0    0  0.00000000000E+00  0.00000000000E+00  0.45593999997E+02  0.45594000000E+02  0.51100000000E-03 0.  1.
         11   -1    0    0    0    0 -0.00000000000E+00 -0.00000000000E+00 -0.45593999997E+02  0.45594000000E+02  0.51100000000E-03 0. -1.
    9900012    2    1    2    0    0 -0.16399705536E+02  0.11824788675E+01 -0.37186255525E+02  0.50528853453E+02  0.29999980557E+02 0.  0.
        -12    1    1    2    0    0  0.16399705536E+02 -0.11824788675E+01  0.37186255525E+02  0.40659146547E+02  0.00000000000E+00 0.  1.
         11    1    3    3    0    0 -0.49954325302E+01  0.38034690800E+01 -0.13461034600E+02  0.14853288389E+02  0.51100000000E-03 0. -1.
        -11    1    3    3    0    0 -0.20182396063E+01  0.98997976854E+01 -0.50008719555E+01  0.11273331624E+02  0.51100000000E-03 0.  1.
        -12    1    3    3    0    0 -0.93860334000E+01 -0.12520787898E+02 -0.18724348969E+02  0.24402233440E+02  0.00000000000E+00 0.  1.
</event>
<event>
 7    1  0.3449452E-011  0.5052880E+02  0.7816164E-02  0.1300439E+00
        -11   -1    0    0    0    0  0.00000000000E+00  0.00000000000E+00  0.45593999997E+02  0.45594000000E+02  0.51100000000E-03 0. -1.
         11   -1    0    0    0    0 -0.00000000000E+00 -0.00000000000E+00 -0.45593999997E+02  0.45594000000E+02  0.51100000000E-03 0.  1.
    9900012    2    1    2    0    0 -0.37188351477E+02  0.16351476724E+02 -0.16812462385E+01  0.50528796054E+02  0.29999806084E+02 0.  0.
        -12    1    1    2    0    0  0.37188351477E+02 -0.16351476724E+02  0.16812462385E+01  0.40659203946E+02  0.00000000000E+00 0.  1.
         11    1    3    3    0    0 -0.38845610293E+01 -0.52863944877E+00 -0.54817160659E+01  0.67393238047E+01  0.51100000000E-03 0. -1.
        -11    1    3    3    0    0 -0.14876689386E+02  0.15712492763E+02 -0.65688036703E+01  0.22612994005E+02  0.51100000000E-03 0.  1.
        -12    1    3    3    0    0 -0.18427101062E+02  0.11676234090E+01  0.10369273498E+02  0.21176478244E+02  0.00000000000E+00 0.  1.
</event>
<event>
 7    1  0.3449452E-011  0.5052886E+02  0.7816164E-02  0.1300439E+00
        -11   -1    0    0    0    0  0.00000000000E+00  0.00000000000E+00  0.45593999997E+02  0.45594000000E+02  0.51100000000E-03 0.  1.
         11   -1    0    0    0    0 -0.00000000000E+00 -0.00000000000E+00 -0.45593999997E+02  0.45594000000E+02  0.51100000000E-03 0. -1.
    9900012    2    1    2    0    0  0.44476658693E+01  0.37720076024E+02 -0.14511376246E+02  0.50528857024E+02  0.29999991411E+02 0.  0.
        -12    1    1    2    0    0 -0.44476658693E+01 -0.37720076024E+02  0.14511376246E+02  0.40659142976E+02  0.00000000000E+00 0.  1.
         11    1    3    3    0    0  0.69355646345E+01  0.23900676374E+02 -0.10572786238E+01  0.24909079193E+02  0.51100000000E-03 0. -1.
        -11    1    3    3    0    0  0.68010683787E+01  0.88047189319E+01 -0.82494858779E+01  0.13850329385E+02  0.51100000000E-03 0.  1.
         12    1    3    3    0    0 -0.92889671439E+01  0.50146807189E+01 -0.52046117443E+01  0.11769448446E+02  0.00000000000E+00 0. -1.
</event>
<event>
 7    1  0.3449452E-011  0.5052883E+02  0.7816164E-02  0.1300439E+00
        -11   -1    0    0    0    0  0.00000000000E+00  0.00000000000E+00  0.45593999997E+02  0.45594000000E+02  0.51100000000E-03 0. -1.
         11   -1    0    0    0    0 -0.00000000000E+00 -0.00000000000E+00 -0.45593999997E+02  0.45594000000E+02  0.51100000000E-03 0.  1.
    9900012    2    1    2    0    0  0.23468223786E+02 -0.30054716278E+02  0.14111144521E+02  0.50528832548E+02  0.29999917012E+02 0.  0.
        -12    1    1    2    0    0 -0.23468223786E+02  0.30054716278E+02 -0.14111144521E+02  0.40659167452E+02  0.00000000000E+00 0.  1.
         11    1    3    3    0    0  0.10651991366E+01 -0.84369347526E+01  0.12044957795E+02  0.14744406592E+02  0.51100000000E-03 0. -1.
        -11    1    3    3    0    0  0.52132411559E+01  0.22846138260E+01 -0.20638103163E+01  0.60544741279E+01  0.51100000000E-03 0.  1.
         12    1    3    3    0    0  0.17189783493E+02 -0.23902395351E+02  0.41299970425E+01  0.29729951827E+02  0.00000000000E+00 0. -1.
</event>
<event>
 7    1  0.3449452E-011  0.5052886E+02  0.7816164E-02  0.1300439E+00
        -11   -1    0    0    0    0  0.00000000000E+00  0.00000000000E+00  0.45593999997E+02  0.45594000000E+02  0.51100000000E-03 0.  1.
         11   -1    0    0    0    0 -0.00000000000E+00 -0.00000000000E+00 -0.45593999997E+02  0.45594000000E+02  0.51100000000E-03 0. -1.
    9900012    2    1    2    0    0 -0.29109180279E+02  0.51747325887E+01 -0.27911347504E+02  0.50528861379E+02  0.30000004649E+02 0.  0.
        -12    1    1    2    0    0  0.29109180279E+02 -0.51747325887E+01  0.27911347504E+02  0.40659138621E+02  0.00000000000E+00 0.  1.
         11    1    3    3    0    0 -0.21702150511E+02  0.17348077864E+01 -0.79524696746E+01  0.23178323258E+02  0.51100000000E-03 0. -1.
        -11    1    3    3    0    0 -0.28745416647E+01  0.35650369475E+01  0.19499539970E+01  0.49774289619E+01  0.51100000000E-03 0.  1.
        -12    1    3    3    0    0 -0.45324881029E+01 -0.12511214527E+00 -0.21908831827E+02  0.22373109160E+02  0.00000000000E+00 0.  1.
</event>
<event>
 7    1  0.3449452E-011  0.5052886E+02  0.7816164E-02  0.1300439E+00
        -11   -1    0    0    0    0  0.00000000000E+00  0.00000000000E+00  0.45593999997E+02  0.45594000000E+02  0.51100000000E-03 0.  1.
         11   -1    0    0    0    0 -0.00000000000E+00 -0.00000000000E+00 -0.45593999997E+02  0.45594000000E+02  0.51100000000E-03 0. -1.
    9900012    2    1    2    0    0  0.23717576880E+02 -0.19556750743E+02 -0.26611569657E+02  0.50528860900E+02  0.30000003193E+02 0.  0.
        -12    1    1    2    0    0 -0.23717576880E+02  0.19556750743E+02  0.26611569657E+02  0.40659139100E+02  0.00000000000E+00 0.  1.
         11    1    3    3    0    0  0.28568837237E+00 -0.85034396158E+01 -0.77991633980E+01  0.11541969204E+02  0.51100000000E-03 0. -1.
        -11    1    3    3    0    0  0.37689144426E+00 -0.43115146662E+01  0.39756136045E+01  0.58767941661E+01  0.51100000000E-03 0.  1.
        -12    1    3    3    0    0  0.23054997063E+02 -0.67417964609E+01 -0.22788019864E+02  0.33110097530E+02  0.00000000000E+00 0.  1.
</event>
<event>
 7    1  0.3449452E-011  0.5052886E+02  0.7816164E-02  0.1300439E+00
        -11   -1    0    0    0    0  0.00000000000E+00  0.00000000000E+00  0.45593999997E+02  0.45594000000E+02  0.51100000000E-03 0. -1.
         11   -1    0    0    0    0 -0.00000000000E+00 -0.00000000000E+00 -0.45593999997E+02  0.45594000000E+02  0.51100000000E-03 0.  1.
    9900012    2    1    2    0    0 -0.39734570569E+02 -0.63627537126E+01  0.58176251185E+01  0.50528862095E+02  0.30000006825E+02 0.  0.
        -12    1    1    2    0    0  0.39734570569E+02  0.63627537126E+01 -0.58176251185E+01  0.40659137905E+02  0.00000000000E+00 0.  1.
         11    1    3    3    0    0 -0.23362733513E+02  0.40319305354E+01 -0.27640098979E+01  0.23868672607E+02  0.51100000000E-03 0. -1.
        -11    1    3    3    0    0  0.31927538560E+01 -0.28256172271E+01  0.14609594739E+01  0.45069050073E+01  0.51100000000E-03 0.  1.
         12    1    3    3    0    0 -0.19564590912E+02 -0.75690670208E+01  0.71206755424E+01  0.22153284481E+02  0.00000000000E+00 0. -1.
</event>
<event>
 7    1  0.3449452E-011  0.5052887E+02  0.7816164E-02  0.1300439E+00
        -11   -1    0    0    0    0  0.00000000000E+00  0.00000000000E+00  0.45593999997E+02  0.45594000000E+02  0.51100000000E-03 0. -1.
         11   -1    0    0    0    0 -0.00000000000E+00 -0.00000000000E+00 -0.45593999997E+02  0.45594000000E+02  0.51100000000E-03 0.  1.
    9900012    2    1    2    0    0  0.46871374177E+01 -0.37589017917E+02  0.14773658012E+02  0.50528874380E+02  0.30000044166E+02 0.  0.
        -12    1    1    2    0    0 -0.46871374177E+01  0.37589017917E+02 -0.14773658012E+02  0.40659125620E+02  0.00000000000E+00 0.  1.
         11    1    3    3    0    0 -0.46882703275E+01 -0.25169223096E+02  0.23810772912E+01  0.25712627234E+02  0.51100000000E-03 0. -1.
        -11    1    3    3    0    0 -0.25034290338E+01 -0.76606427222E+01  0.19309172342E+01  0.82874028182E+01  0.51100000000E-03 0.  1.
        -12    1    3    3    0    0  0.11878836779E+02 -0.47591520983E+01  0.10461663487E+02  0.16528844328E+02  0.00000000000E+00 0.  1.
</event>
<event>
 7    1  0.3449452E-011  0.5052887E+02  0.7816164E-02  0.1300439E+00
        -11   -1    0    0    0    0  0.00000000000E+00  0.00000000000E+00  0.45593999997E+02  0.45594000000E+02  0.51100000000E-03 0. -1.
         11   -1    0    0    0    0 -0.00000000000E+00 -0.00000000000E+00 -0.45593999997E+02  0.45594000000E+02  0.51100000000E-03 0.  1.
    9900012    2    1    2    0    0  0.38622056624E+02 -0.10591300867E+02 -0.70232539921E+01  0.50528868080E+02  0.30000025015E+02 0.  0.
        -12    1    1    2    0    0 -0.38622056624E+02  0.10591300867E+02  0.70232539921E+01  0.40659131920E+02  0.00000000000E+00 0.  1.
         11    1    3    3    0    0  0.27885208843E+02  0.15450156038E+01  0.40356412654E+01  0.28218050006E+02  0.51100000000E-03 0. -1.
        -11    1    3    3    0    0  0.10900650236E+02 -0.45962441550E+01 -0.64994560169E+01  0.13497872598E+02  0.51100000000E-03 0.  1.
        -12    1    3    3    0    0 -0.16380245593E+00 -0.75400723153E+01 -0.45594392407E+01  0.88129454755E+01  0.00000000000E+00 0.  1.
</event>
<event>
 7    1  0.3449452E-011  0.5052886E+02  0.7816164E-02  0.1300439E+00
        -11   -1    0    0    0    0  0.00000000000E+00  0.00000000000E+00  0.45593999997E+02  0.45594000000E+02  0.51100000000E-03 0.  1.
         11   -1    0    0    0    0 -0.00000000000E+00 -0.00000000000E+00 -0.45593999997E+02  0.45594000000E+02  0.51100000000E-03 0. -1.
    9900012    2    1    2    0    0  0.38695368521E+02  0.75997071731E+01 -0.99034570723E+01  0.50528861346E+02  0.30000004549E+02 0.  0.
        -12    1    1    2    0    0 -0.38695368521E+02 -0.75997071731E+01  0.99034570723E+01  0.40659138654E+02  0.00000000000E+00 0.  1.
         11    1    3    3    0    0  0.15994893378E+02  0.65257400648E+01 -0.46097602950E+01  0.17879367657E+02  0.51100000000E-03 0. -1.
        -11    1    3    3    0    0  0.25907806796E+02 -0.35102390938E+01 -0.21520129709E+01  0.26232944775E+02  0.51100000000E-03 0.  1.
        -12    1    3    3    0    0 -0.32073316533E+01  0.45842062021E+01 -0.31416838065E+01  0.64165489149E+01  0.00000000000E+00 0.  1.
</event>
<event>
 7    1  0.3449452E-011  0.5052887E+02  0.7816164E-02  0.1300439E+00
        -11   -1    0    0    0    0  0.00000000000E+00  0.00000000000E+00  0.45593999997E+02  0.45594000000E+02  0.51100000000E-03 0.  1.
         11   -1    0    0    0    0 -0.00000000000E+00 -0.00000000000E+00 -0.45593999997E+02  0.45594000000E+02  0.51100000000E-03 0. -1.
    9900012    2    1    2    0    0 -0.16512862024E+01  0.79952163978E+01 -0.39831079784E+02  0.50528866363E+02  0.30000019796E+02 0.  0.
        -12    1    1    2    0    0  0.16512862024E+01 -0.79952163978E+01  0.39831079784E+02  0.40659133637E+02  0.00000000000E+00 0.  1.
         11    1    3    3    0    0  0.45619989628E+01 -0.39356692671E+00 -0.22494086287E+01  0.51016241435E+01  0.51100000000E-03 0.  1.
        -11    1    3    3    0    0  0.40064465106E+01  0.74190934956E+01 -0.33220137891E+02  0.34273490101E+02  0.51100000000E-03 0. -1.
         12    1    3    3    0    0 -0.10219731676E+02  0.96968982883E+00 -0.43615332640E+01  0.11153752118E+02  0.00000000000E+00 0. -1.
</event>
<event>
 7    1  0.3449452E-011  0.5052897E+02  0.7816164E-02  0.1300438E+00
        -11   -1    0    0    0    0  0.00000000000E+00  0.00000000000E+00  0.45593999997E+02  0.45594000000E+02  0.51100000000E-03 0.  1.
         11   -1    0    0    0    0 -0.00000000000E+00 -0.00000000000E+00 -0.45593999997E+02  0.45594000000E+02  0.51100000000E-03 0. -1.
    9900012    2    1    2    0    0  0.50618944451E+01  0.13114360027E+02 -0.38151636237E+02  0.50528971952E+02  0.30000340743E+02 0.  0.
        -12    1    1    2    0    0 -0.50618944451E+01 -0.13114360027E+02  0.38151636237E+02  0.40659028048E+02  0.00000000000E+00 0.  1.
         11    1    3    3    0    0  0.16759143065E+00 -0.34786473564E+01 -0.14966135763E+02  0.15366011007E+02  0.51100000000E-03 0. -1.
        -11    1    3    3    0    0  0.15792858462E+01  0.90575345953E+01 -0.25082758319E+02  0.26714749519E+02  0.51100000000E-03 0.  1.
        -12    1    3    3    0    0  0.33150171683E+01  0.75354727876E+01  0.18972578455E+01  0.84482114256E+01  0.00000000000E+00 0.  1.
</event>
<event>
 7    1  0.3449452E-011  0.5052883E+02  0.7816164E-02  0.1300439E+00
        -11   -1    0    0    0    0  0.00000000000E+00  0.00000000000E+00  0.45593999997E+02  0.45594000000E+02  0.51100000000E-03 0.  1.
         11   -1    0    0    0    0 -0.00000000000E+00 -0.00000000000E+00 -0.45593999997E+02  0.45594000000E+02  0.51100000000E-03 0. -1.
    9900012    2    1    2    0    0  0.33584789353E+02  0.15203183223E+02 -0.17149143660E+02  0.50528831486E+02  0.29999913785E+02 0.  0.
        -12    1    1    2    0    0 -0.33584789353E+02 -0.15203183223E+02  0.17149143660E+02  0.40659168514E+02  0.00000000000E+00 0.  1.
         11    1    3    3    0    0  0.59860725733E+01 -0.55250492499E+01 -0.25474319111E+01  0.85351416901E+01  0.51100000000E-03 0. -1.
        -11    1    3    3    0    0  0.46202590298E+01  0.10383758706E+02  0.23727513926E+01  0.11610305242E+02  0.51100000000E-03 0.  1.
         12    1    3    3    0    0  0.22978457750E+02  0.10344473766E+02 -0.16974463141E+02  0.30383384555E+02  0.00000000000E+00 0. -1.
</event>
<event>
 7    1  0.3449452E-011  0.5052891E+02  0.7816164E-02  0.1300439E+00
        -11   -1    0    0    0    0  0.00000000000E+00  0.00000000000E+00  0.45593999997E+02  0.45594000000E+02  0.51100000000E-03 0.  1.
         11   -1    0    0    0    0 -0.00000000000E+00 -0.00000000000E+00 -0.45593999997E+02  0.45594000000E+02  0.51100000000E-03 0. -1.
    9900012    2    1    2    0    0 -0.39840477422E+02  0.24163305883E+01  0.77497935824E+01  0.50528910054E+02  0.30000152599E+02 0.  0.
        -12    1    1    2    0    0  0.39840477422E+02 -0.24163305883E+01 -0.77497935824E+01  0.40659089946E+02  0.00000000000E+00 0.  1.
         11    1    3    3    0    0 -0.21474244483E+02  0.34692476319E+01 -0.19387211580E+01  0.21838898672E+02  0.51100000000E-03 0. -1.
        -11    1    3    3    0    0  0.29168642549E+01  0.75089791021E+00 -0.26596265191E+01  0.40181535853E+01  0.51100000000E-03 0.  1.
         12    1    3    3    0    0 -0.21283097194E+02 -0.18038149539E+01  0.12348141259E+02  0.24671857796E+02  0.00000000000E+00 0. -1.
</event>
<event>
 7    1  0.3449452E-011  0.5052886E+02  0.7816164E-02  0.1300439E+00
        -11   -1    0    0    0    0  0.00000000000E+00  0.00000000000E+00  0.45593999997E+02  0.45594000000E+02  0.51100000000E-03 0.  1.
         11   -1    0    0    0    0 -0.00000000000E+00 -0.00000000000E+00 -0.45593999997E+02  0.45594000000E+02  0.51100000000E-03 0. -1.
    9900012    2    1    2    0    0  0.84690015376E+01 -0.28596734682E+02 -0.27634557771E+02  0.50528855829E+02  0.29999987777E+02 0.  0.
        -12    1    1    2    0    0 -0.84690015376E+01  0.28596734682E+02  0.27634557771E+02  0.40659144171E+02  0.00000000000E+00 0.  1.
         11    1    3    3    0    0 -0.43430806793E+01 -0.68119865854E-02 -0.70729910019E+01  0.82999757930E+01  0.51100000000E-03 0. -1.
        -11    1    3    3    0    0  0.35127090892E+01  0.17418281406E+01  0.77423567506E+00  0.39965649699E+01  0.51100000000E-03 0.  1.
         12    1    3    3    0    0  0.92993731277E+01 -0.30331750837E+02 -0.21335802444E+02  0.38232315066E+02  0.00000000000E+00 0. -1.
</event>
<event>
 7    1  0.3449452E-011  0.5052886E+02  0.7816164E-02  0.1300439E+00
        -11   -1    0    0    0    0  0.00000000000E+00  0.00000000000E+00  0.45593999997E+02  0.45594000000E+02  0.51100000000E-03 0. -1.
         11   -1    0    0    0    0 -0.00000000000E+00 -0.00000000000E+00 -0.45593999997E+02  0.45594000000E+02  0.51100000000E-03 0.  1.
    9900012    2    1    2    0    0  0.27607675026E+02 -0.89473339380E+01  0.28476784253E+02  0.50528859006E+02  0.29999997435E+02 0.  0.
        -12    1    1    2    0    0 -0.27607675026E+02  0.89473339380E+01 -0.28476784253E+02  0.40659140994E+02  0.00000000000E+00 0.  1.
         11    1    3    3    0    0  0.18269233897E+02 -0.45871858238E+01  0.26537674852E+02  0.32543130885E+02  0.51100000000E-03 0. -1.
        -11    1    3    3    0    0  0.23413717152E+00 -0.77503104005E+01 -0.10421557706E+01  0.78235682672E+01  0.51100000000E-03 0.  1.
         12    1    3    3    0    0  0.91043039574E+01  0.33901622863E+01  0.29812651722E+01  0.10162159854E+02  0.00000000000E+00 0. -1.
</event>
<event>
 7    1  0.3449452E-011  0.5052885E+02  0.7816164E-02  0.1300439E+00
        -11   -1    0    0    0    0  0.00000000000E+00  0.00000000000E+00  0.45593999997E+02  0.45594000000E+02  0.51100000000E-03 0.  1.
         11   -1    0    0    0    0 -0.00000000000E+00 -0.00000000000E+00 -0.45593999997E+02  0.45594000000E+02  0.51100000000E-03 0. -1.
    9900012    2    1    2    0    0  0.13231206264E+02  0.15279917719E+02 -0.35279248640E+02  0.50528854788E+02  0.29999984615E+02 0.  0.
        -12    1    1    2    0    0 -0.13231206264E+02 -0.15279917719E+02  0.35279248640E+02  0.40659145212E+02  0.00000000000E+00 0.  1.
         11    1    3    3    0    0 -0.20541451624E+01  0.11066982980E+02 -0.61088566647E+01  0.12806863576E+02  0.51100000000E-03 0. -1.
        -11    1    3    3    0    0  0.13607063148E+01  0.27714255301E+01 -0.21575735138E+02  0.21795519451E+02  0.51100000000E-03 0.  1.
        -12    1    3    3    0    0  0.13924645112E+02  0.14415092091E+01 -0.75946568376E+01  0.15926471762E+02  0.00000000000E+00 0.  1.
</event>
<event>
 7    1  0.3449452E-011  0.5052886E+02  0.7816164E-02  0.1300439E+00
        -11   -1    0    0    0    0  0.00000000000E+00  0.00000000000E+00  0.45593999997E+02  0.45594000000E+02  0.51100000000E-03 0.  1.
         11   -1    0    0    0    0 -0.00000000000E+00 -0.00000000000E+00 -0.45593999997E+02  0.45594000000E+02  0.51100000000E-03 0. -1.
    9900012    2    1    2    0    0 -0.17688253081E+02 -0.90086173424E+01 -0.35484309529E+02  0.50528859500E+02  0.29999998935E+02 0.  0.
        -12    1    1    2    0    0  0.17688253081E+02  0.90086173424E+01  0.35484309529E+02  0.40659140500E+02  0.00000000000E+00 0.  1.
         11    1    3    3    0    0 -0.15513248297E+01 -0.79047505346E+01 -0.55554310322E+01  0.97854230341E+01  0.51100000000E-03 0. -1.
        -11    1    3    3    0    0  0.36453006416E+01  0.39416491356E+01 -0.12032661827E+01  0.55020600181E+01  0.51100000000E-03 0.  1.
         12    1    3    3    0    0 -0.19782228893E+02 -0.50455159433E+01 -0.28725612314E+02  0.35241376448E+02  0.00000000000E+00 0. -1.
</event>
<event>
 7    1  0.3449452E-011  0.5052886E+02  0.7816164E-02  0.1300439E+00
        -11   -1    0    0    0    0  0.00000000000E+00  0.00000000000E+00  0.45593999997E+02  0.45594000000E+02  0.51100000000E-03 0.  1.
         11   -1    0    0    0    0 -0.00000000000E+00 -0.00000000000E+00 -0.45593999997E+02  0.45594000000E+02  0.51100000000E-03 0. -1.
    9900012    2    1    2    0    0 -0.21526839183E+02 -0.15550592897E+01 -0.34457842358E+02  0.50528856938E+02  0.29999991148E+02 0.  0.
        -12    1    1    2    0    0  0.21526839183E+02  0.15550592897E+01  0.34457842358E+02  0.40659143062E+02  0.00000000000E+00 0.  1.
         11    1    3    3    0    0 -0.91330080506E+01  0.44328862706E+01 -0.21289088894E+02  0.23585750421E+02  0.51100000000E-03 0. -1.
        -11    1    3    3    0    0 -0.13410767164E+02  0.29939512653E+01 -0.46068213112E+01  0.14492592003E+02  0.51100000000E-03 0.  1.
         12    1    3    3    0    0  0.10169360317E+01 -0.89818968256E+01 -0.85619321530E+01  0.12450514514E+02  0.00000000000E+00 0. -1.
</event>
<event>
 7    1  0.3449452E-011  0.5052886E+02  0.7816164E-02  0.1300439E+00
        -11   -1    0    0    0    0  0.00000000000E+00  0.00000000000E+00  0.45593999997E+02  0.45594000000E+02  0.51100000000E-03 0.  1.
         11   -1    0    0    0    0 -0.00000000000E+00 -0.00000000000E+00 -0.45593999997E+02  0.45594000000E+02  0.51100000000E-03 0. -1.
    9900012    2    1    2    0    0  0.25333687433E+02 -0.88268161976E+01 -0.30552535259E+02  0.50528858175E+02  0.29999994910E+02 0.  0.
        -12    1    1    2    0    0 -0.25333687433E+02  0.88268161976E+01  0.30552535259E+02  0.40659141825E+02  0.00000000000E+00 0.  1.
         11    1    3    3    0    0  0.53480604915E+01 -0.11149238761E+02 -0.43869924575E+01  0.13120708024E+02  0.51100000000E-03 0. -1.
        -11    1    3    3    0    0  0.93911433000E+01  0.46062230487E+01 -0.16308580621E+01  0.10586338439E+02  0.51100000000E-03 0.  1.
        -12    1    3    3    0    0  0.10594483642E+02 -0.22838004854E+01 -0.24534684739E+02  0.26821811713E+02  0.00000000000E+00 0.  1.
</event>
<event>
 7    1  0.3988260E-011  0.5052889E+02  0.7816164E-02  0.1300439E+00
        -11   -1    0    0    0    0  0.00000000000E+00  0.00000000000E+00  0.45593999997E+02  0.45594000000E+02  0.51100000000E-03 0.  1.
         11   -1    0    0    0    0 -0.00000000000E+00 -0.00000000000E+00 -0.45593999997E+02  0.45594000000E+02  0.51100000000E-03 0. -1.
    9900012    2    1    2    0    0  0.22728663318E+02 -0.28310031542E+02 -0.18306097108E+02  0.50528890154E+02  0.30000092111E+02 0.  0.
        -12    1    1    2    0    0 -0.22728663318E+02  0.28310031542E+02  0.18306097108E+02  0.40659109846E+02  0.00000000000E+00 0.  1.
         11    1    3    3    0    0  0.94396092905E+01 -0.18291528479E+02 -0.13840378774E+02  0.24804078748E+02  0.51100000000E-03 0. -1.
        -11    1    3    3    0    0 -0.33526220999E+01 -0.39499629537E+01 -0.60207862866E+01  0.79430567196E+01  0.51100000000E-03 0.  1.
        -12    1    3    3    0    0  0.16641676127E+02 -0.60685401097E+01  0.15550679524E+01  0.17781754687E+02  0.00000000000E+00 0.  1.
</event>
<event>
 7    1  0.3449452E-011  0.5052886E+02  0.7816164E-02  0.1300439E+00
        -11   -1    0    0    0    0  0.00000000000E+00  0.00000000000E+00  0.45593999997E+02  0.45594000000E+02  0.51100000000E-03 0.  1.
         11   -1    0    0    0    0 -0.00000000000E+00 -0.00000000000E+00 -0.45593999997E+02  0.45594000000E+02  0.51100000000E-03 0. -1.
    9900012    2    1    2    0    0  0.32134388896E+02  0.24211080698E+02 -0.58626243310E+01  0.50528859056E+02  0.29999997586E+02 0.  0.
        -12    1    1    2    0    0 -0.32134388896E+02 -0.24211080698E+02  0.58626243310E+01  0.40659140944E+02  0.00000000000E+00 0.  1.
         11    1    3    3    0    0  0.32247431144E+01 -0.15410693825E+01 -0.13519040501E+00  0.35766100853E+01  0.51100000000E-03 0. -1.
        -11    1    3    3    0    0  0.17134490557E+02  0.13397288749E+01  0.48492603025E+01  0.17857798460E+02  0.51100000000E-03 0.  1.
         12    1    3    3    0    0  0.11775155224E+02  0.24412421206E+02 -0.10576694229E+02  0.29094450510E+02  0.00000000000E+00 0. -1.
</event>
<event>
 7    1  0.3449452E-011  0.5052886E+02  0.7816164E-02  0.1300439E+00
        -11   -1    0    0    0    0  0.00000000000E+00  0.00000000000E+00  0.45593999997E+02  0.45594000000E+02  0.51100000000E-03 0. -1.
         11   -1    0    0    0    0 -0.00000000000E+00 -0.00000000000E+00 -0.45593999997E+02  0.45594000000E+02  0.51100000000E-03 0.  1.
    9900012    2    1    2    0    0  0.50376564910E+01 -0.64959032074E+01  0.39819478066E+02  0.50528861115E+02  0.30000003847E+02 0.  0.
        -12    1    1    2    0    0 -0.50376564910E+01  0.64959032074E+01 -0.39819478066E+02  0.40659138885E+02  0.00000000000E+00 0.  1.
         11    1    3    3    0    0 -0.73361190904E-01  0.13667788173E+01 -0.11769681915E+01  0.18051926724E+01  0.51100000000E-03 0. -1.
        -11    1    3    3    0    0 -0.67290358591E+01  0.27689692531E+01  0.25477715242E+02  0.26496435393E+02  0.51100000000E-03 0.  1.
        -12    1    3    3    0    0  0.11840053541E+02 -0.10631651278E+02  0.15518731016E+02  0.22227233051E+02  0.00000000000E+00 0.  1.
</event>
<event>
 7    1  0.3449452E-011  0.5052885E+02  0.7816164E-02  0.1300439E+00
        -11   -1    0    0    0    0  0.00000000000E+00  0.00000000000E+00  0.45593999997E+02  0.45594000000E+02  0.51100000000E-03 0. -1.
         11   -1    0    0    0    0 -0.00000000000E+00 -0.00000000000E+00 -0.45593999997E+02  0.45594000000E+02  0.51100000000E-03 0.  1.
    9900012    2    1    2    0    0 -0.96924170526E+01  0.14343519426E+02  0.36789767242E+02  0.50528850088E+02  0.29999970329E+02 0.  0.
        -12    1    1    2    0    0  0.96924170526E+01 -0.14343519426E+02 -0.36789767242E+02  0.40659149912E+02  0.00000000000E+00 0.  1.
         11    1    3    3    0    0 -0.63588487033E+01 -0.41439872053E+01  0.11986894879E+02  0.14187784742E+02  0.51100000000E-03 0.  1.
        -11    1    3    3    0    0 -0.55482952711E+01  0.21037836816E+02  0.16281458401E+02  0.27174621363E+02  0.51100000000E-03 0. -1.
         12    1    3    3    0    0  0.22147269218E+01 -0.25503301847E+01  0.85214139622E+01  0.91664439836E+01  0.00000000000E+00 0. -1.
</event>
<event>
 7    1  0.3449452E-011  0.5052882E+02  0.7816164E-02  0.1300439E+00
        -11   -1    0    0    0    0  0.00000000000E+00  0.00000000000E+00  0.45593999997E+02  0.45594000000E+02  0.51100000000E-03 0. -1.
         11   -1    0    0    0    0 -0.00000000000E+00 -0.00000000000E+00 -0.45593999997E+02  0.45594000000E+02  0.51100000000E-03 0.  1.
    9900012    2    1    2    0    0 -0.13823768695E+02 -0.32676068245E+02  0.19858166833E+02  0.50528821370E+02  0.29999883037E+02 0.  0.
        -12    1    1    2    0    0  0.13823768695E+02  0.32676068245E+02 -0.19858166833E+02  0.40659178630E+02  0.00000000000E+00 0.  1.
         11    1    3    3    0    0  0.18176944597E+01  0.33265303446E+01  0.66020997354E+01  0.76129848587E+01  0.51100000000E-03 0. -1.
        -11    1    3    3    0    0 -0.78166458575E+01 -0.10952716153E+02  0.93445354981E+01  0.16382377347E+02  0.51100000000E-03 0.  1.
        -12    1    3    3    0    0 -0.78248172968E+01 -0.25049882436E+02  0.39115315997E+01  0.26533459165E+02  0.00000000000E+00 0.  1.
</event>
<event>
 7    1  0.3449452E-011  0.5052886E+02  0.7816164E-02  0.1300439E+00
        -11   -1    0    0    0    0  0.00000000000E+00  0.00000000000E+00  0.45593999997E+02  0.45594000000E+02  0.51100000000E-03 0. -1.
         11   -1    0    0    0    0 -0.00000000000E+00 -0.00000000000E+00 -0.45593999997E+02  0.45594000000E+02  0.51100000000E-03 0.  1.
    9900012    2    1    2    0    0  0.16215877662E+02  0.16861871525E+02  0.33254900405E+02  0.50528858339E+02  0.29999995406E+02 0.  0.
        -12    1    1    2    0    0 -0.16215877662E+02 -0.16861871525E+02 -0.33254900405E+02  0.40659141661E+02  0.00000000000E+00 0.  1.
         11    1    3    3    0    0  0.84616732764E+01 -0.33304711298E+01  0.21557564830E+02  0.23397020200E+02  0.51100000000E-03 0.  1.
        -11    1    3    3    0    0  0.66256542701E+01  0.34043244694E+01  0.52487806152E+01  0.91125417863E+01  0.51100000000E-03 0. -1.
        -12    1    3    3    0    0  0.11285501153E+01  0.16788018185E+02  0.64485549605E+01  0.18019296352E+02  0.00000000000E+00 0.  1.
</event>
<event>
 7    1  0.3449452E-011  0.5052885E+02  0.7816164E-02  0.1300439E+00
        -11   -1    0    0    0    0  0.00000000000E+00  0.00000000000E+00  0.45593999997E+02  0.45594000000E+02  0.51100000000E-03 0.  1.
         11   -1    0    0    0    0 -0.00000000000E+00 -0.00000000000E+00 -0.45593999997E+02  0.45594000000E+02  0.51100000000E-03 0. -1.
    9900012    2    1    2    0    0 -0.27428804455E+02 -0.73343754671E+01 -0.29103845746E+02  0.50528853248E+02  0.29999979934E+02 0.  0.
        -12    1    1    2    0    0  0.27428804455E+02  0.73343754671E+01  0.29103845746E+02  0.40659146752E+02  0.00000000000E+00 0.  1.
         11    1    3    3    0    0  0.52425119888E+00 -0.66482983218E+01 -0.24030830570E+01  0.70886894653E+01  0.51100000000E-03 0.  1.
        -11    1    3    3    0    0 -0.23656637295E+02  0.74689340734E+01 -0.17096104293E+02  0.30128030911E+02  0.51100000000E-03 0. -1.
         12    1    3    3    0    0 -0.42964183590E+01 -0.81550112186E+01 -0.96046583964E+01  0.13312132872E+02  0.00000000000E+00 0. -1.
</event>
<event>
 7    1  0.3449452E-011  0.5052885E+02  0.7816164E-02  0.1300439E+00
        -11   -1    0    0    0    0  0.00000000000E+00  0.00000000000E+00  0.45593999997E+02  0.45594000000E+02  0.51100000000E-03 0.  1.
         11   -1    0    0    0    0 -0.00000000000E+00 -0.00000000000E+00 -0.45593999997E+02  0.45594000000E+02  0.51100000000E-03 0. -1.
    9900012    2    1    2    0    0 -0.14662481906E+02  0.29333064163E+02 -0.24036414619E+02  0.50528852732E+02  0.29999978364E+02 0.  0.
        -12    1    1    2    0    0  0.14662481906E+02 -0.29333064163E+02  0.24036414619E+02  0.40659147268E+02  0.00000000000E+00 0.  1.
         11    1    3    3    0    0 -0.14156429627E+02  0.18785167384E+02 -0.27762869690E+02  0.36387689499E+02  0.51100000000E-03 0. -1.
        -11    1    3    3    0    0  0.10218123831E+01  0.82013466257E+01 -0.13203928375E+01  0.83695653726E+01  0.51100000000E-03 0.  1.
        -12    1    3    3    0    0 -0.15278646620E+01  0.23465501534E+01  0.50468479084E+01  0.57715978600E+01  0.00000000000E+00 0.  1.
</event>
<event>
 7    1  0.3449452E-011  0.5052888E+02  0.7816164E-02  0.1300439E+00
        -11   -1    0    0    0    0  0.00000000000E+00  0.00000000000E+00  0.45593999997E+02  0.45594000000E+02  0.51100000000E-03 0.  1.
         11   -1    0    0    0    0 -0.00000000000E+00 -0.00000000000E+00 -0.45593999997E+02  0.45594000000E+02  0.51100000000E-03 0. -1.
    9900012    2    1    2    0    0  0.15495055441E+02  0.14777295135E+02 -0.34564421199E+02  0.50528875471E+02  0.30000047483E+02 0.  0.
        -12    1    1    2    0    0 -0.15495055441E+02 -0.14777295135E+02  0.34564421199E+02  0.40659124529E+02  0.00000000000E+00 0.  1.
         11    1    3    3    0    0  0.10799027383E+02  0.73447226812E+00 -0.14503423430E+02  0.18097174734E+02  0.51100000000E-03 0. -1.
        -11    1    3    3    0    0  0.11116990569E+02  0.14344896527E+02 -0.18285758728E+02  0.25763006583E+02  0.51100000000E-03 0.  1.
        -12    1    3    3    0    0 -0.64209625110E+01 -0.30207366003E+00 -0.17752390414E+01  0.66686941538E+01  0.00000000000E+00 0.  1.
</event>
<event>
 7    1  0.3449452E-011  0.5052886E+02  0.7816164E-02  0.1300439E+00
        -11   -1    0    0    0    0  0.00000000000E+00  0.00000000000E+00  0.45593999997E+02  0.45594000000E+02  0.51100000000E-03 0.  1.
         11   -1    0    0    0    0 -0.00000000000E+00 -0.00000000000E+00 -0.45593999997E+02  0.45594000000E+02  0.51100000000E-03 0. -1.
    9900012    2    1    2    0    0  0.34451864734E+02 -0.86309355438E+01 -0.19792460994E+02  0.50528861492E+02  0.30000004990E+02 0.  0.
        -12    1    1    2    0    0 -0.34451864734E+02  0.86309355438E+01  0.19792460994E+02  0.40659138508E+02  0.00000000000E+00 0.  1.
         11    1    3    3    0    0  0.30242120559E+02 -0.10165974712E+02 -0.10614297674E+02  0.33624339594E+02  0.51100000000E-03 0. -1.
        -11    1    3    3    0    0  0.10608525987E+01 -0.59421474998E+01 -0.32426843171E+01  0.68519724887E+01  0.51100000000E-03 0.  1.
        -12    1    3    3    0    0  0.31488915765E+01  0.74771866679E+01 -0.59354790030E+01  0.10052549409E+02  0.00000000000E+00 0.  1.
</event>
<event>
 7    1  0.3449452E-011  0.5052887E+02  0.7816164E-02  0.1300439E+00
        -11   -1    0    0    0    0  0.00000000000E+00  0.00000000000E+00  0.45593999997E+02  0.45594000000E+02  0.51100000000E-03 0.  1.
         11   -1    0    0    0    0 -0.00000000000E+00 -0.00000000000E+00 -0.45593999997E+02  0.45594000000E+02  0.51100000000E-03 0. -1.
    9900012    2    1    2    0    0  0.58950153955E+01  0.24241206073E+02 -0.32105725418E+02  0.50528869623E+02  0.30000029705E+02 0.  0.
        -12    1    1    2    0    0 -0.58950153955E+01 -0.24241206073E+02  0.32105725418E+02  0.40659130377E+02  0.00000000000E+00 0.  1.
         11    1    3    3    0    0 -0.23645394484E+01  0.57601027217E+00  0.16343140121E+01  0.29315213095E+01  0.51100000000E-03 0. -1.
        -11    1    3    3    0    0  0.31053670056E+00  0.11246264760E+02 -0.53223267873E+00  0.11263133489E+02  0.51100000000E-03 0.  1.
         12    1    3    3    0    0  0.79490181433E+01  0.12418931041E+02 -0.33207806752E+02  0.36334214824E+02  0.00000000000E+00 0. -1.
</event>
<event>
 7    1  0.3449452E-011  0.5052882E+02  0.7816164E-02  0.1300439E+00
        -11   -1    0    0    0    0  0.00000000000E+00  0.00000000000E+00  0.45593999997E+02  0.45594000000E+02  0.51100000000E-03 0.  1.
         11   -1    0    0    0    0 -0.00000000000E+00 -0.00000000000E+00 -0.45593999997E+02  0.45594000000E+02  0.51100000000E-03 0. -1.
    9900012    2    1    2    0    0  0.22418482866E+02 -0.59170648888E+01 -0.33400136726E+02  0.50528816975E+02  0.29999869678E+02 0.  0.
        -12    1    1    2    0    0 -0.22418482866E+02  0.59170648888E+01  0.33400136726E+02  0.40659183025E+02  0.00000000000E+00 0.  1.
         11    1    3    3    0    0  0.39869660603E+00 -0.79984274444E+00  0.46295048085E+00  0.10064943161E+01  0.51100000000E-03 0. -1.
        -11    1    3    3    0    0  0.88589695466E+01 -0.16495737303E+02 -0.18228779015E+02  0.26131955060E+02  0.51100000000E-03 0.  1.
         12    1    3    3    0    0  0.13160816714E+02  0.11378515159E+02 -0.15634308192E+02  0.23390367599E+02  0.00000000000E+00 0. -1.
</event>
<event>
 7    1  0.3449452E-011  0.5052885E+02  0.7816164E-02  0.1300439E+00
        -11   -1    0    0    0    0  0.00000000000E+00  0.00000000000E+00  0.45593999997E+02  0.45594000000E+02  0.51100000000E-03 0.  1.
         11   -1    0    0    0    0 -0.00000000000E+00 -0.00000000000E+00 -0.45593999997E+02  0.45594000000E+02  0.51100000000E-03 0. -1.
    9900012    2    1    2    0    0 -0.10065906094E+02 -0.26844853997E+02 -0.28830497938E+02  0.50528852653E+02  0.29999978125E+02 0.  0.
        -12    1    1    2    0    0  0.10065906094E+02  0.26844853997E+02  0.28830497938E+02  0.40659147347E+02  0.00000000000E+00 0.  1.
         11    1    3    3    0    0  0.13698752654E+01 -0.23386928914E+02 -0.13049163376E+02  0.26816145647E+02  0.51100000000E-03 0. -1.
        -11    1    3    3    0    0  0.29408573155E+01 -0.35256653626E+00 -0.31655952849E+01  0.43351976519E+01  0.51100000000E-03 0.  1.
         12    1    3    3    0    0 -0.14376638675E+02 -0.31053585467E+01 -0.12615739277E+02  0.19377509354E+02  0.00000000000E+00 0. -1.
</event>
<event>
 7    1  0.4643982E-011  0.5052886E+02  0.7816164E-02  0.1300439E+00
        -11   -1    0    0    0    0  0.00000000000E+00  0.00000000000E+00  0.45593999997E+02  0.45594000000E+02  0.51100000000E-03 0. -1.
         11   -1    0    0    0    0 -0.00000000000E+00 -0.00000000000E+00 -0.45593999997E+02  0.45594000000E+02  0.51100000000E-03 0.  1.
    9900012    2    1    2    0    0  0.11303282449E+02 -0.38695761960E+02  0.52952584825E+01  0.50528856500E+02  0.29999989817E+02 0.  0.
        -12    1    1    2    0    0 -0.11303282449E+02  0.38695761960E+02 -0.52952584825E+01  0.40659143500E+02  0.00000000000E+00 0.  1.
         11    1    3    3    0    0  0.23980211139E+01 -0.22635340408E+02  0.68054672909E+01  0.23757599331E+02  0.51100000000E-03 0. -1.
        -11    1    3    3    0    0  0.23446111710E+01 -0.15501029947E+01  0.78234061642E+01  0.83129841278E+01  0.51100000000E-03 0.  1.
        -12    1    3    3    0    0  0.65606501643E+01 -0.14510318557E+02 -0.93336149726E+01  0.18458273041E+02  0.00000000000E+00 0.  1.
</event>
<event>
 7    1  0.3449452E-011  0.5052887E+02  0.7816164E-02  0.1300439E+00
        -11   -1    0    0    0    0  0.00000000000E+00  0.00000000000E+00  0.45593999997E+02  0.45594000000E+02  0.51100000000E-03 0.  1.
         11   -1    0    0    0    0 -0.00000000000E+00 -0.00000000000E+00 -0.45593999997E+02  0.45594000000E+02  0.51100000000E-03 0. -1.
    9900012    2    1    2    0    0  0.10320264031E+01  0.22462467793E+02 -0.33875322223E+02  0.50528868264E+02  0.30000025575E+02 0.  0.
        -12    1    1    2    0    0 -0.10320264031E+01 -0.22462467793E+02  0.33875322223E+02  0.40659131736E+02  0.00000000000E+00 0.  1.
         11    1    3    3    0    0  0.27780012842E+00  0.12219761119E+02 -0.13446224947E+02  0.18171425379E+02  0.51100000000E-03 0. -1.
        -11    1    3    3    0    0 -0.91002857929E+01  0.60643039144E+01 -0.21055344793E+01  0.11136617942E+02  0.51100000000E-03 0.  1.
         12    1    3    3    0    0  0.98545120676E+01  0.41784027601E+01 -0.18323562797E+02  0.21220824943E+02  0.00000000000E+00 0. -1.
</event>
<event>
 7    1  0.3449452E-011  0.5052886E+02  0.7816164E-02  0.1300439E+00
        -11   -1    0    0    0    0  0.00000000000E+00  0.00000000000E+00  0.45593999997E+02  0.45594000000E+02  0.51100000000E-03 0. -1.
         11   -1    0    0    0    0 -0.00000000000E+00 -0.00000000000E+00 -0.45593999997E+02  0.45594000000E+02  0.51100000000E-03 0.  1.
    9900012    2    1    2    0    0 -0.25215341749E+01 -0.39584533781E+02  0.89371097469E+01  0.50528863513E+02  0.30000011133E+02 0.  0.
        -12    1    1    2    0    0  0.25215341749E+01  0.39584533781E+02 -0.89371097469E+01  0.40659136487E+02  0.00000000000E+00 0.  1.
         11    1    3    3    0    0 -0.30847006503E+01 -0.13141901103E+02 -0.33463813400E+01  0.13907667347E+02  0.51100000000E-03 0. -1.
        -11    1    3    3    0    0 -0.10361576724E+02 -0.14495045791E+02  0.95075114362E+01  0.20195578691E+02  0.51100000000E-03 0.  1.
         12    1    3    3    0    0  0.10924743199E+02 -0.11947586886E+02  0.27759796507E+01  0.16425617474E+02  0.00000000000E+00 0. -1.
</event>
<event>
 7    1  0.3449452E-011  0.5052887E+02  0.7816164E-02  0.1300439E+00
        -11   -1    0    0    0    0  0.00000000000E+00  0.00000000000E+00  0.45593999997E+02  0.45594000000E+02  0.51100000000E-03 0.  1.
         11   -1    0    0    0    0 -0.00000000000E+00 -0.00000000000E+00 -0.45593999997E+02  0.45594000000E+02  0.51100000000E-03 0. -1.
    9900012    2    1    2    0    0 -0.23146784979E+02  0.28183154936E+02 -0.17975014608E+02  0.50528867850E+02  0.30000024317E+02 0.  0.
        -12    1    1    2    0    0  0.23146784979E+02 -0.28183154936E+02  0.17975014608E+02  0.40659132150E+02  0.00000000000E+00 0.  1.
         11    1    3    3    0    0 -0.19945484177E+02  0.28995394864E+02 -0.10374236820E+02  0.36690326412E+02  0.51100000000E-03 0. -1.
        -11    1    3    3    0    0 -0.25421294517E+01  0.47098344771E+01 -0.14472029628E+01  0.55443087601E+01  0.51100000000E-03 0.  1.
        -12    1    3    3    0    0 -0.65917135054E+00 -0.55220744043E+01 -0.61535748246E+01  0.82942326780E+01  0.00000000000E+00 0.  1.
</event>
<event>
 7    1  0.5678214E-011  0.5052888E+02  0.7816164E-02  0.1300439E+00
        -11   -1    0    0    0    0  0.00000000000E+00  0.00000000000E+00  0.45593999997E+02  0.45594000000E+02  0.51100000000E-03 0. -1.
         11   -1    0    0    0    0 -0.00000000000E+00 -0.00000000000E+00 -0.45593999997E+02  0.45594000000E+02  0.51100000000E-03 0.  1.
    9900012    2    1    2    0    0 -0.40580519071E+02 -0.21887116391E+01  0.12628264746E+01  0.50528883957E+02  0.30000073275E+02 0.  0.
        -12    1    1    2    0    0  0.40580519071E+02  0.21887116391E+01 -0.12628264746E+01  0.40659116043E+02  0.00000000000E+00 0.  1.
         11    1    3    3    0    0 -0.25001171860E+02  0.46906619224E+01  0.97312209782E+01  0.27235226557E+02  0.51100000000E-03 0. -1.
        -11    1    3    3    0    0 -0.96909868372E+01  0.29620620535E+01 -0.50768718571E+01  0.11334181294E+02  0.51100000000E-03 0.  1.
        -12    1    3    3    0    0 -0.58883603739E+01 -0.98414356150E+01 -0.33915226466E+01  0.11959476106E+02  0.00000000000E+00 0.  1.
</event>
<event>
 7    1  0.3449452E-011  0.5052886E+02  0.7816164E-02  0.1300439E+00
        -11   -1    0    0    0    0  0.00000000000E+00  0.00000000000E+00  0.45593999997E+02  0.45594000000E+02  0.51100000000E-03 0.  1.
         11   -1    0    0    0    0 -0.00000000000E+00 -0.00000000000E+00 -0.45593999997E+02  0.45594000000E+02  0.51100000000E-03 0. -1.
    9900012    2    1    2    0    0  0.81262986992E+01  0.19923763469E+02 -0.34498877722E+02  0.50528860248E+02  0.30000001208E+02 0.  0.
        -12    1    1    2    0    0 -0.81262986992E+01 -0.19923763469E+02  0.34498877722E+02  0.40659139752E+02  0.00000000000E+00 0.  1.
         11    1    3    3    0    0  0.10475307711E+01 -0.12804315159E+01 -0.19174896688E+02  0.19246129191E+02  0.51100000000E-03 0. -1.
        -11    1    3    3    0    0  0.81616366101E+01  0.14635027470E+02 -0.17547557135E+02  0.24263410784E+02  0.51100000000E-03 0.  1.
        -12    1    3    3    0    0 -0.10828686821E+01  0.65691675152E+01  0.22235761001E+01  0.70193202732E+01  0.00000000000E+00 0.  1.
</event>
<event>
 7    1  0.3449452E-011  0.5052886E+02  0.7816164E-02  0.1300439E+00
        -11   -1    0    0    0    0  0.00000000000E+00  0.00000000000E+00  0.45593999997E+02  0.45594000000E+02  0.51100000000E-03 0.  1.
         11   -1    0    0    0    0 -0.00000000000E+00 -0.00000000000E+00 -0.45593999997E+02  0.45594000000E+02  0.51100000000E-03 0. -1.
    9900012    2    1    2    0    0 -0.35327896099E+02  0.18370009068E+02 -0.82248443018E+01  0.50528861547E+02  0.30000005159E+02 0.  0.
        -12    1    1    2    0    0  0.35327896099E+02 -0.18370009068E+02  0.82248443018E+01  0.40659138453E+02  0.00000000000E+00 0.  1.
         11    1    3    3    0    0 -0.19668967987E+02  0.18032940302E+01 -0.31902017917E+01  0.20007437586E+02  0.51100000000E-03 0. -1.
        -11    1    3    3    0    0 -0.14124534022E+01 -0.42316979943E+01  0.10598613448E+01  0.45853679089E+01  0.51100000000E-03 0.  1.
         12    1    3    3    0    0 -0.14246474710E+02  0.20798413032E+02 -0.60945038549E+01  0.25936056053E+02  0.00000000000E+00 0. -1.
</event>
<event>
 7    1  0.4005547E-011  0.5052886E+02  0.7816164E-02  0.1300439E+00
        -11   -1    0    0    0    0  0.00000000000E+00  0.00000000000E+00  0.45593999997E+02  0.45594000000E+02  0.51100000000E-03 0.  1.
         11   -1    0    0    0    0 -0.00000000000E+00 -0.00000000000E+00 -0.45593999997E+02  0.45594000000E+02  0.51100000000E-03 0. -1.
    9900012    2    1    2    0    0  0.18580962825E+02 -0.24438018770E+02 -0.26658893065E+02  0.50528861785E+02  0.30000005883E+02 0.  0.
        -12    1    1    2    0    0 -0.18580962825E+02  0.24438018770E+02  0.26658893065E+02  0.40659138215E+02  0.00000000000E+00 0.  1.
         11    1    3    3    0    0  0.12334618249E+02 -0.13337890624E+02 -0.16211271482E+02  0.24348459027E+02  0.51100000000E-03 0. -1.
        -11    1    3    3    0    0  0.41161900604E+01 -0.16985992712E+02 -0.93632751477E+01  0.19827705131E+02  0.51100000000E-03 0.  1.
        -12    1    3    3    0    0  0.21301545148E+01  0.58858645660E+01 -0.10843464350E+01  0.63526976268E+01  0.00000000000E+00 0.  1.
</event>
<event>
 7    1  0.3449452E-011  0.5052886E+02  0.7816164E-02  0.1300439E+00
        -11   -1    0    0    0    0  0.00000000000E+00  0.00000000000E+00  0.45593999997E+02  0.45594000000E+02  0.51100000000E-03 0. -1.
         11   -1    0    0    0    0 -0.00000000000E+00 -0.00000000000E+00 -0.45593999997E+02  0.45594000000E+02  0.51100000000E-03 0.  1.
    9900012    2    1    2    0    0  0.33514346356E+02 -0.13095848180E+02 -0.18932848668E+02  0.50528863143E+02  0.30000010010E+02 0.  0.
        -12    1    1    2    0    0 -0.33514346356E+02  0.13095848180E+02  0.18932848668E+02  0.40659136857E+02  0.00000000000E+00 0.  1.
         11    1    3    3    0    0  0.28650174160E+02 -0.11948601820E+02 -0.95031708815E+01  0.32464008100E+02  0.51100000000E-03 0. -1.
        -11    1    3    3    0    0  0.14061933982E+01  0.16215023734E+01  0.36616596543E+01  0.42443375814E+01  0.51100000000E-03 0.  1.
        -12    1    3    3    0    0  0.34579787980E+01 -0.27687487330E+01 -0.13091337441E+02  0.13820517462E+02  0.00000000000E+00 0.  1.
</event>
<event>
 7    1  0.3449452E-011  0.5052880E+02  0.7816164E-02  0.1300439E+00
        -11   -1    0    0    0    0  0.00000000000E+00  0.00000000000E+00  0.45593999997E+02  0.45594000000E+02  0.51100000000E-03 0.  1.
         11   -1    0    0    0    0 -0.00000000000E+00 -0.00000000000E+00 -0.45593999997E+02  0.45594000000E+02  0.51100000000E-03 0. -1.
    9900012    2    1    2    0    0 -0.22477605514E+02 -0.19301249760E+02 -0.27845821738E+02  0.50528797103E+02  0.29999809273E+02 0.  0.
        -12    1    1    2    0    0  0.22477605514E+02  0.19301249760E+02  0.27845821738E+02  0.40659202897E+02  0.00000000000E+00 0.  1.
         11    1    3    3    0    0 -0.38769737832E+01 -0.74546989205E+01 -0.19702629242E+02  0.21419548572E+02  0.51100000000E-03 0. -1.
        -11    1    3    3    0    0 -0.11031231204E+02 -0.15899714181E+02 -0.52976805517E+01  0.20063758183E+02  0.51100000000E-03 0.  1.
         12    1    3    3    0    0 -0.75694005271E+01  0.40531633414E+01 -0.28455119442E+01  0.90454903480E+01  0.00000000000E+00 0. -1.
</event>
<event>
 7    1  0.3449452E-011  0.5052886E+02  0.7816164E-02  0.1300439E+00
        -11   -1    0    0    0    0  0.00000000000E+00  0.00000000000E+00  0.45593999997E+02  0.45594000000E+02  0.51100000000E-03 0.  1.
         11   -1    0    0    0    0 -0.00000000000E+00 -0.00000000000E+00 -0.45593999997E+02  0.45594000000E+02  0.51100000000E-03 0. -1.
    9900012    2    1    2    0    0  0.23722018481E+02 -0.17800727396E+02 -0.27813042936E+02  0.50528863093E+02  0.30000009858E+02 0.  0.
        -12    1    1    2    0    0 -0.23722018481E+02  0.17800727396E+02  0.27813042936E+02  0.40659136907E+02  0.00000000000E+00 0.  1.
         11    1    3    3    0    0 -0.18709870564E+01  0.24418523667E+01  0.13867858157E+01  0.33743756024E+01  0.51100000000E-03 0. -1.
        -11    1    3    3    0    0  0.12588683326E+02 -0.18411456851E+02 -0.11439902281E+02  0.25066472741E+02  0.51100000000E-03 0.  1.
         12    1    3    3    0    0  0.13004322212E+02 -0.18311229116E+01 -0.17759926471E+02  0.22088014749E+02  0.00000000000E+00 0. -1.
</event>
<event>
 7    1  0.3449452E-011  0.5052886E+02  0.7816164E-02  0.1300439E+00
        -11   -1    0    0    0    0  0.00000000000E+00  0.00000000000E+00  0.45593999997E+02  0.45594000000E+02  0.51100000000E-03 0. -1.
         11   -1    0    0    0    0 -0.00000000000E+00 -0.00000000000E+00 -0.45593999997E+02  0.45594000000E+02  0.51100000000E-03 0.  1.
    9900012    2    1    2    0    0 -0.10244264610E+02 -0.48816807259E+01  0.39043438133E+02  0.50528858034E+02  0.29999994481E+02 0.  0.
        -12    1    1    2    0    0  0.10244264610E+02  0.48816807259E+01 -0.39043438133E+02  0.40659141966E+02  0.00000000000E+00 0.  1.
         11    1    3    3    0    0 -0.10157503930E+02  0.41705022558E+01  0.15753064481E+02  0.19202265907E+02  0.51100000000E-03 0. -1.
        -11    1    3    3    0    0  0.99869108667E+00 -0.98646804825E+01  0.26255977878E+02  0.28065738535E+02  0.51100000000E-03 0.  1.
        -12    1    3    3    0    0 -0.10854517665E+01  0.81249750074E+00 -0.29656042260E+01  0.32608535925E+01  0.00000000000E+00 0.  1.
</event>
<event>
 7    1  0.3449452E-011  0.5052890E+02  0.7816164E-02  0.1300439E+00
        -11   -1    0    0    0    0  0.00000000000E+00  0.00000000000E+00  0.45593999997E+02  0.45594000000E+02  0.51100000000E-03 0.  1.
         11   -1    0    0    0    0 -0.00000000000E+00 -0.00000000000E+00 -0.45593999997E+02  0.45594000000E+02  0.51100000000E-03 0. -1.
    9900012    2    1    2    0    0 -0.11899017249E+02 -0.32161129033E+02 -0.21845775132E+02  0.50528896182E+02  0.30000110435E+02 0.  0.
        -12    1    1    2    0    0  0.11899017249E+02  0.32161129033E+02  0.21845775132E+02  0.40659103818E+02  0.00000000000E+00 0.  1.
         11    1    3    3    0    0  0.45650732716E-01 -0.20478951049E+02 -0.88727196695E+01  0.22318482804E+02  0.51100000000E-03 0. -1.
        -11    1    3    3    0    0  0.28781682343E+01 -0.22223138018E+01  0.27993010118E+01  0.45889669246E+01  0.51100000000E-03 0.  1.
         12    1    3    3    0    0 -0.14822836216E+02 -0.94598641816E+01 -0.15772356474E+02  0.23621446454E+02  0.00000000000E+00 0. -1.
</event>
<event>
 7    1  0.3449452E-011  0.5052886E+02  0.7816164E-02  0.1300439E+00
        -11   -1    0    0    0    0  0.00000000000E+00  0.00000000000E+00  0.45593999997E+02  0.45594000000E+02  0.51100000000E-03 0. -1.
         11   -1    0    0    0    0 -0.00000000000E+00 -0.00000000000E+00 -0.45593999997E+02  0.45594000000E+02  0.51100000000E-03 0.  1.
    9900012    2    1    2    0    0  0.14215690748E+02 -0.52116043630E+01  0.37734850352E+02  0.50528860627E+02  0.30000002363E+02 0.  0.
        -12    1    1    2    0    0 -0.14215690748E+02  0.52116043630E+01 -0.37734850352E+02  0.40659139373E+02  0.00000000000E+00 0.  1.
         11    1    3    3    0    0  0.12003925268E+02 -0.11835499780E+02  0.13381474596E+02  0.21522944490E+02  0.51100000000E-03 0. -1.
        -11    1    3    3    0    0 -0.11960678311E+00  0.17402197085E+00 -0.18795105550E+01  0.18913354056E+01  0.51100000000E-03 0.  1.
         12    1    3    3    0    0  0.23313722627E+01  0.64498734458E+01  0.26232886311E+02  0.27114580732E+02  0.00000000000E+00 0. -1.
</event>
<event>
 7    1  0.3449452E-011  0.5052888E+02  0.7816164E-02  0.1300439E+00
        -11   -1    0    0    0    0  0.00000000000E+00  0.00000000000E+00  0.45593999997E+02  0.45594000000E+02  0.51100000000E-03 0.  1.
         11   -1    0    0    0    0 -0.00000000000E+00 -0.00000000000E+00 -0.45593999997E+02  0.45594000000E+02  0.51100000000E-03 0. -1.
    9900012    2    1    2    0    0 -0.30355177582E+01 -0.24658537813E+02 -0.32185497349E+02  0.50528879317E+02  0.30000059173E+02 0.  0.
        -12    1    1    2    0    0  0.30355177582E+01  0.24658537813E+02  0.32185497349E+02  0.40659120683E+02  0.00000000000E+00 0.  1.
         11    1    3    3    0    0  0.48090047169E+01 -0.15440743286E+02 -0.51439505783E+01  0.16970660193E+02  0.51100000000E-03 0. -1.
        -11    1    3    3    0    0 -0.34663151339E+01 -0.16009890124E+01  0.11835614172E+01  0.39974147038E+01  0.51100000000E-03 0.  1.
         12    1    3    3    0    0 -0.43782073413E+01 -0.76168055148E+01 -0.28225108187E+02  0.29560804420E+02  0.00000000000E+00 0. -1.
</event>
<event>
 7    1  0.3449452E-011  0.5052887E+02  0.7816164E-02  0.1300439E+00
        -11   -1    0    0    0    0  0.00000000000E+00  0.00000000000E+00  0.45593999997E+02  0.45594000000E+02  0.51100000000E-03 0.  1.
         11   -1    0    0    0    0 -0.00000000000E+00 -0.00000000000E+00 -0.45593999997E+02  0.45594000000E+02  0.51100000000E-03 0. -1.
    9900012    2    1    2    0    0  0.31343887811E+02 -0.19658170408E+02  0.16860664935E+02  0.50528868321E+02  0.30000025748E+02 0.  0.
        -12    1    1    2    0    0 -0.31343887811E+02  0.19658170408E+02 -0.16860664935E+02  0.40659131679E+02  0.00000000000E+00 0.  1.
         11    1    3    3    0    0  0.16530915008E+02 -0.28431198342E+01  0.85420053317E+01  0.18823398650E+02  0.51100000000E-03 0. -1.
        -11    1    3    3    0    0  0.35020668165E+01 -0.17702597425E+02  0.93298271064E+01  0.20314824677E+02  0.51100000000E-03 0.  1.
         12    1    3    3    0    0  0.11310905987E+02  0.88754685124E+00 -0.10111675035E+01  0.11390644994E+02  0.00000000000E+00 0. -1.
</event>
<event>
 7    1  0.3449452E-011  0.5052886E+02  0.7816164E-02  0.1300439E+00
        -11   -1    0    0    0    0  0.00000000000E+00  0.00000000000E+00  0.45593999997E+02  0.45594000000E+02  0.51100000000E-03 0. -1.
         11   -1    0    0    0    0 -0.00000000000E+00 -0.00000000000E+00 -0.45593999997E+02  0.45594000000E+02  0.51100000000E-03 0.  1.
    9900012    2    1    2    0    0 -0.22803546655E+01  0.27892628689E+02 -0.29495196592E+02  0.50528863578E+02  0.30000011331E+02 0.  0.
        -12    1    1    2    0    0  0.22803546655E+01 -0.27892628689E+02  0.29495196592E+02  0.40659136422E+02  0.00000000000E+00 0.  1.
         11    1    3    3    0    0 -0.53447527206E+01  0.20045760560E+02 -0.20345554415E+02  0.29057537453E+02  0.51100000000E-03 0. -1.
        -11    1    3    3    0    0  0.38986498365E+01  0.13017160352E+02 -0.40932729004E+01  0.14191575582E+02  0.51100000000E-03 0.  1.
        -12    1    3    3    0    0 -0.83425178140E+00 -0.51702922239E+01 -0.50563692766E+01  0.72797505436E+01  0.00000000000E+00 0.  1.
</event>
<event>
 7    1  0.3449452E-011  0.5052884E+02  0.7816164E-02  0.1300439E+00
        -11   -1    0    0    0    0  0.00000000000E+00  0.00000000000E+00  0.45593999997E+02  0.45594000000E+02  0.51100000000E-03 0.  1.
         11   -1    0    0    0    0 -0.00000000000E+00 -0.00000000000E+00 -0.45593999997E+02  0.45594000000E+02  0.51100000000E-03 0. -1.
    9900012    2    1    2    0    0  0.31789891239E+01 -0.35112167356E+02 -0.20253323436E+02  0.50528838935E+02  0.29999936426E+02 0.  0.
        -12    1    1    2    0    0 -0.31789891239E+01  0.35112167356E+02  0.20253323436E+02  0.40659161065E+02  0.00000000000E+00 0.  1.
         11    1    3    3    0    0  0.96635741954E+01 -0.46355597600E+01 -0.44718008097E+01  0.11613357967E+02  0.51100000000E-03 0. -1.
        -11    1    3    3    0    0 -0.19942871238E+01 -0.14125051201E+01  0.31147351694E+01  0.39590311041E+01  0.51100000000E-03 0.  1.
         12    1    3    3    0    0 -0.44902979477E+01 -0.29064102476E+02 -0.18896257796E+02  0.34956449864E+02  0.00000000000E+00 0. -1.
</event>
<event>
 7    1  0.3449452E-011  0.5052884E+02  0.7816164E-02  0.1300439E+00
        -11   -1    0    0    0    0  0.00000000000E+00  0.00000000000E+00  0.45593999997E+02  0.45594000000E+02  0.51100000000E-03 0.  1.
         11   -1    0    0    0    0 -0.00000000000E+00 -0.00000000000E+00 -0.45593999997E+02  0.45594000000E+02  0.51100000000E-03 0. -1.
    9900012    2    1    2    0    0  0.43257507221E+01  0.13407236870E+00 -0.40428169570E+02  0.50528843719E+02  0.29999950969E+02 0.  0.
        -12    1    1    2    0    0 -0.43257507221E+01 -0.13407236870E+00  0.40428169570E+02  0.40659156281E+02  0.00000000000E+00 0.  1.
         11    1    3    3    0    0  0.57092815154E+01 -0.11782236704E+02 -0.15550802411E+02  0.20328414917E+02  0.51100000000E-03 0. -1.
        -11    1    3    3    0    0 -0.25742471508E+01 -0.91261461070E+00 -0.10700819677E+02  0.11043874132E+02  0.51100000000E-03 0.  1.
        -12    1    3    3    0    0  0.11907163575E+01  0.12828923683E+02 -0.14176547482E+02  0.19156554670E+02  0.00000000000E+00 0.  1.
</event>
<event>
 7    1  0.3449452E-011  0.5052885E+02  0.7816164E-02  0.1300439E+00
        -11   -1    0    0    0    0  0.00000000000E+00  0.00000000000E+00  0.45593999997E+02  0.45594000000E+02  0.51100000000E-03 0.  1.
         11   -1    0    0    0    0 -0.00000000000E+00 -0.00000000000E+00 -0.45593999997E+02  0.45594000000E+02  0.51100000000E-03 0. -1.
    9900012    2    1    2    0    0  0.33233865804E+02 -0.37176624045E+00 -0.23420888969E+02  0.50528854823E+02  0.29999984720E+02 0.  0.
        -12    1    1    2    0    0 -0.33233865804E+02  0.37176624045E+00  0.23420888969E+02  0.40659145177E+02  0.00000000000E+00 0.  1.
         11    1    3    3    0    0  0.56481903708E+01  0.15441930804E+01  0.32636773056E+01  0.67035943009E+01  0.51100000000E-03 0. -1.
        -11    1    3    3    0    0  0.79361776086E+01 -0.99156950423E+01 -0.14819724830E+02  0.19517381164E+02  0.51100000000E-03 0.  1.
         12    1    3    3    0    0  0.19649497825E+02  0.79997357215E+01 -0.11864841444E+02  0.24307879358E+02  0.00000000000E+00 0. -1.
</event>
<event>
 7    1  0.3449452E-011  0.5052886E+02  0.7816164E-02  0.1300439E+00
        -11   -1    0    0    0    0  0.00000000000E+00  0.00000000000E+00  0.45593999997E+02  0.45594000000E+02  0.51100000000E-03 0.  1.
         11   -1    0    0    0    0 -0.00000000000E+00 -0.00000000000E+00 -0.45593999997E+02  0.45594000000E+02  0.51100000000E-03 0. -1.
    9900012    2    1    2    0    0 -0.19655481251E+02 -0.34835347032E+02 -0.73025035170E+01  0.50528857072E+02  0.29999991556E+02 0.  0.
        -12    1    1    2    0    0  0.19655481251E+02  0.34835347032E+02  0.73025035170E+01  0.40659142928E+02  0.00000000000E+00 0.  1.
         11    1    3    3    0    0 -0.72168315034E+01 -0.22709210457E+01 -0.53075497314E+01  0.92417435452E+01  0.51100000000E-03 0. -1.
        -11    1    3    3    0    0 -0.12869924404E+02 -0.17917128980E+02  0.80916774981E+01  0.23497525615E+02  0.51100000000E-03 0.  1.
         12    1    3    3    0    0  0.43127465620E+00 -0.14647297006E+02 -0.10086631284E+02  0.17789587911E+02  0.00000000000E+00 0. -1.
</event>
<event>
 7    1  0.3449452E-011  0.5052886E+02  0.7816164E-02  0.1300439E+00
        -11   -1    0    0    0    0  0.00000000000E+00  0.00000000000E+00  0.45593999997E+02  0.45594000000E+02  0.51100000000E-03 0. -1.
         11   -1    0    0    0    0 -0.00000000000E+00 -0.00000000000E+00 -0.45593999997E+02  0.45594000000E+02  0.51100000000E-03 0.  1.
    9900012    2    1    2    0    0  0.68612125704E+00 -0.39906008894E+02 -0.77591951921E+01  0.50528863041E+02  0.30000009699E+02 0.  0.
        -12    1    1    2    0    0 -0.68612125704E+00  0.39906008894E+02  0.77591951921E+01  0.40659136959E+02  0.00000000000E+00 0.  1.
         11    1    3    3    0    0  0.77432556343E+00 -0.64241519768E+01 -0.57311765913E+01  0.86438240427E+01  0.51100000000E-03 0. -1.
        -11    1    3    3    0    0  0.62509138192E+01  0.13160107447E+01  0.60554060009E+00  0.64165791147E+01  0.51100000000E-03 0.  1.
         12    1    3    3    0    0 -0.63391181256E+01 -0.34797867662E+02 -0.26335592008E+01  0.35468459883E+02  0.00000000000E+00 0. -1.
</event>
<event>
 7    1  0.3449452E-011  0.5052885E+02  0.7816164E-02  0.1300439E+00
        -11   -1    0    0    0    0  0.00000000000E+00  0.00000000000E+00  0.45593999997E+02  0.45594000000E+02  0.51100000000E-03 0. -1.
         11   -1    0    0    0    0 -0.00000000000E+00 -0.00000000000E+00 -0.45593999997E+02  0.45594000000E+02  0.51100000000E-03 0.  1.
    9900012    2    1    2    0    0  0.37035270702E+02 -0.11171657564E+02 -0.12519940840E+02  0.50528854321E+02  0.29999983194E+02 0.  0.
        -12    1    1    2    0    0 -0.37035270702E+02  0.11171657564E+02  0.12519940840E+02  0.40659145679E+02  0.00000000000E+00 0.  1.
         11    1    3    3    0    0  0.44370283793E+01  0.24661543358E+01 -0.20193281621E+01  0.54632247377E+01  0.51100000000E-03 0.  1.
        -11    1    3    3    0    0  0.92421927080E+01 -0.75449058191E+01 -0.16339524962E+02  0.20231752423E+02  0.51100000000E-03 0. -1.
         12    1    3    3    0    0  0.23356049615E+02 -0.60929060809E+01  0.58389122845E+01  0.24833877160E+02  0.00000000000E+00 0. -1.
</event>
<event>
 7    1  0.3449452E-011  0.5052883E+02  0.7816164E-02  0.1300439E+00
        -11   -1    0    0    0    0  0.00000000000E+00  0.00000000000E+00  0.45593999997E+02  0.45594000000E+02  0.51100000000E-03 0.  1.
         11   -1    0    0    0    0 -0.00000000000E+00 -0.00000000000E+00 -0.45593999997E+02  0.45594000000E+02  0.51100000000E-03 0. -1.
    9900012    2    1    2    0    0 -0.22481034413E+02  0.27702070312E+02 -0.19502986958E+02  0.50528829963E+02  0.29999909154E+02 0.  0.
        -12    1    1    2    0    0  0.22481034413E+02 -0.27702070312E+02  0.19502986958E+02  0.40659170037E+02  0.00000000000E+00 0.  1.
         11    1    3    3    0    0 -0.25985886582E+02  0.14325038518E+02 -0.18883621766E+02  0.35171923480E+02  0.51100000000E-03 0. -1.
        -11    1    3    3    0    0  0.18657711320E+00 -0.68767108410E+00  0.48811597530E+00  0.86368976232E+00  0.51100000000E-03 0.  1.
         12    1    3    3    0    0  0.33182750550E+01  0.14064702878E+02 -0.11074811668E+01  0.14493216721E+02  0.00000000000E+00 0. -1.
</event>
<event>
 7    1  0.3449452E-011  0.5052886E+02  0.7816164E-02  0.1300439E+00
        -11   -1    0    0    0    0  0.00000000000E+00  0.00000000000E+00  0.45593999997E+02  0.45594000000E+02  0.51100000000E-03 0. -1.
         11   -1    0    0    0    0 -0.00000000000E+00 -0.00000000000E+00 -0.45593999997E+02  0.45594000000E+02  0.51100000000E-03 0.  1.
    9900012    2    1    2    0    0 -0.12145578172E+02  0.38798613829E+02 -0.56425711703E+00  0.50528857236E+02  0.29999992055E+02 0.  0.
        -12    1    1    2    0    0  0.12145578172E+02 -0.38798613829E+02  0.56425711703E+00  0.40659142764E+02  0.00000000000E+00 0.  1.
         11    1    3    3    0    0 -0.61923737266E+01  0.18905995764E+01  0.40452339235E+00  0.64871795538E+01  0.51100000000E-03 0. -1.
        -11    1    3    3    0    0 -0.10549732078E+02  0.12171812620E+02  0.71239724317E+01  0.17612519776E+02  0.51100000000E-03 0.  1.
         12    1    3    3    0    0  0.45965276325E+01  0.24736201633E+02 -0.80927529410E+01  0.26429157907E+02  0.00000000000E+00 0. -1.
</event>
<event>
 7    1  0.3449452E-011  0.5052886E+02  0.7816164E-02  0.1300439E+00
        -11   -1    0    0    0    0  0.00000000000E+00  0.00000000000E+00  0.45593999997E+02  0.45594000000E+02  0.51100000000E-03 0. -1.
         11   -1    0    0    0    0 -0.00000000000E+00 -0.00000000000E+00 -0.45593999997E+02  0.45594000000E+02  0.51100000000E-03 0.  1.
    9900012    2    1    2    0    0  0.37571115231E+02  0.49037232301E+00  0.15535001814E+02  0.50528862699E+02  0.30000008659E+02 0.  0.
        -12    1    1    2    0    0 -0.37571115231E+02 -0.49037232301E+00 -0.15535001814E+02  0.40659137301E+02  0.00000000000E+00 0.  1.
         11    1    3    3    0    0  0.93220101886E+01 -0.34315399368E+01  0.17743342999E+00  0.99351307579E+01  0.51100000000E-03 0.  1.
        -11    1    3    3    0    0  0.12284588230E+02  0.83723612738E+00  0.20174708983E+02  0.23635375079E+02  0.51100000000E-03 0. -1.
         12    1    3    3    0    0  0.15964516813E+02  0.30846761324E+01 -0.48171405989E+01  0.16958356862E+02  0.00000000000E+00 0. -1.
</event>
<event>
 7    1  0.3449452E-011  0.5052885E+02  0.7816164E-02  0.1300439E+00
        -11   -1    0    0    0    0  0.00000000000E+00  0.00000000000E+00  0.45593999997E+02  0.45594000000E+02  0.51100000000E-03 0.  1.
         11   -1    0    0    0    0 -0.00000000000E+00 -0.00000000000E+00 -0.45593999997E+02  0.45594000000E+02  0.51100000000E-03 0. -1.
    9900012    2    1    2    0    0  0.48495589023E+01 -0.30942569349E+02 -0.25926922539E+02  0.50528854266E+02  0.29999983027E+02 0.  0.
        -12    1    1    2    0    0 -0.48495589023E+01  0.30942569349E+02  0.25926922539E+02  0.40659145734E+02  0.00000000000E+00 0.  1.
         11    1    3    3    0    0 -0.39364697839E+01 -0.12110875455E+02  0.15046571325E+01  0.12823146728E+02  0.51100000000E-03 0. -1.
        -11    1    3    3    0    0  0.67341326714E+00 -0.16029936926E+00 -0.12351943189E+02  0.12371324995E+02  0.51100000000E-03 0.  1.
         12    1    3    3    0    0  0.81126154191E+01 -0.18671394524E+02 -0.15079636483E+02  0.25334382544E+02  0.00000000000E+00 0. -1.
</event>
<event>
 7    1  0.3449452E-011  0.5052887E+02  0.7816164E-02  0.1300439E+00
        -11   -1    0    0    0    0  0.00000000000E+00  0.00000000000E+00  0.45593999997E+02  0.45594000000E+02  0.51100000000E-03 0. -1.
         11   -1    0    0    0    0 -0.00000000000E+00 -0.00000000000E+00 -0.45593999997E+02  0.45594000000E+02  0.51100000000E-03 0.  1.
    9900012    2    1    2    0    0  0.10533648629E+02 -0.33913344142E+02  0.19801311134E+02  0.50528873264E+02  0.30000040772E+02 0.  0.
        -12    1    1    2    0    0 -0.10533648629E+02  0.33913344142E+02 -0.19801311134E+02  0.40659126736E+02  0.00000000000E+00 0.  1.
         11    1    3    3    0    0  0.37236065054E-01 -0.11077981294E+01  0.47292548893E+01  0.48574124068E+01  0.51100000000E-03 0. -1.
        -11    1    3    3    0    0  0.11937460600E+01 -0.31287549626E+02  0.17592980726E+02  0.35914464529E+02  0.51100000000E-03 0.  1.
        -12    1    3    3    0    0  0.93026665039E+01 -0.15179963862E+01 -0.25209244815E+01  0.97569963284E+01  0.00000000000E+00 0.  1.
</event>
<event>
 7    1  0.3449452E-011  0.5052887E+02  0.7816164E-02  0.1300439E+00
        -11   -1    0    0    0    0  0.00000000000E+00  0.00000000000E+00  0.45593999997E+02  0.45594000000E+02  0.51100000000E-03 0.  1.
         11   -1    0    0    0    0 -0.00000000000E+00 -0.00000000000E+00 -0.45593999997E+02  0.45594000000E+02  0.51100000000E-03 0. -1.
    9900012    2    1    2    0    0 -0.81178019792E+01  0.31551821704E+02 -0.24325890983E+02  0.50528866538E+02  0.30000020328E+02 0.  0.
        -12    1    1    2    0    0  0.81178019792E+01 -0.31551821704E+02  0.24325890983E+02  0.40659133462E+02  0.00000000000E+00 0.  1.
         11    1    3    3    0    0 -0.44753326885E+00  0.58291506046E+01 -0.23930752045E+01  0.63171268780E+01  0.51100000000E-03 0. -1.
        -11    1    3    3    0    0 -0.94146172127E+01 -0.27789409095E+01 -0.61855315652E+01  0.11602513988E+02  0.51100000000E-03 0.  1.
        -12    1    3    3    0    0  0.17443485024E+01  0.28501612009E+02 -0.15747284214E+02  0.32609225671E+02  0.00000000000E+00 0.  1.
</event>
<event>
 7    1  0.3449452E-011  0.5052886E+02  0.7816164E-02  0.1300439E+00
        -11   -1    0    0    0    0  0.00000000000E+00  0.00000000000E+00  0.45593999997E+02  0.45594000000E+02  0.51100000000E-03 0.  1.
         11   -1    0    0    0    0 -0.00000000000E+00 -0.00000000000E+00 -0.45593999997E+02  0.45594000000E+02  0.51100000000E-03 0. -1.
    9900012    2    1    2    0    0 -0.19722904138E+02 -0.34012262793E+02 -0.10360445132E+02  0.50528858454E+02  0.29999995757E+02 0.  0.
        -12    1    1    2    0    0  0.19722904138E+02  0.34012262793E+02  0.10360445132E+02  0.40659141546E+02  0.00000000000E+00 0.  1.
         11    1    3    3    0    0 -0.31715361000E+01 -0.22563419351E+02 -0.47713805933E+01  0.23279446022E+02  0.51100000000E-03 0. -1.
        -11    1    3    3    0    0 -0.87936595018E+01 -0.11936451547E+02  0.35568580089E+01  0.15246591820E+02  0.51100000000E-03 0.  1.
         12    1    3    3    0    0 -0.77577085362E+01  0.48760810587E+00 -0.91459225473E+01  0.12002820612E+02  0.00000000000E+00 0. -1.
</event>
<event>
 7    1  0.3449452E-011  0.5052882E+02  0.7816164E-02  0.1300439E+00
        -11   -1    0    0    0    0  0.00000000000E+00  0.00000000000E+00  0.45593999997E+02  0.45594000000E+02  0.51100000000E-03 0.  1.
         11   -1    0    0    0    0 -0.00000000000E+00 -0.00000000000E+00 -0.45593999997E+02  0.45594000000E+02  0.51100000000E-03 0. -1.
    9900012    2    1    2    0    0  0.27528594750E+02  0.25600380168E+02 -0.15490836896E+02  0.50528818732E+02  0.29999875017E+02 0.  0.
        -12    1    1    2    0    0 -0.27528594750E+02 -0.25600380168E+02  0.15490836896E+02  0.40659181268E+02  0.00000000000E+00 0.  1.
         11    1    3    3    0    0  0.15645858739E+02  0.10903642732E+02 -0.14271918056E+02  0.23819529084E+02  0.51100000000E-03 0. -1.
        -11    1    3    3    0    0  0.16147139439E+02  0.10000681778E+02  0.28021160633E+01  0.19198843788E+02  0.51100000000E-03 0.  1.
         12    1    3    3    0    0 -0.42644034277E+01  0.46960556573E+01 -0.40210349025E+01  0.75104458601E+01  0.00000000000E+00 0. -1.
</event>
<event>
 7    1  0.3449452E-011  0.5052888E+02  0.7816164E-02  0.1300439E+00
        -11   -1    0    0    0    0  0.00000000000E+00  0.00000000000E+00  0.45593999997E+02  0.45594000000E+02  0.51100000000E-03 0. -1.
         11   -1    0    0    0    0 -0.00000000000E+00 -0.00000000000E+00 -0.45593999997E+02  0.45594000000E+02  0.51100000000E-03 0.  1.
    9900012    2    1    2    0    0  0.90552677995E+01 -0.20352778098E+02  0.34013683247E+02  0.50528879261E+02  0.30000059002E+02 0.  0.
        -12    1    1    2    0    0 -0.90552677995E+01  0.20352778098E+02 -0.34013683247E+02  0.40659120739E+02  0.00000000000E+00 0.  1.
         11    1    3    3    0    0  0.36722167055E+01 -0.16611365706E+02  0.15551054967E+02  0.23049033754E+02  0.51100000000E-03 0. -1.
        -11    1    3    3    0    0  0.92129275295E+01 -0.28988543983E+01  0.20787063226E+02  0.22921243166E+02  0.51100000000E-03 0.  1.
        -12    1    3    3    0    0 -0.38298764355E+01 -0.84255799391E+00 -0.23244349456E+01  0.45586023407E+01  0.00000000000E+00 0.  1.
</event>
<event>
 7    1  0.3449452E-011  0.5052887E+02  0.7816164E-02  0.1300439E+00
        -11   -1    0    0    0    0  0.00000000000E+00  0.00000000000E+00  0.45593999997E+02  0.45594000000E+02  0.51100000000E-03 0. -1.
         11   -1    0    0    0    0 -0.00000000000E+00 -0.00000000000E+00 -0.45593999997E+02  0.45594000000E+02  0.51100000000E-03 0.  1.
    9900012    2    1    2    0    0  0.21561492113E+01  0.37517537507E+02 -0.15522584791E+02  0.50528865251E+02  0.30000016415E+02 0.  0.
        -12    1    1    2    0    0 -0.21561492113E+01 -0.37517537507E+02  0.15522584791E+02  0.40659134749E+02  0.00000000000E+00 0.  1.
         11    1    3    3    0    0 -0.57659237395E+01  0.12145698850E+02  0.72012209257E+00  0.13464117246E+02  0.51100000000E-03 0. -1.
        -11    1    3    3    0    0  0.88618257653E+01  0.78682767694E+01  0.17102519712E+01  0.11973583310E+02  0.51100000000E-03 0.  1.
         12    1    3    3    0    0 -0.93975281457E+00  0.17503561888E+02 -0.17952958855E+02  0.25091164695E+02  0.00000000000E+00 0. -1.
</event>
<event>
 7    1  0.3449452E-011  0.5052886E+02  0.7816164E-02  0.1300439E+00
        -11   -1    0    0    0    0  0.00000000000E+00  0.00000000000E+00  0.45593999997E+02  0.45594000000E+02  0.51100000000E-03 0. -1.
         11   -1    0    0    0    0 -0.00000000000E+00 -0.00000000000E+00 -0.45593999997E+02  0.45594000000E+02  0.51100000000E-03 0.  1.
    9900012    2    1    2    0    0  0.99110848012E+00 -0.28224282655E+02  0.29250184292E+02  0.50528859471E+02  0.29999998849E+02 0.  0.
        -12    1    1    2    0    0 -0.99110848012E+00  0.28224282655E+02 -0.29250184292E+02  0.40659140529E+02  0.00000000000E+00 0.  1.
         11    1    3    3    0    0 -0.44824568014E+01 -0.10155415895E+02  0.17255207533E+02  0.20517482259E+02  0.51100000000E-03 0. -1.
        -11    1    3    3    0    0 -0.25623523487E+01 -0.94345099025E+00  0.10707905640E+02  0.11050565270E+02  0.51100000000E-03 0.  1.
        -12    1    3    3    0    0  0.80359176302E+01 -0.17125415770E+02  0.12870711193E+01  0.18960811942E+02  0.00000000000E+00 0.  1.
</event>
<event>
 7    1  0.5287095E-011  0.5052886E+02  0.7816164E-02  0.1300439E+00
        -11   -1    0    0    0    0  0.00000000000E+00  0.00000000000E+00  0.45593999997E+02  0.45594000000E+02  0.51100000000E-03 0.  1.
         11   -1    0    0    0    0 -0.00000000000E+00 -0.00000000000E+00 -0.45593999997E+02  0.45594000000E+02  0.51100000000E-03 0. -1.
    9900012    2    1    2    0    0  0.24008348498E+02 -0.24109607196E+02 -0.22259650657E+02  0.50528855837E+02  0.29999987801E+02 0.  0.
        -12    1    1    2    0    0 -0.24008348498E+02  0.24109607196E+02  0.22259650657E+02  0.40659144163E+02  0.00000000000E+00 0.  1.
         11    1    3    3    0    0  0.23241198016E+02 -0.14876373140E+02 -0.10279483307E+02  0.29447029397E+02  0.51100000000E-03 0. -1.
        -11    1    3    3    0    0  0.35390136228E+01 -0.10449721637E+02 -0.27532985017E+01  0.11371101644E+02  0.51100000000E-03 0.  1.
        -12    1    3    3    0    0 -0.27718631407E+01  0.12164875808E+01 -0.92268688480E+01  0.97107247949E+01  0.00000000000E+00 0.  1.
</event>
<event>
 7    1  0.3449452E-011  0.5052886E+02  0.7816164E-02  0.1300439E+00
        -11   -1    0    0    0    0  0.00000000000E+00  0.00000000000E+00  0.45593999997E+02  0.45594000000E+02  0.51100000000E-03 0.  1.
         11   -1    0    0    0    0 -0.00000000000E+00 -0.00000000000E+00 -0.45593999997E+02  0.45594000000E+02  0.51100000000E-03 0. -1.
    9900012    2    1    2    0    0  0.17843788418E+02 -0.99731198911E+01 -0.35146855222E+02  0.50528864035E+02  0.30000012719E+02 0.  0.
        -12    1    1    2    0    0 -0.17843788418E+02  0.99731198911E+01  0.35146855222E+02  0.40659135965E+02  0.00000000000E+00 0.  1.
         11    1    3    3    0    0 -0.39494839767E+00  0.13333999205E+01 -0.13694654186E+02  0.13765082387E+02  0.51100000000E-03 0. -1.
        -11    1    3    3    0    0 -0.29482948082E+01 -0.69584841511E+01 -0.23688005763E+01  0.79198586092E+01  0.51100000000E-03 0.  1.
         12    1    3    3    0    0  0.21187031624E+02 -0.43480356605E+01 -0.19083400459E+02  0.28843923038E+02  0.00000000000E+00 0. -1.
</event>
<event>
 7    1  0.3449452E-011  0.5052888E+02  0.7816164E-02  0.1300439E+00
        -11   -1    0    0    0    0  0.00000000000E+00  0.00000000000E+00  0.45593999997E+02  0.45594000000E+02  0.51100000000E-03 0.  1.
         11   -1    0    0    0    0 -0.00000000000E+00 -0.00000000000E+00 -0.45593999997E+02  0.45594000000E+02  0.51100000000E-03 0. -1.
    9900012    2    1    2    0    0 -0.28496231013E+01 -0.66830387269E+01 -0.40004760699E+02  0.50528877567E+02  0.30000053852E+02 0.  0.
        -12    1    1    2    0    0  0.28496231013E+01  0.66830387269E+01  0.40004760699E+02  0.40659122433E+02  0.00000000000E+00 0.  1.
         11    1    3    3    0    0 -0.10301802801E+02 -0.10877889066E+01 -0.19299577841E+02  0.21903975227E+02  0.51100000000E-03 0. -1.
        -11    1    3    3    0    0  0.47991737956E+01 -0.29694271863E+01 -0.23367929170E+02  0.24039752097E+02  0.51100000000E-03 0.  1.
        -12    1    3    3    0    0  0.26530059037E+01 -0.26258226340E+01  0.26627463114E+01  0.45851502428E+01  0.00000000000E+00 0.  1.
</event>
<event>
 7    1  0.3449452E-011  0.5052887E+02  0.7816164E-02  0.1300439E+00
        -11   -1    0    0    0    0  0.00000000000E+00  0.00000000000E+00  0.45593999997E+02  0.45594000000E+02  0.51100000000E-03 0.  1.
         11   -1    0    0    0    0 -0.00000000000E+00 -0.00000000000E+00 -0.45593999997E+02  0.45594000000E+02  0.51100000000E-03 0. -1.
    9900012    2    1    2    0    0  0.35928154096E+02 -0.15020299817E+02 -0.11692884125E+02  0.50528865694E+02  0.30000017764E+02 0.  0.
        -12    1    1    2    0    0 -0.35928154096E+02  0.15020299817E+02  0.11692884125E+02  0.40659134306E+02  0.00000000000E+00 0.  1.
         11    1    3    3    0    0  0.25471022482E+02  0.33610799820E+00 -0.10791393771E+02  0.27664781486E+02  0.51100000000E-03 0. -1.
        -11    1    3    3    0    0  0.40551204298E+01 -0.52516016642E+01 -0.68224451459E+01  0.95167788547E+01  0.51100000000E-03 0.  1.
         12    1    3    3    0    0  0.64020111839E+01 -0.10104806151E+02  0.59209547922E+01  0.13347305353E+02  0.00000000000E+00 0. -1.
</event>
<event>
 7    1  0.3449452E-011  0.5052887E+02  0.7816164E-02  0.1300439E+00
        -11   -1    0    0    0    0  0.00000000000E+00  0.00000000000E+00  0.45593999997E+02  0.45594000000E+02  0.51100000000E-03 0.  1.
         11   -1    0    0    0    0 -0.00000000000E+00 -0.00000000000E+00 -0.45593999997E+02  0.45594000000E+02  0.51100000000E-03 0. -1.
    9900012    2    1    2    0    0 -0.30594194191E+02  0.17041310383E+01 -0.26725564643E+02  0.50528873272E+02  0.30000040798E+02 0.  0.
        -12    1    1    2    0    0  0.30594194191E+02 -0.17041310383E+01  0.26725564643E+02  0.40659126728E+02  0.00000000000E+00 0.  1.
         11    1    3    3    0    0 -0.88512146524E+01  0.19213641742E+01 -0.11207349308E+02  0.14409730042E+02  0.51100000000E-03 0. -1.
        -11    1    3    3    0    0 -0.66165239371E+00  0.92109000656E+01 -0.66567359648E+01  0.11383786623E+02  0.51100000000E-03 0.  1.
        -12    1    3    3    0    0 -0.21081327145E+02 -0.94281332016E+01 -0.88614793706E+01  0.24735356607E+02  0.00000000000E+00 0.  1.
</event>
<event>
 7    1  0.3449452E-011  0.5052885E+02  0.7816164E-02  0.1300439E+00
        -11   -1    0    0    0    0  0.00000000000E+00  0.00000000000E+00  0.45593999997E+02  0.45594000000E+02  0.51100000000E-03 0.  1.
         11   -1    0    0    0    0 -0.00000000000E+00 -0.00000000000E+00 -0.45593999997E+02  0.45594000000E+02  0.51100000000E-03 0. -1.
    9900012    2    1    2    0    0 -0.21328416859E+02  0.24225289129E+02 -0.24726512675E+02  0.50528850622E+02  0.29999971950E+02 0.  0.
        -12    1    1    2    0    0  0.21328416859E+02 -0.24225289129E+02  0.24726512675E+02  0.40659149378E+02  0.00000000000E+00 0.  1.
         11    1    3    3    0    0 -0.46291397069E+01  0.33676770210E+01 -0.49664277679E+01  0.75786270510E+01  0.51100000000E-03 0. -1.
        -11    1    3    3    0    0  0.54599776122E+01  0.63201888449E+00 -0.99819962782E+01  0.11395220637E+02  0.51100000000E-03 0.  1.
         12    1    3    3    0    0 -0.22159254764E+02  0.20225593224E+02 -0.97780886285E+01  0.31555002934E+02  0.00000000000E+00 0. -1.
</event>
<event>
 7    1  0.3449452E-011  0.5052886E+02  0.7816164E-02  0.1300439E+00
        -11   -1    0    0    0    0  0.00000000000E+00  0.00000000000E+00  0.45593999997E+02  0.45594000000E+02  0.51100000000E-03 0.  1.
         11   -1    0    0    0    0 -0.00000000000E+00 -0.00000000000E+00 -0.45593999997E+02  0.45594000000E+02  0.51100000000E-03 0. -1.
    9900012    2    1    2    0    0 -0.44582941859E+01  0.65204518927E+01 -0.39884494921E+02  0.50528860621E+02  0.30000002345E+02 0.  0.
        -12    1    1    2    0    0  0.44582941859E+01 -0.65204518927E+01  0.39884494921E+02  0.40659139379E+02  0.00000000000E+00 0.  1.
         11    1    3    3    0    0 -0.12005110991E-01 -0.72868874370E+01 -0.60895984511E+01  0.94964247061E+01  0.51100000000E-03 0. -1.
        -11    1    3    3    0    0 -0.80891652915E+01  0.43211084737E+01 -0.27710094636E+02  0.29188283926E+02  0.51100000000E-03 0.  1.
         12    1    3    3    0    0  0.36428762166E+01  0.94862308560E+01 -0.60848018334E+01  0.11844151989E+02  0.00000000000E+00 0. -1.
</event>
<event>
 7    1  0.3449452E-011  0.5052886E+02  0.7816164E-02  0.1300439E+00
        -11   -1    0    0    0    0  0.00000000000E+00  0.00000000000E+00  0.45593999997E+02  0.45594000000E+02  0.51100000000E-03 0.  1.
         11   -1    0    0    0    0 -0.00000000000E+00 -0.00000000000E+00 -0.45593999997E+02  0.45594000000E+02  0.51100000000E-03 0. -1.
    9900012    2    1    2    0    0  0.10766428697E+02  0.17307538941E+02 -0.35180942878E+02  0.50528860401E+02  0.30000001676E+02 0.  0.
        -12    1    1    2    0    0 -0.10766428697E+02 -0.17307538941E+02  0.35180942878E+02  0.40659139599E+02  0.00000000000E+00 0.  1.
         11    1    3    3    0    0 -0.41580271691E+01  0.65152002019E+01 -0.91660210953E+01  0.11989702523E+02  0.51100000000E-03 0. -1.
        -11    1    3    3    0    0  0.10924995190E+02  0.17472874539E+02 -0.17946065462E+02  0.27326143716E+02  0.51100000000E-03 0.  1.
         12    1    3    3    0    0  0.39994606764E+01 -0.66805357999E+01 -0.80688563208E+01  0.11213014162E+02  0.00000000000E+00 0. -1.
</event>
<event>
 7    1  0.3449452E-011  0.5052894E+02  0.7816164E-02  0.1300439E+00
        -11   -1    0    0    0    0  0.00000000000E+00  0.00000000000E+00  0.45593999997E+02  0.45594000000E+02  0.51100000000E-03 0. -1.
         11   -1    0    0    0    0 -0.00000000000E+00 -0.00000000000E+00 -0.45593999997E+02  0.45594000000E+02  0.51100000000E-03 0.  1.
    9900012    2    1    2    0    0 -0.40479687620E+02  0.30374811131E+01 -0.23082792936E+01  0.50528935148E+02  0.30000228876E+02 0.  0.
        -12    1    1    2    0    0  0.40479687620E+02 -0.30374811131E+01  0.23082792936E+01  0.40659064852E+02  0.00000000000E+00 0.  1.
         11    1    3    3    0    0 -0.25724925280E+02  0.50183212970E+01  0.38198727501E+01  0.26486727948E+02  0.51100000000E-03 0. -1.
        -11    1    3    3    0    0 -0.44078534798E+01 -0.16338238182E+01  0.63040845789E+01  0.78638435391E+01  0.51100000000E-03 0.  1.
        -12    1    3    3    0    0 -0.10346908859E+02 -0.34701636565E+00 -0.12432236623E+02  0.16178363661E+02  0.00000000000E+00 0.  1.
</event>
<event>
 7    1  0.3449452E-011  0.5052886E+02  0.7816164E-02  0.1300439E+00
        -11   -1    0    0    0    0  0.00000000000E+00  0.00000000000E+00  0.45593999997E+02  0.45594000000E+02  0.51100000000E-03 0.  1.
         11   -1    0    0    0    0 -0.00000000000E+00 -0.00000000000E+00 -0.45593999997E+02  0.45594000000E+02  0.51100000000E-03 0. -1.
    9900012    2    1    2    0    0 -0.20433467052E+02 -0.31452603731E+02 -0.15696271035E+02  0.50528858573E+02  0.29999996118E+02 0.  0.
        -12    1    1    2    0    0  0.20433467052E+02  0.31452603731E+02  0.15696271035E+02  0.40659141427E+02  0.00000000000E+00 0.  1.
         11    1    3    3    0    0  0.15095961178E+01 -0.11567706651E+02 -0.73184260313E+01  0.13771349878E+02  0.51100000000E-03 0. -1.
        -11    1    3    3    0    0 -0.39218714764E+01  0.41002967347E+01 -0.24316153159E+01  0.61730270123E+01  0.51100000000E-03 0.  1.
        -12    1    3    3    0    0 -0.18021191693E+02 -0.23985193814E+02 -0.59462296875E+01  0.30584481683E+02  0.00000000000E+00 0.  1.
</event>
<event>
 7    1  0.3449452E-011  0.5052885E+02  0.7816164E-02  0.1300439E+00
        -11   -1    0    0    0    0  0.00000000000E+00  0.00000000000E+00  0.45593999997E+02  0.45594000000E+02  0.51100000000E-03 0.  1.
         11   -1    0    0    0    0 -0.00000000000E+00 -0.00000000000E+00 -0.45593999997E+02  0.45594000000E+02  0.51100000000E-03 0. -1.
    9900012    2    1    2    0    0 -0.18846470067E+02 -0.19842817225E+02 -0.30070577916E+02  0.50528849915E+02  0.29999969802E+02 0.  0.
        -12    1    1    2    0    0  0.18846470067E+02  0.19842817225E+02  0.30070577916E+02  0.40659150085E+02  0.00000000000E+00 0.  1.
         11    1    3    3    0    0 -0.12651212193E+02 -0.14155882557E+02 -0.11771807547E+02  0.22338702606E+02  0.51100000000E-03 0. -1.
        -11    1    3    3    0    0 -0.90927826257E+01  0.87850297007E+00 -0.67353336555E+00  0.91599187116E+01  0.51100000000E-03 0.  1.
         12    1    3    3    0    0  0.28975247511E+01 -0.65654376384E+01 -0.17625237003E+02  0.19030228598E+02  0.00000000000E+00 0. -1.
</event>
<event>
 7    1  0.3449452E-011  0.5052886E+02  0.7816164E-02  0.1300439E+00
        -11   -1    0    0    0    0  0.00000000000E+00  0.00000000000E+00  0.45593999997E+02  0.45594000000E+02  0.51100000000E-03 0. -1.
         11   -1    0    0    0    0 -0.00000000000E+00 -0.00000000000E+00 -0.45593999997E+02  0.45594000000E+02  0.51100000000E-03 0.  1.
    9900012    2    1    2    0    0 -0.94096141436E+01  0.39544356543E+02 -0.93205036992E+00  0.50528859692E+02  0.29999999519E+02 0.  0.
        -12    1    1    2    0    0  0.94096141436E+01 -0.39544356543E+02  0.93205036992E+00  0.40659140308E+02  0.00000000000E+00 0.  1.
         11    1    3    3    0    0 -0.51520294966E+01  0.33057017821E+02  0.43753480111E+01  0.33740976655E+02  0.51100000000E-03 0. -1.
        -11    1    3    3    0    0  0.41942093027E+01  0.51633132778E+01  0.12609500084E+00  0.66533522295E+01  0.51100000000E-03 0.  1.
         12    1    3    3    0    0 -0.84517939497E+01  0.13240254438E+01 -0.54334933819E+01  0.10134530807E+02  0.00000000000E+00 0. -1.
</event>
<event>
 7    1  0.3449452E-011  0.5052886E+02  0.7816164E-02  0.1300439E+00
        -11   -1    0    0    0    0  0.00000000000E+00  0.00000000000E+00  0.45593999997E+02  0.45594000000E+02  0.51100000000E-03 0. -1.
         11   -1    0    0    0    0 -0.00000000000E+00 -0.00000000000E+00 -0.45593999997E+02  0.45594000000E+02  0.51100000000E-03 0.  1.
    9900012    2    1    2    0    0  0.24276670036E+02  0.31061121907E+02 -0.99506556257E+01  0.50528861427E+02  0.30000004794E+02 0.  0.
        -12    1    1    2    0    0 -0.24276670036E+02 -0.31061121907E+02  0.99506556257E+01  0.40659138573E+02  0.00000000000E+00 0.  1.
         11    1    3    3    0    0  0.14214446320E+02  0.12302739112E+02 -0.71081087183E+01  0.20098086567E+02  0.51100000000E-03 0. -1.
        -11    1    3    3    0    0 -0.13384603280E+01  0.20145120491E+01 -0.89518932257E+01  0.92728705065E+01  0.51100000000E-03 0.  1.
         12    1    3    3    0    0  0.11400684044E+02  0.16743870745E+02  0.61093463183E+01  0.21157904353E+02  0.00000000000E+00 0. -1.
</event>
<event>
 7    1  0.3449452E-011  0.5052889E+02  0.7816164E-02  0.1300439E+00
        -11   -1    0    0    0    0  0.00000000000E+00  0.00000000000E+00  0.45593999997E+02  0.45594000000E+02  0.51100000000E-03 0. -1.
         11   -1    0    0    0    0 -0.00000000000E+00 -0.00000000000E+00 -0.45593999997E+02  0.45594000000E+02  0.51100000000E-03 0.  1.
    9900012    2    1    2    0    0  0.33080207307E+00 -0.79017225278E+01  0.39882531823E+02  0.50528892859E+02  0.30000100333E+02 0.  0.
        -12    1    1    2    0    0 -0.33080207307E+00  0.79017225278E+01 -0.39882531823E+02  0.40659107141E+02  0.00000000000E+00 0.  1.
         11    1    3    3    0    0 -0.69576980135E+01  0.17689873978E+01  0.17281669533E+02  0.18713497272E+02  0.51100000000E-03 0. -1.
        -11    1    3    3    0    0  0.43426922070E+01  0.46345645838E+01  0.12611830062E+02  0.14120779803E+02  0.51100000000E-03 0.  1.
         12    1    3    3    0    0  0.29458078796E+01 -0.14305274509E+02  0.99890322285E+01  0.17694615783E+02  0.00000000000E+00 0. -1.
</event>
<event>
 7    1  0.3449452E-011  0.5052884E+02  0.7816164E-02  0.1300439E+00
        -11   -1    0    0    0    0  0.00000000000E+00  0.00000000000E+00  0.45593999997E+02  0.45594000000E+02  0.51100000000E-03 0.  1.
         11   -1    0    0    0    0 -0.00000000000E+00 -0.00000000000E+00 -0.45593999997E+02  0.45594000000E+02  0.51100000000E-03 0. -1.
    9900012    2    1    2    0    0 -0.33308893951E+02  0.16850503085E+02 -0.16116612070E+02  0.50528842913E+02  0.29999948518E+02 0.  0.
        -12    1    1    2    0    0  0.33308893951E+02 -0.16850503085E+02  0.16116612070E+02  0.40659157087E+02  0.00000000000E+00 0.  1.
         11    1    3    3    0    0 -0.25678601256E+01 -0.13560216559E+01 -0.14246538932E+02  0.14539483215E+02  0.51100000000E-03 0. -1.
        -11    1    3    3    0    0 -0.66992569809E+01  0.22996787877E+01 -0.95595293848E+00  0.71471961568E+01  0.51100000000E-03 0.  1.
         12    1    3    3    0    0 -0.24041776844E+02  0.15906845953E+02 -0.91412019937E+00  0.28842163541E+02  0.00000000000E+00 0. -1.
</event>
<event>
 7    1  0.3449452E-011  0.5052885E+02  0.7816164E-02  0.1300439E+00
        -11   -1    0    0    0    0  0.00000000000E+00  0.00000000000E+00  0.45593999997E+02  0.45594000000E+02  0.51100000000E-03 0. -1.
         11   -1    0    0    0    0 -0.00000000000E+00 -0.00000000000E+00 -0.45593999997E+02  0.45594000000E+02  0.51100000000E-03 0.  1.
    9900012    2    1    2    0    0  0.35447071660E+02 -0.19814981283E+02 -0.20094336708E+01  0.50528853475E+02  0.29999980622E+02 0.  0.
        -12    1    1    2    0    0 -0.35447071660E+02  0.19814981283E+02  0.20094336708E+01  0.40659146525E+02  0.00000000000E+00 0.  1.
         11    1    3    3    0    0  0.30112104175E+02 -0.23386805104E+02  0.59196967132E+00  0.38131770208E+02  0.51100000000E-03 0. -1.
        -11    1    3    3    0    0  0.38672416763E+01  0.27870644163E+01  0.36017036381E+01  0.59745757675E+01  0.51100000000E-03 0.  1.
        -12    1    3    3    0    0  0.14677258081E+01  0.78475940475E+00 -0.62031069802E+01  0.64225074994E+01  0.00000000000E+00 0.  1.
</event>
<event>
 7    1  0.3449452E-011  0.5052886E+02  0.7816164E-02  0.1300439E+00
        -11   -1    0    0    0    0  0.00000000000E+00  0.00000000000E+00  0.45593999997E+02  0.45594000000E+02  0.51100000000E-03 0. -1.
         11   -1    0    0    0    0 -0.00000000000E+00 -0.00000000000E+00 -0.45593999997E+02  0.45594000000E+02  0.51100000000E-03 0.  1.
    9900012    2    1    2    0    0 -0.22697087000E+02 -0.14908254722E+02  0.30261386695E+02  0.50528863980E+02  0.30000012554E+02 0.  0.
        -12    1    1    2    0    0  0.22697087000E+02  0.14908254722E+02 -0.30261386695E+02  0.40659136020E+02  0.00000000000E+00 0.  1.
         11    1    3    3    0    0 -0.14022823989E+02 -0.71582829717E+01  0.57128103317E+01  0.16748636060E+02  0.51100000000E-03 0. -1.
        -11    1    3    3    0    0 -0.63371397241E+01  0.57533633655E+01  0.50192061982E+01  0.99223465481E+01  0.51100000000E-03 0.  1.
         12    1    3    3    0    0 -0.23371232878E+01 -0.13503335116E+02  0.19529370165E+02  0.23857881372E+02  0.00000000000E+00 0. -1.
</event>
<event>
 7    1  0.3449452E-011  0.5052886E+02  0.7816164E-02  0.1300439E+00
        -11   -1    0    0    0    0  0.00000000000E+00  0.00000000000E+00  0.45593999997E+02  0.45594000000E+02  0.51100000000E-03 0.  1.
         11   -1    0    0    0    0 -0.00000000000E+00 -0.00000000000E+00 -0.45593999997E+02  0.45594000000E+02  0.51100000000E-03 0. -1.
    9900012    2    1    2    0    0 -0.19737921472E+02  0.32091353011E+02 -0.15288075350E+02  0.50528859207E+02  0.29999998046E+02 0.  0.
        -12    1    1    2    0    0  0.19737921472E+02 -0.32091353011E+02  0.15288075350E+02  0.40659140793E+02  0.00000000000E+00 0.  1.
         11    1    3    3    0    0  0.46851420025E+01  0.46935403096E+01 -0.17720396161E+01  0.68644009851E+01  0.51100000000E-03 0. -1.
        -11    1    3    3    0    0 -0.44073527261E+01 -0.25501301882E+01  0.26126396552E+00  0.50986450307E+01  0.51100000000E-03 0.  1.
         12    1    3    3    0    0 -0.20015710749E+02  0.29947942890E+02 -0.13777299699E+02  0.38565813191E+02  0.00000000000E+00 0. -1.
</event>
<event>
 7    1  0.3449452E-011  0.5052886E+02  0.7816164E-02  0.1300439E+00
        -11   -1    0    0    0    0  0.00000000000E+00  0.00000000000E+00  0.45593999997E+02  0.45594000000E+02  0.51100000000E-03 0.  1.
         11   -1    0    0    0    0 -0.00000000000E+00 -0.00000000000E+00 -0.45593999997E+02  0.45594000000E+02  0.51100000000E-03 0. -1.
    9900012    2    1    2    0    0 -0.31100403474E+01  0.29440421053E+02 -0.27870322343E+02  0.50528860680E+02  0.30000002522E+02 0.  0.
        -12    1    1    2    0    0  0.31100403474E+01 -0.29440421053E+02  0.27870322343E+02  0.40659139320E+02  0.00000000000E+00 0.  1.
         11    1    3    3    0    0 -0.31469434876E+01 -0.26408813821E+01 -0.59925844444E+01  0.72655747448E+01  0.51100000000E-03 0. -1.
        -11    1    3    3    0    0  0.94988444622E+01  0.14073501180E+02 -0.10202101389E+02  0.19808441498E+02  0.51100000000E-03 0.  1.
         12    1    3    3    0    0 -0.94619413220E+01  0.18007801256E+02 -0.11675636510E+02  0.23454844437E+02  0.00000000000E+00 0. -1.
</event>
<event>
 7    1  0.3449452E-011  0.5052886E+02  0.7816164E-02  0.1300439E+00
        -11   -1    0    0    0    0  0.00000000000E+00  0.00000000000E+00  0.45593999997E+02  0.45594000000E+02  0.51100000000E-03 0.  1.
         11   -1    0    0    0    0 -0.00000000000E+00 -0.00000000000E+00 -0.45593999997E+02  0.45594000000E+02  0.51100000000E-03 0. -1.
    9900012    2    1    2    0    0  0.23106935286E+02 -0.33134232326E+02  0.46214463379E+01  0.50528861096E+02  0.30000003786E+02 0.  0.
        -12    1    1    2    0    0 -0.23106935286E+02  0.33134232326E+02 -0.46214463379E+01  0.40659138904E+02  0.00000000000E+00 0.  1.
         11    1    3    3    0    0  0.72763382525E+01 -0.13238963636E+02  0.88645762358E+01  0.17515592157E+02  0.51100000000E-03 0. -1.
        -11    1    3    3    0    0  0.93339433559E+01  0.10509069571E+01  0.30916732497E+01  0.98886474175E+01  0.51100000000E-03 0.  1.
         12    1    3    3    0    0  0.64966536782E+01 -0.20946175648E+02 -0.73348031476E+01  0.23124621521E+02  0.00000000000E+00 0. -1.
</event>
<event>
 7    1  0.3449452E-011  0.5052901E+02  0.7816164E-02  0.1300438E+00
        -11   -1    0    0    0    0  0.00000000000E+00  0.00000000000E+00  0.45593999997E+02  0.45594000000E+02  0.51100000000E-03 0.  1.
         11   -1    0    0    0    0 -0.00000000000E+00 -0.00000000000E+00 -0.45593999997E+02  0.45594000000E+02  0.51100000000E-03 0. -1.
    9900012    2    1    2    0    0 -0.46363831920E+01 -0.30255568218E+02 -0.26763002778E+02  0.50529006223E+02  0.30000444911E+02 0.  0.
        -12    1    1    2    0    0  0.46363831920E+01  0.30255568218E+02  0.26763002778E+02  0.40658993777E+02  0.00000000000E+00 0.  1.
         11    1    3    3    0    0 -0.20433298151E+01 -0.23458263522E+02 -0.12090688617E+02  0.26469795535E+02  0.51100000000E-03 0. -1.
        -11    1    3    3    0    0  0.27246412817E+01 -0.42188456022E+01  0.27050835308E+01  0.57043672304E+01  0.51100000000E-03 0.  1.
        -12    1    3    3    0    0 -0.53176946586E+01 -0.25784590934E+01 -0.17377397692E+02  0.18354843457E+02  0.00000000000E+00 0.  1.
</event>
<event>
 7    1  0.3449452E-011  0.5052885E+02  0.7816164E-02  0.1300439E+00
        -11   -1    0    0    0    0  0.00000000000E+00  0.00000000000E+00  0.45593999997E+02  0.45594000000E+02  0.51100000000E-03 0. -1.
         11   -1    0    0    0    0 -0.00000000000E+00 -0.00000000000E+00 -0.45593999997E+02  0.45594000000E+02  0.51100000000E-03 0.  1.
    9900012    2    1    2    0    0 -0.39972325183E+02 -0.71569116351E+01 -0.20391937333E+01  0.50528850036E+02  0.29999970169E+02 0.  0.
        -12    1    1    2    0    0  0.39972325183E+02  0.71569116351E+01  0.20391937333E+01  0.40659149964E+02  0.00000000000E+00 0.  1.
         11    1    3    3    0    0 -0.21505009547E+02 -0.58977784566E+01 -0.11399917139E+02  0.25044107838E+02  0.51100000000E-03 0.  1.
        -11    1    3    3    0    0 -0.15970866639E+02  0.34250392778E+01  0.20672507647E+01  0.16464294739E+02  0.51100000000E-03 0. -1.
        -12    1    3    3    0    0 -0.24964489971E+01 -0.46841724563E+01  0.72934726414E+01  0.90204474593E+01  0.00000000000E+00 0.  1.
</event>
<event>
 7    1  0.3449452E-011  0.5052886E+02  0.7816164E-02  0.1300439E+00
        -11   -1    0    0    0    0  0.00000000000E+00  0.00000000000E+00  0.45593999997E+02  0.45594000000E+02  0.51100000000E-03 0. -1.
         11   -1    0    0    0    0 -0.00000000000E+00 -0.00000000000E+00 -0.45593999997E+02  0.45594000000E+02  0.51100000000E-03 0.  1.
    9900012    2    1    2    0    0 -0.97199769941E+01  0.39479218457E+02  0.28091187735E+00  0.50528861368E+02  0.30000004616E+02 0.  0.
        -12    1    1    2    0    0  0.97199769941E+01 -0.39479218457E+02 -0.28091187735E+00  0.40659138632E+02  0.00000000000E+00 0.  1.
         11    1    3    3    0    0  0.42064673714E+01  0.14018149087E+02  0.66928851625E+00  0.14650966485E+02  0.51100000000E-03 0. -1.
        -11    1    3    3    0    0 -0.32444814412E+01  0.17316780283E+02 -0.91380678026E+01  0.19846960035E+02  0.51100000000E-03 0.  1.
         12    1    3    3    0    0 -0.10681962924E+02  0.81442890872E+01  0.87496911637E+01  0.16030934848E+02  0.00000000000E+00 0. -1.
</event>
<event>
 7    1  0.3449452E-011  0.5052888E+02  0.7816164E-02  0.1300439E+00
        -11   -1    0    0    0    0  0.00000000000E+00  0.00000000000E+00  0.45593999997E+02  0.45594000000E+02  0.51100000000E-03 0. -1.
         11   -1    0    0    0    0 -0.00000000000E+00 -0.00000000000E+00 -0.45593999997E+02  0.45594000000E+02  0.51100000000E-03 0.  1.
    9900012    2    1    2    0    0 -0.30610838668E+02  0.21291589445E+02  0.16211370353E+02  0.50528883510E+02  0.30000071916E+02 0.  0.
        -12    1    1    2    0    0  0.30610838668E+02 -0.21291589445E+02 -0.16211370353E+02  0.40659116490E+02  0.00000000000E+00 0.  1.
         11    1    3    3    0    0 -0.23244187407E+02  0.18454545042E+02  0.64992321491E+00  0.29686442720E+02  0.51100000000E-03 0. -1.
        -11    1    3    3    0    0 -0.36092886255E+01  0.10851574527E+00 -0.91425679783E+00  0.37248631924E+01  0.51100000000E-03 0.  1.
        -12    1    3    3    0    0 -0.37573626357E+01  0.27285286577E+01  0.16475703936E+02  0.17117577597E+02  0.00000000000E+00 0.  1.
</event>
<event>
 7    1  0.3449452E-011  0.5052886E+02  0.7816164E-02  0.1300439E+00
        -11   -1    0    0    0    0  0.00000000000E+00  0.00000000000E+00  0.45593999997E+02  0.45594000000E+02  0.51100000000E-03 0.  1.
         11   -1    0    0    0    0 -0.00000000000E+00 -0.00000000000E+00 -0.45593999997E+02  0.45594000000E+02  0.51100000000E-03 0. -1.
    9900012    2    1    2    0    0  0.48012144665E+01 -0.10647462979E+02 -0.38945421508E+02  0.50528856076E+02  0.29999988527E+02 0.  0.
        -12    1    1    2    0    0 -0.48012144665E+01  0.10647462979E+02  0.38945421508E+02  0.40659143924E+02  0.00000000000E+00 0.  1.
         11    1    3    3    0    0  0.33155029362E+01  0.48399070834E-01 -0.20106745353E+02  0.20378324542E+02  0.51100000000E-03 0. -1.
        -11    1    3    3    0    0 -0.94316282564E+01 -0.45883012053E+01 -0.54234164580E+01  0.11807690962E+02  0.51100000000E-03 0.  1.
         12    1    3    3    0    0  0.10917339787E+02 -0.61075608447E+01 -0.13415259697E+02  0.18342840571E+02  0.00000000000E+00 0. -1.
</event>
<event>
 7    1  0.3449452E-011  0.5052887E+02  0.7816164E-02  0.1300439E+00
        -11   -1    0    0    0    0  0.00000000000E+00  0.00000000000E+00  0.45593999997E+02  0.45594000000E+02  0.51100000000E-03 0.  1.
         11   -1    0    0    0    0 -0.00000000000E+00 -0.00000000000E+00 -0.45593999997E+02  0.45594000000E+02  0.51100000000E-03 0. -1.
    9900012    2    1    2    0    0 -0.33525859357E+02  0.85831209891E+01 -0.21342727650E+02  0.50528865293E+02  0.30000016545E+02 0.  0.
        -12    1    1    2    0    0  0.33525859357E+02 -0.85831209891E+01  0.21342727650E+02  0.40659134707E+02  0.00000000000E+00 0.  1.
         11    1    3    3    0    0 -0.16756985494E+02 -0.94754371147E+01 -0.12101361192E+02  0.22738148876E+02  0.51100000000E-03 0. -1.
        -11    1    3    3    0    0 -0.65447874725E+01  0.45704811164E+01  0.94220402007E+00  0.80381147897E+01  0.51100000000E-03 0.  1.
        -12    1    3    3    0    0 -0.10224086391E+02  0.13488076987E+02 -0.10183570479E+02  0.19752601627E+02  0.00000000000E+00 0.  1.
</event>
<event>
 7    1  0.3449452E-011  0.5052887E+02  0.7816164E-02  0.1300439E+00
        -11   -1    0    0    0    0  0.00000000000E+00  0.00000000000E+00  0.45593999997E+02  0.45594000000E+02  0.51100000000E-03 0.  1.
         11   -1    0    0    0    0 -0.00000000000E+00 -0.00000000000E+00 -0.45593999997E+02  0.45594000000E+02  0.51100000000E-03 0. -1.
    9900012    2    1    2    0    0  0.25713887398E+02  0.17020236285E+02 -0.26500422316E+02  0.50528870259E+02  0.30000031641E+02 0.  0.
        -12    1    1    2    0    0 -0.25713887398E+02 -0.17020236285E+02  0.26500422316E+02  0.40659129741E+02  0.00000000000E+00 0.  1.
         11    1    3    3    0    0  0.58339464090E+01  0.12280490307E+01  0.45172416632E+01  0.74798735036E+01  0.51100000000E-03 0. -1.
        -11    1    3    3    0    0  0.80019911114E-01 -0.26586590942E+01 -0.40290834311E+01  0.48278758187E+01  0.51100000000E-03 0.  1.
         12    1    3    3    0    0  0.19799921078E+02  0.18450846349E+02 -0.26988580548E+02  0.38221120937E+02  0.00000000000E+00 0. -1.
</event>
<event>
 7    1  0.3449452E-011  0.5052875E+02  0.7816164E-02  0.1300439E+00
        -11   -1    0    0    0    0  0.00000000000E+00  0.00000000000E+00  0.45593999997E+02  0.45594000000E+02  0.51100000000E-03 0.  1.
         11   -1    0    0    0    0 -0.00000000000E+00 -0.00000000000E+00 -0.45593999997E+02  0.45594000000E+02  0.51100000000E-03 0. -1.
    9900012    2    1    2    0    0 -0.16756485219E+02  0.26736337533E+02 -0.25642999040E+02  0.50528745932E+02  0.29999653734E+02 0.  0.
        -12    1    1    2    0    0  0.16756485219E+02 -0.26736337533E+02  0.25642999040E+02  0.40659254068E+02  0.00000000000E+00 0.  1.
         11    1    3    3    0    0 -0.87999163942E+01  0.10875676947E+02 -0.13894876154E+02  0.19717668757E+02  0.51100000000E-03 0. -1.
        -11    1    3    3    0    0 -0.11149370000E+02  0.11025402119E+02  0.20804964144E+01  0.15817598075E+02  0.51100000000E-03 0.  1.
         12    1    3    3    0    0  0.31928011751E+01  0.48352584674E+01 -0.13828619300E+02  0.14993479101E+02  0.00000000000E+00 0. -1.
</event>
<event>
 7    1  0.3449452E-011  0.5052873E+02  0.7816164E-02  0.1300439E+00
        -11   -1    0    0    0    0  0.00000000000E+00  0.00000000000E+00  0.45593999997E+02  0.45594000000E+02  0.51100000000E-03 0.  1.
         11   -1    0    0    0    0 -0.00000000000E+00 -0.00000000000E+00 -0.45593999997E+02  0.45594000000E+02  0.51100000000E-03 0. -1.
    9900012    2    1    2    0    0  0.18779730014E+02  0.11081662920E+02 -0.34317556777E+02  0.50528730262E+02  0.29999606101E+02 0.  0.
        -12    1    1    2    0    0 -0.18779730014E+02 -0.11081662920E+02  0.34317556777E+02  0.40659269738E+02  0.00000000000E+00 0.  1.
         11    1    3    3    0    0  0.41315081723E+01  0.93530445871E+01 -0.79182773523E+00  0.10255525060E+02  0.51100000000E-03 0. -1.
        -11    1    3    3    0    0  0.40381428588E+01  0.38403495401E+01 -0.58710369215E+00  0.56035322203E+01  0.51100000000E-03 0.  1.
        -12    1    3    3    0    0  0.10610078983E+02 -0.21117312071E+01 -0.32938625350E+02  0.34669672982E+02  0.00000000000E+00 0.  1.
</event>
<event>
 7    1  0.3449452E-011  0.5052886E+02  0.7816164E-02  0.1300439E+00
        -11   -1    0    0    0    0  0.00000000000E+00  0.00000000000E+00  0.45593999997E+02  0.45594000000E+02  0.51100000000E-03 0.  1.
         11   -1    0    0    0    0 -0.00000000000E+00 -0.00000000000E+00 -0.45593999997E+02  0.45594000000E+02  0.51100000000E-03 0. -1.
    9900012    2    1    2    0    0  0.23566856568E+02  0.10848240961E+02 -0.31306306630E+02  0.50528857175E+02  0.29999991870E+02 0.  0.
        -12    1    1    2    0    0 -0.23566856568E+02 -0.10848240961E+02  0.31306306630E+02  0.40659142825E+02  0.00000000000E+00 0.  1.
         11    1    3    3    0    0  0.43279193219E+01 -0.37269290750E+01 -0.79519133520E+01  0.97904960144E+01  0.51100000000E-03 0. -1.
        -11    1    3    3    0    0  0.80217189149E+00 -0.17699490381E+01  0.36793816820E+01  0.41610154006E+01  0.51100000000E-03 0.  1.
         12    1    3    3    0    0  0.18436765354E+02  0.16345119075E+02 -0.27033774960E+02  0.36577345760E+02  0.00000000000E+00 0. -1.
</event>
<event>
 7    1  0.3449452E-011  0.5052883E+02  0.7816164E-02  0.1300439E+00
        -11   -1    0    0    0    0  0.00000000000E+00  0.00000000000E+00  0.45593999997E+02  0.45594000000E+02  0.51100000000E-03 0. -1.
         11   -1    0    0    0    0 -0.00000000000E+00 -0.00000000000E+00 -0.45593999997E+02  0.45594000000E+02  0.51100000000E-03 0.  1.
    9900012    2    1    2    0    0  0.11892849360E+02 -0.27534930119E+02  0.27450969405E+02  0.50528831737E+02  0.29999914548E+02 0.  0.
        -12    1    1    2    0    0 -0.11892849360E+02  0.27534930119E+02 -0.27450969405E+02  0.40659168263E+02  0.00000000000E+00 0.  1.
         11    1    3    3    0    0  0.86255931869E+01 -0.10994789204E+02 -0.18537871111E+01  0.14096906554E+02  0.51100000000E-03 0. -1.
        -11    1    3    3    0    0 -0.41063481246E+01 -0.93029461269E+01  0.87032623305E+01  0.13384830108E+02  0.51100000000E-03 0.  1.
         12    1    3    3    0    0  0.73736042976E+01 -0.72371947879E+01  0.20601494186E+02  0.23047095075E+02  0.00000000000E+00 0. -1.
</event>
<event>
 7    1  0.3449452E-011  0.5052886E+02  0.7816164E-02  0.1300439E+00
        -11   -1    0    0    0    0  0.00000000000E+00  0.00000000000E+00  0.45593999997E+02  0.45594000000E+02  0.51100000000E-03 0.  1.
         11   -1    0    0    0    0 -0.00000000000E+00 -0.00000000000E+00 -0.45593999997E+02  0.45594000000E+02  0.51100000000E-03 0. -1.
    9900012    2    1    2    0    0  0.24499143030E+02 -0.27067327658E+02 -0.17897418910E+02  0.50528857862E+02  0.29999993957E+02 0.  0.
        -12    1    1    2    0    0 -0.24499143030E+02  0.27067327658E+02  0.17897418910E+02  0.40659142138E+02  0.00000000000E+00 0.  1.
         11    1    3    3    0    0  0.11378864435E+02 -0.21293994791E+02 -0.76620274320E+01  0.25330207946E+02  0.51100000000E-03 0. -1.
        -11    1    3    3    0    0 -0.34641595428E+01 -0.53855267354E+01 -0.34695354510E+01  0.72829922465E+01  0.51100000000E-03 0.  1.
         12    1    3    3    0    0  0.16584438138E+02 -0.38780613247E+00 -0.67658560272E+01  0.17915657669E+02  0.00000000000E+00 0. -1.
</event>
<event>
 7    1  0.3449452E-011  0.5052887E+02  0.7816164E-02  0.1300439E+00
        -11   -1    0    0    0    0  0.00000000000E+00  0.00000000000E+00  0.45593999997E+02  0.45594000000E+02  0.51100000000E-03 0.  1.
         11   -1    0    0    0    0 -0.00000000000E+00 -0.00000000000E+00 -0.45593999997E+02  0.45594000000E+02  0.51100000000E-03 0. -1.
    9900012    2    1    2    0    0 -0.11774691643E+01 -0.40534254555E+02  0.29585323509E+01  0.50528866467E+02  0.30000020113E+02 0.  0.
        -12    1    1    2    0    0  0.11774691643E+01  0.40534254555E+02 -0.29585323509E+01  0.40659133533E+02  0.00000000000E+00 0.  1.
         11    1    3    3    0    0  0.14745633608E+01 -0.21084107388E+02  0.70018478176E+01  0.22265214900E+02  0.51100000000E-03 0. -1.
        -11    1    3    3    0    0 -0.38524744333E+01 -0.97217717779E+01  0.76857917376E+01  0.12977896619E+02  0.51100000000E-03 0.  1.
         12    1    3    3    0    0  0.12004419082E+01 -0.97283753897E+01 -0.11729107204E+02  0.15285754947E+02  0.00000000000E+00 0. -1.
</event>
<event>
 7    1  0.3449452E-011  0.5052886E+02  0.7816164E-02  0.1300439E+00
        -11   -1    0    0    0    0  0.00000000000E+00  0.00000000000E+00  0.45593999997E+02  0.45594000000E+02  0.51100000000E-03 0.  1.
         11   -1    0    0    0    0 -0.00000000000E+00 -0.00000000000E+00 -0.45593999997E+02  0.45594000000E+02  0.51100000000E-03 0. -1.
    9900012    2    1    2    0    0  0.33660934966E+02 -0.21774622434E+02 -0.67803498309E+01  0.50528857501E+02  0.29999992859E+02 0.  0.
        -12    1    1    2    0    0 -0.33660934966E+02  0.21774622434E+02  0.67803498309E+01  0.40659142499E+02  0.00000000000E+00 0.  1.
         11    1    3    3    0    0  0.30598677206E+02 -0.20925223587E+02 -0.46290547893E+00  0.37072338888E+02  0.51100000000E-03 0. -1.
        -11    1    3    3    0    0  0.18864432685E+01 -0.64959353467E+00  0.32507997796E+01  0.38142285502E+01  0.51100000000E-03 0.  1.
         12    1    3    3    0    0  0.11758144917E+01 -0.19980531260E+00 -0.95682441315E+01  0.96422900621E+01  0.00000000000E+00 0. -1.
</event>
<event>
 7    1  0.3449452E-011  0.5052887E+02  0.7816164E-02  0.1300439E+00
        -11   -1    0    0    0    0  0.00000000000E+00  0.00000000000E+00  0.45593999997E+02  0.45594000000E+02  0.51100000000E-03 0.  1.
         11   -1    0    0    0    0 -0.00000000000E+00 -0.00000000000E+00 -0.45593999997E+02  0.45594000000E+02  0.51100000000E-03 0. -1.
    9900012    2    1    2    0    0 -0.12599808310E+02  0.37096206014E+02 -0.10875719596E+02  0.50528868838E+02  0.30000027320E+02 0.  0.
        -12    1    1    2    0    0  0.12599808310E+02 -0.37096206014E+02  0.10875719596E+02  0.40659131162E+02  0.00000000000E+00 0.  1.
         11    1    3    3    0    0 -0.10212304034E+02  0.77507687902E+01 -0.13990284439E+01  0.12896621704E+02  0.51100000000E-03 0. -1.
        -11    1    3    3    0    0 -0.53587971785E+01  0.19078372623E+02  0.42176484560E+01  0.20260542142E+02  0.51100000000E-03 0.  1.
         12    1    3    3    0    0  0.29712929022E+01  0.10267064601E+02 -0.13694339608E+02  0.17371704992E+02  0.00000000000E+00 0. -1.
</event>
<event>
 7    1  0.3449452E-011  0.5052886E+02  0.7816164E-02  0.1300439E+00
        -11   -1    0    0    0    0  0.00000000000E+00  0.00000000000E+00  0.45593999997E+02  0.45594000000E+02  0.51100000000E-03 0.  1.
         11   -1    0    0    0    0 -0.00000000000E+00 -0.00000000000E+00 -0.45593999997E+02  0.45594000000E+02  0.51100000000E-03 0. -1.
    9900012    2    1    2    0    0 -0.10306216485E+02 -0.30348303869E+02 -0.25018550666E+02  0.50528861748E+02  0.30000005768E+02 0.  0.
        -12    1    1    2    0    0  0.10306216485E+02  0.30348303869E+02  0.25018550666E+02  0.40659138252E+02  0.00000000000E+00 0.  1.
         11    1    3    3    0    0 -0.80548913095E+01  0.11473902864E+00 -0.88479418796E+01  0.11965806066E+02  0.51100000000E-03 0. -1.
        -11    1    3    3    0    0 -0.96079002951E+01 -0.16057592659E+02 -0.70705657718E+01  0.20003772911E+02  0.51100000000E-03 0.  1.
         12    1    3    3    0    0  0.73565751196E+01 -0.14405450238E+02 -0.91000430150E+01  0.18559282770E+02  0.00000000000E+00 0. -1.
</event>
<event>
 7    1  0.4105581E-011  0.5052888E+02  0.7816164E-02  0.1300439E+00
        -11   -1    0    0    0    0  0.00000000000E+00  0.00000000000E+00  0.45593999997E+02  0.45594000000E+02  0.51100000000E-03 0. -1.
         11   -1    0    0    0    0 -0.00000000000E+00 -0.00000000000E+00 -0.45593999997E+02  0.45594000000E+02  0.51100000000E-03 0.  1.
    9900012    2    1    2    0    0  0.20980907937E+02 -0.25366244742E+02  0.23864606032E+02  0.50528876901E+02  0.30000051827E+02 0.  0.
        -12    1    1    2    0    0 -0.20980907937E+02  0.25366244742E+02 -0.23864606032E+02  0.40659123099E+02  0.00000000000E+00 0.  1.
         11    1    3    3    0    0  0.14657856063E+02 -0.38520359921E+01  0.11326897230E+02  0.18920611163E+02  0.51100000000E-03 0. -1.
        -11    1    3    3    0    0  0.77621822719E+01 -0.67183183391E+01 -0.23907693246E+01  0.10540543304E+02  0.51100000000E-03 0.  1.
        -12    1    3    3    0    0 -0.14391303987E+01 -0.14795890411E+02  0.14928478127E+02  0.21067722433E+02  0.00000000000E+00 0.  1.
</event>
<event>
 7    1  0.3449452E-011  0.5052887E+02  0.7816164E-02  0.1300439E+00
        -11   -1    0    0    0    0  0.00000000000E+00  0.00000000000E+00  0.45593999997E+02  0.45594000000E+02  0.51100000000E-03 0. -1.
         11   -1    0    0    0    0 -0.00000000000E+00 -0.00000000000E+00 -0.45593999997E+02  0.45594000000E+02  0.51100000000E-03 0.  1.
    9900012    2    1    2    0    0 -0.33348711055E+02  0.72511395196E+01 -0.22100895545E+02  0.50528866497E+02  0.30000020203E+02 0.  0.
        -12    1    1    2    0    0  0.33348711055E+02 -0.72511395196E+01  0.22100895545E+02  0.40659133503E+02  0.00000000000E+00 0.  1.
         11    1    3    3    0    0  0.14166964378E+01  0.21058526817E+00  0.33677836986E+01  0.36596915517E+01  0.51100000000E-03 0. -1.
        -11    1    3    3    0    0 -0.82393097271E+01  0.70715761449E+01 -0.14618625774E+02  0.18209822452E+02  0.51100000000E-03 0.  1.
        -12    1    3    3    0    0 -0.26526097766E+02 -0.31021893448E-01 -0.10850053469E+02  0.28659352493E+02  0.00000000000E+00 0.  1.
</event>
<event>
 7    1  0.3449452E-011  0.5052887E+02  0.7816164E-02  0.1300439E+00
        -11   -1    0    0    0    0  0.00000000000E+00  0.00000000000E+00  0.45593999997E+02  0.45594000000E+02  0.51100000000E-03 0.  1.
         11   -1    0    0    0    0 -0.00000000000E+00 -0.00000000000E+00 -0.45593999997E+02  0.45594000000E+02  0.51100000000E-03 0. -1.
    9900012    2    1    2    0    0 -0.26054031477E+02 -0.92895019826E+01 -0.29800290342E+02  0.50528871778E+02  0.30000036257E+02 0.  0.
        -12    1    1    2    0    0  0.26054031477E+02  0.92895019826E+01  0.29800290342E+02  0.40659128222E+02  0.00000000000E+00 0.  1.
         11    1    3    3    0    0 -0.74450439889E+01 -0.10494626838E+02 -0.44701891983E+01  0.13621617533E+02  0.51100000000E-03 0. -1.
        -11    1    3    3    0    0  0.91091237313E-01 -0.57095917409E+01 -0.10867861445E+02  0.12276731980E+02  0.51100000000E-03 0.  1.
        -12    1    3    3    0    0 -0.18700078726E+02  0.69147165967E+01 -0.14462239698E+02  0.24630522265E+02  0.00000000000E+00 0.  1.
</event>
<event>
 7    1  0.3449452E-011  0.5052885E+02  0.7816164E-02  0.1300439E+00
        -11   -1    0    0    0    0  0.00000000000E+00  0.00000000000E+00  0.45593999997E+02  0.45594000000E+02  0.51100000000E-03 0.  1.
         11   -1    0    0    0    0 -0.00000000000E+00 -0.00000000000E+00 -0.45593999997E+02  0.45594000000E+02  0.51100000000E-03 0. -1.
    9900012    2    1    2    0    0  0.59988983764E+01 -0.38440859660E+02  0.11810161339E+02  0.50528851165E+02  0.29999973601E+02 0.  0.
        -12    1    1    2    0    0 -0.59988983764E+01  0.38440859660E+02 -0.11810161339E+02  0.40659148835E+02  0.00000000000E+00 0.  1.
         11    1    3    3    0    0 -0.50124242735E+01 -0.54543842633E+01  0.54836350440E+01  0.92165589211E+01  0.51100000000E-03 0. -1.
        -11    1    3    3    0    0  0.10638626130E+02 -0.67377696582E+01  0.81461994127E+01  0.14997948894E+02  0.51100000000E-03 0.  1.
         12    1    3    3    0    0  0.37269651985E+00 -0.26248705739E+02 -0.18196731181E+01  0.26314343350E+02  0.00000000000E+00 0. -1.
</event>
<event>
 7    1  0.3449452E-011  0.5052886E+02  0.7816164E-02  0.1300439E+00
        -11   -1    0    0    0    0  0.00000000000E+00  0.00000000000E+00  0.45593999997E+02  0.45594000000E+02  0.51100000000E-03 0.  1.
         11   -1    0    0    0    0 -0.00000000000E+00 -0.00000000000E+00 -0.45593999997E+02  0.45594000000E+02  0.51100000000E-03 0. -1.
    9900012    2    1    2    0    0  0.81147316905E+01  0.23847809946E+02 -0.31915487973E+02  0.50528864715E+02  0.30000014787E+02 0.  0.
        -12    1    1    2    0    0 -0.81147316905E+01 -0.23847809946E+02  0.31915487973E+02  0.40659135285E+02  0.00000000000E+00 0.  1.
         11    1    3    3    0    0  0.44332106190E+01  0.16631302608E+02 -0.19341913837E+02  0.25891373350E+02  0.51100000000E-03 0. -1.
        -11    1    3    3    0    0  0.81512832352E+01  0.14081466316E+01 -0.14819609839E+02  0.16971951313E+02  0.51100000000E-03 0.  1.
        -12    1    3    3    0    0 -0.44697621636E+01  0.58083607066E+01  0.22460357039E+01  0.76655400515E+01  0.00000000000E+00 0.  1.
</event>
<event>
 7    1  0.3449452E-011  0.5052886E+02  0.7816164E-02  0.1300439E+00
        -11   -1    0    0    0    0  0.00000000000E+00  0.00000000000E+00  0.45593999997E+02  0.45594000000E+02  0.51100000000E-03 0.  1.
         11   -1    0    0    0    0 -0.00000000000E+00 -0.00000000000E+00 -0.45593999997E+02  0.45594000000E+02  0.51100000000E-03 0. -1.
    9900012    2    1    2    0    0 -0.39241016747E+01  0.40379396067E+02  0.26965957796E+01  0.50528857984E+02  0.29999994327E+02 0.  0.
        -12    1    1    2    0    0  0.39241016747E+01 -0.40379396067E+02 -0.26965957796E+01  0.40659142016E+02  0.00000000000E+00 0.  1.
         11    1    3    3    0    0 -0.25865303740E+01  0.42174489538E+01 -0.31504769877E+01  0.58653661919E+01  0.51100000000E-03 0. -1.
        -11    1    3    3    0    0 -0.81342669957E+01  0.85368292823E+01  0.10557365463E+02  0.15827246113E+02  0.51100000000E-03 0.  1.
        -12    1    3    3    0    0  0.67966956951E+01  0.27625117831E+02 -0.47102926955E+01  0.28836245679E+02  0.00000000000E+00 0.  1.
</event>
<event>
 7    1  0.3449452E-011  0.5052886E+02  0.7816164E-02  0.1300439E+00
        -11   -1    0    0    0    0  0.00000000000E+00  0.00000000000E+00  0.45593999997E+02  0.45594000000E+02  0.51100000000E-03 0.  1.
         11   -1    0    0    0    0 -0.00000000000E+00 -0.00000000000E+00 -0.45593999997E+02  0.45594000000E+02  0.51100000000E-03 0. -1.
    9900012    2    1    2    0    0 -0.45847233460E+01 -0.12227835113E+02 -0.38504879588E+02  0.50528863367E+02  0.30000010689E+02 0.  0.
        -12    1    1    2    0    0  0.45847233460E+01  0.12227835113E+02  0.38504879588E+02  0.40659136633E+02  0.00000000000E+00 0.  1.
         11    1    3    3    0    0  0.13700623606E+01  0.41600546652E+00 -0.14356209299E+02  0.14427434877E+02  0.51100000000E-03 0. -1.
        -11    1    3    3    0    0  0.71030753552E+01 -0.16769186551E+01 -0.10246903848E+01  0.73699203743E+01  0.51100000000E-03 0.  1.
         12    1    3    3    0    0 -0.13057861062E+02 -0.10966921925E+02 -0.23123979904E+02  0.28731508116E+02  0.00000000000E+00 0. -1.
</event>
<event>
 7    1  0.3449452E-011  0.5052886E+02  0.7816164E-02  0.1300439E+00
        -11   -1    0    0    0    0  0.00000000000E+00  0.00000000000E+00  0.45593999997E+02  0.45594000000E+02  0.51100000000E-03 0.  1.
         11   -1    0    0    0    0 -0.00000000000E+00 -0.00000000000E+00 -0.45593999997E+02  0.45594000000E+02  0.51100000000E-03 0. -1.
    9900012    2    1    2    0    0 -0.21196638522E+01 -0.20176554282E+02 -0.35236050599E+02  0.50528861060E+02  0.30000003678E+02 0.  0.
        -12    1    1    2    0    0  0.21196638522E+01  0.20176554282E+02  0.35236050599E+02  0.40659138940E+02  0.00000000000E+00 0.  1.
         11    1    3    3    0    0 -0.59582375296E+01 -0.51598551101E+01 -0.20227300595E+02  0.21708716886E+02  0.51100000000E-03 0. -1.
        -11    1    3    3    0    0  0.52742217612E+00 -0.70620648306E+01 -0.18279992523E+02  0.19603802200E+02  0.51100000000E-03 0.  1.
        -12    1    3    3    0    0  0.33111515012E+01 -0.79546343413E+01  0.32712425185E+01  0.92163419741E+01  0.00000000000E+00 0.  1.
</event>
<event>
 7    1  0.3449452E-011  0.5052886E+02  0.7816164E-02  0.1300439E+00
        -11   -1    0    0    0    0  0.00000000000E+00  0.00000000000E+00  0.45593999997E+02  0.45594000000E+02  0.51100000000E-03 0. -1.
         11   -1    0    0    0    0 -0.00000000000E+00 -0.00000000000E+00 -0.45593999997E+02  0.45594000000E+02  0.51100000000E-03 0.  1.
    9900012    2    1    2    0    0  0.30844253368E+02  0.24371164442E+02  0.10384807909E+02  0.50528857641E+02  0.29999993285E+02 0.  0.
        -12    1    1    2    0    0 -0.30844253368E+02 -0.24371164442E+02 -0.10384807909E+02  0.40659142359E+02  0.00000000000E+00 0.  1.
         11    1    3    3    0    0 -0.13037029916E+01 -0.87289380409E+00 -0.46510440897E+01  0.49085432125E+01  0.51100000000E-03 0.  1.
        -11    1    3    3    0    0  0.91217085703E+01  0.15253929571E+02  0.40919119115E+01  0.18238192837E+02  0.51100000000E-03 0. -1.
        -12    1    3    3    0    0  0.23026247789E+02  0.99901286743E+01  0.10943940088E+02  0.27382121591E+02  0.00000000000E+00 0.  1.
</event>
<event>
 7    1  0.3449452E-011  0.5052887E+02  0.7816164E-02  0.1300439E+00
        -11   -1    0    0    0    0  0.00000000000E+00  0.00000000000E+00  0.45593999997E+02  0.45594000000E+02  0.51100000000E-03 0.  1.
         11   -1    0    0    0    0 -0.00000000000E+00 -0.00000000000E+00 -0.45593999997E+02  0.45594000000E+02  0.51100000000E-03 0. -1.
    9900012    2    1    2    0    0  0.98572497755E+01 -0.36954081542E+02 -0.13798373381E+02  0.50528872812E+02  0.30000039399E+02 0.  0.
        -12    1    1    2    0    0 -0.98572497755E+01  0.36954081542E+02  0.13798373381E+02  0.40659127188E+02  0.00000000000E+00 0.  1.
         11    1    3    3    0    0 -0.73106780580E+01 -0.92024861820E+01 -0.19962429130E+01  0.11921273071E+02  0.51100000000E-03 0. -1.
        -11    1    3    3    0    0 -0.30078728979E+01 -0.14157809145E+01  0.19253475312E+00  0.33299857147E+01  0.51100000000E-03 0.  1.
        -12    1    3    3    0    0  0.20175800731E+02 -0.26335814445E+02 -0.11994665221E+02  0.35277614027E+02  0.00000000000E+00 0.  1.
</event>
<event>
 7    1  0.3449452E-011  0.5052886E+02  0.7816164E-02  0.1300439E+00
        -11   -1    0    0    0    0  0.00000000000E+00  0.00000000000E+00  0.45593999997E+02  0.45594000000E+02  0.51100000000E-03 0.  1.
         11   -1    0    0    0    0 -0.00000000000E+00 -0.00000000000E+00 -0.45593999997E+02  0.45594000000E+02  0.51100000000E-03 0. -1.
    9900012    2    1    2    0    0  0.26477107036E+02  0.26173267127E+02 -0.16342855238E+02  0.50528855562E+02  0.29999986967E+02 0.  0.
        -12    1    1    2    0    0 -0.26477107036E+02 -0.26173267127E+02  0.16342855238E+02  0.40659144438E+02  0.00000000000E+00 0.  1.
         11    1    3    3    0    0  0.34475521383E+01 -0.19275425098E+01  0.23703243882E+01  0.46064600117E+01  0.51100000000E-03 0. -1.
        -11    1    3    3    0    0  0.25584160985E+01  0.11122628744E+02 -0.15330746364E+02  0.19112565172E+02  0.51100000000E-03 0.  1.
        -12    1    3    3    0    0  0.20471138799E+02  0.16978180892E+02 -0.33824332618E+01  0.26809830378E+02  0.00000000000E+00 0.  1.
</event>
<event>
 7    1  0.3449452E-011  0.5052886E+02  0.7816164E-02  0.1300439E+00
        -11   -1    0    0    0    0  0.00000000000E+00  0.00000000000E+00  0.45593999997E+02  0.45594000000E+02  0.51100000000E-03 0.  1.
         11   -1    0    0    0    0 -0.00000000000E+00 -0.00000000000E+00 -0.45593999997E+02  0.45594000000E+02  0.51100000000E-03 0. -1.
    9900012    2    1    2    0    0 -0.32889757742E+02  0.16360932336E+02 -0.17428397037E+02  0.50528864562E+02  0.30000014323E+02 0.  0.
        -12    1    1    2    0    0  0.32889757742E+02 -0.16360932336E+02  0.17428397037E+02  0.40659135438E+02  0.00000000000E+00 0.  1.
         11    1    3    3    0    0 -0.14301364242E+02  0.14366038952E+02 -0.11389199351E+01  0.20302936566E+02  0.51100000000E-03 0. -1.
        -11    1    3    3    0    0  0.11858278496E+01  0.18426346133E+01  0.22348897419E+01  0.31298917596E+01  0.51100000000E-03 0.  1.
         12    1    3    3    0    0 -0.19774221350E+02  0.15225877122E+00 -0.18524366844E+02  0.27096036236E+02  0.00000000000E+00 0. -1.
</event>
<event>
 7    1  0.3449452E-011  0.5052888E+02  0.7816164E-02  0.1300439E+00
        -11   -1    0    0    0    0  0.00000000000E+00  0.00000000000E+00  0.45593999997E+02  0.45594000000E+02  0.51100000000E-03 0. -1.
         11   -1    0    0    0    0 -0.00000000000E+00 -0.00000000000E+00 -0.45593999997E+02  0.45594000000E+02  0.51100000000E-03 0.  1.
    9900012    2    1    2    0    0  0.26404750233E+02 -0.71058949348E+01  0.30090850110E+02  0.50528882474E+02  0.30000068766E+02 0.  0.
        -12    1    1    2    0    0 -0.26404750233E+02  0.71058949348E+01 -0.30090850110E+02  0.40659117526E+02  0.00000000000E+00 0.  1.
         11    1    3    3    0    0  0.14286274372E+02 -0.13043651851E+02  0.11395079231E+02  0.22451777658E+02  0.51100000000E-03 0. -1.
        -11    1    3    3    0    0 -0.20472566846E+01 -0.61086438982E+00 -0.14586095598E+01  0.25868817802E+01  0.51100000000E-03 0.  1.
         12    1    3    3    0    0  0.14165732546E+02  0.65486213058E+01  0.20154380438E+02  0.25490223036E+02  0.00000000000E+00 0. -1.
</event>
<event>
 7    1  0.3449452E-011  0.5052886E+02  0.7816164E-02  0.1300439E+00
        -11   -1    0    0    0    0  0.00000000000E+00  0.00000000000E+00  0.45593999997E+02  0.45594000000E+02  0.51100000000E-03 0.  1.
         11   -1    0    0    0    0 -0.00000000000E+00 -0.00000000000E+00 -0.45593999997E+02  0.45594000000E+02  0.51100000000E-03 0. -1.
    9900012    2    1    2    0    0 -0.25338748254E+02  0.29186275401E+02 -0.12620413380E+02  0.50528859961E+02  0.30000000337E+02 0.  0.
        -12    1    1    2    0    0  0.25338748254E+02 -0.29186275401E+02  0.12620413380E+02  0.40659140039E+02  0.00000000000E+00 0.  1.
         11    1    3    3    0    0 -0.37737312701E+01  0.12418586773E+01 -0.49315094369E+01  0.63326966026E+01  0.51100000000E-03 0. -1.
        -11    1    3    3    0    0  0.47601745837E+01  0.64627726396E+00 -0.36994512922E+01  0.60632397687E+01  0.51100000000E-03 0.  1.
         12    1    3    3    0    0 -0.26325191568E+02  0.27298139459E+02 -0.39894526510E+01  0.38132923589E+02  0.00000000000E+00 0. -1.
</event>
<event>
 7    1  0.3449452E-011  0.5052886E+02  0.7816164E-02  0.1300439E+00
        -11   -1    0    0    0    0  0.00000000000E+00  0.00000000000E+00  0.45593999997E+02  0.45594000000E+02  0.51100000000E-03 0.  1.
         11   -1    0    0    0    0 -0.00000000000E+00 -0.00000000000E+00 -0.45593999997E+02  0.45594000000E+02  0.51100000000E-03 0. -1.
    9900012    2    1    2    0    0 -0.32157802812E+02 -0.20292020841E+02  0.14397053771E+02  0.50528861436E+02  0.30000004821E+02 0.  0.
        -12    1    1    2    0    0  0.32157802812E+02  0.20292020841E+02 -0.14397053771E+02  0.40659138564E+02  0.00000000000E+00 0.  1.
         11    1    3    3    0    0 -0.18857491898E+02 -0.51035881971E+01  0.60386159257E+01  0.20447897098E+02  0.51100000000E-03 0. -1.
        -11    1    3    3    0    0 -0.15839345561E+02 -0.30146924810E+01  0.24347847239E+01  0.16306483847E+02  0.51100000000E-03 0.  1.
        -12    1    3    3    0    0  0.25390346473E+01 -0.12173740163E+02  0.59236531213E+01  0.13774480491E+02  0.00000000000E+00 0.  1.
</event>
<event>
 7    1  0.3449452E-011  0.5052891E+02  0.7816164E-02  0.1300439E+00
        -11   -1    0    0    0    0  0.00000000000E+00  0.00000000000E+00  0.45593999997E+02  0.45594000000E+02  0.51100000000E-03 0. -1.
         11   -1    0    0    0    0 -0.00000000000E+00 -0.00000000000E+00 -0.45593999997E+02  0.45594000000E+02  0.51100000000E-03 0.  1.
    9900012    2    1    2    0    0  0.38368073478E+02 -0.10340454672E+02 -0.86097510189E+01  0.50528906579E+02  0.30000142036E+02 0.  0.
        -12    1    1    2    0    0 -0.38368073478E+02  0.10340454672E+02  0.86097510189E+01  0.40659093421E+02  0.00000000000E+00 0.  1.
         11    1    3    3    0    0  0.16367800172E+02  0.35784826051E+01 -0.40462327810E+01  0.17236079027E+02  0.51100000000E-03 0. -1.
        -11    1    3    3    0    0  0.41117534252E+01 -0.36232611998E+01 -0.10475999740E+02  0.11822906105E+02  0.51100000000E-03 0.  1.
         12    1    3    3    0    0  0.17888519880E+02 -0.10295676078E+02  0.59124815026E+01  0.21469921447E+02  0.00000000000E+00 0. -1.
</event>
<event>
 7    1  0.3449452E-011  0.5052877E+02  0.7816164E-02  0.1300439E+00
        -11   -1    0    0    0    0  0.00000000000E+00  0.00000000000E+00  0.45593999997E+02  0.45594000000E+02  0.51100000000E-03 0. -1.
         11   -1    0    0    0    0 -0.00000000000E+00 -0.00000000000E+00 -0.45593999997E+02  0.45594000000E+02  0.51100000000E-03 0.  1.
    9900012    2    1    2    0    0 -0.20606156869E+01 -0.22666919359E+02  0.33691808399E+02  0.50528765828E+02  0.29999714210E+02 0.  0.
        -12    1    1    2    0    0  0.20606156869E+01  0.22666919359E+02 -0.33691808399E+02  0.40659234172E+02  0.00000000000E+00 0.  1.
         11    1    3    3    0    0 -0.56650643551E+01 -0.89944667051E+01  0.24004945338E+02  0.26253205259E+02  0.51100000000E-03 0. -1.
        -11    1    3    3    0    0 -0.24172244731E+01  0.21044934284E+01 -0.19644264952E+01  0.37591007515E+01  0.51100000000E-03 0.  1.
         12    1    3    3    0    0  0.60216731412E+01 -0.15776946082E+02  0.11651289557E+02  0.20516459818E+02  0.00000000000E+00 0. -1.
</event>
<event>
 7    1  0.3449452E-011  0.5052886E+02  0.7816164E-02  0.1300439E+00
        -11   -1    0    0    0    0  0.00000000000E+00  0.00000000000E+00  0.45593999997E+02  0.45594000000E+02  0.51100000000E-03 0.  1.
         11   -1    0    0    0    0 -0.00000000000E+00 -0.00000000000E+00 -0.45593999997E+02  0.45594000000E+02  0.51100000000E-03 0. -1.
    9900012    2    1    2    0    0  0.20944170028E+02 -0.23788582185E+02 -0.25467835012E+02  0.50528861781E+02  0.30000005869E+02 0.  0.
        -12    1    1    2    0    0 -0.20944170028E+02  0.23788582185E+02  0.25467835012E+02  0.40659138219E+02  0.00000000000E+00 0.  1.
         11    1    3    3    0    0  0.59841055790E+01 -0.83455767170E+00  0.16150139110E+01  0.62541407310E+01  0.51100000000E-03 0. -1.
        -11    1    3    3    0    0  0.16106198535E+02 -0.14483650298E+02 -0.28303003885E+02  0.35640507662E+02  0.51100000000E-03 0.  1.
         12    1    3    3    0    0 -0.11461340859E+01 -0.84703742158E+01  0.12201549629E+01  0.86342133881E+01  0.00000000000E+00 0. -1.
</event>
<event>
 7    1  0.3449452E-011  0.5052886E+02  0.7816164E-02  0.1300439E+00
        -11   -1    0    0    0    0  0.00000000000E+00  0.00000000000E+00  0.45593999997E+02  0.45594000000E+02  0.51100000000E-03 0.  1.
         11   -1    0    0    0    0 -0.00000000000E+00 -0.00000000000E+00 -0.45593999997E+02  0.45594000000E+02  0.51100000000E-03 0. -1.
    9900012    2    1    2    0    0  0.25791802427E+02 -0.70498531331E+01 -0.30630836284E+02  0.50528860399E+02  0.30000001670E+02 0.  0.
        -12    1    1    2    0    0 -0.25791802427E+02  0.70498531331E+01  0.30630836284E+02  0.40659139601E+02  0.00000000000E+00 0.  1.
         11    1    3    3    0    0  0.10345481878E+02 -0.88729783230E+01 -0.19060066956E+02  0.23431706985E+02  0.51100000000E-03 0. -1.
        -11    1    3    3    0    0  0.47975739775E+01 -0.39716796879E+01  0.39707945360E+01  0.73863499186E+01  0.51100000000E-03 0.  1.
        -12    1    3    3    0    0  0.10648746572E+02  0.57948048779E+01 -0.15541563863E+02  0.19710803496E+02  0.00000000000E+00 0.  1.
</event>
<event>
 7    1  0.3449452E-011  0.5052886E+02  0.7816164E-02  0.1300439E+00
        -11   -1    0    0    0    0  0.00000000000E+00  0.00000000000E+00  0.45593999997E+02  0.45594000000E+02  0.51100000000E-03 0.  1.
         11   -1    0    0    0    0 -0.00000000000E+00 -0.00000000000E+00 -0.45593999997E+02  0.45594000000E+02  0.51100000000E-03 0. -1.
    9900012    2    1    2    0    0  0.18717443204E+02  0.73180596450E+01 -0.35344998614E+02  0.50528860756E+02  0.30000002753E+02 0.  0.
        -12    1    1    2    0    0 -0.18717443204E+02 -0.73180596450E+01  0.35344998614E+02  0.40659139244E+02  0.00000000000E+00 0.  1.
         11    1    3    3    0    0 -0.36413212061E+01 -0.57154258024E+01 -0.92186227408E+01  0.11441517283E+02  0.51100000000E-03 0. -1.
        -11    1    3    3    0    0 -0.14340075614E+01  0.95960397429E+00 -0.42415551676E+01  0.45790837484E+01  0.51100000000E-03 0.  1.
         12    1    3    3    0    0  0.23792771972E+02  0.12073881473E+02 -0.21884820705E+02  0.34508259725E+02  0.00000000000E+00 0. -1.
</event>
<event>
 7    1  0.3449452E-011  0.5052885E+02  0.7816164E-02  0.1300439E+00
        -11   -1    0    0    0    0  0.00000000000E+00  0.00000000000E+00  0.45593999997E+02  0.45594000000E+02  0.51100000000E-03 0.  1.
         11   -1    0    0    0    0 -0.00000000000E+00 -0.00000000000E+00 -0.45593999997E+02  0.45594000000E+02  0.51100000000E-03 0. -1.
    9900012    2    1    2    0    0  0.91329053592E+01  0.12842459944E+02 -0.37481026995E+02  0.50528854383E+02  0.29999983383E+02 0.  0.
        -12    1    1    2    0    0 -0.91329053592E+01 -0.12842459944E+02  0.37481026995E+02  0.40659145617E+02  0.00000000000E+00 0.  1.
         11    1    3    3    0    0  0.10517957053E+02  0.10802202312E+02 -0.78073864172E+01  0.16978524031E+02  0.51100000000E-03 0. -1.
        -11    1    3    3    0    0  0.59856575011E+01 -0.25354968645E+01 -0.16919113606E+02  0.18124934359E+02  0.51100000000E-03 0.  1.
        -12    1    3    3    0    0 -0.73707091948E+01  0.45757544967E+01 -0.12754526972E+02  0.15425395992E+02  0.00000000000E+00 0.  1.
</event>
<event>
 7    1  0.3449452E-011  0.5052883E+02  0.7816164E-02  0.1300439E+00
        -11   -1    0    0    0    0  0.00000000000E+00  0.00000000000E+00  0.45593999997E+02  0.45594000000E+02  0.51100000000E-03 0. -1.
         11   -1    0    0    0    0 -0.00000000000E+00 -0.00000000000E+00 -0.45593999997E+02  0.45594000000E+02  0.51100000000E-03 0.  1.
    9900012    2    1    2    0    0 -0.81202457883E+01 -0.37326079327E+02  0.13928160253E+02  0.50528828371E+02  0.29999904315E+02 0.  0.
        -12    1    1    2    0    0  0.81202457883E+01  0.37326079327E+02 -0.13928160253E+02  0.40659171629E+02  0.00000000000E+00 0.  1.
         11    1    3    3    0    0 -0.26378168654E+01 -0.84339290426E+01  0.80765757435E+01  0.11971646207E+02  0.51100000000E-03 0. -1.
        -11    1    3    3    0    0  0.35896507636E+01 -0.15217845737E+02  0.13308328441E+02  0.20532414072E+02  0.51100000000E-03 0.  1.
        -12    1    3    3    0    0 -0.90720796865E+01 -0.13674304547E+02 -0.74567439314E+01  0.18024768091E+02  0.00000000000E+00 0.  1.
</event>
<event>
 7    1  0.3449452E-011  0.5052886E+02  0.7816164E-02  0.1300439E+00
        -11   -1    0    0    0    0  0.00000000000E+00  0.00000000000E+00  0.45593999997E+02  0.45594000000E+02  0.51100000000E-03 0.  1.
         11   -1    0    0    0    0 -0.00000000000E+00 -0.00000000000E+00 -0.45593999997E+02  0.45594000000E+02  0.51100000000E-03 0. -1.
    9900012    2    1    2    0    0  0.33709163717E+00 -0.37472728043E+02 -0.15774881172E+02  0.50528857686E+02  0.29999993423E+02 0.  0.
        -12    1    1    2    0    0 -0.33709163717E+00  0.37472728043E+02  0.15774881172E+02  0.40659142314E+02  0.00000000000E+00 0.  1.
         11    1    3    3    0    0  0.77139202946E+01 -0.12779611424E+02  0.15431396205E+01  0.15006808941E+02  0.51100000000E-03 0. -1.
        -11    1    3    3    0    0 -0.50956849588E+01 -0.12082236062E+02  0.10169654052E+01  0.13152210930E+02  0.51100000000E-03 0.  1.
         12    1    3    3    0    0 -0.22811436987E+01 -0.12610880557E+02 -0.18334986197E+02  0.22369837815E+02  0.00000000000E+00 0. -1.
</event>
<event>
 7    1  0.3449452E-011  0.5052891E+02  0.7816164E-02  0.1300439E+00
        -11   -1    0    0    0    0  0.00000000000E+00  0.00000000000E+00  0.45593999997E+02  0.45594000000E+02  0.51100000000E-03 0.  1.
         11   -1    0    0    0    0 -0.00000000000E+00 -0.00000000000E+00 -0.45593999997E+02  0.45594000000E+02  0.51100000000E-03 0. -1.
    9900012    2    1    2    0    0 -0.31658627357E+02  0.18999436999E+02 -0.17026865102E+02  0.50528912115E+02  0.30000158866E+02 0.  0.
        -12    1    1    2    0    0  0.31658627357E+02 -0.18999436999E+02  0.17026865102E+02  0.40659087885E+02  0.00000000000E+00 0.  1.
         11    1    3    3    0    0 -0.29950839571E+01  0.93560602323E+01 -0.14195816359E+02  0.17263475703E+02  0.51100000000E-03 0.  1.
        -11    1    3    3    0    0 -0.89254246632E+01  0.93425430202E+01 -0.38987596639E+01  0.13496171408E+02  0.51100000000E-03 0. -1.
         12    1    3    3    0    0 -0.19738118736E+02  0.30083374694E+00  0.10677109212E+01  0.19769265004E+02  0.00000000000E+00 0. -1.
</event>
<event>
 7    1  0.3449452E-011  0.5052886E+02  0.7816164E-02  0.1300439E+00
        -11   -1    0    0    0    0  0.00000000000E+00  0.00000000000E+00  0.45593999997E+02  0.45594000000E+02  0.51100000000E-03 0. -1.
         11   -1    0    0    0    0 -0.00000000000E+00 -0.00000000000E+00 -0.45593999997E+02  0.45594000000E+02  0.51100000000E-03 0.  1.
    9900012    2    1    2    0    0  0.40351681932E+02 -0.49814587760E+01 -0.30391364444E+00  0.50528861670E+02  0.30000005531E+02 0.  0.
        -12    1    1    2    0    0 -0.40351681932E+02  0.49814587760E+01  0.30391364444E+00  0.40659138330E+02  0.00000000000E+00 0.  1.
         11    1    3    3    0    0  0.91891843658E+00  0.30088661490E+01 -0.50036232913E+01  0.59104934564E+01  0.51100000000E-03 0.  1.
        -11    1    3    3    0    0  0.28673963903E+02 -0.12293039433E+02 -0.19494780843E+01  0.31258846579E+02  0.51100000000E-03 0. -1.
         12    1    3    3    0    0  0.10758799593E+02  0.43027145076E+01  0.66491877312E+01  0.13359521634E+02  0.00000000000E+00 0. -1.
</event>
<event>
 7    1  0.3449452E-011  0.5052888E+02  0.7816164E-02  0.1300439E+00
        -11   -1    0    0    0    0  0.00000000000E+00  0.00000000000E+00  0.45593999997E+02  0.45594000000E+02  0.51100000000E-03 0.  1.
         11   -1    0    0    0    0 -0.00000000000E+00 -0.00000000000E+00 -0.45593999997E+02  0.45594000000E+02  0.51100000000E-03 0. -1.
    9900012    2    1    2    0    0 -0.21825337426E+02 -0.29261394465E+02 -0.17905006589E+02  0.50528882686E+02  0.30000069412E+02 0.  0.
        -12    1    1    2    0    0  0.21825337426E+02  0.29261394465E+02  0.17905006589E+02  0.40659117314E+02  0.00000000000E+00 0.  1.
         11    1    3    3    0    0 -0.10879206726E+02  0.13812552247E+01 -0.49548319649E+01  0.12033925588E+02  0.51100000000E-03 0. -1.
        -11    1    3    3    0    0 -0.11496467952E+02 -0.12349279881E+02 -0.15734540454E+01  0.16945478655E+02  0.51100000000E-03 0.  1.
         12    1    3    3    0    0  0.55033725229E+00 -0.18293369808E+02 -0.11376720579E+02  0.21549478443E+02  0.00000000000E+00 0. -1.
</event>
<event>
 7    1  0.3449452E-011  0.5052887E+02  0.7816164E-02  0.1300439E+00
        -11   -1    0    0    0    0  0.00000000000E+00  0.00000000000E+00  0.45593999997E+02  0.45594000000E+02  0.51100000000E-03 0.  1.
         11   -1    0    0    0    0 -0.00000000000E+00 -0.00000000000E+00 -0.45593999997E+02  0.45594000000E+02  0.51100000000E-03 0. -1.
    9900012    2    1    2    0    0 -0.15018769453E+02 -0.32381430843E+02 -0.19469069306E+02  0.50528866230E+02  0.30000019392E+02 0.  0.
        -12    1    1    2    0    0  0.15018769453E+02  0.32381430843E+02  0.19469069306E+02  0.40659133770E+02  0.00000000000E+00 0.  1.
         11    1    3    3    0    0 -0.10492498944E+01  0.94220639948E+00 -0.85565665162E+00  0.16494928938E+01  0.51100000000E-03 0. -1.
        -11    1    3    3    0    0 -0.12674104640E+01  0.29962869556E+01  0.32716378896E+01  0.46138573391E+01  0.51100000000E-03 0.  1.
         12    1    3    3    0    0 -0.12702109095E+02 -0.36319924198E+02 -0.21885050544E+02  0.44265515997E+02  0.00000000000E+00 0. -1.
</event>
<event>
 7    1  0.3449452E-011  0.5052886E+02  0.7816164E-02  0.1300439E+00
        -11   -1    0    0    0    0  0.00000000000E+00  0.00000000000E+00  0.45593999997E+02  0.45594000000E+02  0.51100000000E-03 0. -1.
         11   -1    0    0    0    0 -0.00000000000E+00 -0.00000000000E+00 -0.45593999997E+02  0.45594000000E+02  0.51100000000E-03 0.  1.
    9900012    2    1    2    0    0 -0.31615005620E+02 -0.23242183518E+02  0.10651655741E+02  0.50528862711E+02  0.30000008697E+02 0.  0.
        -12    1    1    2    0    0  0.31615005620E+02  0.23242183518E+02 -0.10651655741E+02  0.40659137289E+02  0.00000000000E+00 0.  1.
         11    1    3    3    0    0 -0.24709886939E+01  0.13317934944E+01  0.50985645395E+01  0.58202078710E+01  0.51100000000E-03 0. -1.
        -11    1    3    3    0    0 -0.19779903244E+02 -0.44684645445E+01 -0.38115593032E+01  0.20633461472E+02  0.51100000000E-03 0.  1.
        -12    1    3    3    0    0 -0.93641136822E+01 -0.20105512468E+02  0.93646505048E+01  0.24075193368E+02  0.00000000000E+00 0.  1.
</event>
<event>
 7    1  0.3449452E-011  0.5052886E+02  0.7816164E-02  0.1300439E+00
        -11   -1    0    0    0    0  0.00000000000E+00  0.00000000000E+00  0.45593999997E+02  0.45594000000E+02  0.51100000000E-03 0. -1.
         11   -1    0    0    0    0 -0.00000000000E+00 -0.00000000000E+00 -0.45593999997E+02  0.45594000000E+02  0.51100000000E-03 0.  1.
    9900012    2    1    2    0    0 -0.39535550640E+02  0.94824035416E+01  0.43592997137E+00  0.50528858638E+02  0.29999996316E+02 0.  0.
        -12    1    1    2    0    0  0.39535550640E+02 -0.94824035416E+01 -0.43592997137E+00  0.40659141362E+02  0.00000000000E+00 0.  1.
         11    1    3    3    0    0 -0.34788863977E+01  0.62754214851E+01  0.57682526193E+01  0.92063186956E+01  0.51100000000E-03 0. -1.
        -11    1    3    3    0    0 -0.12740988465E+02 -0.74797377456E+01  0.12982210407E+01  0.14831205006E+02  0.51100000000E-03 0.  1.
        -12    1    3    3    0    0 -0.23315675778E+02  0.10686719802E+02 -0.66305436886E+01  0.26491334937E+02  0.00000000000E+00 0.  1.
</event>
<event>
 7    1  0.3449452E-011  0.5052886E+02  0.7816164E-02  0.1300439E+00
        -11   -1    0    0    0    0  0.00000000000E+00  0.00000000000E+00  0.45593999997E+02  0.45594000000E+02  0.51100000000E-03 0. -1.
         11   -1    0    0    0    0 -0.00000000000E+00 -0.00000000000E+00 -0.45593999997E+02  0.45594000000E+02  0.51100000000E-03 0.  1.
    9900012    2    1    2    0    0  0.58735208926E+01  0.39147588645E+02  0.92808473016E+01  0.50528855013E+02  0.29999985299E+02 0.  0.
        -12    1    1    2    0    0 -0.58735208926E+01 -0.39147588645E+02 -0.92808473016E+01  0.40659144987E+02  0.00000000000E+00 0.  1.
         11    1    3    3    0    0 -0.30501756604E+01 -0.18145698505E+01  0.52662995946E+01  0.63506020961E+01  0.51100000000E-03 0. -1.
        -11    1    3    3    0    0 -0.34821816531E+01  0.10201332346E+02  0.99609666815E-01  0.10779735295E+02  0.51100000000E-03 0.  1.
        -12    1    3    3    0    0  0.12405878206E+02  0.30760826150E+02  0.39149380402E+01  0.33398517622E+02  0.00000000000E+00 0.  1.
</event>
<event>
 7    1  0.3449452E-011  0.5052886E+02  0.7816164E-02  0.1300439E+00
        -11   -1    0    0    0    0  0.00000000000E+00  0.00000000000E+00  0.45593999997E+02  0.45594000000E+02  0.51100000000E-03 0.  1.
         11   -1    0    0    0    0 -0.00000000000E+00 -0.00000000000E+00 -0.45593999997E+02  0.45594000000E+02  0.51100000000E-03 0. -1.
    9900012    2    1    2    0    0  0.12575592243E+02 -0.61196869236E+01 -0.38178133318E+02  0.50528856478E+02  0.29999989751E+02 0.  0.
        -12    1    1    2    0    0 -0.12575592243E+02  0.61196869236E+01  0.38178133318E+02  0.40659143522E+02  0.00000000000E+00 0.  1.
         11    1    3    3    0    0 -0.92651969981E+00 -0.79979234321E+01 -0.40808265685E+01  0.90265366406E+01  0.51100000000E-03 0. -1.
        -11    1    3    3    0    0  0.68346802456E+00 -0.14403358827E+01 -0.25857599629E+02  0.25906700964E+02  0.51100000000E-03 0.  1.
         12    1    3    3    0    0  0.12818643919E+02  0.33185723912E+01 -0.82397071199E+01  0.15595618874E+02  0.00000000000E+00 0. -1.
</event>
<event>
 7    1  0.3449452E-011  0.5052886E+02  0.7816164E-02  0.1300439E+00
        -11   -1    0    0    0    0  0.00000000000E+00  0.00000000000E+00  0.45593999997E+02  0.45594000000E+02  0.51100000000E-03 0. -1.
         11   -1    0    0    0    0 -0.00000000000E+00 -0.00000000000E+00 -0.45593999997E+02  0.45594000000E+02  0.51100000000E-03 0.  1.
    9900012    2    1    2    0    0 -0.26891341772E+02 -0.10189670886E+02  0.28743551694E+02  0.50528863031E+02  0.30000009670E+02 0.  0.
        -12    1    1    2    0    0  0.26891341772E+02  0.10189670886E+02 -0.28743551694E+02  0.40659136969E+02  0.00000000000E+00 0.  1.
         11    1    3    3    0    0 -0.13625861588E+02 -0.84552387730E+01  0.19558502939E+02  0.25292097664E+02  0.51100000000E-03 0. -1.
        -11    1    3    3    0    0  0.24551309898E+01 -0.56275068171E+01  0.62802839622E+01  0.87828507935E+01  0.51100000000E-03 0.  1.
        -12    1    3    3    0    0 -0.15720611173E+02  0.38930747042E+01  0.29047647927E+01  0.16453914574E+02  0.00000000000E+00 0.  1.
</event>
<event>
 7    1  0.3449452E-011  0.5052885E+02  0.7816164E-02  0.1300439E+00
        -11   -1    0    0    0    0  0.00000000000E+00  0.00000000000E+00  0.45593999997E+02  0.45594000000E+02  0.51100000000E-03 0.  1.
         11   -1    0    0    0    0 -0.00000000000E+00 -0.00000000000E+00 -0.45593999997E+02  0.45594000000E+02  0.51100000000E-03 0. -1.
    9900012    2    1    2    0    0 -0.14874875431E+02 -0.11070789900E+02 -0.36184828299E+02  0.50528854569E+02  0.29999983949E+02 0.  0.
        -12    1    1    2    0    0  0.14874875431E+02  0.11070789900E+02  0.36184828299E+02  0.40659145431E+02  0.00000000000E+00 0.  1.
         11    1    3    3    0    0 -0.12985437868E+02 -0.19231165132E+02 -0.18174982613E+02  0.29475232012E+02  0.51100000000E-03 0. -1.
        -11    1    3    3    0    0  0.15094551482E+01 -0.41229347784E+00 -0.38469764458E+01  0.41530312775E+01  0.51100000000E-03 0.  1.
        -12    1    3    3    0    0 -0.33988927114E+01  0.85726687094E+01 -0.14162869241E+02  0.16900591280E+02  0.00000000000E+00 0.  1.
</event>
<event>
 7    1  0.3449452E-011  0.5052887E+02  0.7816164E-02  0.1300439E+00
        -11   -1    0    0    0    0  0.00000000000E+00  0.00000000000E+00  0.45593999997E+02  0.45594000000E+02  0.51100000000E-03 0. -1.
         11   -1    0    0    0    0 -0.00000000000E+00 -0.00000000000E+00 -0.45593999997E+02  0.45594000000E+02  0.51100000000E-03 0.  1.
    9900012    2    1    2    0    0  0.25953603546E+02 -0.30723333124E+02  0.59709602241E+01  0.50528866939E+02  0.30000021547E+02 0.  0.
        -12    1    1    2    0    0 -0.25953603546E+02  0.30723333124E+02 -0.59709602241E+01  0.40659133061E+02  0.00000000000E+00 0.  1.
         11    1    3    3    0    0  0.17857210486E+01 -0.84433485651E+01  0.79166495245E+01  0.11711202953E+02  0.51100000000E-03 0. -1.
        -11    1    3    3    0    0  0.20068606102E+02 -0.10327575386E+02  0.66570635178E+01  0.23531346311E+02  0.51100000000E-03 0.  1.
        -12    1    3    3    0    0  0.40992763953E+01 -0.11952409173E+02 -0.86027528182E+01  0.15286317675E+02  0.00000000000E+00 0.  1.
</event>
<event>
 7    1  0.3449452E-011  0.5052886E+02  0.7816164E-02  0.1300439E+00
        -11   -1    0    0    0    0  0.00000000000E+00  0.00000000000E+00  0.45593999997E+02  0.45594000000E+02  0.51100000000E-03 0.  1.
         11   -1    0    0    0    0 -0.00000000000E+00 -0.00000000000E+00 -0.45593999997E+02  0.45594000000E+02  0.51100000000E-03 0. -1.
    9900012    2    1    2    0    0 -0.23556244960E+02  0.16905970518E+02 -0.28503638682E+02  0.50528856700E+02  0.29999990427E+02 0.  0.
        -12    1    1    2    0    0  0.23556244960E+02 -0.16905970518E+02  0.28503638682E+02  0.40659143300E+02  0.00000000000E+00 0.  1.
         11    1    3    3    0    0 -0.12082496164E+02  0.83275238532E+01 -0.18827118274E+02  0.23870373894E+02  0.51100000000E-03 0. -1.
        -11    1    3    3    0    0 -0.13297722358E+02 -0.23451049048E+01 -0.72298827180E+01  0.15316662211E+02  0.51100000000E-03 0.  1.
        -12    1    3    3    0    0  0.18239735614E+01  0.10923551569E+02 -0.24466376901E+01  0.11341820596E+02  0.00000000000E+00 0.  1.
</event>
<event>
 7    1  0.3449452E-011  0.5052883E+02  0.7816164E-02  0.1300439E+00
        -11   -1    0    0    0    0  0.00000000000E+00  0.00000000000E+00  0.45593999997E+02  0.45594000000E+02  0.51100000000E-03 0. -1.
         11   -1    0    0    0    0 -0.00000000000E+00 -0.00000000000E+00 -0.45593999997E+02  0.45594000000E+02  0.51100000000E-03 0.  1.
    9900012    2    1    2    0    0 -0.21349059884E+02 -0.19472786765E+02  0.28604134744E+02  0.50528827519E+02  0.29999901728E+02 0.  0.
        -12    1    1    2    0    0  0.21349059884E+02  0.19472786765E+02 -0.28604134744E+02  0.40659172481E+02  0.00000000000E+00 0.  1.
         11    1    3    3    0    0 -0.59553793777E+01  0.60036129915E+01  0.26978869527E+01  0.88762890193E+01  0.51100000000E-03 0. -1.
        -11    1    3    3    0    0 -0.59390111861E+00 -0.13672112251E+02  0.10805501279E+02  0.17436692063E+02  0.51100000000E-03 0.  1.
        -12    1    3    3    0    0 -0.14799779388E+02 -0.11804287506E+02  0.15100746512E+02  0.24215846437E+02  0.00000000000E+00 0.  1.
</event>
<event>
 7    1  0.3449452E-011  0.5052885E+02  0.7816164E-02  0.1300439E+00
        -11   -1    0    0    0    0  0.00000000000E+00  0.00000000000E+00  0.45593999997E+02  0.45594000000E+02  0.51100000000E-03 0. -1.
         11   -1    0    0    0    0 -0.00000000000E+00 -0.00000000000E+00 -0.45593999997E+02  0.45594000000E+02  0.51100000000E-03 0.  1.
    9900012    2    1    2    0    0 -0.10351944976E+02  0.15076371810E+02  0.36313998550E+02  0.50528852905E+02  0.29999978891E+02 0.  0.
        -12    1    1    2    0    0  0.10351944976E+02 -0.15076371810E+02 -0.36313998550E+02  0.40659147095E+02  0.00000000000E+00 0.  1.
         11    1    3    3    0    0  0.38942860834E+00  0.10107710280E+02  0.29451231840E+01  0.10535236712E+02  0.51100000000E-03 0. -1.
        -11    1    3    3    0    0 -0.78882859078E+01 -0.25055476466E+00  0.21039300918E+01  0.81678855492E+01  0.51100000000E-03 0.  1.
        -12    1    3    3    0    0 -0.28530876762E+01  0.52192162952E+01  0.31264945275E+02  0.31825730644E+02  0.00000000000E+00 0.  1.
</event>
<event>
 7    1  0.3449452E-011  0.5052886E+02  0.7816164E-02  0.1300439E+00
        -11   -1    0    0    0    0  0.00000000000E+00  0.00000000000E+00  0.45593999997E+02  0.45594000000E+02  0.51100000000E-03 0. -1.
         11   -1    0    0    0    0 -0.00000000000E+00 -0.00000000000E+00 -0.45593999997E+02  0.45594000000E+02  0.51100000000E-03 0.  1.
    9900012    2    1    2    0    0 -0.65251357025E+01 -0.39826406224E+02 -0.49442690598E+01  0.50528858037E+02  0.29999994490E+02 0.  0.
        -12    1    1    2    0    0  0.65251357025E+01  0.39826406224E+02  0.49442690598E+01  0.40659141963E+02  0.00000000000E+00 0.  1.
         11    1    3    3    0    0  0.62210448884E+01 -0.29433266369E+02  0.21277129058E+01  0.30158675885E+02  0.51100000000E-03 0. -1.
        -11    1    3    3    0    0 -0.47878261168E+00 -0.47602861415E+01 -0.46192548614E+01  0.66503438011E+01  0.51100000000E-03 0.  1.
        -12    1    3    3    0    0 -0.12267397979E+02 -0.56328537131E+01 -0.24527271042E+01  0.13719838351E+02  0.00000000000E+00 0.  1.
</event>
<event>
 7    1  0.3449452E-011  0.5052886E+02  0.7816164E-02  0.1300439E+00
        -11   -1    0    0    0    0  0.00000000000E+00  0.00000000000E+00  0.45593999997E+02  0.45594000000E+02  0.51100000000E-03 0. -1.
         11   -1    0    0    0    0 -0.00000000000E+00 -0.00000000000E+00 -0.45593999997E+02  0.45594000000E+02  0.51100000000E-03 0.  1.
    9900012    2    1    2    0    0 -0.36081217400E+02 -0.15035448733E+02  0.11191369784E+02  0.50528859265E+02  0.29999998223E+02 0.  0.
        -12    1    1    2    0    0  0.36081217400E+02  0.15035448733E+02 -0.11191369784E+02  0.40659140735E+02  0.00000000000E+00 0.  1.
         11    1    3    3    0    0 -0.11487223793E+02 -0.87945787857E+01  0.72082312332E+01  0.16163524500E+02  0.51100000000E-03 0. -1.
        -11    1    3    3    0    0 -0.19568254692E+02  0.34595182673E+01  0.96133427559E+01  0.22074900170E+02  0.51100000000E-03 0.  1.
        -12    1    3    3    0    0 -0.50257389151E+01 -0.97003882143E+01 -0.56302042046E+01  0.12290434595E+02  0.00000000000E+00 0.  1.
</event>
<event>
 7    1  0.3449452E-011  0.5052887E+02  0.7816164E-02  0.1300439E+00
        -11   -1    0    0    0    0  0.00000000000E+00  0.00000000000E+00  0.45593999997E+02  0.45594000000E+02  0.51100000000E-03 0. -1.
         11   -1    0    0    0    0 -0.00000000000E+00 -0.00000000000E+00 -0.45593999997E+02  0.45594000000E+02  0.51100000000E-03 0.  1.
    9900012    2    1    2    0    0 -0.40166113513E+02 -0.17559957311E+00  0.63101161177E+01  0.50528867257E+02  0.30000022516E+02 0.  0.
        -12    1    1    2    0    0  0.40166113513E+02  0.17559957311E+00 -0.63101161177E+01  0.40659132743E+02  0.00000000000E+00 0.  1.
         11    1    3    3    0    0 -0.30999024013E+02 -0.12032873950E+02  0.50088206754E+01  0.33627634916E+02  0.51100000000E-03 0. -1.
        -11    1    3    3    0    0 -0.63278019099E+01  0.38107968338E+01  0.33733725416E+01  0.81205228948E+01  0.51100000000E-03 0.  1.
        -12    1    3    3    0    0 -0.28392875904E+01  0.80464775433E+01 -0.20720770993E+01  0.87807094464E+01  0.00000000000E+00 0.  1.
</event>
<event>
 7    1  0.3449452E-011  0.5052882E+02  0.7816164E-02  0.1300439E+00
        -11   -1    0    0    0    0  0.00000000000E+00  0.00000000000E+00  0.45593999997E+02  0.45594000000E+02  0.51100000000E-03 0. -1.
         11   -1    0    0    0    0 -0.00000000000E+00 -0.00000000000E+00 -0.45593999997E+02  0.45594000000E+02  0.51100000000E-03 0.  1.
    9900012    2    1    2    0    0 -0.14652899127E+02 -0.12855322868E+00  0.37926832127E+02  0.50528824234E+02  0.29999891741E+02 0.  0.
        -12    1    1    2    0    0  0.14652899127E+02  0.12855322868E+00 -0.37926832127E+02  0.40659175766E+02  0.00000000000E+00 0.  1.
         11    1    3    3    0    0 -0.50012608911E+01 -0.65159591399E+01  0.50797749105E+01  0.96578697142E+01  0.51100000000E-03 0. -1.
        -11    1    3    3    0    0 -0.13373590765E+02 -0.13462424242E+01  0.27889206886E+02  0.30959217684E+02  0.51100000000E-03 0.  1.
        -12    1    3    3    0    0  0.37219525283E+01  0.77336483353E+01  0.49578503303E+01  0.99117368355E+01  0.00000000000E+00 0.  1.
</event>
<event>
 7    1  0.3449452E-011  0.5052889E+02  0.7816164E-02  0.1300439E+00
        -11   -1    0    0    0    0  0.00000000000E+00  0.00000000000E+00  0.45593999997E+02  0.45594000000E+02  0.51100000000E-03 0. -1.
         11   -1    0    0    0    0 -0.00000000000E+00 -0.00000000000E+00 -0.45593999997E+02  0.45594000000E+02  0.51100000000E-03 0.  1.
    9900012    2    1    2    0    0  0.29103864181E+02 -0.13965750608E+02  0.24720155734E+02  0.50528890322E+02  0.30000092622E+02 0.  0.
        -12    1    1    2    0    0 -0.29103864181E+02  0.13965750608E+02 -0.24720155734E+02  0.40659109678E+02  0.00000000000E+00 0.  1.
         11    1    3    3    0    0  0.21074397550E+02 -0.77361350234E+01  0.12870868365E+02  0.25877350520E+02  0.51100000000E-03 0. -1.
        -11    1    3    3    0    0  0.13787436703E+02 -0.50340672127E+01  0.47376453858E+01  0.15423376012E+02  0.51100000000E-03 0.  1.
        -12    1    3    3    0    0 -0.57579700713E+01 -0.11955483715E+01  0.71116419830E+01  0.92281637905E+01  0.00000000000E+00 0.  1.
</event>
<event>
 7    1  0.3449452E-011  0.5052886E+02  0.7816164E-02  0.1300439E+00
        -11   -1    0    0    0    0  0.00000000000E+00  0.00000000000E+00  0.45593999997E+02  0.45594000000E+02  0.51100000000E-03 0.  1.
         11   -1    0    0    0    0 -0.00000000000E+00 -0.00000000000E+00 -0.45593999997E+02  0.45594000000E+02  0.51100000000E-03 0. -1.
    9900012    2    1    2    0    0 -0.17163871951E+02  0.26884442035E+02 -0.25214953051E+02  0.50528861037E+02  0.30000003608E+02 0.  0.
        -12    1    1    2    0    0  0.17163871951E+02 -0.26884442035E+02  0.25214953051E+02  0.40659138963E+02  0.00000000000E+00 0.  1.
         11    1    3    3    0    0 -0.98927508386E+01  0.14203824950E+02 -0.20047091333E+02  0.26485864787E+02  0.51100000000E-03 0. -1.
        -11    1    3    3    0    0 -0.47661483517E+01 -0.11890288607E+01 -0.82632228048E+01  0.96130542038E+01  0.51100000000E-03 0.  1.
        -12    1    3    3    0    0 -0.25049727603E+01  0.13869645946E+02  0.30953610867E+01  0.14429942046E+02  0.00000000000E+00 0.  1.
</event>
<event>
 7    1  0.3449452E-011  0.5052885E+02  0.7816164E-02  0.1300439E+00
        -11   -1    0    0    0    0  0.00000000000E+00  0.00000000000E+00  0.45593999997E+02  0.45594000000E+02  0.51100000000E-03 0.  1.
         11   -1    0    0    0    0 -0.00000000000E+00 -0.00000000000E+00 -0.45593999997E+02  0.45594000000E+02  0.51100000000E-03 0. -1.
    9900012    2    1    2    0    0 -0.39801869683E+02  0.82588697472E+01  0.87659663823E+00  0.50528853656E+02  0.29999981172E+02 0.  0.
        -12    1    1    2    0    0  0.39801869683E+02 -0.82588697472E+01 -0.87659663823E+00  0.40659146344E+02  0.00000000000E+00 0.  1.
         11    1    3    3    0    0 -0.24563228200E+02 -0.21646994486E+00  0.97071104042E+01  0.26412630151E+02  0.51100000000E-03 0. -1.
        -11    1    3    3    0    0 -0.13232392105E+02 -0.23865083021E+00 -0.34368819585E+01  0.13673525986E+02  0.51100000000E-03 0.  1.
        -12    1    3    3    0    0 -0.20062493785E+01  0.87139905223E+01 -0.53936318075E+01  0.10442697519E+02  0.00000000000E+00 0.  1.
</event>
<event>
 7    1  0.3449452E-011  0.5052886E+02  0.7816164E-02  0.1300439E+00
        -11   -1    0    0    0    0  0.00000000000E+00  0.00000000000E+00  0.45593999997E+02  0.45594000000E+02  0.51100000000E-03 0. -1.
         11   -1    0    0    0    0 -0.00000000000E+00 -0.00000000000E+00 -0.45593999997E+02  0.45594000000E+02  0.51100000000E-03 0.  1.
    9900012    2    1    2    0    0 -0.16999313377E+02  0.36755092612E+02  0.36403410802E+01  0.50528861158E+02  0.30000003975E+02 0.  0.
        -12    1    1    2    0    0  0.16999313377E+02 -0.36755092612E+02 -0.36403410802E+01  0.40659138842E+02  0.00000000000E+00 0.  1.
         11    1    3    3    0    0  0.17843386273E+01 -0.62054913784E+00  0.30479608160E+01  0.35859463139E+01  0.51100000000E-03 0. -1.
        -11    1    3    3    0    0 -0.10229054051E+02  0.44679919524E+01 -0.54289266179E+01  0.12412483368E+02  0.51100000000E-03 0.  1.
         12    1    3    3    0    0 -0.85545979528E+01  0.32907649798E+02  0.60213068822E+01  0.34530431476E+02  0.00000000000E+00 0. -1.
</event>
<event>
 7    1  0.3449452E-011  0.5052886E+02  0.7816164E-02  0.1300439E+00
        -11   -1    0    0    0    0  0.00000000000E+00  0.00000000000E+00  0.45593999997E+02  0.45594000000E+02  0.51100000000E-03 0.  1.
         11   -1    0    0    0    0 -0.00000000000E+00 -0.00000000000E+00 -0.45593999997E+02  0.45594000000E+02  0.51100000000E-03 0. -1.
    9900012    2    1    2    0    0 -0.16869748204E+02  0.65777676280E+01 -0.36404815927E+02  0.50528855222E+02  0.29999985932E+02 0.  0.
        -12    1    1    2    0    0  0.16869748204E+02 -0.65777676280E+01  0.36404815927E+02  0.40659144778E+02  0.00000000000E+00 0.  1.
         11    1    3    3    0    0 -0.12574241816E+02  0.37837420377E+01 -0.68402397293E+01  0.14805983279E+02  0.51100000000E-03 0. -1.
        -11    1    3    3    0    0 -0.88350393174E+01  0.54958882445E+01 -0.69814623678E+01  0.12530104724E+02  0.51100000000E-03 0.  1.
        -12    1    3    3    0    0  0.45395329290E+01 -0.27018626542E+01 -0.22583113830E+02  0.23192767219E+02  0.00000000000E+00 0.  1.
</event>
<event>
 7    1  0.3449452E-011  0.5052886E+02  0.7816164E-02  0.1300439E+00
        -11   -1    0    0    0    0  0.00000000000E+00  0.00000000000E+00  0.45593999997E+02  0.45594000000E+02  0.51100000000E-03 0.  1.
         11   -1    0    0    0    0 -0.00000000000E+00 -0.00000000000E+00 -0.45593999997E+02  0.45594000000E+02  0.51100000000E-03 0. -1.
    9900012    2    1    2    0    0  0.32000022106E+02 -0.17805402775E+02 -0.17667260669E+02  0.50528857334E+02  0.29999992352E+02 0.  0.
        -12    1    1    2    0    0 -0.32000022106E+02  0.17805402775E+02  0.17667260669E+02  0.40659142666E+02  0.00000000000E+00 0.  1.
         11    1    3    3    0    0  0.10677706673E+02  0.31816299624E+00 -0.12728685551E+02  0.16617282679E+02  0.51100000000E-03 0. -1.
        -11    1    3    3    0    0  0.22465227654E+02 -0.10155973945E+02 -0.69496579351E+01  0.25614995725E+02  0.51100000000E-03 0.  1.
        -12    1    3    3    0    0 -0.11429122210E+01 -0.79675918258E+01  0.20110828171E+01  0.82965789302E+01  0.00000000000E+00 0.  1.
</event>
<event>
 7    1  0.3449452E-011  0.5052885E+02  0.7816164E-02  0.1300439E+00
        -11   -1    0    0    0    0  0.00000000000E+00  0.00000000000E+00  0.45593999997E+02  0.45594000000E+02  0.51100000000E-03 0. -1.
         11   -1    0    0    0    0 -0.00000000000E+00 -0.00000000000E+00 -0.45593999997E+02  0.45594000000E+02  0.51100000000E-03 0.  1.
    9900012    2    1    2    0    0  0.21392299197E+02  0.32363870423E+02  0.12170277303E+02  0.50528853141E+02  0.29999979607E+02 0.  0.
        -12    1    1    2    0    0 -0.21392299197E+02 -0.32363870423E+02 -0.12170277303E+02  0.40659146859E+02  0.00000000000E+00 0.  1.
         11    1    3    3    0    0 -0.21907180279E+01  0.15867929929E+01  0.29916662791E+01  0.40332647901E+01  0.51100000000E-03 0. -1.
        -11    1    3    3    0    0  0.68724156384E+01  0.24658255027E+02  0.12346845975E+02  0.28420137991E+02  0.51100000000E-03 0.  1.
        -12    1    3    3    0    0  0.16710601586E+02  0.61188224036E+01 -0.31682349511E+01  0.18075450359E+02  0.00000000000E+00 0.  1.
</event>
<event>
 7    1  0.3449452E-011  0.5052887E+02  0.7816164E-02  0.1300439E+00
        -11   -1    0    0    0    0  0.00000000000E+00  0.00000000000E+00  0.45593999997E+02  0.45594000000E+02  0.51100000000E-03 0.  1.
         11   -1    0    0    0    0 -0.00000000000E+00 -0.00000000000E+00 -0.45593999997E+02  0.45594000000E+02  0.51100000000E-03 0. -1.
    9900012    2    1    2    0    0 -0.34080440805E+02 -0.17786482752E+01 -0.22102604686E+02  0.50528866105E+02  0.30000019014E+02 0.  0.
        -12    1    1    2    0    0  0.34080440805E+02  0.17786482752E+01  0.22102604686E+02  0.40659133895E+02  0.00000000000E+00 0.  1.
         11    1    3    3    0    0 -0.49947499605E+01  0.78247761892E+00  0.60908253279E+01  0.79156775976E+01  0.51100000000E-03 0. -1.
        -11    1    3    3    0    0 -0.46707178377E+01 -0.55305232207E+01 -0.49228299675E+01  0.87542302554E+01  0.51100000000E-03 0.  1.
         12    1    3    3    0    0 -0.24414973007E+02  0.29693973265E+01 -0.23270600046E+02  0.33858958252E+02  0.00000000000E+00 0. -1.
</event>
<event>
 7    1  0.3449452E-011  0.5052886E+02  0.7816164E-02  0.1300439E+00
        -11   -1    0    0    0    0  0.00000000000E+00  0.00000000000E+00  0.45593999997E+02  0.45594000000E+02  0.51100000000E-03 0.  1.
         11   -1    0    0    0    0 -0.00000000000E+00 -0.00000000000E+00 -0.45593999997E+02  0.45594000000E+02  0.51100000000E-03 0. -1.
    9900012    2    1    2    0    0 -0.13973254700E+02  0.18523029949E+01 -0.38137685185E+02  0.50528857060E+02  0.29999991521E+02 0.  0.
        -12    1    1    2    0    0  0.13973254700E+02 -0.18523029949E+01  0.38137685185E+02  0.40659142940E+02  0.00000000000E+00 0.  1.
         11    1    3    3    0    0 -0.78550501203E+01 -0.51391724435E+01 -0.18720621673E+02  0.20942172330E+02  0.51100000000E-03 0. -1.
        -11    1    3    3    0    0 -0.41990117778E+01 -0.33017386271E+01  0.20346278328E+01  0.57160203420E+01  0.51100000000E-03 0.  1.
        -12    1    3    3    0    0 -0.19191928019E+01  0.10293214065E+02 -0.21451691345E+02  0.23870664389E+02  0.00000000000E+00 0.  1.
</event>
<event>
 7    1  0.3449452E-011  0.5052885E+02  0.7816164E-02  0.1300439E+00
        -11   -1    0    0    0    0  0.00000000000E+00  0.00000000000E+00  0.45593999997E+02  0.45594000000E+02  0.51100000000E-03 0. -1.
         11   -1    0    0    0    0 -0.00000000000E+00 -0.00000000000E+00 -0.45593999997E+02  0.45594000000E+02  0.51100000000E-03 0.  1.
    9900012    2    1    2    0    0  0.16389465156E+01  0.29181837365E+02  0.28264835863E+02  0.50528846983E+02  0.29999960889E+02 0.  0.
        -12    1    1    2    0    0 -0.16389465156E+01 -0.29181837365E+02 -0.28264835863E+02  0.40659153017E+02  0.00000000000E+00 0.  1.
         11    1    3    3    0    0  0.45538848114E+01 -0.26638690263E+01  0.18394726260E+01  0.55872824224E+01  0.51100000000E-03 0. -1.
        -11    1    3    3    0    0  0.38033091479E+01  0.27403500718E+02  0.16706140532E+02  0.32318913098E+02  0.51100000000E-03 0.  1.
         12    1    3    3    0    0 -0.67182474437E+01  0.44422056733E+01  0.97192227048E+01  0.12622651463E+02  0.00000000000E+00 0. -1.
</event>
<event>
 7    1  0.3449452E-011  0.5052885E+02  0.7816164E-02  0.1300439E+00
        -11   -1    0    0    0    0  0.00000000000E+00  0.00000000000E+00  0.45593999997E+02  0.45594000000E+02  0.51100000000E-03 0. -1.
         11   -1    0    0    0    0 -0.00000000000E+00 -0.00000000000E+00 -0.45593999997E+02  0.45594000000E+02  0.51100000000E-03 0.  1.
    9900012    2    1    2    0    0 -0.11707524798E+02  0.28657065782E+02  0.26360441262E+02  0.50528850726E+02  0.29999972267E+02 0.  0.
        -12    1    1    2    0    0  0.11707524798E+02 -0.28657065782E+02 -0.26360441262E+02  0.40659149274E+02  0.00000000000E+00 0.  1.
         11    1    3    3    0    0  0.60137145176E+00  0.25568094609E+01 -0.34936937490E+00  0.26497134682E+01  0.51100000000E-03 0. -1.
        -11    1    3    3    0    0 -0.54227449142E+01 -0.43291060738E+01  0.10853948737E+02  0.12882372656E+02  0.51100000000E-03 0.  1.
         12    1    3    3    0    0 -0.68861513356E+01  0.30429362395E+02  0.15855861900E+02  0.34996764601E+02  0.00000000000E+00 0. -1.
</event>
<event>
 7    1  0.3449452E-011  0.5052882E+02  0.7816164E-02  0.1300439E+00
        -11   -1    0    0    0    0  0.00000000000E+00  0.00000000000E+00  0.45593999997E+02  0.45594000000E+02  0.51100000000E-03 0.  1.
         11   -1    0    0    0    0 -0.00000000000E+00 -0.00000000000E+00 -0.45593999997E+02  0.45594000000E+02  0.51100000000E-03 0. -1.
    9900012    2    1    2    0    0 -0.31293423931E+02  0.25855074102E+02 -0.23250650146E+01  0.50528816960E+02  0.29999869632E+02 0.  0.
        -12    1    1    2    0    0  0.31293423931E+02 -0.25855074102E+02  0.23250650146E+01  0.40659183040E+02  0.00000000000E+00 0.  1.
         11    1    3    3    0    0 -0.32952644417E+01 -0.30197545419E+01 -0.57901842138E+01  0.73146372928E+01  0.51100000000E-03 0. -1.
        -11    1    3    3    0    0 -0.11662183403E+02  0.14048699108E+02 -0.59852077063E+01  0.19214452370E+02  0.51100000000E-03 0.  1.
        -12    1    3    3    0    0 -0.16335976086E+02  0.14826129536E+02  0.94503269055E+01  0.23999727297E+02  0.00000000000E+00 0.  1.
</event>
<event>
 7    1  0.3449452E-011  0.5052886E+02  0.7816164E-02  0.1300439E+00
        -11   -1    0    0    0    0  0.00000000000E+00  0.00000000000E+00  0.45593999997E+02  0.45594000000E+02  0.51100000000E-03 0.  1.
         11   -1    0    0    0    0 -0.00000000000E+00 -0.00000000000E+00 -0.45593999997E+02  0.45594000000E+02  0.51100000000E-03 0. -1.
    9900012    2    1    2    0    0 -0.19106029345E+02  0.61931249762E+01 -0.35352097318E+02  0.50528856636E+02  0.29999990229E+02 0.  0.
        -12    1    1    2    0    0  0.19106029345E+02 -0.61931249762E+01  0.35352097318E+02  0.40659143364E+02  0.00000000000E+00 0.  1.
         11    1    3    3    0    0 -0.26189035592E+01  0.75205492772E+01 -0.14075292265E+02  0.16171925361E+02  0.51100000000E-03 0. -1.
        -11    1    3    3    0    0 -0.11141511290E+02  0.34082119820E+01  0.27326194954E+00  0.11654349193E+02  0.51100000000E-03 0.  1.
         12    1    3    3    0    0 -0.53456144958E+01 -0.47356362830E+01 -0.21550067003E+02  0.22702582082E+02  0.00000000000E+00 0. -1.
</event>
<event>
 7    1  0.3449452E-011  0.5052887E+02  0.7816164E-02  0.1300439E+00
        -11   -1    0    0    0    0  0.00000000000E+00  0.00000000000E+00  0.45593999997E+02  0.45594000000E+02  0.51100000000E-03 0.  1.
         11   -1    0    0    0    0 -0.00000000000E+00 -0.00000000000E+00 -0.45593999997E+02  0.45594000000E+02  0.51100000000E-03 0. -1.
    9900012    2    1    2    0    0  0.18056315045E+02 -0.41735244690E+01 -0.36190001797E+02  0.50528867575E+02  0.30000023480E+02 0.  0.
        -12    1    1    2    0    0 -0.18056315045E+02  0.41735244690E+01  0.36190001797E+02  0.40659132425E+02  0.00000000000E+00 0.  1.
         11    1    3    3    0    0  0.17439844742E+01  0.10379525538E+01 -0.14996262654E+02  0.15132968024E+02  0.51100000000E-03 0. -1.
        -11    1    3    3    0    0  0.14281338698E+02  0.67985865751E+01 -0.91822193643E+01  0.18289083278E+02  0.51100000000E-03 0.  1.
        -12    1    3    3    0    0  0.20309918725E+01 -0.12010063598E+02 -0.12011519779E+02  0.17106816273E+02  0.00000000000E+00 0.  1.
</event>
<event>
 7    1  0.3449452E-011  0.5052888E+02  0.7816164E-02  0.1300439E+00
        -11   -1    0    0    0    0  0.00000000000E+00  0.00000000000E+00  0.45593999997E+02  0.45594000000E+02  0.51100000000E-03 0.  1.
         11   -1    0    0    0    0 -0.00000000000E+00 -0.00000000000E+00 -0.45593999997E+02  0.45594000000E+02  0.51100000000E-03 0. -1.
    9900012    2    1    2    0    0 -0.16196364304E+02  0.36717661604E+02  0.65310806682E+01  0.50528881650E+02  0.30000066263E+02 0.  0.
        -12    1    1    2    0    0  0.16196364304E+02 -0.36717661604E+02 -0.65310806682E+01  0.40659118350E+02  0.00000000000E+00 0.  1.
         11    1    3    3    0    0 -0.69326179671E+01  0.17873421818E+02  0.83105272288E+01  0.20894622812E+02  0.51100000000E-03 0. -1.
        -11    1    3    3    0    0 -0.11609978290E+02  0.48569598480E+01  0.54510664001E+01  0.13714801494E+02  0.51100000000E-03 0.  1.
         12    1    3    3    0    0  0.23462319539E+01  0.13987279938E+02 -0.72305129608E+01  0.15919457344E+02  0.00000000000E+00 0. -1.
</event>
<event>
 7    1  0.3449452E-011  0.5052886E+02  0.7816164E-02  0.1300439E+00
        -11   -1    0    0    0    0  0.00000000000E+00  0.00000000000E+00  0.45593999997E+02  0.45594000000E+02  0.51100000000E-03 0. -1.
         11   -1    0    0    0    0 -0.00000000000E+00 -0.00000000000E+00 -0.45593999997E+02  0.45594000000E+02  0.51100000000E-03 0.  1.
    9900012    2    1    2    0    0 -0.17538346408E+02  0.31169739707E+02  0.19339587753E+02  0.50528856839E+02  0.29999990849E+02 0.  0.
        -12    1    1    2    0    0  0.17538346408E+02 -0.31169739707E+02 -0.19339587753E+02  0.40659143161E+02  0.00000000000E+00 0.  1.
         11    1    3    3    0    0 -0.93577510632E+01  0.18970334065E+02  0.14988650213E+02  0.25924905303E+02  0.51100000000E-03 0. -1.
        -11    1    3    3    0    0 -0.14344051439E+02  0.10435267913E+02  0.39982134592E+01  0.18183298359E+02  0.51100000000E-03 0.  1.
         12    1    3    3    0    0  0.61634560937E+01  0.17641377294E+01  0.35272408051E+00  0.64206531774E+01  0.00000000000E+00 0. -1.
</event>
<event>
 7    1  0.3449452E-011  0.5052888E+02  0.7816164E-02  0.1300439E+00
        -11   -1    0    0    0    0  0.00000000000E+00  0.00000000000E+00  0.45593999997E+02  0.45594000000E+02  0.51100000000E-03 0.  1.
         11   -1    0    0    0    0 -0.00000000000E+00 -0.00000000000E+00 -0.45593999997E+02  0.45594000000E+02  0.51100000000E-03 0. -1.
    9900012    2    1    2    0    0  0.20354455526E+02  0.27203305059E+02  0.22334740456E+02  0.50528876828E+02  0.30000051605E+02 0.  0.
        -12    1    1    2    0    0 -0.20354455526E+02 -0.27203305059E+02 -0.22334740456E+02  0.40659123172E+02  0.00000000000E+00 0.  1.
         11    1    3    3    0    0 -0.27614294327E+01 -0.39073078036E+01  0.38708677165E+01  0.61543613741E+01  0.51100000000E-03 0.  1.
        -11    1    3    3    0    0  0.73340353974E+01  0.16666704633E+02  0.42777829030E+01  0.18704719869E+02  0.51100000000E-03 0. -1.
        -12    1    3    3    0    0  0.15781849561E+02  0.14443908229E+02  0.14186089837E+02  0.25669795585E+02  0.00000000000E+00 0.  1.
</event>
<event>
 7    1  0.3792179E-011  0.5052886E+02  0.7816164E-02  0.1300439E+00
        -11   -1    0    0    0    0  0.00000000000E+00  0.00000000000E+00  0.45593999997E+02  0.45594000000E+02  0.51100000000E-03 0.  1.
         11   -1    0    0    0    0 -0.00000000000E+00 -0.00000000000E+00 -0.45593999997E+02  0.45594000000E+02  0.51100000000E-03 0. -1.
    9900012    2    1    2    0    0 -0.12326303074E+02  0.19613914304E+02 -0.33414398784E+02  0.50528862922E+02  0.30000009339E+02 0.  0.
        -12    1    1    2    0    0  0.12326303074E+02 -0.19613914304E+02  0.33414398784E+02  0.40659137078E+02  0.00000000000E+00 0.  1.
         11    1    3    3    0    0 -0.10320995461E+02  0.13934954989E+02 -0.26207446239E+02  0.31425088010E+02  0.51100000000E-03 0. -1.
        -11    1    3    3    0    0 -0.73347085208E+01  0.87499158353E+01 -0.35916021437E+01  0.11969067734E+02  0.51100000000E-03 0.  1.
        -12    1    3    3    0    0  0.53294009079E+01 -0.30709565200E+01 -0.36153504014E+01  0.71347071775E+01  0.00000000000E+00 0.  1.
</event>
<event>
 7    1  0.3449452E-011  0.5052886E+02  0.7816164E-02  0.1300439E+00
        -11   -1    0    0    0    0  0.00000000000E+00  0.00000000000E+00  0.45593999997E+02  0.45594000000E+02  0.51100000000E-03 0. -1.
         11   -1    0    0    0    0 -0.00000000000E+00 -0.00000000000E+00 -0.45593999997E+02  0.45594000000E+02  0.51100000000E-03 0.  1.
    9900012    2    1    2    0    0  0.47246714772E+01 -0.13132332113E+02  0.38188807212E+02  0.50528860024E+02  0.30000000529E+02 0.  0.
        -12    1    1    2    0    0 -0.47246714772E+01  0.13132332113E+02 -0.38188807212E+02  0.40659139976E+02  0.00000000000E+00 0.  1.
         11    1    3    3    0    0 -0.29791383934E+01 -0.39477450011E+01  0.24555638361E+02  0.25048739125E+02  0.51100000000E-03 0. -1.
        -11    1    3    3    0    0  0.11111555658E+02 -0.10260837214E+02  0.15320331840E+02  0.21528214450E+02  0.51100000000E-03 0.  1.
        -12    1    3    3    0    0 -0.34077457875E+01  0.10762501021E+01 -0.16871629883E+01  0.39519064493E+01  0.00000000000E+00 0.  1.
</event>
<event>
 7    1  0.3449452E-011  0.5052887E+02  0.7816164E-02  0.1300439E+00
        -11   -1    0    0    0    0  0.00000000000E+00  0.00000000000E+00  0.45593999997E+02  0.45594000000E+02  0.51100000000E-03 0.  1.
         11   -1    0    0    0    0 -0.00000000000E+00 -0.00000000000E+00 -0.45593999997E+02  0.45594000000E+02  0.51100000000E-03 0. -1.
    9900012    2    1    2    0    0  0.87174301559E+01  0.60677047670E+01 -0.39247349522E+02  0.50528867273E+02  0.30000022562E+02 0.  0.
        -12    1    1    2    0    0 -0.87174301559E+01 -0.60677047670E+01  0.39247349522E+02  0.40659132727E+02  0.00000000000E+00 0.  1.
         11    1    3    3    0    0  0.92393402113E+01 -0.11798577527E+01 -0.27886660214E+02  0.29401076341E+02  0.51100000000E-03 0. -1.
        -11    1    3    3    0    0 -0.34550022764E+00  0.92762616677E+01 -0.14600279339E+02  0.17301345554E+02  0.51100000000E-03 0.  1.
        -12    1    3    3    0    0 -0.17640982776E+00 -0.20286991480E+01  0.32395900313E+01  0.38264453781E+01  0.00000000000E+00 0.  1.
</event>
<event>
 7    1  0.3449452E-011  0.5052887E+02  0.7816164E-02  0.1300439E+00
        -11   -1    0    0    0    0  0.00000000000E+00  0.00000000000E+00  0.45593999997E+02  0.45594000000E+02  0.51100000000E-03 0.  1.
         11   -1    0    0    0    0 -0.00000000000E+00 -0.00000000000E+00 -0.45593999997E+02  0.45594000000E+02  0.51100000000E-03 0. -1.
    9900012    2    1    2    0    0 -0.40167578803E+02  0.59413221099E+01  0.21051116561E+01  0.50528865843E+02  0.30000018215E+02 0.  0.
        -12    1    1    2    0    0  0.40167578803E+02 -0.59413221099E+01 -0.21051116561E+01  0.40659134157E+02  0.00000000000E+00 0.  1.
         11    1    3    3    0    0 -0.15039526992E+01 -0.28628626444E+01  0.43481856360E+01  0.54189090072E+01  0.51100000000E-03 0. -1.
        -11    1    3    3    0    0 -0.25026741111E+02  0.10450126041E+01  0.80907430169E+01  0.26322802754E+02  0.51100000000E-03 0.  1.
         12    1    3    3    0    0 -0.13636884993E+02  0.77591721502E+01 -0.10333816997E+02  0.18787154082E+02  0.00000000000E+00 0. -1.
</event>
<event>
 7    1  0.3449452E-011  0.5052886E+02  0.7816164E-02  0.1300439E+00
        -11   -1    0    0    0    0  0.00000000000E+00  0.00000000000E+00  0.45593999997E+02  0.45594000000E+02  0.51100000000E-03 0.  1.
         11   -1    0    0    0    0 -0.00000000000E+00 -0.00000000000E+00 -0.45593999997E+02  0.45594000000E+02  0.51100000000E-03 0. -1.
    9900012    2    1    2    0    0 -0.18251164435E+02 -0.29084837674E+02 -0.21774593962E+02  0.50528859232E+02  0.29999998121E+02 0.  0.
        -12    1    1    2    0    0  0.18251164435E+02  0.29084837674E+02  0.21774593962E+02  0.40659140768E+02  0.00000000000E+00 0.  1.
         11    1    3    3    0    0 -0.14056824806E+01  0.70462775332E-01  0.10252526947E+01  0.17412787221E+01  0.51100000000E-03 0.  1.
        -11    1    3    3    0    0 -0.23040702826E+02 -0.22631407961E+02 -0.23226079079E+02  0.39780715965E+02  0.51100000000E-03 0. -1.
         12    1    3    3    0    0  0.61952208719E+01 -0.65238924886E+01  0.42623242166E+00  0.90068645450E+01  0.00000000000E+00 0. -1.
</event>
<event>
 7    1  0.3449452E-011  0.5052887E+02  0.7816164E-02  0.1300439E+00
        -11   -1    0    0    0    0  0.00000000000E+00  0.00000000000E+00  0.45593999997E+02  0.45594000000E+02  0.51100000000E-03 0.  1.
         11   -1    0    0    0    0 -0.00000000000E+00 -0.00000000000E+00 -0.45593999997E+02  0.45594000000E+02  0.51100000000E-03 0. -1.
    9900012    2    1    2    0    0  0.26190835060E+02  0.38310373433E+01 -0.30863061312E+02  0.50528865210E+02  0.30000016294E+02 0.  0.
        -12    1    1    2    0    0 -0.26190835060E+02 -0.38310373433E+01  0.30863061312E+02  0.40659134790E+02  0.00000000000E+00 0.  1.
         11    1    3    3    0    0  0.45292287248E+01  0.41050070823E+01 -0.21048996453E+01  0.64649515671E+01  0.51100000000E-03 0. -1.
        -11    1    3    3    0    0  0.24789505286E+02 -0.40016237110E+01 -0.14495529883E+02  0.28994015788E+02  0.51100000000E-03 0.  1.
         12    1    3    3    0    0 -0.31278989505E+01  0.37276539719E+01 -0.14262631784E+02  0.15069897856E+02  0.00000000000E+00 0. -1.
</event>
<event>
 7    1  0.3449452E-011  0.5052887E+02  0.7816164E-02  0.1300439E+00
        -11   -1    0    0    0    0  0.00000000000E+00  0.00000000000E+00  0.45593999997E+02  0.45594000000E+02  0.51100000000E-03 0.  1.
         11   -1    0    0    0    0 -0.00000000000E+00 -0.00000000000E+00 -0.45593999997E+02  0.45594000000E+02  0.51100000000E-03 0. -1.
    9900012    2    1    2    0    0 -0.29943105524E+02  0.84240852931E+01 -0.26184158708E+02  0.50528868815E+02  0.30000027251E+02 0.  0.
        -12    1    1    2    0    0  0.29943105524E+02 -0.84240852931E+01  0.26184158708E+02  0.40659131185E+02  0.00000000000E+00 0.  1.
         11    1    3    3    0    0  0.29663577780E+01 -0.39975505156E+01 -0.65437978893E+01  0.82219814929E+01  0.51100000000E-03 0. -1.
        -11    1    3    3    0    0 -0.13892703524E+02 -0.10095454837E+01 -0.97986207444E+01  0.17030542036E+02  0.51100000000E-03 0.  1.
         12    1    3    3    0    0 -0.19016759777E+02  0.13431181292E+02 -0.98417400745E+01  0.25276345286E+02  0.00000000000E+00 0. -1.
</event>
<event>
 7    1  0.3449452E-011  0.5052886E+02  0.7816164E-02  0.1300439E+00
        -11   -1    0    0    0    0  0.00000000000E+00  0.00000000000E+00  0.45593999997E+02  0.45594000000E+02  0.51100000000E-03 0. -1.
         11   -1    0    0    0    0 -0.00000000000E+00 -0.00000000000E+00 -0.45593999997E+02  0.45594000000E+02  0.51100000000E-03 0.  1.
    9900012    2    1    2    0    0 -0.19467853721E+02 -0.11387151150E+02  0.33830472153E+02  0.50528863438E+02  0.30000010907E+02 0.  0.
        -12    1    1    2    0    0  0.19467853721E+02  0.11387151150E+02 -0.33830472153E+02  0.40659136562E+02  0.00000000000E+00 0.  1.
         11    1    3    3    0    0 -0.15141065803E+02 -0.68162547910E+01  0.22163147077E+02  0.27693289650E+02  0.51100000000E-03 0. -1.
        -11    1    3    3    0    0 -0.50235872245E+01  0.51222208630E+01  0.10949917708E+02  0.13090999704E+02  0.51100000000E-03 0.  1.
        -12    1    3    3    0    0  0.69679930602E+00 -0.96931172221E+01  0.71740736820E+00  0.97445740844E+01  0.00000000000E+00 0.  1.
</event>
<event>
 7    1  0.3449452E-011  0.5052887E+02  0.7816164E-02  0.1300439E+00
        -11   -1    0    0    0    0  0.00000000000E+00  0.00000000000E+00  0.45593999997E+02  0.45594000000E+02  0.51100000000E-03 0.  1.
         11   -1    0    0    0    0 -0.00000000000E+00 -0.00000000000E+00 -0.45593999997E+02  0.45594000000E+02  0.51100000000E-03 0. -1.
    9900012    2    1    2    0    0  0.14995246183E+02  0.17933010225E+02 -0.33267314147E+02  0.50528874894E+02  0.30000045727E+02 0.  0.
        -12    1    1    2    0    0 -0.14995246183E+02 -0.17933010225E+02  0.33267314147E+02  0.40659125106E+02  0.00000000000E+00 0.  1.
         11    1    3    3    0    0 -0.38531274343E+01  0.16711146446E+01 -0.41828548708E+01  0.59275197437E+01  0.51100000000E-03 0. -1.
        -11    1    3    3    0    0  0.13871090507E+02  0.57476710733E+01 -0.29347671000E+02  0.32965567916E+02  0.51100000000E-03 0.  1.
         12    1    3    3    0    0  0.49772831101E+01  0.10514224507E+02  0.26321172332E+00  0.11635787234E+02  0.00000000000E+00 0. -1.
</event>
<event>
 7    1  0.3449452E-011  0.5052886E+02  0.7816164E-02  0.1300439E+00
        -11   -1    0    0    0    0  0.00000000000E+00  0.00000000000E+00  0.45593999997E+02  0.45594000000E+02  0.51100000000E-03 0.  1.
         11   -1    0    0    0    0 -0.00000000000E+00 -0.00000000000E+00 -0.45593999997E+02  0.45594000000E+02  0.51100000000E-03 0. -1.
    9900012    2    1    2    0    0  0.32645690934E+02  0.20143913585E+02 -0.13477666502E+02  0.50528857296E+02  0.29999992237E+02 0.  0.
        -12    1    1    2    0    0 -0.32645690934E+02 -0.20143913585E+02  0.13477666502E+02  0.40659142704E+02  0.00000000000E+00 0.  1.
         11    1    3    3    0    0  0.19330449098E+02  0.14944101861E+02 -0.31364217017E-01  0.24433448933E+02  0.51100000000E-03 0.  1.
        -11    1    3    3    0    0  0.15908611707E+02  0.61822390862E+00 -0.60819574684E+01  0.17042779531E+02  0.51100000000E-03 0. -1.
        -12    1    3    3    0    0 -0.25933698708E+01  0.45815878154E+01 -0.73643448165E+01  0.90526288322E+01  0.00000000000E+00 0.  1.
</event>
<event>
 7    1  0.3449452E-011  0.5052885E+02  0.7816164E-02  0.1300439E+00
        -11   -1    0    0    0    0  0.00000000000E+00  0.00000000000E+00  0.45593999997E+02  0.45594000000E+02  0.51100000000E-03 0.  1.
         11   -1    0    0    0    0 -0.00000000000E+00 -0.00000000000E+00 -0.45593999997E+02  0.45594000000E+02  0.51100000000E-03 0. -1.
    9900012    2    1    2    0    0 -0.27873985518E+01  0.35820446500E+02 -0.19033973055E+02  0.50528854554E+02  0.29999983902E+02 0.  0.
        -12    1    1    2    0    0  0.27873985518E+01 -0.35820446500E+02  0.19033973055E+02  0.40659145446E+02  0.00000000000E+00 0.  1.
         11    1    3    3    0    0  0.11862723583E+02  0.13757000272E+02 -0.21903577096E+01  0.18296910517E+02  0.51100000000E-03 0. -1.
        -11    1    3    3    0    0 -0.40901108028E+01  0.90429096209E+01 -0.26672208796E+01  0.10277027210E+02  0.51100000000E-03 0.  1.
        -12    1    3    3    0    0 -0.10560011332E+02  0.13020536607E+02 -0.14176394466E+02  0.21954916828E+02  0.00000000000E+00 0.  1.
</event>
<event>
 7    1  0.3449452E-011  0.5052886E+02  0.7816164E-02  0.1300439E+00
        -11   -1    0    0    0    0  0.00000000000E+00  0.00000000000E+00  0.45593999997E+02  0.45594000000E+02  0.51100000000E-03 0.  1.
         11   -1    0    0    0    0 -0.00000000000E+00 -0.00000000000E+00 -0.45593999997E+02  0.45594000000E+02  0.51100000000E-03 0. -1.
    9900012    2    1    2    0    0  0.19022493308E+02 -0.42967061554E+01 -0.35677004638E+02  0.50528860863E+02  0.30000003080E+02 0.  0.
        -12    1    1    2    0    0 -0.19022493308E+02  0.42967061554E+01  0.35677004638E+02  0.40659139137E+02  0.00000000000E+00 0.  1.
         11    1    3    3    0    0  0.86638168419E+01  0.37026869886E+01 -0.27260911374E+02  0.28843177745E+02  0.51100000000E-03 0. -1.
        -11    1    3    3    0    0  0.12754542798E+02 -0.54258023632E+01 -0.10684961807E+02  0.17501031465E+02  0.51100000000E-03 0.  1.
        -12    1    3    3    0    0 -0.23958663326E+01 -0.25735907808E+01  0.22688685433E+01  0.41846516531E+01  0.00000000000E+00 0.  1.
</event>
<event>
 7    1  0.3449452E-011  0.5052879E+02  0.7816164E-02  0.1300439E+00
        -11   -1    0    0    0    0  0.00000000000E+00  0.00000000000E+00  0.45593999997E+02  0.45594000000E+02  0.51100000000E-03 0.  1.
         11   -1    0    0    0    0 -0.00000000000E+00 -0.00000000000E+00 -0.45593999997E+02  0.45594000000E+02  0.51100000000E-03 0. -1.
    9900012    2    1    2    0    0  0.39269902032E+02 -0.72473285532E+01 -0.76499689041E+01  0.50528794388E+02  0.29999801022E+02 0.  0.
        -12    1    1    2    0    0 -0.39269902032E+02  0.72473285532E+01  0.76499689041E+01  0.40659205612E+02  0.00000000000E+00 0.  1.
         11    1    3    3    0    0  0.25512798961E+02 -0.89844921601E+00 -0.11867325618E+02  0.28152149819E+02  0.51100000000E-03 0. -1.
        -11    1    3    3    0    0  0.13573826940E+02 -0.74545381574E+01 -0.23948142350E+01  0.15670164403E+02  0.51100000000E-03 0.  1.
        -12    1    3    3    0    0  0.18327613057E+00  0.11056588203E+01  0.66121709489E+01  0.67064801665E+01  0.00000000000E+00 0.  1.
</event>
<event>
 7    1  0.3449452E-011  0.5052886E+02  0.7816164E-02  0.1300439E+00
        -11   -1    0    0    0    0  0.00000000000E+00  0.00000000000E+00  0.45593999997E+02  0.45594000000E+02  0.51100000000E-03 0.  1.
         11   -1    0    0    0    0 -0.00000000000E+00 -0.00000000000E+00 -0.45593999997E+02  0.45594000000E+02  0.51100000000E-03 0. -1.
    9900012    2    1    2    0    0 -0.12927020272E+02 -0.37248404054E+02 -0.99304641845E+01  0.50528861094E+02  0.30000003780E+02 0.  0.
        -12    1    1    2    0    0  0.12927020272E+02  0.37248404054E+02  0.99304641845E+01  0.40659138906E+02  0.00000000000E+00 0.  1.
         11    1    3    3    0    0 -0.65082396071E+01 -0.12881601693E+02 -0.12477783971E+01  0.14486193294E+02  0.51100000000E-03 0. -1.
        -11    1    3    3    0    0 -0.11451418570E+02 -0.13244862831E+02 -0.14298330487E+02  0.22605389482E+02  0.51100000000E-03 0.  1.
        -12    1    3    3    0    0  0.50326379050E+01 -0.11121939530E+02  0.56156446991E+01  0.13437278318E+02  0.00000000000E+00 0.  1.
</event>
<event>
 7    1  0.3449452E-011  0.5052886E+02  0.7816164E-02  0.1300439E+00
        -11   -1    0    0    0    0  0.00000000000E+00  0.00000000000E+00  0.45593999997E+02  0.45594000000E+02  0.51100000000E-03 0. -1.
         11   -1    0    0    0    0 -0.00000000000E+00 -0.00000000000E+00 -0.45593999997E+02  0.45594000000E+02  0.51100000000E-03 0.  1.
    9900012    2    1    2    0    0 -0.82144421914E+00  0.37264231281E+02  0.16244019893E+02  0.50528857291E+02  0.29999992221E+02 0.  0.
        -12    1    1    2    0    0  0.82144421914E+00 -0.37264231281E+02 -0.16244019893E+02  0.40659142709E+02  0.00000000000E+00 0.  1.
         11    1    3    3    0    0 -0.19812094552E+00  0.12440918766E+02 -0.14678624952E+01  0.12528780157E+02  0.51100000000E-03 0. -1.
        -11    1    3    3    0    0 -0.69933815961E+01  0.24709724767E+02  0.18400312686E+02  0.31591919717E+02  0.51100000000E-03 0.  1.
        -12    1    3    3    0    0  0.63700583225E+01  0.11358774775E+00 -0.68843029694E+00  0.64081574171E+01  0.00000000000E+00 0.  1.
</event>
<event>
 7    1  0.3449452E-011  0.5052886E+02  0.7816164E-02  0.1300439E+00
        -11   -1    0    0    0    0  0.00000000000E+00  0.00000000000E+00  0.45593999997E+02  0.45594000000E+02  0.51100000000E-03 0.  1.
         11   -1    0    0    0    0 -0.00000000000E+00 -0.00000000000E+00 -0.45593999997E+02  0.45594000000E+02  0.51100000000E-03 0. -1.
    9900012    2    1    2    0    0 -0.33600087052E+02 -0.13636553021E+02 -0.18391414135E+02  0.50528861518E+02  0.30000005071E+02 0.  0.
        -12    1    1    2    0    0  0.33600087052E+02  0.13636553021E+02  0.18391414135E+02  0.40659138482E+02  0.00000000000E+00 0.  1.
         11    1    3    3    0    0 -0.18953751902E+01  0.80305857298E+00 -0.42629393892E+01  0.47339204346E+01  0.51100000000E-03 0. -1.
        -11    1    3    3    0    0 -0.17029900041E+02  0.12203580904E+01 -0.17058016957E+02  0.24134678619E+02  0.51100000000E-03 0.  1.
         12    1    3    3    0    0 -0.14674811821E+02 -0.15659969684E+02  0.29295422112E+01  0.21660262465E+02  0.00000000000E+00 0. -1.
</event>
<event>
 7    1  0.3449452E-011  0.5052887E+02  0.7816164E-02  0.1300439E+00
        -11   -1    0    0    0    0  0.00000000000E+00  0.00000000000E+00  0.45593999997E+02  0.45594000000E+02  0.51100000000E-03 0. -1.
         11   -1    0    0    0    0 -0.00000000000E+00 -0.00000000000E+00 -0.45593999997E+02  0.45594000000E+02  0.51100000000E-03 0.  1.
    9900012    2    1    2    0    0  0.32114658374E+02  0.11011355970E+02  0.22373283863E+02  0.50528867280E+02  0.30000022583E+02 0.  0.
        -12    1    1    2    0    0 -0.32114658374E+02 -0.11011355970E+02 -0.22373283863E+02  0.40659132720E+02  0.00000000000E+00 0.  1.
         11    1    3    3    0    0  0.50352257325E+01  0.65439027269E+01  0.24020391796E+01  0.85991833076E+01  0.51100000000E-03 0. -1.
        -11    1    3    3    0    0  0.30729356665E+02  0.59914092030E+01  0.12969569523E+02  0.33888052160E+02  0.51100000000E-03 0.  1.
        -12    1    3    3    0    0 -0.36499240243E+01 -0.15239559596E+01  0.70016751605E+01  0.80416318123E+01  0.00000000000E+00 0.  1.
</event>
<event>
 7    1  0.3449452E-011  0.5052887E+02  0.7816164E-02  0.1300439E+00
        -11   -1    0    0    0    0  0.00000000000E+00  0.00000000000E+00  0.45593999997E+02  0.45594000000E+02  0.51100000000E-03 0. -1.
         11   -1    0    0    0    0 -0.00000000000E+00 -0.00000000000E+00 -0.45593999997E+02  0.45594000000E+02  0.51100000000E-03 0.  1.
    9900012    2    1    2    0    0 -0.38977459999E+02 -0.95634182832E+01  0.65164230828E+01  0.50528866622E+02  0.30000020585E+02 0.  0.
        -12    1    1    2    0    0  0.38977459999E+02  0.95634182832E+01 -0.65164230828E+01  0.40659133378E+02  0.00000000000E+00 0.  1.
         11    1    3    3    0    0 -0.52723304175E+00 -0.16347951618E+01 -0.59087830832E+01  0.61533931848E+01  0.51100000000E-03 0. -1.
        -11    1    3    3    0    0 -0.88386124060E+01 -0.14825226931E+01 -0.41024762385E+01  0.98564321307E+01  0.51100000000E-03 0.  1.
         12    1    3    3    0    0 -0.29611614551E+02 -0.64461004283E+01  0.16527682404E+02  0.34519041307E+02  0.00000000000E+00 0. -1.
</event>
<event>
 7    1  0.3449452E-011  0.5052885E+02  0.7816164E-02  0.1300439E+00
        -11   -1    0    0    0    0  0.00000000000E+00  0.00000000000E+00  0.45593999997E+02  0.45594000000E+02  0.51100000000E-03 0. -1.
         11   -1    0    0    0    0 -0.00000000000E+00 -0.00000000000E+00 -0.45593999997E+02  0.45594000000E+02  0.51100000000E-03 0.  1.
    9900012    2    1    2    0    0 -0.20232041343E+02  0.35150562559E+02 -0.28755597836E+01  0.50528851102E+02  0.29999973408E+02 0.  0.
        -12    1    1    2    0    0  0.20232041343E+02 -0.35150562559E+02  0.28755597836E+01  0.40659148898E+02  0.00000000000E+00 0.  1.
         11    1    3    3    0    0 -0.57159273551E+01  0.76349432564E+01  0.40994081061E+01  0.10381200852E+02  0.51100000000E-03 0. -1.
        -11    1    3    3    0    0 -0.13274217725E+02  0.23045451607E+02 -0.15252651871E+02  0.30658458626E+02  0.51100000000E-03 0.  1.
         12    1    3    3    0    0 -0.12418962622E+01  0.44701676957E+01  0.82776839817E+01  0.94891916229E+01  0.00000000000E+00 0. -1.
</event>
<event>
 7    1  0.3449452E-011  0.5052887E+02  0.7816164E-02  0.1300439E+00
        -11   -1    0    0    0    0  0.00000000000E+00  0.00000000000E+00  0.45593999997E+02  0.45594000000E+02  0.51100000000E-03 0.  1.
         11   -1    0    0    0    0 -0.00000000000E+00 -0.00000000000E+00 -0.45593999997E+02  0.45594000000E+02  0.51100000000E-03 0. -1.
    9900012    2    1    2    0    0  0.16984098762E+02  0.95239737780E+01 -0.35693127714E+02  0.50528867529E+02  0.30000023343E+02 0.  0.
        -12    1    1    2    0    0 -0.16984098762E+02 -0.95239737780E+01  0.35693127714E+02  0.40659132471E+02  0.00000000000E+00 0.  1.
         11    1    3    3    0    0  0.65035968455E+01 -0.61955604783E+01 -0.32486144162E+01  0.95517138491E+01  0.51100000000E-03 0. -1.
        -11    1    3    3    0    0  0.10412648058E+02  0.66320222707E+01 -0.75385975826E+01  0.14465041056E+02  0.51100000000E-03 0.  1.
         12    1    3    3    0    0  0.67853858945E-01  0.90875119855E+01 -0.24905915715E+02  0.26512112625E+02  0.00000000000E+00 0. -1.
</event>
<event>
 7    1  0.3449452E-011  0.5052881E+02  0.7816164E-02  0.1300439E+00
        -11   -1    0    0    0    0  0.00000000000E+00  0.00000000000E+00  0.45593999997E+02  0.45594000000E+02  0.51100000000E-03 0. -1.
         11   -1    0    0    0    0 -0.00000000000E+00 -0.00000000000E+00 -0.45593999997E+02  0.45594000000E+02  0.51100000000E-03 0.  1.
    9900012    2    1    2    0    0 -0.31700482293E+02  0.99072372238E+01  0.23454115566E+02  0.50528813289E+02  0.29999858472E+02 0.  0.
        -12    1    1    2    0    0  0.31700482293E+02 -0.99072372238E+01 -0.23454115566E+02  0.40659186711E+02  0.00000000000E+00 0.  1.
         11    1    3    3    0    0 -0.10573449899E+02  0.13720942481E+02  0.72440122910E+01  0.18775990511E+02  0.51100000000E-03 0. -1.
        -11    1    3    3    0    0 -0.14333569221E+02  0.79250412390E-01  0.66739565241E+00  0.14349317212E+02  0.51100000000E-03 0.  1.
         12    1    3    3    0    0 -0.67934631737E+01 -0.38929556693E+01  0.15542707623E+02  0.17403505566E+02  0.00000000000E+00 0. -1.
</event>
<event>
 7    1  0.3449452E-011  0.5052880E+02  0.7816164E-02  0.1300439E+00
        -11   -1    0    0    0    0  0.00000000000E+00  0.00000000000E+00  0.45593999997E+02  0.45594000000E+02  0.51100000000E-03 0. -1.
         11   -1    0    0    0    0 -0.00000000000E+00 -0.00000000000E+00 -0.45593999997E+02  0.45594000000E+02  0.51100000000E-03 0.  1.
    9900012    2    1    2    0    0  0.38299742010E+02  0.46312696695E+01  0.12839457847E+02  0.50528799631E+02  0.29999816959E+02 0.  0.
        -12    1    1    2    0    0 -0.38299742010E+02 -0.46312696695E+01 -0.12839457847E+02  0.40659200369E+02  0.00000000000E+00 0.  1.
         11    1    3    3    0    0  0.92013696732E+01 -0.43378495388E+01 -0.54757113425E+01  0.11552729437E+02  0.51100000000E-03 0. -1.
        -11    1    3    3    0    0  0.21524364109E+02  0.84503618337E+01  0.50143538724E+01  0.23661162491E+02  0.51100000000E-03 0.  1.
         12    1    3    3    0    0  0.75740082287E+01  0.51875737468E+00  0.13300815317E+02  0.15314907703E+02  0.00000000000E+00 0. -1.
</event>
<event>
 7    1  0.3449452E-011  0.5052886E+02  0.7816164E-02  0.1300439E+00
        -11   -1    0    0    0    0  0.00000000000E+00  0.00000000000E+00  0.45593999997E+02  0.45594000000E+02  0.51100000000E-03 0. -1.
         11   -1    0    0    0    0 -0.00000000000E+00 -0.00000000000E+00 -0.45593999997E+02  0.45594000000E+02  0.51100000000E-03 0.  1.
    9900012    2    1    2    0    0 -0.83014626454E+01  0.59380682169E+01  0.39357219824E+02  0.50528859718E+02  0.29999999600E+02 0.  0.
        -12    1    1    2    0    0  0.83014626454E+01 -0.59380682169E+01 -0.39357219824E+02  0.40659140282E+02  0.00000000000E+00 0.  1.
         11    1    3    3    0    0 -0.96969768458E+00  0.72136436890E+00  0.20310923041E+02  0.20346849270E+02  0.51100000000E-03 0. -1.
        -11    1    3    3    0    0  0.24046059427E+01 -0.70870607637E+01  0.42030640035E+01  0.85833738871E+01  0.51100000000E-03 0.  1.
         12    1    3    3    0    0 -0.97363709035E+01  0.12303764612E+02  0.14843232779E+02  0.21598636562E+02  0.00000000000E+00 0. -1.
</event>
<event>
 7    1  0.3449452E-011  0.5052885E+02  0.7816164E-02  0.1300439E+00
        -11   -1    0    0    0    0  0.00000000000E+00  0.00000000000E+00  0.45593999997E+02  0.45594000000E+02  0.51100000000E-03 0.  1.
         11   -1    0    0    0    0 -0.00000000000E+00 -0.00000000000E+00 -0.45593999997E+02  0.45594000000E+02  0.51100000000E-03 0. -1.
    9900012    2    1    2    0    0 -0.38936194332E+01 -0.33235914562E+02 -0.23095026541E+02  0.50528849246E+02  0.29999967768E+02 0.  0.
        -12    1    1    2    0    0  0.38936194332E+01  0.33235914562E+02  0.23095026541E+02  0.40659150754E+02  0.00000000000E+00 0.  1.
         11    1    3    3    0    0  0.54758666434E+01 -0.24023745972E+01 -0.69061339719E+00  0.60194240860E+01  0.51100000000E-03 0. -1.
        -11    1    3    3    0    0 -0.82517418151E+01 -0.29011171335E+01 -0.11625506079E+02  0.14548543414E+02  0.51100000000E-03 0.  1.
         12    1    3    3    0    0 -0.11177442615E+01 -0.27932422832E+02 -0.10778907065E+02  0.29960881746E+02  0.00000000000E+00 0. -1.
</event>
<event>
 7    1  0.3449452E-011  0.5052890E+02  0.7816164E-02  0.1300439E+00
        -11   -1    0    0    0    0  0.00000000000E+00  0.00000000000E+00  0.45593999997E+02  0.45594000000E+02  0.51100000000E-03 0. -1.
         11   -1    0    0    0    0 -0.00000000000E+00 -0.00000000000E+00 -0.45593999997E+02  0.45594000000E+02  0.51100000000E-03 0.  1.
    9900012    2    1    2    0    0 -0.35759073597E+02 -0.19343302350E+02 -0.53639237548E+00  0.50528900070E+02  0.30000122253E+02 0.  0.
        -12    1    1    2    0    0  0.35759073597E+02  0.19343302350E+02  0.53639237548E+00  0.40659099930E+02  0.00000000000E+00 0.  1.
         11    1    3    3    0    0 -0.46769015771E+01 -0.10304404450E+02 -0.23319703080E+01  0.11553884421E+02  0.51100000000E-03 0. -1.
        -11    1    3    3    0    0 -0.30627646485E+01  0.18578762304E+01 -0.68179298720E+01  0.77017140547E+01  0.51100000000E-03 0.  1.
        -12    1    3    3    0    0 -0.28019407372E+02 -0.10896774130E+02  0.86135078046E+01  0.31273301594E+02  0.00000000000E+00 0.  1.
</event>
<event>
 7    1  0.3449452E-011  0.5052887E+02  0.7816164E-02  0.1300439E+00
        -11   -1    0    0    0    0  0.00000000000E+00  0.00000000000E+00  0.45593999997E+02  0.45594000000E+02  0.51100000000E-03 0.  1.
         11   -1    0    0    0    0 -0.00000000000E+00 -0.00000000000E+00 -0.45593999997E+02  0.45594000000E+02  0.51100000000E-03 0. -1.
    9900012    2    1    2    0    0  0.32350890358E+02  0.24492879316E+02  0.25853009402E+01  0.50528867876E+02  0.30000024397E+02 0.  0.
        -12    1    1    2    0    0 -0.32350890358E+02 -0.24492879316E+02 -0.25853009402E+01  0.40659132124E+02  0.00000000000E+00 0.  1.
         11    1    3    3    0    0  0.40206057509E+01  0.48517709237E+01  0.14304533726E+01  0.64615128888E+01  0.51100000000E-03 0. -1.
        -11    1    3    3    0    0  0.18924160920E+02  0.49439847083E+01 -0.11337062645E+02  0.22607428890E+02  0.51100000000E-03 0.  1.
        -12    1    3    3    0    0  0.94061236863E+01  0.14697123684E+02  0.12491910212E+02  0.21459926098E+02  0.00000000000E+00 0.  1.
</event>
<event>
 7    1  0.3449452E-011  0.5052886E+02  0.7816164E-02  0.1300439E+00
        -11   -1    0    0    0    0  0.00000000000E+00  0.00000000000E+00  0.45593999997E+02  0.45594000000E+02  0.51100000000E-03 0.  1.
         11   -1    0    0    0    0 -0.00000000000E+00 -0.00000000000E+00 -0.45593999997E+02  0.45594000000E+02  0.51100000000E-03 0. -1.
    9900012    2    1    2    0    0  0.17008658099E+02  0.36913978759E+02  0.11087907724E+01  0.50528859636E+02  0.29999999350E+02 0.  0.
        -12    1    1    2    0    0 -0.17008658099E+02 -0.36913978759E+02 -0.11087907724E+01  0.40659140364E+02  0.00000000000E+00 0.  1.
         11    1    3    3    0    0 -0.14206617545E+01  0.28283457200E+01  0.42743170059E+01  0.53186093540E+01  0.51100000000E-03 0.  1.
        -11    1    3    3    0    0  0.17332985087E+02  0.15776222284E+02 -0.10205886216E+02  0.25563287646E+02  0.51100000000E-03 0. -1.
         12    1    3    3    0    0  0.10963347670E+01  0.18309410755E+02  0.70403599828E+01  0.19646962636E+02  0.00000000000E+00 0. -1.
</event>
<event>
 7    1  0.3449452E-011  0.5052885E+02  0.7816164E-02  0.1300439E+00
        -11   -1    0    0    0    0  0.00000000000E+00  0.00000000000E+00  0.45593999997E+02  0.45594000000E+02  0.51100000000E-03 0.  1.
         11   -1    0    0    0    0 -0.00000000000E+00 -0.00000000000E+00 -0.45593999997E+02  0.45594000000E+02  0.51100000000E-03 0. -1.
    9900012    2    1    2    0    0 -0.11506763070E+02  0.30446197524E+02 -0.24367802972E+02  0.50528851439E+02  0.29999974434E+02 0.  0.
        -12    1    1    2    0    0  0.11506763070E+02 -0.30446197524E+02  0.24367802972E+02  0.40659148561E+02  0.00000000000E+00 0.  1.
         11    1    3    3    0    0  0.39741527987E+01  0.55062753644E+01 -0.64226491416E+00  0.68209576554E+01  0.51100000000E-03 0.  1.
        -11    1    3    3    0    0 -0.61908504744E+01  0.25165031139E+02 -0.11502240521E+02  0.28353253061E+02  0.51100000000E-03 0. -1.
         12    1    3    3    0    0 -0.92900653940E+01 -0.22510897945E+00 -0.12223297536E+02  0.15354640723E+02  0.00000000000E+00 0. -1.
</event>
<event>
 7    1  0.3449452E-011  0.5052886E+02  0.7816164E-02  0.1300439E+00
        -11   -1    0    0    0    0  0.00000000000E+00  0.00000000000E+00  0.45593999997E+02  0.45594000000E+02  0.51100000000E-03 0. -1.
         11   -1    0    0    0    0 -0.00000000000E+00 -0.00000000000E+00 -0.45593999997E+02  0.45594000000E+02  0.51100000000E-03 0.  1.
    9900012    2    1    2    0    0  0.23655704135E+02 -0.21056860066E+02  0.25498665775E+02  0.50528860188E+02  0.30000001028E+02 0.  0.
        -12    1    1    2    0    0 -0.23655704135E+02  0.21056860066E+02 -0.25498665775E+02  0.40659139812E+02  0.00000000000E+00 0.  1.
         11    1    3    3    0    0  0.16535602329E+02 -0.13946433405E+01  0.53410662780E+01  0.17432675172E+02  0.51100000000E-03 0. -1.
        -11    1    3    3    0    0 -0.26695441583E+01 -0.20265240435E+01 -0.13470816984E+01  0.36121870211E+01  0.51100000000E-03 0.  1.
         12    1    3    3    0    0  0.97896459647E+01 -0.17635692682E+02  0.21504681195E+02  0.29483997995E+02  0.00000000000E+00 0. -1.
</event>
<event>
 7    1  0.3449452E-011  0.5052886E+02  0.7816164E-02  0.1300439E+00
        -11   -1    0    0    0    0  0.00000000000E+00  0.00000000000E+00  0.45593999997E+02  0.45594000000E+02  0.51100000000E-03 0. -1.
         11   -1    0    0    0    0 -0.00000000000E+00 -0.00000000000E+00 -0.45593999997E+02  0.45594000000E+02  0.51100000000E-03 0.  1.
    9900012    2    1    2    0    0  0.34572624468E+02  0.14553700187E+02  0.15687231656E+02  0.50528858484E+02  0.29999995849E+02 0.  0.
        -12    1    1    2    0    0 -0.34572624468E+02 -0.14553700187E+02 -0.15687231656E+02  0.40659141516E+02  0.00000000000E+00 0.  1.
         11    1    3    3    0    0  0.12757763125E+02 -0.14736078434E+01  0.35485993005E+01  0.13323835682E+02  0.51100000000E-03 0. -1.
        -11    1    3    3    0    0 -0.30785241622E+00 -0.38005984795E+01  0.56181986707E+01  0.67899542323E+01  0.51100000000E-03 0.  1.
         12    1    3    3    0    0  0.22122713760E+02  0.19827906510E+02  0.65204336846E+01  0.30415068570E+02  0.00000000000E+00 0. -1.
</event>
<event>
 7    1  0.3449452E-011  0.5052887E+02  0.7816164E-02  0.1300439E+00
        -11   -1    0    0    0    0  0.00000000000E+00  0.00000000000E+00  0.45593999997E+02  0.45594000000E+02  0.51100000000E-03 0.  1.
         11   -1    0    0    0    0 -0.00000000000E+00 -0.00000000000E+00 -0.45593999997E+02  0.45594000000E+02  0.51100000000E-03 0. -1.
    9900012    2    1    2    0    0  0.29946038267E+02 -0.18425343808E+02 -0.20418281914E+02  0.50528871398E+02  0.30000035102E+02 0.  0.
        -12    1    1    2    0    0 -0.29946038267E+02  0.18425343808E+02  0.20418281914E+02  0.40659128602E+02  0.00000000000E+00 0.  1.
         11    1    3    3    0    0  0.15050312697E+02  0.38916092602E+00 -0.10060782879E+02  0.18107531884E+02  0.51100000000E-03 0. -1.
        -11    1    3    3    0    0  0.10735716367E+02 -0.82652606995E+01 -0.14959657935E+02  0.20183198610E+02  0.51100000000E-03 0.  1.
        -12    1    3    3    0    0  0.41600092029E+01 -0.10549244034E+02  0.46021589001E+01  0.12238140905E+02  0.00000000000E+00 0.  1.
</event>
<event>
 7    1  0.3449452E-011  0.5052886E+02  0.7816164E-02  0.1300439E+00
        -11   -1    0    0    0    0  0.00000000000E+00  0.00000000000E+00  0.45593999997E+02  0.45594000000E+02  0.51100000000E-03 0. -1.
         11   -1    0    0    0    0 -0.00000000000E+00 -0.00000000000E+00 -0.45593999997E+02  0.45594000000E+02  0.51100000000E-03 0.  1.
    9900012    2    1    2    0    0 -0.26361710280E+02 -0.12191438722E+02  0.28453382312E+02  0.50528856969E+02  0.29999991243E+02 0.  0.
        -12    1    1    2    0    0  0.26361710280E+02  0.12191438722E+02 -0.28453382312E+02  0.40659143031E+02  0.00000000000E+00 0.  1.
         11    1    3    3    0    0 -0.67132392101E+01 -0.10686782511E+02  0.96425373705E+01  0.15882488103E+02  0.51100000000E-03 0. -1.
        -11    1    3    3    0    0 -0.17742426360E+02 -0.25523388222E+01  0.23918556868E+01  0.18083945932E+02  0.51100000000E-03 0.  1.
        -12    1    3    3    0    0 -0.19060447102E+01  0.10476826114E+01  0.16418989255E+02  0.16562422934E+02  0.00000000000E+00 0.  1.
</event>
<event>
 7    1  0.3449452E-011  0.5052886E+02  0.7816164E-02  0.1300439E+00
        -11   -1    0    0    0    0  0.00000000000E+00  0.00000000000E+00  0.45593999997E+02  0.45594000000E+02  0.51100000000E-03 0.  1.
         11   -1    0    0    0    0 -0.00000000000E+00 -0.00000000000E+00 -0.45593999997E+02  0.45594000000E+02  0.51100000000E-03 0. -1.
    9900012    2    1    2    0    0 -0.29045431092E+01 -0.20151224569E+01 -0.40505170548E+02  0.50528856744E+02  0.29999990559E+02 0.  0.
        -12    1    1    2    0    0  0.29045431092E+01  0.20151224569E+01  0.40505170548E+02  0.40659143256E+02  0.00000000000E+00 0.  1.
         11    1    3    3    0    0 -0.14428305044E+02  0.19076403077E+01 -0.23312292893E+02  0.27482323013E+02  0.51100000000E-03 0. -1.
        -11    1    3    3    0    0  0.91687099659E+00 -0.41885166895E+01 -0.76818416391E+01  0.87974437033E+01  0.51100000000E-03 0.  1.
        -12    1    3    3    0    0  0.10606890939E+02  0.26575392497E+00 -0.95110360160E+01  0.14249090028E+02  0.00000000000E+00 0.  1.
</event>
<event>
 7    1  0.3449452E-011  0.5052886E+02  0.7816164E-02  0.1300439E+00
        -11   -1    0    0    0    0  0.00000000000E+00  0.00000000000E+00  0.45593999997E+02  0.45594000000E+02  0.51100000000E-03 0.  1.
         11   -1    0    0    0    0 -0.00000000000E+00 -0.00000000000E+00 -0.45593999997E+02  0.45594000000E+02  0.51100000000E-03 0. -1.
    9900012    2    1    2    0    0 -0.35475709387E+02 -0.85370128881E+01 -0.17937644954E+02  0.50528860166E+02  0.30000000960E+02 0.  0.
        -12    1    1    2    0    0  0.35475709387E+02  0.85370128881E+01  0.17937644954E+02  0.40659139834E+02  0.00000000000E+00 0.  1.
         11    1    3    3    0    0 -0.72935874634E+01 -0.55419119307E+01  0.39757090215E+01  0.99857632867E+01  0.51100000000E-03 0. -1.
        -11    1    3    3    0    0 -0.22495717037E+02 -0.60115286383E+01 -0.24321062947E+02  0.33670608321E+02  0.51100000000E-03 0.  1.
         12    1    3    3    0    0 -0.56864048868E+01  0.30164276809E+01  0.24077089716E+01  0.68724885582E+01  0.00000000000E+00 0. -1.
</event>
<event>
 7    1  0.3449452E-011  0.5052886E+02  0.7816164E-02  0.1300439E+00
        -11   -1    0    0    0    0  0.00000000000E+00  0.00000000000E+00  0.45593999997E+02  0.45594000000E+02  0.51100000000E-03 0. -1.
         11   -1    0    0    0    0 -0.00000000000E+00 -0.00000000000E+00 -0.45593999997E+02  0.45594000000E+02  0.51100000000E-03 0.  1.
    9900012    2    1    2    0    0 -0.30145107277E+02 -0.17316805445E+02  0.21084737669E+02  0.50528863190E+02  0.30000010152E+02 0.  0.
        -12    1    1    2    0    0  0.30145107277E+02  0.17316805445E+02 -0.21084737669E+02  0.40659136810E+02  0.00000000000E+00 0.  1.
         11    1    3    3    0    0  0.25244302585E+01 -0.11993659903E+01  0.14275250789E+01  0.31383204140E+01  0.51100000000E-03 0. -1.
        -11    1    3    3    0    0 -0.10999552481E+02 -0.17214102393E+02  0.14605616554E+02  0.25112536932E+02  0.51100000000E-03 0.  1.
         12    1    3    3    0    0 -0.21669985054E+02  0.10966629380E+01  0.50515960366E+01  0.22278005844E+02  0.00000000000E+00 0. -1.
</event>
<event>
 7    1  0.3449452E-011  0.5052886E+02  0.7816164E-02  0.1300439E+00
        -11   -1    0    0    0    0  0.00000000000E+00  0.00000000000E+00  0.45593999997E+02  0.45594000000E+02  0.51100000000E-03 0.  1.
         11   -1    0    0    0    0 -0.00000000000E+00 -0.00000000000E+00 -0.45593999997E+02  0.45594000000E+02  0.51100000000E-03 0. -1.
    9900012    2    1    2    0    0 -0.35566756378E+02  0.64782751368E+01 -0.18606541775E+02  0.50528860747E+02  0.30000002725E+02 0.  0.
        -12    1    1    2    0    0  0.35566756378E+02 -0.64782751368E+01  0.18606541775E+02  0.40659139253E+02  0.00000000000E+00 0.  1.
         11    1    3    3    0    0 -0.21510944965E+02  0.13095821398E+02 -0.12034277895E+02  0.27911380046E+02  0.51100000000E-03 0. -1.
        -11    1    3    3    0    0 -0.16306336356E+02 -0.21670894524E+01 -0.63263676633E+01  0.17624296018E+02  0.51100000000E-03 0.  1.
         12    1    3    3    0    0  0.22505249432E+01 -0.44504568085E+01 -0.24589621731E+00  0.49931846826E+01  0.00000000000E+00 0. -1.
</event>
<event>
 7    1  0.3449452E-011  0.5052886E+02  0.7816164E-02  0.1300439E+00
        -11   -1    0    0    0    0  0.00000000000E+00  0.00000000000E+00  0.45593999997E+02  0.45594000000E+02  0.51100000000E-03 0.  1.
         11   -1    0    0    0    0 -0.00000000000E+00 -0.00000000000E+00 -0.45593999997E+02  0.45594000000E+02  0.51100000000E-03 0. -1.
    9900012    2    1    2    0    0  0.37675047057E+02  0.15045110516E+02 -0.27204999439E+01  0.50528860301E+02  0.30000001370E+02 0.  0.
        -12    1    1    2    0    0 -0.37675047057E+02 -0.15045110516E+02  0.27204999439E+01  0.40659139699E+02  0.00000000000E+00 0.  1.
         11    1    3    3    0    0  0.30684452133E+02  0.14599810278E+02 -0.61176665363E+01  0.34527031540E+02  0.51100000000E-03 0. -1.
        -11    1    3    3    0    0  0.57076844265E+01 -0.62028891758E+01  0.62200819368E-02  0.84293258680E+01  0.51100000000E-03 0.  1.
         12    1    3    3    0    0  0.12829104974E+01  0.66481894136E+01  0.33909465105E+01  0.75725028927E+01  0.00000000000E+00 0. -1.
</event>
<event>
 7    1  0.3449452E-011  0.5052888E+02  0.7816164E-02  0.1300439E+00
        -11   -1    0    0    0    0  0.00000000000E+00  0.00000000000E+00  0.45593999997E+02  0.45594000000E+02  0.51100000000E-03 0.  1.
         11   -1    0    0    0    0 -0.00000000000E+00 -0.00000000000E+00 -0.45593999997E+02  0.45594000000E+02  0.51100000000E-03 0. -1.
    9900012    2    1    2    0    0  0.39334446205E+02  0.10115430524E+02 -0.19086930470E+01  0.50528884145E+02  0.30000073847E+02 0.  0.
        -12    1    1    2    0    0 -0.39334446205E+02 -0.10115430524E+02  0.19086930470E+01  0.40659115855E+02  0.00000000000E+00 0.  1.
         11    1    3    3    0    0  0.17136325895E+02  0.14304554509E+02 -0.91840740900E+01  0.24137546728E+02  0.51100000000E-03 0. -1.
        -11    1    3    3    0    0  0.13044764920E+02  0.26759484534E+01  0.10302422967E+01  0.13356196742E+02  0.51100000000E-03 0.  1.
        -12    1    3    3    0    0  0.91533553896E+01 -0.68650724382E+01  0.62451387463E+01  0.13035140676E+02  0.00000000000E+00 0.  1.
</event>
<event>
 7    1  0.4695349E-011  0.5052886E+02  0.7816164E-02  0.1300439E+00
        -11   -1    0    0    0    0  0.00000000000E+00  0.00000000000E+00  0.45593999997E+02  0.45594000000E+02  0.51100000000E-03 0.  1.
         11   -1    0    0    0    0 -0.00000000000E+00 -0.00000000000E+00 -0.45593999997E+02  0.45594000000E+02  0.51100000000E-03 0. -1.
    9900012    2    1    2    0    0  0.23353047629E+02 -0.26454538624E+02  0.20197976233E+02  0.50528859684E+02  0.29999999494E+02 0.  0.
        -12    1    1    2    0    0 -0.23353047629E+02  0.26454538624E+02 -0.20197976233E+02  0.40659140316E+02  0.00000000000E+00 0.  1.
         11    1    3    3    0    0  0.14269436815E+02 -0.11493581118E+02  0.74726466591E+01  0.19787867047E+02  0.51100000000E-03 0. -1.
        -11    1    3    3    0    0  0.11511802582E+02 -0.50010340369E+01  0.15668054886E+02  0.20075355147E+02  0.51100000000E-03 0.  1.
        -12    1    3    3    0    0 -0.24281917675E+01 -0.99599234694E+01 -0.29427253128E+01  0.10665637489E+02  0.00000000000E+00 0.  1.
</event>
<event>
 7    1  0.3449452E-011  0.5052886E+02  0.7816164E-02  0.1300439E+00
        -11   -1    0    0    0    0  0.00000000000E+00  0.00000000000E+00  0.45593999997E+02  0.45594000000E+02  0.51100000000E-03 0.  1.
         11   -1    0    0    0    0 -0.00000000000E+00 -0.00000000000E+00 -0.45593999997E+02  0.45594000000E+02  0.51100000000E-03 0. -1.
    9900012    2    1    2    0    0  0.21613900937E+02  0.24586289077E+02 -0.24114716527E+02  0.50528857394E+02  0.29999992535E+02 0.  0.
        -12    1    1    2    0    0 -0.21613900937E+02 -0.24586289077E+02  0.24114716527E+02  0.40659142606E+02  0.00000000000E+00 0.  1.
         11    1    3    3    0    0  0.13553699038E+02  0.18135356121E+02 -0.25535125318E+02  0.34126771375E+02  0.51100000000E-03 0. -1.
        -11    1    3    3    0    0  0.69407639279E+01  0.86861385772E+01 -0.28281341744E+01  0.11472643569E+02  0.51100000000E-03 0.  1.
         12    1    3    3    0    0  0.11194379706E+01 -0.22352056217E+01  0.42485429650E+01  0.49294424499E+01  0.00000000000E+00 0. -1.
</event>
<event>
 7    1  0.3449452E-011  0.5052888E+02  0.7816164E-02  0.1300439E+00
        -11   -1    0    0    0    0  0.00000000000E+00  0.00000000000E+00  0.45593999997E+02  0.45594000000E+02  0.51100000000E-03 0. -1.
         11   -1    0    0    0    0 -0.00000000000E+00 -0.00000000000E+00 -0.45593999997E+02  0.45594000000E+02  0.51100000000E-03 0.  1.
    9900012    2    1    2    0    0  0.39902563506E+02 -0.74940563955E+01  0.21883500079E+01  0.50528876407E+02  0.30000050325E+02 0.  0.
        -12    1    1    2    0    0 -0.39902563506E+02  0.74940563955E+01 -0.21883500079E+01  0.40659123593E+02  0.00000000000E+00 0.  1.
         11    1    3    3    0    0  0.10694770940E+02  0.17199338082E+01  0.57771452916E+01  0.12276469596E+02  0.51100000000E-03 0. -1.
        -11    1    3    3    0    0  0.24827812827E+02 -0.13161516576E+02  0.42745679130E+01  0.28423893813E+02  0.51100000000E-03 0.  1.
        -12    1    3    3    0    0  0.43799797387E+01  0.39475263726E+01 -0.78633631968E+01  0.98285129973E+01  0.00000000000E+00 0.  1.
</event>
<event>
 7    1  0.3449452E-011  0.5052886E+02  0.7816164E-02  0.1300439E+00
        -11   -1    0    0    0    0  0.00000000000E+00  0.00000000000E+00  0.45593999997E+02  0.45594000000E+02  0.51100000000E-03 0. -1.
         11   -1    0    0    0    0 -0.00000000000E+00 -0.00000000000E+00 -0.45593999997E+02  0.45594000000E+02  0.51100000000E-03 0.  1.
    9900012    2    1    2    0    0  0.34032324462E+02 -0.19589476767E+02  0.10546028839E+02  0.50528862865E+02  0.30000009165E+02 0.  0.
        -12    1    1    2    0    0 -0.34032324462E+02  0.19589476767E+02 -0.10546028839E+02  0.40659137135E+02  0.00000000000E+00 0.  1.
         11    1    3    3    0    0  0.34222004659E+01 -0.15678130026E+01 -0.54013223337E+01  0.65835990806E+01  0.51100000000E-03 0. -1.
        -11    1    3    3    0    0  0.21554196651E+02 -0.17027618461E+02  0.23377761820E+01  0.27567886779E+02  0.51100000000E-03 0.  1.
         12    1    3    3    0    0  0.90559273453E+01 -0.99404530329E+00  0.13609574991E+02  0.16377377006E+02  0.00000000000E+00 0. -1.
</event>
<event>
 7    1  0.3449452E-011  0.5052886E+02  0.7816164E-02  0.1300439E+00
        -11   -1    0    0    0    0  0.00000000000E+00  0.00000000000E+00  0.45593999997E+02  0.45594000000E+02  0.51100000000E-03 0.  1.
         11   -1    0    0    0    0 -0.00000000000E+00 -0.00000000000E+00 -0.45593999997E+02  0.45594000000E+02  0.51100000000E-03 0. -1.
    9900012    2    1    2    0    0 -0.21039260877E+00  0.38448815478E+02 -0.13221566532E+02  0.50528862057E+02  0.30000006709E+02 0.  0.
        -12    1    1    2    0    0  0.21039260877E+00 -0.38448815478E+02  0.13221566532E+02  0.40659137943E+02  0.00000000000E+00 0.  1.
         11    1    3    3    0    0 -0.63511082184E+01  0.11219696778E+02 -0.89978094615E+01  0.15721919309E+02  0.51100000000E-03 0. -1.
        -11    1    3    3    0    0  0.38585936196E+01 -0.22320325673E+01  0.15098461960E+01  0.47064158231E+01  0.51100000000E-03 0.  1.
        -12    1    3    3    0    0  0.22821219900E+01  0.29461151267E+02 -0.57336032669E+01  0.30100526925E+02  0.00000000000E+00 0.  1.
</event>
<event>
 7    1  0.3449452E-011  0.5052883E+02  0.7816164E-02  0.1300439E+00
        -11   -1    0    0    0    0  0.00000000000E+00  0.00000000000E+00  0.45593999997E+02  0.45594000000E+02  0.51100000000E-03 0.  1.
         11   -1    0    0    0    0 -0.00000000000E+00 -0.00000000000E+00 -0.45593999997E+02  0.45594000000E+02  0.51100000000E-03 0. -1.
    9900012    2    1    2    0    0  0.14357897089E+02 -0.36696266559E+02 -0.10020114547E+02  0.50528832723E+02  0.29999917543E+02 0.  0.
        -12    1    1    2    0    0 -0.14357897089E+02  0.36696266559E+02  0.10020114547E+02  0.40659167277E+02  0.00000000000E+00 0.  1.
         11    1    3    3    0    0  0.14078866249E+01  0.12612737882E+00 -0.26168225609E+01  0.29741912246E+01  0.51100000000E-03 0. -1.
        -11    1    3    3    0    0  0.18392945290E+02 -0.22172379375E+02  0.27162384032E+01  0.28936012077E+02  0.51100000000E-03 0.  1.
         12    1    3    3    0    0 -0.54429348266E+01 -0.14650014563E+02 -0.10119530389E+02  0.18618629421E+02  0.00000000000E+00 0. -1.
</event>
<event>
 7    1  0.3449452E-011  0.5052887E+02  0.7816164E-02  0.1300439E+00
        -11   -1    0    0    0    0  0.00000000000E+00  0.00000000000E+00  0.45593999997E+02  0.45594000000E+02  0.51100000000E-03 0.  1.
         11   -1    0    0    0    0 -0.00000000000E+00 -0.00000000000E+00 -0.45593999997E+02  0.45594000000E+02  0.51100000000E-03 0. -1.
    9900012    2    1    2    0    0 -0.17421919425E+02  0.36507966612E+02 -0.40999890409E+01  0.50528870487E+02  0.30000032333E+02 0.  0.
        -12    1    1    2    0    0  0.17421919425E+02 -0.36507966612E+02  0.40999890409E+01  0.40659129513E+02  0.00000000000E+00 0.  1.
         11    1    3    3    0    0 -0.17779475022E+02  0.10351394354E+02 -0.40848974417E+01  0.20974925137E+02  0.51100000000E-03 0. -1.
        -11    1    3    3    0    0  0.35958862678E+01  0.75588416414E+00 -0.13456319764E+01  0.39131169925E+01  0.51100000000E-03 0.  1.
        -12    1    3    3    0    0 -0.32383306710E+01  0.25400688094E+02  0.13305403772E+01  0.25640828358E+02  0.00000000000E+00 0.  1.
</event>
<event>
 7    1  0.3449452E-011  0.5052887E+02  0.7816164E-02  0.1300439E+00
        -11   -1    0    0    0    0  0.00000000000E+00  0.00000000000E+00  0.45593999997E+02  0.45594000000E+02  0.51100000000E-03 0.  1.
         11   -1    0    0    0    0 -0.00000000000E+00 -0.00000000000E+00 -0.45593999997E+02  0.45594000000E+02  0.51100000000E-03 0. -1.
    9900012    2    1    2    0    0  0.33637975824E+02 -0.19452694819E+02 -0.11968456240E+02  0.50528871898E+02  0.30000036621E+02 0.  0.
        -12    1    1    2    0    0 -0.33637975824E+02  0.19452694819E+02  0.11968456240E+02  0.40659128102E+02  0.00000000000E+00 0.  1.
         11    1    3    3    0    0  0.10594004290E+02 -0.12492081604E+02  0.54304445810E+01  0.17256151318E+02  0.51100000000E-03 0. -1.
        -11    1    3    3    0    0 -0.16911247107E+01 -0.28026401225E+01 -0.22231315464E+01  0.39568938041E+01  0.51100000000E-03 0.  1.
         12    1    3    3    0    0  0.24735096244E+02 -0.41579730926E+01 -0.15175769275E+02  0.29315826776E+02  0.00000000000E+00 0. -1.
</event>
<event>
 7    1  0.3449452E-011  0.5052886E+02  0.7816164E-02  0.1300439E+00
        -11   -1    0    0    0    0  0.00000000000E+00  0.00000000000E+00  0.45593999997E+02  0.45594000000E+02  0.51100000000E-03 0. -1.
         11   -1    0    0    0    0 -0.00000000000E+00 -0.00000000000E+00 -0.45593999997E+02  0.45594000000E+02  0.51100000000E-03 0.  1.
    9900012    2    1    2    0    0  0.35183182549E+02 -0.65997413923E+01  0.19280893919E+02  0.50528858456E+02  0.29999995763E+02 0.  0.
        -12    1    1    2    0    0 -0.35183182549E+02  0.65997413923E+01 -0.19280893919E+02  0.40659141544E+02  0.00000000000E+00 0.  1.
         11    1    3    3    0    0  0.92933336850E+01  0.15345708637E+01  0.12533091707E+02  0.15677989243E+02  0.51100000000E-03 0. -1.
        -11    1    3    3    0    0  0.16565734984E+01 -0.30929588691E+00  0.91208443454E+01  0.92752197567E+01  0.51100000000E-03 0.  1.
         12    1    3    3    0    0  0.24233275366E+02 -0.78250163690E+01 -0.23730421328E+01  0.25575649456E+02  0.00000000000E+00 0. -1.
</event>
<event>
 7    1  0.3449452E-011  0.5052886E+02  0.7816164E-02  0.1300439E+00
        -11   -1    0    0    0    0  0.00000000000E+00  0.00000000000E+00  0.45593999997E+02  0.45594000000E+02  0.51100000000E-03 0. -1.
         11   -1    0    0    0    0 -0.00000000000E+00 -0.00000000000E+00 -0.45593999997E+02  0.45594000000E+02  0.51100000000E-03 0.  1.
    9900012    2    1    2    0    0  0.33528143743E+01 -0.39921405620E+02  0.69430357240E+01  0.50528859133E+02  0.29999997822E+02 0.  0.
        -12    1    1    2    0    0 -0.33528143743E+01  0.39921405620E+02 -0.69430357240E+01  0.40659140867E+02  0.00000000000E+00 0.  1.
         11    1    3    3    0    0 -0.48031642638E+01 -0.21495659847E+02  0.81263987190E+01  0.23477055514E+02  0.51100000000E-03 0. -1.
        -11    1    3    3    0    0  0.12823233189E+01  0.13124832641E+01  0.49421892801E+01  0.52718308541E+01  0.51100000000E-03 0.  1.
         12    1    3    3    0    0  0.68736553192E+01 -0.19738229038E+02 -0.61255522751E+01  0.21779972766E+02  0.00000000000E+00 0. -1.
</event>
<event>
 7    1  0.3449452E-011  0.5052886E+02  0.7816164E-02  0.1300439E+00
        -11   -1    0    0    0    0  0.00000000000E+00  0.00000000000E+00  0.45593999997E+02  0.45594000000E+02  0.51100000000E-03 0.  1.
         11   -1    0    0    0    0 -0.00000000000E+00 -0.00000000000E+00 -0.45593999997E+02  0.45594000000E+02  0.51100000000E-03 0. -1.
    9900012    2    1    2    0    0  0.24520087277E+01 -0.15791371043E+02 -0.37386972075E+02  0.50528862931E+02  0.30000009366E+02 0.  0.
        -12    1    1    2    0    0 -0.24520087277E+01  0.15791371043E+02  0.37386972075E+02  0.40659137069E+02  0.00000000000E+00 0.  1.
         11    1    3    3    0    0  0.45168190388E+01 -0.12234826398E+02 -0.11749164372E+02  0.17553788621E+02  0.51100000000E-03 0. -1.
        -11    1    3    3    0    0  0.25981470321E+01 -0.77494760521E+01 -0.25418597101E+02  0.26700371269E+02  0.51100000000E-03 0.  1.
        -12    1    3    3    0    0 -0.46629573431E+01  0.41929314072E+01 -0.21921060198E+00  0.62747030413E+01  0.00000000000E+00 0.  1.
</event>
<event>
 7    1  0.3449452E-011  0.5052886E+02  0.7816164E-02  0.1300439E+00
        -11   -1    0    0    0    0  0.00000000000E+00  0.00000000000E+00  0.45593999997E+02  0.45594000000E+02  0.51100000000E-03 0. -1.
         11   -1    0    0    0    0 -0.00000000000E+00 -0.00000000000E+00 -0.45593999997E+02  0.45594000000E+02  0.51100000000E-03 0.  1.
    9900012    2    1    2    0    0  0.94291912317E+00  0.34954669244E+02  0.20747227982E+02  0.50528862437E+02  0.30000007863E+02 0.  0.
        -12    1    1    2    0    0 -0.94291912317E+00 -0.34954669244E+02 -0.20747227982E+02  0.40659137563E+02  0.00000000000E+00 0.  1.
         11    1    3    3    0    0  0.23419496096E+01  0.23530391954E+01  0.78047544430E+01  0.84814924162E+01  0.51100000000E-03 0. -1.
        -11    1    3    3    0    0 -0.75926035738E+01  0.25084372428E+02  0.17272571846E+02  0.31388136414E+02  0.51100000000E-03 0.  1.
        -12    1    3    3    0    0  0.61935730873E+01  0.75172576207E+01 -0.43300983066E+01  0.10659233606E+02  0.00000000000E+00 0.  1.
</event>
<event>
 7    1  0.3449452E-011  0.5052885E+02  0.7816164E-02  0.1300439E+00
        -11   -1    0    0    0    0  0.00000000000E+00  0.00000000000E+00  0.45593999997E+02  0.45594000000E+02  0.51100000000E-03 0. -1.
         11   -1    0    0    0    0 -0.00000000000E+00 -0.00000000000E+00 -0.45593999997E+02  0.45594000000E+02  0.51100000000E-03 0.  1.
    9900012    2    1    2    0    0 -0.11196900985E+02 -0.31253009866E+02  0.23474345745E+02  0.50528854343E+02  0.29999983262E+02 0.  0.
        -12    1    1    2    0    0  0.11196900985E+02  0.31253009866E+02 -0.23474345745E+02  0.40659145657E+02  0.00000000000E+00 0.  1.
         11    1    3    3    0    0 -0.34638736677E+00 -0.15417490954E+02  0.19186351611E+02  0.24615749023E+02  0.51100000000E-03 0. -1.
        -11    1    3    3    0    0  0.18576270432E+01  0.21280244726E+01  0.26084109177E+01  0.38448763523E+01  0.51100000000E-03 0.  1.
         12    1    3    3    0    0 -0.12708140662E+02 -0.17963543385E+02  0.16795832158E+01  0.22068228968E+02  0.00000000000E+00 0. -1.
</event>
<event>
 7    1  0.3449452E-011  0.5052886E+02  0.7816164E-02  0.1300439E+00
        -11   -1    0    0    0    0  0.00000000000E+00  0.00000000000E+00  0.45593999997E+02  0.45594000000E+02  0.51100000000E-03 0.  1.
         11   -1    0    0    0    0 -0.00000000000E+00 -0.00000000000E+00 -0.45593999997E+02  0.45594000000E+02  0.51100000000E-03 0. -1.
    9900012    2    1    2    0    0  0.15243641132E+02  0.37613724115E+02 -0.24504076294E+01  0.50528864074E+02  0.30000012838E+02 0.  0.
        -12    1    1    2    0    0 -0.15243641132E+02 -0.37613724115E+02  0.24504076294E+01  0.40659135926E+02  0.00000000000E+00 0.  1.
         11    1    3    3    0    0  0.51156629782E+01  0.20718099321E+02  0.32884361686E+01  0.21592208314E+02  0.51100000000E-03 0. -1.
        -11    1    3    3    0    0  0.37046849748E+01  0.14827189593E+02  0.51491061729E+01  0.16127105650E+02  0.51100000000E-03 0.  1.
         12    1    3    3    0    0  0.64232931792E+01  0.20684352002E+01 -0.10887949971E+02  0.12809550110E+02  0.00000000000E+00 0. -1.
</event>
<event>
 7    1  0.3449452E-011  0.5052886E+02  0.7816164E-02  0.1300439E+00
        -11   -1    0    0    0    0  0.00000000000E+00  0.00000000000E+00  0.45593999997E+02  0.45594000000E+02  0.51100000000E-03 0.  1.
         11   -1    0    0    0    0 -0.00000000000E+00 -0.00000000000E+00 -0.45593999997E+02  0.45594000000E+02  0.51100000000E-03 0. -1.
    9900012    2    1    2    0    0  0.18012138225E+02 -0.25146025089E+02 -0.26389500463E+02  0.50528862824E+02  0.30000009039E+02 0.  0.
        -12    1    1    2    0    0 -0.18012138225E+02  0.25146025089E+02  0.26389500463E+02  0.40659137176E+02  0.00000000000E+00 0.  1.
         11    1    3    3    0    0  0.17399739589E+02 -0.17204998331E+02 -0.19342427418E+02  0.31191223189E+02  0.51100000000E-03 0. -1.
        -11    1    3    3    0    0  0.43756675190E+01  0.36125224348E+01 -0.98743018097E+00  0.57594967838E+01  0.51100000000E-03 0.  1.
         12    1    3    3    0    0 -0.37632688831E+01 -0.11553549193E+02 -0.60596428640E+01  0.13578142851E+02  0.00000000000E+00 0. -1.
</event>
<event>
 7    1  0.3449452E-011  0.5052887E+02  0.7816164E-02  0.1300439E+00
        -11   -1    0    0    0    0  0.00000000000E+00  0.00000000000E+00  0.45593999997E+02  0.45594000000E+02  0.51100000000E-03 0.  1.
         11   -1    0    0    0    0 -0.00000000000E+00 -0.00000000000E+00 -0.45593999997E+02  0.45594000000E+02  0.51100000000E-03 0. -1.
    9900012    2    1    2    0    0 -0.27717292262E+02  0.22493913367E+02 -0.19466400208E+02  0.50528866143E+02  0.30000019130E+02 0.  0.
        -12    1    1    2    0    0  0.27717292262E+02 -0.22493913367E+02  0.19466400208E+02  0.40659133857E+02  0.00000000000E+00 0.  1.
         11    1    3    3    0    0 -0.85551385582E+01  0.10954193484E+02 -0.18905674930E+02  0.23465065427E+02  0.51100000000E-03 0. -1.
        -11    1    3    3    0    0 -0.27992430549E+01 -0.32998341734E+01  0.21081322752E+01  0.48134072343E+01  0.51100000000E-03 0.  1.
        -12    1    3    3    0    0 -0.16362910649E+02  0.14839554056E+02 -0.26688575531E+01  0.22250393483E+02  0.00000000000E+00 0.  1.
</event>
<event>
 7    1  0.3449452E-011  0.5052887E+02  0.7816164E-02  0.1300439E+00
        -11   -1    0    0    0    0  0.00000000000E+00  0.00000000000E+00  0.45593999997E+02  0.45594000000E+02  0.51100000000E-03 0. -1.
         11   -1    0    0    0    0 -0.00000000000E+00 -0.00000000000E+00 -0.45593999997E+02  0.45594000000E+02  0.51100000000E-03 0.  1.
    9900012    2    1    2    0    0  0.28421548154E+02 -0.17998286511E+02  0.22835111161E+02  0.50528867957E+02  0.30000024641E+02 0.  0.
        -12    1    1    2    0    0 -0.28421548154E+02  0.17998286511E+02 -0.22835111161E+02  0.40659132043E+02  0.00000000000E+00 0.  1.
         11    1    3    3    0    0  0.63482027649E+01  0.55658156771E+01  0.67796823987E+01  0.10827838020E+02  0.51100000000E-03 0. -1.
        -11    1    3    3    0    0  0.13653672294E+02 -0.12492435998E+02  0.17806486839E+02  0.25681797018E+02  0.51100000000E-03 0.  1.
        -12    1    3    3    0    0  0.84196730945E+01 -0.11071666190E+02 -0.17510580762E+01  0.14019232919E+02  0.00000000000E+00 0.  1.
</event>
<event>
 7    1  0.3449452E-011  0.5052888E+02  0.7816164E-02  0.1300439E+00
        -11   -1    0    0    0    0  0.00000000000E+00  0.00000000000E+00  0.45593999997E+02  0.45594000000E+02  0.51100000000E-03 0. -1.
         11   -1    0    0    0    0 -0.00000000000E+00 -0.00000000000E+00 -0.45593999997E+02  0.45594000000E+02  0.51100000000E-03 0.  1.
    9900012    2    1    2    0    0  0.39110277509E+02  0.14318871210E+01  0.11022704509E+02  0.50528878978E+02  0.30000058142E+02 0.  0.
        -12    1    1    2    0    0 -0.39110277509E+02 -0.14318871210E+01 -0.11022704509E+02  0.40659121022E+02  0.00000000000E+00 0.  1.
         11    1    3    3    0    0  0.38121367328E+02  0.72673473817E+00  0.14453199376E+02  0.40775749690E+02  0.51100000000E-03 0. -1.
        -11    1    3    3    0    0 -0.25528369343E+01 -0.14609010643E+01  0.15047939057E+01  0.33038785227E+01  0.51100000000E-03 0.  1.
        -12    1    3    3    0    0  0.35417471161E+01  0.21660534471E+01 -0.49352887728E+01  0.64492507659E+01  0.00000000000E+00 0.  1.
</event>
<event>
 7    1  0.3449452E-011  0.5052887E+02  0.7816164E-02  0.1300439E+00
        -11   -1    0    0    0    0  0.00000000000E+00  0.00000000000E+00  0.45593999997E+02  0.45594000000E+02  0.51100000000E-03 0.  1.
         11   -1    0    0    0    0 -0.00000000000E+00 -0.00000000000E+00 -0.45593999997E+02  0.45594000000E+02  0.51100000000E-03 0. -1.
    9900012    2    1    2    0    0 -0.84656070866E+01 -0.36817083225E+02 -0.15033333559E+02  0.50528865252E+02  0.30000016420E+02 0.  0.
        -12    1    1    2    0    0  0.84656070866E+01  0.36817083225E+02  0.15033333559E+02  0.40659134748E+02  0.00000000000E+00 0.  1.
         11    1    3    3    0    0  0.27199988539E+01 -0.70626813926E+00 -0.26026616345E+01  0.38302814902E+01  0.51100000000E-03 0. -1.
        -11    1    3    3    0    0  0.89029093549E+00 -0.47664738480E+01 -0.12177659822E+02  0.13107527986E+02  0.51100000000E-03 0.  1.
        -12    1    3    3    0    0 -0.12075896876E+02 -0.31344341238E+02 -0.25301210237E+00  0.33591055776E+02  0.00000000000E+00 0.  1.
</event>
<event>
 7    1  0.3449452E-011  0.5052885E+02  0.7816164E-02  0.1300439E+00
        -11   -1    0    0    0    0  0.00000000000E+00  0.00000000000E+00  0.45593999997E+02  0.45594000000E+02  0.51100000000E-03 0.  1.
         11   -1    0    0    0    0 -0.00000000000E+00 -0.00000000000E+00 -0.45593999997E+02  0.45594000000E+02  0.51100000000E-03 0. -1.
    9900012    2    1    2    0    0 -0.31013827851E+02  0.68110171968E+01 -0.25395248586E+02  0.50528854362E+02  0.29999983320E+02 0.  0.
        -12    1    1    2    0    0  0.31013827851E+02 -0.68110171968E+01  0.25395248586E+02  0.40659145638E+02  0.00000000000E+00 0.  1.
         11    1    3    3    0    0 -0.11698743267E+01 -0.45861520018E+01 -0.10627129254E+02  0.11633454885E+02  0.51100000000E-03 0. -1.
        -11    1    3    3    0    0 -0.97569746629E+01  0.12509875401E+02 -0.64959995676E+01  0.17143323708E+02  0.51100000000E-03 0.  1.
         12    1    3    3    0    0 -0.20086978861E+02 -0.11127062020E+01 -0.82721197642E+01  0.21752075769E+02  0.00000000000E+00 0. -1.
</event>
<event>
 7    1  0.3449452E-011  0.5052886E+02  0.7816164E-02  0.1300439E+00
        -11   -1    0    0    0    0  0.00000000000E+00  0.00000000000E+00  0.45593999997E+02  0.45594000000E+02  0.51100000000E-03 0.  1.
         11   -1    0    0    0    0 -0.00000000000E+00 -0.00000000000E+00 -0.45593999997E+02  0.45594000000E+02  0.51100000000E-03 0. -1.
    9900012    2    1    2    0    0 -0.29681837250E+02 -0.27403605860E+02 -0.46039983963E+01  0.50528857389E+02  0.29999992518E+02 0.  0.
        -12    1    1    2    0    0  0.29681837250E+02  0.27403605860E+02  0.46039983963E+01  0.40659142611E+02  0.00000000000E+00 0.  1.
         11    1    3    3    0    0 -0.40861289244E+01  0.30209071741E-01  0.23842812111E+01  0.47309786862E+01  0.51100000000E-03 0. -1.
        -11    1    3    3    0    0 -0.23721380331E+02 -0.31987753161E+02 -0.39678016496E+01  0.40020790689E+02  0.51100000000E-03 0.  1.
         12    1    3    3    0    0 -0.18743279938E+01  0.45539382294E+01 -0.30204779578E+01  0.57770880138E+01  0.00000000000E+00 0. -1.
</event>
<event>
 7    1  0.3449452E-011  0.5052884E+02  0.7816164E-02  0.1300439E+00
        -11   -1    0    0    0    0  0.00000000000E+00  0.00000000000E+00  0.45593999997E+02  0.45594000000E+02  0.51100000000E-03 0.  1.
         11   -1    0    0    0    0 -0.00000000000E+00 -0.00000000000E+00 -0.45593999997E+02  0.45594000000E+02  0.51100000000E-03 0. -1.
    9900012    2    1    2    0    0  0.14747706659E+02  0.25126001020E+02 -0.28361173739E+02  0.50528844145E+02  0.29999952262E+02 0.  0.
        -12    1    1    2    0    0 -0.14747706659E+02 -0.25126001020E+02  0.28361173739E+02  0.40659155855E+02  0.00000000000E+00 0.  1.
         11    1    3    3    0    0  0.19396716516E+01 -0.53152165887E+00  0.94980237842E+00  0.22241776479E+01  0.51100000000E-03 0. -1.
        -11    1    3    3    0    0  0.94734756756E+01 -0.26906506486E+01 -0.78100319448E+01  0.12569126522E+02  0.51100000000E-03 0.  1.
         12    1    3    3    0    0  0.33345593322E+01  0.28348173328E+02 -0.21500944173E+02  0.35735539975E+02  0.00000000000E+00 0. -1.
</event>
<event>
 7    1  0.3449452E-011  0.5052887E+02  0.7816164E-02  0.1300439E+00
        -11   -1    0    0    0    0  0.00000000000E+00  0.00000000000E+00  0.45593999997E+02  0.45594000000E+02  0.51100000000E-03 0.  1.
         11   -1    0    0    0    0 -0.00000000000E+00 -0.00000000000E+00 -0.45593999997E+02  0.45594000000E+02  0.51100000000E-03 0. -1.
    9900012    2    1    2    0    0 -0.21972903519E+02  0.72344975402E+01 -0.33436786698E+02  0.50528866359E+02  0.30000019784E+02 0.  0.
        -12    1    1    2    0    0  0.21972903519E+02 -0.72344975402E+01  0.33436786698E+02  0.40659133641E+02  0.00000000000E+00 0.  1.
         11    1    3    3    0    0 -0.59011250998E+00 -0.39641133981E+01  0.88164563118E+00  0.41036236533E+01  0.51100000000E-03 0. -1.
        -11    1    3    3    0    0 -0.24395472704E+02  0.10304114380E+02 -0.24358439941E+02  0.35981209794E+02  0.51100000000E-03 0.  1.
         12    1    3    3    0    0  0.30126816944E+01  0.89449655876E+00 -0.99599923885E+01  0.10444032912E+02  0.00000000000E+00 0. -1.
</event>
<event>
 7    1  0.3449452E-011  0.5052887E+02  0.7816164E-02  0.1300439E+00
        -11   -1    0    0    0    0  0.00000000000E+00  0.00000000000E+00  0.45593999997E+02  0.45594000000E+02  0.51100000000E-03 0. -1.
         11   -1    0    0    0    0 -0.00000000000E+00 -0.00000000000E+00 -0.45593999997E+02  0.45594000000E+02  0.51100000000E-03 0.  1.
    9900012    2    1    2    0    0  0.10121354443E+02 -0.85280330497E+01  0.38444712752E+02  0.50528866930E+02  0.30000021520E+02 0.  0.
        -12    1    1    2    0    0 -0.10121354443E+02  0.85280330497E+01 -0.38444712752E+02  0.40659133070E+02  0.00000000000E+00 0.  1.
         11    1    3    3    0    0  0.26991377272E+01  0.45652489653E+00  0.24679989561E+02  0.24831343992E+02  0.51100000000E-03 0. -1.
        -11    1    3    3    0    0 -0.19892721688E+01 -0.92461242509E+01  0.13235756131E+02  0.16267552307E+02  0.51100000000E-03 0.  1.
         12    1    3    3    0    0  0.94114888841E+01  0.26156630472E+00  0.52896705910E+00  0.94299706308E+01  0.00000000000E+00 0. -1.
</event>
<event>
 7    1  0.3449452E-011  0.5052886E+02  0.7816164E-02  0.1300439E+00
        -11   -1    0    0    0    0  0.00000000000E+00  0.00000000000E+00  0.45593999997E+02  0.45594000000E+02  0.51100000000E-03 0.  1.
         11   -1    0    0    0    0 -0.00000000000E+00 -0.00000000000E+00 -0.45593999997E+02  0.45594000000E+02  0.51100000000E-03 0. -1.
    9900012    2    1    2    0    0  0.15223488268E+01 -0.21236230896E+02 -0.34639152560E+02  0.50528856641E+02  0.29999990247E+02 0.  0.
        -12    1    1    2    0    0 -0.15223488268E+01  0.21236230896E+02  0.34639152560E+02  0.40659143359E+02  0.00000000000E+00 0.  1.
         11    1    3    3    0    0  0.27567633996E+00 -0.19349276074E+02 -0.24305529383E+02  0.31068138677E+02  0.51100000000E-03 0. -1.
        -11    1    3    3    0    0  0.62202367522E+01 -0.10346749117E+01 -0.12475766728E+02  0.13978792979E+02  0.51100000000E-03 0.  1.
        -12    1    3    3    0    0 -0.49735642654E+01 -0.85227991033E+00  0.21421435515E+01  0.54819249851E+01  0.00000000000E+00 0.  1.
</event>
<event>
 7    1  0.3449452E-011  0.5052885E+02  0.7816164E-02  0.1300439E+00
        -11   -1    0    0    0    0  0.00000000000E+00  0.00000000000E+00  0.45593999997E+02  0.45594000000E+02  0.51100000000E-03 0. -1.
         11   -1    0    0    0    0 -0.00000000000E+00 -0.00000000000E+00 -0.45593999997E+02  0.45594000000E+02  0.51100000000E-03 0.  1.
    9900012    2    1    2    0    0 -0.11467166681E+02  0.19345013400E+00  0.39008118594E+02  0.50528847883E+02  0.29999963626E+02 0.  0.
        -12    1    1    2    0    0  0.11467166681E+02 -0.19345013400E+00 -0.39008118594E+02  0.40659152117E+02  0.00000000000E+00 0.  1.
         11    1    3    3    0    0  0.55356925354E+01  0.92145737103E+00  0.77385640617E+01  0.95592023481E+01  0.51100000000E-03 0. -1.
        -11    1    3    3    0    0 -0.12837971260E+02 -0.96916818735E+01  0.23087216852E+02  0.28138261955E+02  0.51100000000E-03 0.  1.
         12    1    3    3    0    0 -0.41648879565E+01  0.89636746365E+01  0.81823376797E+01  0.12831383580E+02  0.00000000000E+00 0. -1.
</event>
<event>
 7    1  0.3449452E-011  0.5052886E+02  0.7816164E-02  0.1300439E+00
        -11   -1    0    0    0    0  0.00000000000E+00  0.00000000000E+00  0.45593999997E+02  0.45594000000E+02  0.51100000000E-03 0.  1.
         11   -1    0    0    0    0 -0.00000000000E+00 -0.00000000000E+00 -0.45593999997E+02  0.45594000000E+02  0.51100000000E-03 0. -1.
    9900012    2    1    2    0    0  0.14585254976E+02 -0.30721564872E+02 -0.22285008819E+02  0.50528857990E+02  0.29999994345E+02 0.  0.
        -12    1    1    2    0    0 -0.14585254976E+02  0.30721564872E+02  0.22285008819E+02  0.40659142010E+02  0.00000000000E+00 0.  1.
         11    1    3    3    0    0  0.11792013384E+02 -0.15572035843E+02 -0.63532542909E+01  0.20540295039E+02  0.51100000000E-03 0. -1.
        -11    1    3    3    0    0 -0.43449855061E+01 -0.52312822939E+01  0.30183341757E+01  0.74401313795E+01  0.51100000000E-03 0.  1.
        -12    1    3    3    0    0  0.71382270991E+01 -0.99182467357E+01 -0.18950088704E+02  0.22548431571E+02  0.00000000000E+00 0.  1.
</event>
<event>
 7    1  0.3449452E-011  0.5052886E+02  0.7816164E-02  0.1300439E+00
        -11   -1    0    0    0    0  0.00000000000E+00  0.00000000000E+00  0.45593999997E+02  0.45594000000E+02  0.51100000000E-03 0.  1.
         11   -1    0    0    0    0 -0.00000000000E+00 -0.00000000000E+00 -0.45593999997E+02  0.45594000000E+02  0.51100000000E-03 0. -1.
    9900012    2    1    2    0    0  0.13046769021E+02  0.13033046941E+02 -0.36236541671E+02  0.50528862691E+02  0.30000008634E+02 0.  0.
        -12    1    1    2    0    0 -0.13046769021E+02 -0.13033046941E+02  0.36236541671E+02  0.40659137309E+02  0.00000000000E+00 0.  1.
         11    1    3    3    0    0 -0.60154742059E+01  0.49413735542E+01 -0.17874946202E+01  0.79873800337E+01  0.51100000000E-03 0.  1.
        -11    1    3    3    0    0 -0.15125176786E+01  0.35417301738E+01 -0.62058145723E+01  0.73036769588E+01  0.51100000000E-03 0. -1.
        -12    1    3    3    0    0  0.20574760906E+02  0.45499432128E+01 -0.28243232479E+02  0.35237805698E+02  0.00000000000E+00 0.  1.
</event>
<event>
 7    1  0.3449452E-011  0.5052892E+02  0.7816164E-02  0.1300439E+00
        -11   -1    0    0    0    0  0.00000000000E+00  0.00000000000E+00  0.45593999997E+02  0.45594000000E+02  0.51100000000E-03 0.  1.
         11   -1    0    0    0    0 -0.00000000000E+00 -0.00000000000E+00 -0.45593999997E+02  0.45594000000E+02  0.51100000000E-03 0. -1.
    9900012    2    1    2    0    0 -0.17364250443E+02  0.15695707172E+02 -0.33245875809E+02  0.50528921366E+02  0.30000186985E+02 0.  0.
        -12    1    1    2    0    0  0.17364250443E+02 -0.15695707172E+02  0.33245875809E+02  0.40659078634E+02  0.00000000000E+00 0.  1.
         11    1    3    3    0    0 -0.10010513744E+01 -0.32795692630E+01 -0.11348466494E-01  0.34289659453E+01  0.51100000000E-03 0. -1.
        -11    1    3    3    0    0  0.48943063483E+01  0.79435593212E+01 -0.10954331743E+02  0.14389293017E+02  0.51100000000E-03 0.  1.
         12    1    3    3    0    0 -0.21257505417E+02  0.11031717113E+02 -0.22280195599E+02  0.32710662405E+02  0.00000000000E+00 0. -1.
</event>
<event>
 7    1  0.3449452E-011  0.5052887E+02  0.7816164E-02  0.1300439E+00
        -11   -1    0    0    0    0  0.00000000000E+00  0.00000000000E+00  0.45593999997E+02  0.45594000000E+02  0.51100000000E-03 0.  1.
         11   -1    0    0    0    0 -0.00000000000E+00 -0.00000000000E+00 -0.45593999997E+02  0.45594000000E+02  0.51100000000E-03 0. -1.
    9900012    2    1    2    0    0 -0.28495047430E+02 -0.28064412253E+02 -0.73202402011E+01  0.50528869663E+02  0.30000029828E+02 0.  0.
        -12    1    1    2    0    0  0.28495047430E+02  0.28064412253E+02  0.73202402011E+01  0.40659130337E+02  0.00000000000E+00 0.  1.
         11    1    3    3    0    0 -0.98850326133E+01 -0.25549522007E+02 -0.38484771449E+01  0.27664105283E+02  0.51100000000E-03 0. -1.
        -11    1    3    3    0    0  0.41738844065E+00 -0.30534190111E+01  0.11281789267E+01  0.32818239927E+01  0.51100000000E-03 0.  1.
        -12    1    3    3    0    0 -0.19027403258E+02  0.53852876492E+00 -0.45999419829E+01  0.19582940387E+02  0.00000000000E+00 0.  1.
</event>
<event>
 7    1  0.3449452E-011  0.5052885E+02  0.7816164E-02  0.1300439E+00
        -11   -1    0    0    0    0  0.00000000000E+00  0.00000000000E+00  0.45593999997E+02  0.45594000000E+02  0.51100000000E-03 0.  1.
         11   -1    0    0    0    0 -0.00000000000E+00 -0.00000000000E+00 -0.45593999997E+02  0.45594000000E+02  0.51100000000E-03 0. -1.
    9900012    2    1    2    0    0  0.31898517463E+01 -0.33051995486E+02 -0.23463957938E+02  0.50528845042E+02  0.29999954991E+02 0.  0.
        -12    1    1    2    0    0 -0.31898517463E+01  0.33051995486E+02  0.23463957938E+02  0.40659154958E+02  0.00000000000E+00 0.  1.
         11    1    3    3    0    0  0.13911246207E+00 -0.14351349051E+02 -0.44801346441E+01  0.15035031711E+02  0.51100000000E-03 0. -1.
        -11    1    3    3    0    0  0.48752344112E+01 -0.18729428321E+02 -0.23605443634E+02  0.30525012124E+02  0.51100000000E-03 0.  1.
         12    1    3    3    0    0 -0.18244951269E+01  0.28781886632E-01  0.46216203398E+01  0.49688012066E+01  0.00000000000E+00 0. -1.
</event>
<event>
 7    1  0.3449452E-011  0.5052887E+02  0.7816164E-02  0.1300439E+00
        -11   -1    0    0    0    0  0.00000000000E+00  0.00000000000E+00  0.45593999997E+02  0.45594000000E+02  0.51100000000E-03 0.  1.
         11   -1    0    0    0    0 -0.00000000000E+00 -0.00000000000E+00 -0.45593999997E+02  0.45594000000E+02  0.51100000000E-03 0. -1.
    9900012    2    1    2    0    0  0.26582608066E+01 -0.19955118937E+02 -0.35325516413E+02  0.50528865329E+02  0.30000016655E+02 0.  0.
        -12    1    1    2    0    0 -0.26582608066E+01  0.19955118937E+02  0.35325516413E+02  0.40659134671E+02  0.00000000000E+00 0.  1.
         11    1    3    3    0    0  0.57035250185E+01  0.10937326481E+01 -0.80236062285E+01  0.99047819720E+01  0.51100000000E-03 0. -1.
        -11    1    3    3    0    0 -0.72638936333E+01  0.79728241940E+00 -0.10266744565E+02  0.12601819480E+02  0.51100000000E-03 0.  1.
         12    1    3    3    0    0  0.42186294214E+01 -0.21846134004E+02 -0.17035165620E+02  0.28022263877E+02  0.00000000000E+00 0. -1.
</event>
<event>
 7    1  0.3449452E-011  0.5052887E+02  0.7816164E-02  0.1300439E+00
        -11   -1    0    0    0    0  0.00000000000E+00  0.00000000000E+00  0.45593999997E+02  0.45594000000E+02  0.51100000000E-03 0.  1.
         11   -1    0    0    0    0 -0.00000000000E+00 -0.00000000000E+00 -0.45593999997E+02  0.45594000000E+02  0.51100000000E-03 0. -1.
    9900012    2    1    2    0    0  0.21389522294E+02  0.34578202240E+02 -0.28489620089E-01  0.50528873770E+02  0.30000042312E+02 0.  0.
        -12    1    1    2    0    0 -0.21389522294E+02 -0.34578202240E+02  0.28489620089E-01  0.40659126230E+02  0.00000000000E+00 0.  1.
         11    1    3    3    0    0 -0.88858746097E+00  0.53899211261E+01 -0.11152082466E+01  0.55753499546E+01  0.51100000000E-03 0. -1.
        -11    1    3    3    0    0 -0.45853631981E+00  0.20105015947E+02 -0.22806667685E+01  0.20239154206E+02  0.51100000000E-03 0.  1.
         12    1    3    3    0    0  0.22736646075E+02  0.90832651661E+01  0.33673853950E+01  0.24714369610E+02  0.00000000000E+00 0. -1.
</event>
<event>
 7    1  0.3449452E-011  0.5052886E+02  0.7816164E-02  0.1300439E+00
        -11   -1    0    0    0    0  0.00000000000E+00  0.00000000000E+00  0.45593999997E+02  0.45594000000E+02  0.51100000000E-03 0. -1.
         11   -1    0    0    0    0 -0.00000000000E+00 -0.00000000000E+00 -0.45593999997E+02  0.45594000000E+02  0.51100000000E-03 0.  1.
    9900012    2    1    2    0    0 -0.16179958441E+02 -0.29036106114E+02  0.23415358166E+02  0.50528861895E+02  0.30000006215E+02 0.  0.
        -12    1    1    2    0    0  0.16179958441E+02  0.29036106114E+02 -0.23415358166E+02  0.40659138105E+02  0.00000000000E+00 0.  1.
         11    1    3    3    0    0  0.14706189592E+01 -0.25220126128E+01  0.12489042895E+02  0.12825734304E+02  0.51100000000E-03 0. -1.
        -11    1    3    3    0    0 -0.22545307998E+01  0.20862139642E+01 -0.79333833680E+00  0.31724728224E+01  0.51100000000E-03 0.  1.
        -12    1    3    3    0    0 -0.15396046601E+02 -0.28600307465E+02  0.11719653607E+02  0.34530654768E+02  0.00000000000E+00 0.  1.
</event>
<event>
 7    1  0.3449452E-011  0.5052886E+02  0.7816164E-02  0.1300439E+00
        -11   -1    0    0    0    0  0.00000000000E+00  0.00000000000E+00  0.45593999997E+02  0.45594000000E+02  0.51100000000E-03 0.  1.
         11   -1    0    0    0    0 -0.00000000000E+00 -0.00000000000E+00 -0.45593999997E+02  0.45594000000E+02  0.51100000000E-03 0. -1.
    9900012    2    1    2    0    0 -0.28067144297E+02 -0.17450715754E+02 -0.23682769336E+02  0.50528860403E+02  0.30000001682E+02 0.  0.
        -12    1    1    2    0    0  0.28067144297E+02  0.17450715754E+02  0.23682769336E+02  0.40659139597E+02  0.00000000000E+00 0.  1.
         11    1    3    3    0    0 -0.74332164956E+01 -0.10162323902E+02 -0.87554967932E+01  0.15335718402E+02  0.51100000000E-03 0. -1.
        -11    1    3    3    0    0 -0.21647248352E+02 -0.49517496908E+01 -0.19763404127E+02  0.29727349851E+02  0.51100000000E-03 0.  1.
        -12    1    3    3    0    0  0.10133205504E+01 -0.23366421614E+01  0.48361315844E+01  0.54657921502E+01  0.00000000000E+00 0.  1.
</event>
<event>
 7    1  0.3449452E-011  0.5052883E+02  0.7816164E-02  0.1300439E+00
        -11   -1    0    0    0    0  0.00000000000E+00  0.00000000000E+00  0.45593999997E+02  0.45594000000E+02  0.51100000000E-03 0.  1.
         11   -1    0    0    0    0 -0.00000000000E+00 -0.00000000000E+00 -0.45593999997E+02  0.45594000000E+02  0.51100000000E-03 0. -1.
    9900012    2    1    2    0    0  0.14598411004E+00  0.14902372378E+02 -0.37829429319E+02  0.50528834534E+02  0.29999923048E+02 0.  0.
        -12    1    1    2    0    0 -0.14598411004E+00 -0.14902372378E+02  0.37829429319E+02  0.40659165466E+02  0.00000000000E+00 0.  1.
         11    1    3    3    0    0 -0.70601217897E+01  0.17841027420E+02 -0.23932350922E+02  0.30674174806E+02  0.51100000000E-03 0. -1.
        -11    1    3    3    0    0  0.28313328064E+01  0.41879814766E+01 -0.22918800541E+01  0.55505268896E+01  0.51100000000E-03 0.  1.
        -12    1    3    3    0    0  0.43747730934E+01 -0.71266365188E+01 -0.11605198342E+02  0.14304132838E+02  0.00000000000E+00 0.  1.
</event>
<event>
 7    1  0.3449452E-011  0.5052887E+02  0.7816164E-02  0.1300439E+00
        -11   -1    0    0    0    0  0.00000000000E+00  0.00000000000E+00  0.45593999997E+02  0.45594000000E+02  0.51100000000E-03 0.  1.
         11   -1    0    0    0    0 -0.00000000000E+00 -0.00000000000E+00 -0.45593999997E+02  0.45594000000E+02  0.51100000000E-03 0. -1.
    9900012    2    1    2    0    0 -0.35388454866E+02 -0.58811891129E+01  0.19137234051E+02  0.50528870025E+02  0.30000030928E+02 0.  0.
        -12    1    1    2    0    0  0.35388454866E+02  0.58811891129E+01 -0.19137234051E+02  0.40659129975E+02  0.00000000000E+00 0.  1.
         11    1    3    3    0    0 -0.13295126708E+02 -0.87590539311E+01 -0.44579815035E+00  0.15927339898E+02  0.51100000000E-03 0. -1.
        -11    1    3    3    0    0 -0.18688378321E+02 -0.46363325850E+01  0.91992717562E+01  0.21339579781E+02  0.51100000000E-03 0.  1.
        -12    1    3    3    0    0 -0.34049498366E+01  0.75141974032E+01  0.10383760446E+02  0.13261950347E+02  0.00000000000E+00 0.  1.
</event>
<event>
 7    1  0.3449452E-011  0.5052886E+02  0.7816164E-02  0.1300439E+00
        -11   -1    0    0    0    0  0.00000000000E+00  0.00000000000E+00  0.45593999997E+02  0.45594000000E+02  0.51100000000E-03 0.  1.
         11   -1    0    0    0    0 -0.00000000000E+00 -0.00000000000E+00 -0.45593999997E+02  0.45594000000E+02  0.51100000000E-03 0. -1.
    9900012    2    1    2    0    0 -0.28101399390E+02 -0.23172477339E+02 -0.18069688329E+02  0.50528856009E+02  0.29999988326E+02 0.  0.
        -12    1    1    2    0    0  0.28101399390E+02  0.23172477339E+02  0.18069688329E+02  0.40659143991E+02  0.00000000000E+00 0.  1.
         11    1    3    3    0    0 -0.27402542689E+01  0.92185489831E+00 -0.98423345114E+01  0.10258184966E+02  0.51100000000E-03 0. -1.
        -11    1    3    3    0    0  0.11924783584E+01 -0.25590641577E+01 -0.52394865073E+01  0.59517252222E+01  0.51100000000E-03 0.  1.
         12    1    3    3    0    0 -0.26553623480E+02 -0.21535268080E+02 -0.29878673107E+01  0.34318945821E+02  0.00000000000E+00 0. -1.
</event>
<event>
 7    1  0.3449452E-011  0.5052884E+02  0.7816164E-02  0.1300439E+00
        -11   -1    0    0    0    0  0.00000000000E+00  0.00000000000E+00  0.45593999997E+02  0.45594000000E+02  0.51100000000E-03 0.  1.
         11   -1    0    0    0    0 -0.00000000000E+00 -0.00000000000E+00 -0.45593999997E+02  0.45594000000E+02  0.51100000000E-03 0. -1.
    9900012    2    1    2    0    0 -0.19712465178E+01  0.20177591617E+02 -0.35244100149E+02  0.50528836069E+02  0.29999927715E+02 0.  0.
        -12    1    1    2    0    0  0.19712465178E+01 -0.20177591617E+02  0.35244100149E+02  0.40659163931E+02  0.00000000000E+00 0.  1.
         11    1    3    3    0    0 -0.33339890918E+01 -0.27773324208E+01 -0.17245588648E+01  0.46693856319E+01  0.51100000000E-03 0. -1.
        -11    1    3    3    0    0  0.67590861237E+00  0.10639471887E+02 -0.56918791809E+00  0.10676103673E+02  0.51100000000E-03 0.  1.
         12    1    3    3    0    0  0.68683396169E+00  0.12315452150E+02 -0.32950353366E+02  0.35183346764E+02  0.00000000000E+00 0. -1.
</event>
<event>
 7    1  0.3449452E-011  0.5052886E+02  0.7816164E-02  0.1300439E+00
        -11   -1    0    0    0    0  0.00000000000E+00  0.00000000000E+00  0.45593999997E+02  0.45594000000E+02  0.51100000000E-03 0. -1.
         11   -1    0    0    0    0 -0.00000000000E+00 -0.00000000000E+00 -0.45593999997E+02  0.45594000000E+02  0.51100000000E-03 0.  1.
    9900012    2    1    2    0    0 -0.70838635896E+01 -0.36598475879E+02  0.16233795200E+02  0.50528859987E+02  0.30000000416E+02 0.  0.
        -12    1    1    2    0    0  0.70838635896E+01  0.36598475879E+02 -0.16233795200E+02  0.40659140013E+02  0.00000000000E+00 0.  1.
         11    1    3    3    0    0  0.32025590003E+01 -0.63481544313E+00  0.78990030820E+00  0.33590649823E+01  0.51100000000E-03 0.  1.
        -11    1    3    3    0    0 -0.19701525444E+01 -0.24429414604E+02 -0.20864957779E+01  0.24597383272E+02  0.51100000000E-03 0. -1.
         12    1    3    3    0    0 -0.83162700454E+01 -0.11534245831E+02  0.17530390670E+02  0.22572411732E+02  0.00000000000E+00 0. -1.
</event>
<event>
 7    1  0.3449452E-011  0.5052886E+02  0.7816164E-02  0.1300439E+00
        -11   -1    0    0    0    0  0.00000000000E+00  0.00000000000E+00  0.45593999997E+02  0.45594000000E+02  0.51100000000E-03 0.  1.
         11   -1    0    0    0    0 -0.00000000000E+00 -0.00000000000E+00 -0.45593999997E+02  0.45594000000E+02  0.51100000000E-03 0. -1.
    9900012    2    1    2    0    0  0.22322997817E+02 -0.10428422883E+02 -0.32343433223E+02  0.50528857018E+02  0.29999991392E+02 0.  0.
        -12    1    1    2    0    0 -0.22322997817E+02  0.10428422883E+02  0.32343433223E+02  0.40659142982E+02  0.00000000000E+00 0.  1.
         11    1    3    3    0    0  0.55261041437E+01 -0.32621651979E+01 -0.18071112300E+02  0.19176669388E+02  0.51100000000E-03 0. -1.
        -11    1    3    3    0    0 -0.18787995392E+01 -0.88668830652E+01 -0.34338764925E+01  0.96924202873E+01  0.51100000000E-03 0.  1.
        -12    1    3    3    0    0  0.18675693213E+02  0.17006253804E+01 -0.10838444431E+02  0.21659767343E+02  0.00000000000E+00 0.  1.
</event>
<event>
 7    1  0.3449452E-011  0.5052886E+02  0.7816164E-02  0.1300439E+00
        -11   -1    0    0    0    0  0.00000000000E+00  0.00000000000E+00  0.45593999997E+02  0.45594000000E+02  0.51100000000E-03 0. -1.
         11   -1    0    0    0    0 -0.00000000000E+00 -0.00000000000E+00 -0.45593999997E+02  0.45594000000E+02  0.51100000000E-03 0.  1.
    9900012    2    1    2    0    0  0.39559971987E+02  0.75891562383E+01 -0.55298541141E+01  0.50528856348E+02  0.29999989354E+02 0.  0.
        -12    1    1    2    0    0 -0.39559971987E+02 -0.75891562383E+01  0.55298541141E+01  0.40659143652E+02  0.00000000000E+00 0.  1.
         11    1    3    3    0    0  0.16404753525E+02  0.71000525013E+01 -0.11719076246E+02  0.21374363898E+02  0.51100000000E-03 0. -1.
        -11    1    3    3    0    0 -0.14398613876E+01  0.13547613875E+01 -0.23808591704E+01  0.30946841330E+01  0.51100000000E-03 0.  1.
         12    1    3    3    0    0  0.24595079849E+02 -0.86565765047E+00  0.85700813021E+01  0.26059808317E+02  0.00000000000E+00 0. -1.
</event>
<event>
 7    1  0.3449452E-011  0.5052885E+02  0.7816164E-02  0.1300439E+00
        -11   -1    0    0    0    0  0.00000000000E+00  0.00000000000E+00  0.45593999997E+02  0.45594000000E+02  0.51100000000E-03 0.  1.
         11   -1    0    0    0    0 -0.00000000000E+00 -0.00000000000E+00 -0.45593999997E+02  0.45594000000E+02  0.51100000000E-03 0. -1.
    9900012    2    1    2    0    0 -0.19182746406E+02  0.25099821070E+02 -0.25596631058E+02  0.50528852210E+02  0.29999976779E+02 0.  0.
        -12    1    1    2    0    0  0.19182746406E+02 -0.25099821070E+02  0.25596631058E+02  0.40659147790E+02  0.00000000000E+00 0.  1.
         11    1    3    3    0    0 -0.53372895823E+01  0.96293900586E+01  0.27714611530E+00  0.11013111423E+02  0.51100000000E-03 0.  1.
        -11    1    3    3    0    0  0.37030773457E+01  0.11186191432E+02 -0.10923798874E+02  0.16067764085E+02  0.51100000000E-03 0. -1.
         12    1    3    3    0    0 -0.17548534170E+02  0.42842395794E+01 -0.14949978299E+02  0.23447976702E+02  0.00000000000E+00 0. -1.
</event>
<event>
 7    1  0.3449452E-011  0.5052885E+02  0.7816164E-02  0.1300439E+00
        -11   -1    0    0    0    0  0.00000000000E+00  0.00000000000E+00  0.45593999997E+02  0.45594000000E+02  0.51100000000E-03 0.  1.
         11   -1    0    0    0    0 -0.00000000000E+00 -0.00000000000E+00 -0.45593999997E+02  0.45594000000E+02  0.51100000000E-03 0. -1.
    9900012    2    1    2    0    0  0.14848966551E+02 -0.55998286909E+01 -0.37434159339E+02  0.50528853742E+02  0.29999981434E+02 0.  0.
        -12    1    1    2    0    0 -0.14848966551E+02  0.55998286909E+01  0.37434159339E+02  0.40659146258E+02  0.00000000000E+00 0.  1.
         11    1    3    3    0    0  0.37002051793E+01 -0.44777190349E+01 -0.27371008109E-01  0.58088067240E+01  0.51100000000E-03 0.  1.
        -11    1    3    3    0    0  0.73615559702E+01 -0.51949187645E+00 -0.26897257028E+00  0.73847630034E+01  0.51100000000E-03 0. -1.
         12    1    3    3    0    0  0.37872054016E+01 -0.60261777957E+00 -0.37137815761E+02  0.37335284014E+02  0.00000000000E+00 0. -1.
</event>
<event>
 7    1  0.3449452E-011  0.5052887E+02  0.7816164E-02  0.1300439E+00
        -11   -1    0    0    0    0  0.00000000000E+00  0.00000000000E+00  0.45593999997E+02  0.45594000000E+02  0.51100000000E-03 0.  1.
         11   -1    0    0    0    0 -0.00000000000E+00 -0.00000000000E+00 -0.45593999997E+02  0.45594000000E+02  0.51100000000E-03 0. -1.
    9900012    2    1    2    0    0  0.28487803174E+02 -0.22275036936E+02 -0.18585829454E+02  0.50528865028E+02  0.30000015739E+02 0.  0.
        -12    1    1    2    0    0 -0.28487803174E+02  0.22275036936E+02  0.18585829454E+02  0.40659134972E+02  0.00000000000E+00 0.  1.
         11    1    3    3    0    0  0.66173674900E+01 -0.14312795422E+02 -0.10901540890E+02  0.19170009373E+02  0.51100000000E-03 0. -1.
        -11    1    3    3    0    0 -0.35958866750E+01 -0.24358171916E+01 -0.10351373643E+01  0.44648758095E+01  0.51100000000E-03 0.  1.
        -12    1    3    3    0    0  0.25466322359E+02 -0.55264243218E+01 -0.66491511994E+01  0.26893979846E+02  0.00000000000E+00 0.  1.
</event>
<event>
 7    1  0.3449452E-011  0.5052886E+02  0.7816164E-02  0.1300439E+00
        -11   -1    0    0    0    0  0.00000000000E+00  0.00000000000E+00  0.45593999997E+02  0.45594000000E+02  0.51100000000E-03 0. -1.
         11   -1    0    0    0    0 -0.00000000000E+00 -0.00000000000E+00 -0.45593999997E+02  0.45594000000E+02  0.51100000000E-03 0.  1.
    9900012    2    1    2    0    0 -0.28268079804E+01  0.34099344192E+02  0.21963828737E+02  0.50528857234E+02  0.29999992049E+02 0.  0.
        -12    1    1    2    0    0  0.28268079804E+01 -0.34099344192E+02 -0.21963828737E+02  0.40659142766E+02  0.00000000000E+00 0.  1.
         11    1    3    3    0    0  0.29343887020E+01  0.19564397802E+02  0.23037302618E+02  0.30365994312E+02  0.51100000000E-03 0. -1.
        -11    1    3    3    0    0  0.38312747017E+01  0.23461084431E+01  0.71598298064E+00  0.45492331833E+01  0.51100000000E-03 0.  1.
         12    1    3    3    0    0 -0.95924713841E+01  0.12188837947E+02 -0.17894568616E+01  0.15613629738E+02  0.00000000000E+00 0. -1.
</event>
<event>
 7    1  0.3449452E-011  0.5052885E+02  0.7816164E-02  0.1300439E+00
        -11   -1    0    0    0    0  0.00000000000E+00  0.00000000000E+00  0.45593999997E+02  0.45594000000E+02  0.51100000000E-03 0.  1.
         11   -1    0    0    0    0 -0.00000000000E+00 -0.00000000000E+00 -0.45593999997E+02  0.45594000000E+02  0.51100000000E-03 0. -1.
    9900012    2    1    2    0    0 -0.22841909335E+02  0.29261854698E+02 -0.16587870253E+02  0.50528850944E+02  0.29999972930E+02 0.  0.
        -12    1    1    2    0    0  0.22841909335E+02 -0.29261854698E+02  0.16587870253E+02  0.40659149056E+02  0.00000000000E+00 0.  1.
         11    1    3    3    0    0  0.27412043502E+01  0.64464095639E+01  0.53663492309E+00  0.70255515696E+01  0.51100000000E-03 0.  1.
        -11    1    3    3    0    0 -0.38418496461E+01 -0.32562979018E+01  0.82406989910E+00  0.51031731490E+01  0.51100000000E-03 0. -1.
        -12    1    3    3    0    0 -0.21741264039E+02  0.26071743036E+02 -0.17948575076E+02  0.38400126226E+02  0.00000000000E+00 0.  1.
</event>
<event>
 7    1  0.3449452E-011  0.5052888E+02  0.7816164E-02  0.1300439E+00
        -11   -1    0    0    0    0  0.00000000000E+00  0.00000000000E+00  0.45593999997E+02  0.45594000000E+02  0.51100000000E-03 0.  1.
         11   -1    0    0    0    0 -0.00000000000E+00 -0.00000000000E+00 -0.45593999997E+02  0.45594000000E+02  0.51100000000E-03 0. -1.
    9900012    2    1    2    0    0  0.49385683094E+01 -0.30105557302E+02 -0.26878064805E+02  0.50528875500E+02  0.30000047571E+02 0.  0.
        -12    1    1    2    0    0 -0.49385683094E+01  0.30105557302E+02  0.26878064805E+02  0.40659124500E+02  0.00000000000E+00 0.  1.
         11    1    3    3    0    0 -0.50162138504E+01 -0.47692966721E+01 -0.12514074292E+02  0.14300721932E+02  0.51100000000E-03 0. -1.
        -11    1    3    3    0    0  0.33910307732E+01  0.27039059617E+01 -0.86200391870E+00  0.44219054910E+01  0.51100000000E-03 0.  1.
         12    1    3    3    0    0  0.65637513866E+01 -0.28040166592E+02 -0.13501986595E+02  0.31806248077E+02  0.00000000000E+00 0. -1.
</event>
<event>
 7    1  0.3449452E-011  0.5052886E+02  0.7816164E-02  0.1300439E+00
        -11   -1    0    0    0    0  0.00000000000E+00  0.00000000000E+00  0.45593999997E+02  0.45594000000E+02  0.51100000000E-03 0.  1.
         11   -1    0    0    0    0 -0.00000000000E+00 -0.00000000000E+00 -0.45593999997E+02  0.45594000000E+02  0.51100000000E-03 0. -1.
    9900012    2    1    2    0    0  0.37341666182E+02 -0.57698085142E+01 -0.15015819971E+02  0.50528861139E+02  0.30000003917E+02 0.  0.
        -12    1    1    2    0    0 -0.37341666182E+02  0.57698085142E+01  0.15015819971E+02  0.40659138861E+02  0.00000000000E+00 0.  1.
         11    1    3    3    0    0  0.96277079919E+01 -0.11628970736E+02 -0.10105202565E+02  0.18167026193E+02  0.51100000000E-03 0. -1.
        -11    1    3    3    0    0  0.16899921274E+02 -0.90710117151E+00 -0.87336723373E+01  0.19044873440E+02  0.51100000000E-03 0.  1.
        -12    1    3    3    0    0  0.10814036917E+02  0.67662633929E+01  0.38230549316E+01  0.13316961506E+02  0.00000000000E+00 0.  1.
</event>
<event>
 7    1  0.3449452E-011  0.5052886E+02  0.7816164E-02  0.1300439E+00
        -11   -1    0    0    0    0  0.00000000000E+00  0.00000000000E+00  0.45593999997E+02  0.45594000000E+02  0.51100000000E-03 0.  1.
         11   -1    0    0    0    0 -0.00000000000E+00 -0.00000000000E+00 -0.45593999997E+02  0.45594000000E+02  0.51100000000E-03 0. -1.
    9900012    2    1    2    0    0 -0.31977097101E+02  0.20548118663E+02 -0.14436255389E+02  0.50528863398E+02  0.30000010785E+02 0.  0.
        -12    1    1    2    0    0  0.31977097101E+02 -0.20548118663E+02  0.14436255389E+02  0.40659136602E+02  0.00000000000E+00 0.  1.
         11    1    3    3    0    0 -0.15847567321E+02  0.85324065162E+01  0.33575236068E+01  0.18309022802E+02  0.51100000000E-03 0.  1.
        -11    1    3    3    0    0 -0.20615355749E+01 -0.44146543117E+01 -0.54697830737E+01  0.73251367736E+01  0.51100000000E-03 0. -1.
         12    1    3    3    0    0 -0.14067994205E+02  0.16430366458E+02 -0.12323995922E+02  0.24894703822E+02  0.00000000000E+00 0. -1.
</event>
<event>
 7    1  0.3449452E-011  0.5052887E+02  0.7816164E-02  0.1300439E+00
        -11   -1    0    0    0    0  0.00000000000E+00  0.00000000000E+00  0.45593999997E+02  0.45594000000E+02  0.51100000000E-03 0.  1.
         11   -1    0    0    0    0 -0.00000000000E+00 -0.00000000000E+00 -0.45593999997E+02  0.45594000000E+02  0.51100000000E-03 0. -1.
    9900012    2    1    2    0    0 -0.43052515748E+01  0.11909648262E+02 -0.38636642189E+02  0.50528867785E+02  0.30000024118E+02 0.  0.
        -12    1    1    2    0    0  0.43052515748E+01 -0.11909648262E+02  0.38636642189E+02  0.40659132215E+02  0.00000000000E+00 0.  1.
         11    1    3    3    0    0 -0.79029992725E+01  0.19014399136E+01 -0.29511816827E+02  0.30610785745E+02  0.51100000000E-03 0. -1.
        -11    1    3    3    0    0 -0.23357199462E+01 -0.14184512252E+01  0.15951618811E+01  0.31641955113E+01  0.51100000000E-03 0.  1.
        -12    1    3    3    0    0  0.59334676439E+01  0.11426659574E+02 -0.10719987244E+02  0.16753886528E+02  0.00000000000E+00 0.  1.
</event>
<event>
 7    1  0.3449452E-011  0.5052886E+02  0.7816164E-02  0.1300439E+00
        -11   -1    0    0    0    0  0.00000000000E+00  0.00000000000E+00  0.45593999997E+02  0.45594000000E+02  0.51100000000E-03 0.  1.
         11   -1    0    0    0    0 -0.00000000000E+00 -0.00000000000E+00 -0.45593999997E+02  0.45594000000E+02  0.51100000000E-03 0. -1.
    9900012    2    1    2    0    0  0.10411513541E+02  0.16939818667E+02 -0.35465596469E+02  0.50528860762E+02  0.30000002772E+02 0.  0.
        -12    1    1    2    0    0 -0.10411513541E+02 -0.16939818667E+02  0.35465596469E+02  0.40659139238E+02  0.00000000000E+00 0.  1.
         11    1    3    3    0    0  0.21462981495E+01  0.73456442095E+01 -0.36833915614E+02  0.37620505370E+02  0.51100000000E-03 0. -1.
        -11    1    3    3    0    0  0.62081623785E+00  0.18390826660E+01  0.33936469223E+00  0.19704838261E+01  0.51100000000E-03 0.  1.
         12    1    3    3    0    0  0.76443991533E+01  0.77550917917E+01  0.10289544528E+01  0.10937871565E+02  0.00000000000E+00 0. -1.
</event>
<event>
 7    1  0.3449452E-011  0.5052885E+02  0.7816164E-02  0.1300439E+00
        -11   -1    0    0    0    0  0.00000000000E+00  0.00000000000E+00  0.45593999997E+02  0.45594000000E+02  0.51100000000E-03 0.  1.
         11   -1    0    0    0    0 -0.00000000000E+00 -0.00000000000E+00 -0.45593999997E+02  0.45594000000E+02  0.51100000000E-03 0. -1.
    9900012    2    1    2    0    0  0.17520158069E+01 -0.14670321597E+02 -0.37879790548E+02  0.50528850635E+02  0.29999971990E+02 0.  0.
        -12    1    1    2    0    0 -0.17520158069E+01  0.14670321597E+02  0.37879790548E+02  0.40659149365E+02  0.00000000000E+00 0.  1.
         11    1    3    3    0    0  0.53767807994E+01  0.63402269788E+01 -0.88264109084E+01  0.12124923905E+02  0.51100000000E-03 0. -1.
        -11    1    3    3    0    0  0.37854351573E+01 -0.12166315159E+01 -0.43746875417E+01  0.59116497633E+01  0.51100000000E-03 0.  1.
        -12    1    3    3    0    0 -0.74102001499E+01 -0.19793917060E+02 -0.24678692098E+02  0.32492276967E+02  0.00000000000E+00 0.  1.
</event>
<event>
 7    1  0.3449452E-011  0.5052886E+02  0.7816164E-02  0.1300439E+00
        -11   -1    0    0    0    0  0.00000000000E+00  0.00000000000E+00  0.45593999997E+02  0.45594000000E+02  0.51100000000E-03 0.  1.
         11   -1    0    0    0    0 -0.00000000000E+00 -0.00000000000E+00 -0.45593999997E+02  0.45594000000E+02  0.51100000000E-03 0. -1.
    9900012    2    1    2    0    0 -0.24488107093E+02  0.23500699003E+02 -0.22387838547E+02  0.50528861329E+02  0.30000004497E+02 0.  0.
        -12    1    1    2    0    0  0.24488107093E+02 -0.23500699003E+02  0.22387838547E+02  0.40659138671E+02  0.00000000000E+00 0.  1.
         11    1    3    3    0    0  0.19915764547E+01  0.41986183985E+01 -0.52418024299E+01  0.70050885937E+01  0.51100000000E-03 0. -1.
        -11    1    3    3    0    0 -0.72021632663E+01 -0.16513234619E+01 -0.12718819604E+02  0.14709398263E+02  0.51100000000E-03 0.  1.
         12    1    3    3    0    0 -0.19277520281E+02  0.20953404067E+02 -0.44272165134E+01  0.28814374472E+02  0.00000000000E+00 0. -1.
</event>
<event>
 7    1  0.3449452E-011  0.5052885E+02  0.7816164E-02  0.1300439E+00
        -11   -1    0    0    0    0  0.00000000000E+00  0.00000000000E+00  0.45593999997E+02  0.45594000000E+02  0.51100000000E-03 0.  1.
         11   -1    0    0    0    0 -0.00000000000E+00 -0.00000000000E+00 -0.45593999997E+02  0.45594000000E+02  0.51100000000E-03 0. -1.
    9900012    2    1    2    0    0  0.47770072934E-01  0.23894351236E+02 -0.32897177074E+02  0.50528848971E+02  0.29999966932E+02 0.  0.
        -12    1    1    2    0    0 -0.47770072934E-01 -0.23894351236E+02  0.32897177074E+02  0.40659151029E+02  0.00000000000E+00 0.  1.
         11    1    3    3    0    0 -0.28657967774E+01  0.58611527257E+01 -0.23271880947E+00  0.65284041503E+01  0.51100000000E-03 0. -1.
        -11    1    3    3    0    0 -0.43884515544E+01 -0.41008200196E+01 -0.49114851652E+01  0.77587317693E+01  0.51100000000E-03 0.  1.
         12    1    3    3    0    0  0.73020184048E+01  0.22134018530E+02 -0.27752973099E+02  0.36241713052E+02  0.00000000000E+00 0. -1.
</event>
<event>
 7    1  0.3449452E-011  0.5052886E+02  0.7816164E-02  0.1300439E+00
        -11   -1    0    0    0    0  0.00000000000E+00  0.00000000000E+00  0.45593999997E+02  0.45594000000E+02  0.51100000000E-03 0. -1.
         11   -1    0    0    0    0 -0.00000000000E+00 -0.00000000000E+00 -0.45593999997E+02  0.45594000000E+02  0.51100000000E-03 0.  1.
    9900012    2    1    2    0    0 -0.53927975202E+01  0.11231412237E+02  0.38703210409E+02  0.50528863488E+02  0.30000011059E+02 0.  0.
        -12    1    1    2    0    0  0.53927975202E+01 -0.11231412237E+02 -0.38703210409E+02  0.40659136512E+02  0.00000000000E+00 0.  1.
         11    1    3    3    0    0 -0.20104275987E+01  0.16270752625E+02  0.22868865842E+02  0.28138305480E+02  0.51100000000E-03 0. -1.
        -11    1    3    3    0    0  0.40020659366E+01 -0.12389842201E+01 -0.34556528829E+00  0.42036923399E+01  0.51100000000E-03 0.  1.
         12    1    3    3    0    0 -0.73844358581E+01 -0.38003561676E+01  0.16179909854E+02  0.18186865668E+02  0.00000000000E+00 0. -1.
</event>
<event>
 7    1  0.3449452E-011  0.5052885E+02  0.7816164E-02  0.1300439E+00
        -11   -1    0    0    0    0  0.00000000000E+00  0.00000000000E+00  0.45593999997E+02  0.45594000000E+02  0.51100000000E-03 0. -1.
         11   -1    0    0    0    0 -0.00000000000E+00 -0.00000000000E+00 -0.45593999997E+02  0.45594000000E+02  0.51100000000E-03 0.  1.
    9900012    2    1    2    0    0 -0.48610116910E+00 -0.40397473867E+02 -0.45797796237E+01  0.50528848871E+02  0.29999966627E+02 0.  0.
        -12    1    1    2    0    0  0.48610116910E+00  0.40397473867E+02  0.45797796237E+01  0.40659151129E+02  0.00000000000E+00 0.  1.
         11    1    3    3    0    0 -0.12421766265E+02 -0.28500805514E+02  0.13459223280E+01  0.31119249658E+02  0.51100000000E-03 0. -1.
        -11    1    3    3    0    0  0.15420001398E+01 -0.43397199035E+01 -0.45693991486E+01  0.64877069996E+01  0.51100000000E-03 0.  1.
        -12    1    3    3    0    0  0.10393664956E+02 -0.75569484493E+01 -0.13563028031E+01  0.12921892213E+02  0.00000000000E+00 0.  1.
</event>
<event>
 7    1  0.3449452E-011  0.5052886E+02  0.7816164E-02  0.1300439E+00
        -11   -1    0    0    0    0  0.00000000000E+00  0.00000000000E+00  0.45593999997E+02  0.45594000000E+02  0.51100000000E-03 0.  1.
         11   -1    0    0    0    0 -0.00000000000E+00 -0.00000000000E+00 -0.45593999997E+02  0.45594000000E+02  0.51100000000E-03 0. -1.
    9900012    2    1    2    0    0 -0.14376100467E+02 -0.26474527517E+02 -0.27305544167E+02  0.50528860632E+02  0.30000002378E+02 0.  0.
        -12    1    1    2    0    0  0.14376100467E+02  0.26474527517E+02  0.27305544167E+02  0.40659139368E+02  0.00000000000E+00 0.  1.
         11    1    3    3    0    0 -0.92727753682E+01 -0.27803469187E+01 -0.10839589041E+02  0.14533113323E+02  0.51100000000E-03 0. -1.
        -11    1    3    3    0    0  0.66747672397E+01 -0.16571058326E+01 -0.21882620893E+01  0.72171329957E+01  0.51100000000E-03 0.  1.
        -12    1    3    3    0    0 -0.11778092339E+02 -0.22037074766E+02 -0.14277693036E+02  0.28778614313E+02  0.00000000000E+00 0.  1.
</event>
<event>
 7    1  0.3724435E-011  0.5052886E+02  0.7816164E-02  0.1300439E+00
        -11   -1    0    0    0    0  0.00000000000E+00  0.00000000000E+00  0.45593999997E+02  0.45594000000E+02  0.51100000000E-03 0. -1.
         11   -1    0    0    0    0 -0.00000000000E+00 -0.00000000000E+00 -0.45593999997E+02  0.45594000000E+02  0.51100000000E-03 0.  1.
    9900012    2    1    2    0    0  0.23509884941E+02  0.31531563437E+02 -0.10305876837E+02  0.50528864740E+02  0.30000014864E+02 0.  0.
        -12    1    1    2    0    0 -0.23509884941E+02 -0.31531563437E+02  0.10305876837E+02  0.40659135260E+02  0.00000000000E+00 0.  1.
         11    1    3    3    0    0  0.95735126598E+01  0.15914269356E+02  0.16085586915E+01  0.18641447774E+02  0.51100000000E-03 0. -1.
        -11    1    3    3    0    0 -0.32237499785E+01  0.56977806357E+01  0.28819596243E+01  0.71528287854E+01  0.51100000000E-03 0.  1.
        -12    1    3    3    0    0  0.17160122260E+02  0.99195134446E+01 -0.14796395153E+02  0.24734588180E+02  0.00000000000E+00 0.  1.
</event>
<event>
 7    1  0.3880059E-011  0.5052886E+02  0.7816164E-02  0.1300439E+00
        -11   -1    0    0    0    0  0.00000000000E+00  0.00000000000E+00  0.45593999997E+02  0.45594000000E+02  0.51100000000E-03 0. -1.
         11   -1    0    0    0    0 -0.00000000000E+00 -0.00000000000E+00 -0.45593999997E+02  0.45594000000E+02  0.51100000000E-03 0.  1.
    9900012    2    1    2    0    0  0.34885488999E+02 -0.20707028261E+02 -0.27179978561E+01  0.50528857431E+02  0.29999992648E+02 0.  0.
        -12    1    1    2    0    0 -0.34885488999E+02  0.20707028261E+02  0.27179978561E+01  0.40659142569E+02  0.00000000000E+00 0.  1.
         11    1    3    3    0    0  0.20843861230E+02 -0.18291906199E+02  0.52637969822E+01  0.28227078175E+02  0.51100000000E-03 0. -1.
        -11    1    3    3    0    0 -0.29796821729E+01 -0.10503393585E+01  0.55993227563E+00  0.32086201137E+01  0.51100000000E-03 0.  1.
        -12    1    3    3    0    0  0.17021309942E+02 -0.13647827039E+01 -0.85417271140E+01  0.19093159143E+02  0.00000000000E+00 0.  1.
</event>
<event>
 7    1  0.3449452E-011  0.5052887E+02  0.7816164E-02  0.1300439E+00
        -11   -1    0    0    0    0  0.00000000000E+00  0.00000000000E+00  0.45593999997E+02  0.45594000000E+02  0.51100000000E-03 0. -1.
         11   -1    0    0    0    0 -0.00000000000E+00 -0.00000000000E+00 -0.45593999997E+02  0.45594000000E+02  0.51100000000E-03 0.  1.
    9900012    2    1    2    0    0  0.40017484859E+01  0.37667749029E+02  0.14774704303E+02  0.50528865785E+02  0.30000018040E+02 0.  0.
        -12    1    1    2    0    0 -0.40017484859E+01 -0.37667749029E+02 -0.14774704303E+02  0.40659134215E+02  0.00000000000E+00 0.  1.
         11    1    3    3    0    0 -0.47512933947E+01  0.59730598382E+01 -0.32121149162E+01  0.82806953361E+01  0.51100000000E-03 0. -1.
        -11    1    3    3    0    0  0.11940642623E+02  0.11172252492E+02  0.12997932339E+02  0.20888858689E+02  0.51100000000E-03 0.  1.
         12    1    3    3    0    0 -0.31876007419E+01  0.20522436699E+02  0.49888868802E+01  0.21359311760E+02  0.00000000000E+00 0. -1.
</event>
<event>
 7    1  0.3449452E-011  0.5052885E+02  0.7816164E-02  0.1300439E+00
        -11   -1    0    0    0    0  0.00000000000E+00  0.00000000000E+00  0.45593999997E+02  0.45594000000E+02  0.51100000000E-03 0.  1.
         11   -1    0    0    0    0 -0.00000000000E+00 -0.00000000000E+00 -0.45593999997E+02  0.45594000000E+02  0.51100000000E-03 0. -1.
    9900012    2    1    2    0    0 -0.35534544122E+01  0.26292914887E+02 -0.30809442149E+02  0.50528854202E+02  0.29999982833E+02 0.  0.
        -12    1    1    2    0    0  0.35534544122E+01 -0.26292914887E+02  0.30809442149E+02  0.40659145798E+02  0.00000000000E+00 0.  1.
         11    1    3    3    0    0  0.33326724391E+01  0.11127315475E+02 -0.19426550091E+02  0.22634369970E+02  0.51100000000E-03 0. -1.
        -11    1    3    3    0    0 -0.55846448717E+01  0.18842331070E+02 -0.13115104365E+02  0.23626841966E+02  0.51100000000E-03 0.  1.
        -12    1    3    3    0    0 -0.13014819796E+01 -0.36767316584E+01  0.17322123075E+01  0.42676422658E+01  0.00000000000E+00 0.  1.
</event>
<event>
 7    1  0.3449452E-011  0.5052886E+02  0.7816164E-02  0.1300439E+00
        -11   -1    0    0    0    0  0.00000000000E+00  0.00000000000E+00  0.45593999997E+02  0.45594000000E+02  0.51100000000E-03 0. -1.
         11   -1    0    0    0    0 -0.00000000000E+00 -0.00000000000E+00 -0.45593999997E+02  0.45594000000E+02  0.51100000000E-03 0.  1.
    9900012    2    1    2    0    0 -0.85346980210E+01 -0.15123598340E+02  0.36764128826E+02  0.50528862461E+02  0.30000007936E+02 0.  0.
        -12    1    1    2    0    0  0.85346980210E+01  0.15123598340E+02 -0.36764128826E+02  0.40659137539E+02  0.00000000000E+00 0.  1.
         11    1    3    3    0    0  0.60906210649E+00  0.14475150479E+01 -0.27828136818E+01  0.31953573685E+01  0.51100000000E-03 0.  1.
        -11    1    3    3    0    0  0.30919391143E+01 -0.10563152748E+02  0.10336674352E+02  0.15099242378E+02  0.51100000000E-03 0. -1.
         12    1    3    3    0    0 -0.12235699242E+02 -0.60079606396E+01  0.29210268156E+02  0.32234262715E+02  0.00000000000E+00 0. -1.
</event>
<event>
 7    1  0.3449452E-011  0.5052886E+02  0.7816164E-02  0.1300439E+00
        -11   -1    0    0    0    0  0.00000000000E+00  0.00000000000E+00  0.45593999997E+02  0.45594000000E+02  0.51100000000E-03 0.  1.
         11   -1    0    0    0    0 -0.00000000000E+00 -0.00000000000E+00 -0.45593999997E+02  0.45594000000E+02  0.51100000000E-03 0. -1.
    9900012    2    1    2    0    0  0.12655624554E+02 -0.28207243754E+02 -0.26407432649E+02  0.50528856721E+02  0.29999990490E+02 0.  0.
        -12    1    1    2    0    0 -0.12655624554E+02  0.28207243754E+02  0.26407432649E+02  0.40659143279E+02  0.00000000000E+00 0.  1.
         11    1    3    3    0    0 -0.18281964331E+01  0.87297187251E+00 -0.14197871313E+01  0.24738993204E+01  0.51100000000E-03 0. -1.
        -11    1    3    3    0    0 -0.91033410936E+00 -0.23101771773E+02 -0.82654807022E+01  0.24552774563E+02  0.51100000000E-03 0.  1.
         12    1    3    3    0    0  0.15394155096E+02 -0.59784438535E+01 -0.16722164816E+02  0.23502182838E+02  0.00000000000E+00 0. -1.
</event>
<event>
 7    1  0.3449452E-011  0.5052887E+02  0.7816164E-02  0.1300439E+00
        -11   -1    0    0    0    0  0.00000000000E+00  0.00000000000E+00  0.45593999997E+02  0.45594000000E+02  0.51100000000E-03 0.  1.
         11   -1    0    0    0    0 -0.00000000000E+00 -0.00000000000E+00 -0.45593999997E+02  0.45594000000E+02  0.51100000000E-03 0. -1.
    9900012    2    1    2    0    0 -0.23415744543E+02  0.32880445078E+02 -0.48728145114E+01  0.50528867172E+02  0.30000022257E+02 0.  0.
        -12    1    1    2    0    0  0.23415744543E+02 -0.32880445078E+02  0.48728145114E+01  0.40659132828E+02  0.00000000000E+00 0.  1.
         11    1    3    3    0    0 -0.16989330782E+02  0.18767442274E+02 -0.10380004613E+01  0.25336370994E+02  0.51100000000E-03 0. -1.
        -11    1    3    3    0    0 -0.10120035583E+02  0.20619956923E+01  0.31300269645E+01  0.10791849494E+02  0.51100000000E-03 0.  1.
         12    1    3    3    0    0  0.36936218219E+01  0.12051007111E+02 -0.69648410147E+01  0.14400646684E+02  0.00000000000E+00 0. -1.
</event>
<event>
 7    1  0.4065134E-011  0.5052886E+02  0.7816164E-02  0.1300439E+00
        -11   -1    0    0    0    0  0.00000000000E+00  0.00000000000E+00  0.45593999997E+02  0.45594000000E+02  0.51100000000E-03 0.  1.
         11   -1    0    0    0    0 -0.00000000000E+00 -0.00000000000E+00 -0.45593999997E+02  0.45594000000E+02  0.51100000000E-03 0. -1.
    9900012    2    1    2    0    0  0.24206419191E+02  0.32271283570E+02  0.50773037217E+01  0.50528862203E+02  0.30000007152E+02 0.  0.
        -12    1    1    2    0    0 -0.24206419191E+02 -0.32271283570E+02 -0.50773037217E+01  0.40659137797E+02  0.00000000000E+00 0.  1.
         11    1    3    3    0    0  0.11606205340E+02  0.13494345608E+02  0.11370405241E+02  0.21120783162E+02  0.51100000000E-03 0. -1.
        -11    1    3    3    0    0  0.12664678747E+02  0.18869127575E+02  0.38548725081E+00  0.22728542934E+02  0.51100000000E-03 0.  1.
        -12    1    3    3    0    0 -0.64464896052E-01 -0.92189612899E-01 -0.66785887697E+01  0.66795361069E+01  0.00000000000E+00 0.  1.
</event>
<event>
 7    1  0.3449452E-011  0.5052888E+02  0.7816164E-02  0.1300439E+00
        -11   -1    0    0    0    0  0.00000000000E+00  0.00000000000E+00  0.45593999997E+02  0.45594000000E+02  0.51100000000E-03 0.  1.
         11   -1    0    0    0    0 -0.00000000000E+00 -0.00000000000E+00 -0.45593999997E+02  0.45594000000E+02  0.51100000000E-03 0. -1.
    9900012    2    1    2    0    0 -0.13555372614E+02 -0.36840480930E+02 -0.10592210129E+02  0.50528879532E+02  0.30000059826E+02 0.  0.
        -12    1    1    2    0    0  0.13555372614E+02  0.36840480930E+02  0.10592210129E+02  0.40659120468E+02  0.00000000000E+00 0.  1.
         11    1    3    3    0    0  0.36819865489E+00 -0.10285206176E+02  0.72050200345E+01  0.12563174372E+02  0.51100000000E-03 0. -1.
        -11    1    3    3    0    0 -0.93964910472E+01 -0.92443606894E+01 -0.67287295120E+00  0.13198674434E+02  0.51100000000E-03 0.  1.
        -12    1    3    3    0    0 -0.45270802215E+01 -0.17310914064E+02 -0.17124357212E+02  0.24767030726E+02  0.00000000000E+00 0.  1.
</event>
<event>
 7    1  0.3449452E-011  0.5052884E+02  0.7816164E-02  0.1300439E+00
        -11   -1    0    0    0    0  0.00000000000E+00  0.00000000000E+00  0.45593999997E+02  0.45594000000E+02  0.51100000000E-03 0. -1.
         11   -1    0    0    0    0 -0.00000000000E+00 -0.00000000000E+00 -0.45593999997E+02  0.45594000000E+02  0.51100000000E-03 0.  1.
    9900012    2    1    2    0    0 -0.54115103967E+01  0.36554281178E+02  0.16960750368E+02  0.50528843955E+02  0.29999951685E+02 0.  0.
        -12    1    1    2    0    0  0.54115103967E+01 -0.36554281178E+02 -0.16960750368E+02  0.40659156045E+02  0.00000000000E+00 0.  1.
         11    1    3    3    0    0 -0.14255108081E+02  0.23894725616E+02  0.19874492636E+02  0.34193003326E+02  0.51100000000E-03 0. -1.
        -11    1    3    3    0    0  0.36859139471E+01  0.87296611276E+01 -0.77325806005E+00  0.95074114941E+01  0.51100000000E-03 0.  1.
         12    1    3    3    0    0  0.51576837372E+01  0.39298944347E+01 -0.21404842079E+01  0.68284291345E+01  0.00000000000E+00 0. -1.
</event>
<event>
 7    1  0.3449452E-011  0.5052884E+02  0.7816164E-02  0.1300439E+00
        -11   -1    0    0    0    0  0.00000000000E+00  0.00000000000E+00  0.45593999997E+02  0.45594000000E+02  0.51100000000E-03 0. -1.
         11   -1    0    0    0    0 -0.00000000000E+00 -0.00000000000E+00 -0.45593999997E+02  0.45594000000E+02  0.51100000000E-03 0.  1.
    9900012    2    1    2    0    0 -0.36462832111E+02 -0.13234361716E+00  0.17989201964E+02  0.50528843250E+02  0.29999949541E+02 0.  0.
        -12    1    1    2    0    0  0.36462832111E+02  0.13234361716E+00 -0.17989201964E+02  0.40659156750E+02  0.00000000000E+00 0.  1.
         11    1    3    3    0    0 -0.15021793937E+02 -0.11552035651E+02  0.42620433914E+01  0.19423409456E+02  0.51100000000E-03 0. -1.
        -11    1    3    3    0    0 -0.48949373278E+00  0.34787044926E+01 -0.16993684605E+01  0.39024149558E+01  0.51100000000E-03 0.  1.
        -12    1    3    3    0    0 -0.20951544441E+02  0.79409875414E+01  0.15426527033E+02  0.27203018838E+02  0.00000000000E+00 0.  1.
</event>
<event>
 7    1  0.3449452E-011  0.5052887E+02  0.7816164E-02  0.1300439E+00
        -11   -1    0    0    0    0  0.00000000000E+00  0.00000000000E+00  0.45593999997E+02  0.45594000000E+02  0.51100000000E-03 0.  1.
         11   -1    0    0    0    0 -0.00000000000E+00 -0.00000000000E+00 -0.45593999997E+02  0.45594000000E+02  0.51100000000E-03 0. -1.
    9900012    2    1    2    0    0  0.51242280749E+01 -0.35852053880E+01 -0.40175284138E+02  0.50528869825E+02  0.30000030319E+02 0.  0.
        -12    1    1    2    0    0 -0.51242280749E+01  0.35852053880E+01  0.40175284138E+02  0.40659130175E+02  0.00000000000E+00 0.  1.
         11    1    3    3    0    0 -0.37015526977E+01  0.21313617993E+01 -0.47643784088E+01  0.63987106027E+01  0.51100000000E-03 0.  1.
        -11    1    3    3    0    0  0.81123228864E+01  0.83034161799E+01 -0.21105823614E+02  0.24087596259E+02  0.51100000000E-03 0. -1.
         12    1    3    3    0    0  0.71345788624E+00 -0.14019983367E+02 -0.14305082115E+02  0.20042562962E+02  0.00000000000E+00 0. -1.
</event>
<event>
 7    1  0.3449452E-011  0.5052886E+02  0.7816164E-02  0.1300439E+00
        -11   -1    0    0    0    0  0.00000000000E+00  0.00000000000E+00  0.45593999997E+02  0.45594000000E+02  0.51100000000E-03 0.  1.
         11   -1    0    0    0    0 -0.00000000000E+00 -0.00000000000E+00 -0.45593999997E+02  0.45594000000E+02  0.51100000000E-03 0. -1.
    9900012    2    1    2    0    0  0.20985772260E+02 -0.81406090455E+01 -0.33859907082E+02  0.50528862520E+02  0.30000008117E+02 0.  0.
        -12    1    1    2    0    0 -0.20985772260E+02  0.81406090455E+01  0.33859907082E+02  0.40659137480E+02  0.00000000000E+00 0.  1.
         11    1    3    3    0    0  0.64528186294E+01 -0.32032297011E+01 -0.26805296174E+02  0.27756502878E+02  0.51100000000E-03 0. -1.
        -11    1    3    3    0    0  0.14550642591E+02 -0.23124386313E+01 -0.10750965084E+02  0.18238745097E+02  0.51100000000E-03 0.  1.
         12    1    3    3    0    0 -0.17688960680E-01 -0.26249407132E+01  0.36963541758E+01  0.45336145447E+01  0.00000000000E+00 0. -1.
</event>
<event>
 7    1  0.3449452E-011  0.5052886E+02  0.7816164E-02  0.1300439E+00
        -11   -1    0    0    0    0  0.00000000000E+00  0.00000000000E+00  0.45593999997E+02  0.45594000000E+02  0.51100000000E-03 0.  1.
         11   -1    0    0    0    0 -0.00000000000E+00 -0.00000000000E+00 -0.45593999997E+02  0.45594000000E+02  0.51100000000E-03 0. -1.
    9900012    2    1    2    0    0  0.32060173232E+02 -0.11381102537E+02 -0.22266145833E+02  0.50528862615E+02  0.30000008405E+02 0.  0.
        -12    1    1    2    0    0 -0.32060173232E+02  0.11381102537E+02  0.22266145833E+02  0.40659137385E+02  0.00000000000E+00 0.  1.
         11    1    3    3    0    0  0.76644591489E+01  0.37835215703E+01  0.28523381938E+01  0.90108158871E+01  0.51100000000E-03 0. -1.
        -11    1    3    3    0    0  0.82302883330E+01 -0.80588087237E+01 -0.91136627673E+00  0.11554766672E+02  0.51100000000E-03 0.  1.
         12    1    3    3    0    0  0.16165425750E+02 -0.71058153834E+01 -0.24207117750E+02  0.29963280056E+02  0.00000000000E+00 0. -1.
</event>
<event>
 7    1  0.3449452E-011  0.5052887E+02  0.7816164E-02  0.1300439E+00
        -11   -1    0    0    0    0  0.00000000000E+00  0.00000000000E+00  0.45593999997E+02  0.45594000000E+02  0.51100000000E-03 0. -1.
         11   -1    0    0    0    0 -0.00000000000E+00 -0.00000000000E+00 -0.45593999997E+02  0.45594000000E+02  0.51100000000E-03 0.  1.
    9900012    2    1    2    0    0 -0.95505704663E+01 -0.19977223291E+02  0.34100767168E+02  0.50528866117E+02  0.30000019049E+02 0.  0.
        -12    1    1    2    0    0  0.95505704663E+01  0.19977223291E+02 -0.34100767168E+02  0.40659133883E+02  0.00000000000E+00 0.  1.
         11    1    3    3    0    0 -0.13443044989E+02 -0.56098234651E+01  0.11083958542E+02  0.18304090120E+02  0.51100000000E-03 0. -1.
        -11    1    3    3    0    0 -0.76293581617E+00 -0.42190623678E+01 -0.20733410031E+01  0.47624890025E+01  0.51100000000E-03 0.  1.
         12    1    3    3    0    0  0.46554103387E+01 -0.10148337458E+02  0.25090149629E+02  0.27462286995E+02  0.00000000000E+00 0. -1.
</event>
<event>
 7    1  0.3449452E-011  0.5052886E+02  0.7816164E-02  0.1300439E+00
        -11   -1    0    0    0    0  0.00000000000E+00  0.00000000000E+00  0.45593999997E+02  0.45594000000E+02  0.51100000000E-03 0. -1.
         11   -1    0    0    0    0 -0.00000000000E+00 -0.00000000000E+00 -0.45593999997E+02  0.45594000000E+02  0.51100000000E-03 0.  1.
    9900012    2    1    2    0    0  0.93889205088E+00  0.20189003084E+02  0.35280145602E+02  0.50528855425E+02  0.29999986551E+02 0.  0.
        -12    1    1    2    0    0 -0.93889205088E+00 -0.20189003084E+02 -0.35280145602E+02  0.40659144575E+02  0.00000000000E+00 0.  1.
         11    1    3    3    0    0 -0.35583611866E+01  0.15751332593E+02  0.20033274203E+02  0.25731274519E+02  0.51100000000E-03 0. -1.
        -11    1    3    3    0    0 -0.20007413266E+01 -0.62409769551E+01  0.80247131748E+01  0.10360925683E+02  0.51100000000E-03 0.  1.
         12    1    3    3    0    0  0.64979945640E+01  0.10678647446E+02  0.72221582242E+01  0.14436655224E+02  0.00000000000E+00 0. -1.
</event>
<event>
 7    1  0.3449452E-011  0.5052886E+02  0.7816164E-02  0.1300439E+00
        -11   -1    0    0    0    0  0.00000000000E+00  0.00000000000E+00  0.45593999997E+02  0.45594000000E+02  0.51100000000E-03 0. -1.
         11   -1    0    0    0    0 -0.00000000000E+00 -0.00000000000E+00 -0.45593999997E+02  0.45594000000E+02  0.51100000000E-03 0.  1.
    9900012    2    1    2    0    0 -0.31186849246E+02 -0.52416297308E+01 -0.25555260200E+02  0.50528861150E+02  0.30000003951E+02 0.  0.
        -12    1    1    2    0    0  0.31186849246E+02  0.52416297308E+01  0.25555260200E+02  0.40659138850E+02  0.00000000000E+00 0.  1.
         11    1    3    3    0    0 -0.23713183064E+02 -0.44269616479E+01 -0.12991023889E+02  0.27398535406E+02  0.51100000000E-03 0. -1.
        -11    1    3    3    0    0 -0.10926783550E+02  0.45171268673E+00 -0.15113520730E+02  0.18655217828E+02  0.51100000000E-03 0.  1.
        -12    1    3    3    0    0  0.34531173675E+01 -0.12663807696E+01  0.25492844188E+01  0.44751079155E+01  0.00000000000E+00 0.  1.
</event>
<event>
 7    1  0.3449452E-011  0.5052886E+02  0.7816164E-02  0.1300439E+00
        -11   -1    0    0    0    0  0.00000000000E+00  0.00000000000E+00  0.45593999997E+02  0.45594000000E+02  0.51100000000E-03 0.  1.
         11   -1    0    0    0    0 -0.00000000000E+00 -0.00000000000E+00 -0.45593999997E+02  0.45594000000E+02  0.51100000000E-03 0. -1.
    9900012    2    1    2    0    0  0.42179165135E+01  0.75260383128E+01 -0.39733282119E+02  0.50528858588E+02  0.29999996165E+02 0.  0.
        -12    1    1    2    0    0 -0.42179165135E+01 -0.75260383128E+01  0.39733282119E+02  0.40659141412E+02  0.00000000000E+00 0.  1.
         11    1    3    3    0    0  0.13713013033E+01  0.77862249556E+01 -0.10403657425E+02  0.13066822659E+02  0.51100000000E-03 0. -1.
        -11    1    3    3    0    0 -0.58052922588E+01  0.10705452783E+01 -0.27990905873E+02  0.28606612824E+02  0.51100000000E-03 0.  1.
        -12    1    3    3    0    0  0.86519074690E+01 -0.13307319211E+01 -0.13387188208E+01  0.88554231056E+01  0.00000000000E+00 0.  1.
</event>
<event>
 7    1  0.3450159E-011  0.5052886E+02  0.7816164E-02  0.1300439E+00
        -11   -1    0    0    0    0  0.00000000000E+00  0.00000000000E+00  0.45593999997E+02  0.45594000000E+02  0.51100000000E-03 0.  1.
         11   -1    0    0    0    0 -0.00000000000E+00 -0.00000000000E+00 -0.45593999997E+02  0.45594000000E+02  0.51100000000E-03 0. -1.
    9900012    2    1    2    0    0 -0.39049148441E+02 -0.22930417525E+01 -0.11093761068E+02  0.50528861186E+02  0.30000004060E+02 0.  0.
        -12    1    1    2    0    0  0.39049148441E+02  0.22930417525E+01  0.11093761068E+02  0.40659138814E+02  0.00000000000E+00 0.  1.
         11    1    3    3    0    0 -0.10567209040E+02  0.31163943121E+01  0.24041769528E+01  0.11276430618E+02  0.51100000000E-03 0. -1.
        -11    1    3    3    0    0 -0.15595044037E+01 -0.46733179293E+01  0.46513110645E+01  0.67754445856E+01  0.51100000000E-03 0.  1.
         12    1    3    3    0    0 -0.26922434998E+02 -0.73611813530E+00 -0.18149249086E+02  0.32476985982E+02  0.00000000000E+00 0. -1.
</event>
<event>
 7    1  0.3449452E-011  0.5052885E+02  0.7816164E-02  0.1300439E+00
        -11   -1    0    0    0    0  0.00000000000E+00  0.00000000000E+00  0.45593999997E+02  0.45594000000E+02  0.51100000000E-03 0.  1.
         11   -1    0    0    0    0 -0.00000000000E+00 -0.00000000000E+00 -0.45593999997E+02  0.45594000000E+02  0.51100000000E-03 0. -1.
    9900012    2    1    2    0    0 -0.59783540223E+01 -0.40193998396E+02 -0.13667018477E+01  0.50528854684E+02  0.29999984298E+02 0.  0.
        -12    1    1    2    0    0  0.59783540223E+01  0.40193998396E+02  0.13667018477E+01  0.40659145316E+02  0.00000000000E+00 0.  1.
         11    1    3    3    0    0  0.15700314128E+01 -0.22068280143E+02  0.11373168488E+00  0.22124351342E+02  0.51100000000E-03 0. -1.
        -11    1    3    3    0    0 -0.43861855364E+01 -0.15163209728E+02 -0.10112215565E+02  0.18746158452E+02  0.51100000000E-03 0.  1.
        -12    1    3    3    0    0 -0.31621998988E+01 -0.29625085245E+01  0.86317820327E+01  0.96583448902E+01  0.00000000000E+00 0.  1.
</event>
<event>
 7    1  0.3449452E-011  0.5052885E+02  0.7816164E-02  0.1300439E+00
        -11   -1    0    0    0    0  0.00000000000E+00  0.00000000000E+00  0.45593999997E+02  0.45594000000E+02  0.51100000000E-03 0.  1.
         11   -1    0    0    0    0 -0.00000000000E+00 -0.00000000000E+00 -0.45593999997E+02  0.45594000000E+02  0.51100000000E-03 0. -1.
    9900012    2    1    2    0    0  0.22645023070E+02 -0.32526313429E+02  0.90779252229E+01  0.50528845293E+02  0.29999955754E+02 0.  0.
        -12    1    1    2    0    0 -0.22645023070E+02  0.32526313429E+02 -0.90779252229E+01  0.40659154707E+02  0.00000000000E+00 0.  1.
         11    1    3    3    0    0  0.46738364245E+00  0.49748848168E+01 -0.17536663759E+01  0.52955899037E+01  0.51100000000E-03 0.  1.
        -11    1    3    3    0    0  0.68330486362E+01 -0.74478261470E+01  0.14628860646E+01  0.10212771606E+02  0.51100000000E-03 0. -1.
        -12    1    3    3    0    0  0.15344590791E+02 -0.30053372099E+02  0.93687055341E+01  0.35020483783E+02  0.00000000000E+00 0.  1.
</event>
<event>
 7    1  0.3449452E-011  0.5052886E+02  0.7816164E-02  0.1300439E+00
        -11   -1    0    0    0    0  0.00000000000E+00  0.00000000000E+00  0.45593999997E+02  0.45594000000E+02  0.51100000000E-03 0.  1.
         11   -1    0    0    0    0 -0.00000000000E+00 -0.00000000000E+00 -0.45593999997E+02  0.45594000000E+02  0.51100000000E-03 0. -1.
    9900012    2    1    2    0    0  0.28559032748E+02 -0.22797075662E+02 -0.17828083160E+02  0.50528861305E+02  0.30000004423E+02 0.  0.
        -12    1    1    2    0    0 -0.28559032748E+02  0.22797075662E+02  0.17828083160E+02  0.40659138695E+02  0.00000000000E+00 0.  1.
         11    1    3    3    0    0  0.22792547082E+02 -0.21381932552E+02 -0.15700391769E+02  0.34974126781E+02  0.51100000000E-03 0. -1.
        -11    1    3    3    0    0  0.93985115970E+01  0.84038215313E+00  0.19624923888E+01  0.96379271132E+01  0.51100000000E-03 0.  1.
        -12    1    3    3    0    0 -0.36320259314E+01 -0.22555252639E+01 -0.40901837800E+01  0.59168074108E+01  0.00000000000E+00 0.  1.
</event>
<event>
 7    1  0.3449452E-011  0.5052886E+02  0.7816164E-02  0.1300439E+00
        -11   -1    0    0    0    0  0.00000000000E+00  0.00000000000E+00  0.45593999997E+02  0.45594000000E+02  0.51100000000E-03 0. -1.
         11   -1    0    0    0    0 -0.00000000000E+00 -0.00000000000E+00 -0.45593999997E+02  0.45594000000E+02  0.51100000000E-03 0.  1.
    9900012    2    1    2    0    0  0.38674165175E+02 -0.58822988117E+01 -0.11084809824E+02  0.50528862034E+02  0.30000006638E+02 0.  0.
        -12    1    1    2    0    0 -0.38674165175E+02  0.58822988117E+01  0.11084809824E+02  0.40659137966E+02  0.00000000000E+00 0.  1.
         11    1    3    3    0    0  0.73519412924E+01 -0.82140262771E+01 -0.78483323193E+01  0.13532094771E+02  0.51100000000E-03 0. -1.
        -11    1    3    3    0    0  0.24711412044E+02  0.42049296352E+00 -0.10623110427E+02  0.26901322922E+02  0.51100000000E-03 0.  1.
        -12    1    3    3    0    0  0.66108118389E+01  0.19112345019E+01  0.73866329230E+01  0.10095444340E+02  0.00000000000E+00 0.  1.
</event>
<event>
 7    1  0.3449452E-011  0.5052885E+02  0.7816164E-02  0.1300439E+00
        -11   -1    0    0    0    0  0.00000000000E+00  0.00000000000E+00  0.45593999997E+02  0.45594000000E+02  0.51100000000E-03 0.  1.
         11   -1    0    0    0    0 -0.00000000000E+00 -0.00000000000E+00 -0.45593999997E+02  0.45594000000E+02  0.51100000000E-03 0. -1.
    9900012    2    1    2    0    0  0.20574997150E+02  0.82352193832E+01 -0.34088377551E+02  0.50528845679E+02  0.29999956926E+02 0.  0.
        -12    1    1    2    0    0 -0.20574997150E+02 -0.82352193832E+01  0.34088377551E+02  0.40659154321E+02  0.00000000000E+00 0.  1.
         11    1    3    3    0    0  0.11600125223E+02  0.67842832511E+01 -0.40812006821E+01  0.14044415392E+02  0.51100000000E-03 0. -1.
        -11    1    3    3    0    0  0.46882559481E+01  0.45332082170E+01 -0.53534715150E+00  0.65434178689E+01  0.51100000000E-03 0.  1.
         12    1    3    3    0    0  0.42866159789E+01 -0.30822720849E+01 -0.29471829717E+02  0.29941012419E+02  0.00000000000E+00 0. -1.
</event>
<event>
 7    1  0.3449452E-011  0.5052886E+02  0.7816164E-02  0.1300439E+00
        -11   -1    0    0    0    0  0.00000000000E+00  0.00000000000E+00  0.45593999997E+02  0.45594000000E+02  0.51100000000E-03 0. -1.
         11   -1    0    0    0    0 -0.00000000000E+00 -0.00000000000E+00 -0.45593999997E+02  0.45594000000E+02  0.51100000000E-03 0.  1.
    9900012    2    1    2    0    0  0.39674238436E+02 -0.38990978235E+01 -0.79948588721E+01  0.50528856776E+02  0.29999990657E+02 0.  0.
        -12    1    1    2    0    0 -0.39674238436E+02  0.38990978235E+01  0.79948588721E+01  0.40659143224E+02  0.00000000000E+00 0.  1.
         11    1    3    3    0    0  0.56470187194E+01  0.25258360690E+01  0.28199716888E+01  0.67985960942E+01  0.51100000000E-03 0.  1.
        -11    1    3    3    0    0  0.11600074439E+02 -0.13925016293E+02 -0.10765661279E+01  0.18155627244E+02  0.51100000000E-03 0. -1.
         12    1    3    3    0    0  0.22427145278E+02  0.75000824002E+01 -0.97382644330E+01  0.25574633438E+02  0.00000000000E+00 0. -1.
</event>
<event>
 7    1  0.3449452E-011  0.5052876E+02  0.7816164E-02  0.1300439E+00
        -11   -1    0    0    0    0  0.00000000000E+00  0.00000000000E+00  0.45593999997E+02  0.45594000000E+02  0.51100000000E-03 0. -1.
         11   -1    0    0    0    0 -0.00000000000E+00 -0.00000000000E+00 -0.45593999997E+02  0.45594000000E+02  0.51100000000E-03 0.  1.
    9900012    2    1    2    0    0  0.11664285835E+02  0.15476563707E+02  0.35743453514E+02  0.50528756803E+02  0.29999686777E+02 0.  0.
        -12    1    1    2    0    0 -0.11664285835E+02 -0.15476563707E+02 -0.35743453514E+02  0.40659243197E+02  0.00000000000E+00 0.  1.
         11    1    3    3    0    0 -0.22376905776E+01  0.32227891506E+01  0.70490421061E+01  0.80673802380E+01  0.51100000000E-03 0. -1.
        -11    1    3    3    0    0  0.10769591510E+02  0.52818653120E+01  0.31969696937E+02  0.34145918131E+02  0.51100000000E-03 0.  1.
        -12    1    3    3    0    0  0.31323849019E+01  0.69719092441E+01 -0.32752855287E+01  0.83154584345E+01  0.00000000000E+00 0.  1.
</event>
<event>
 7    1  0.3449452E-011  0.5052885E+02  0.7816164E-02  0.1300439E+00
        -11   -1    0    0    0    0  0.00000000000E+00  0.00000000000E+00  0.45593999997E+02  0.45594000000E+02  0.51100000000E-03 0.  1.
         11   -1    0    0    0    0 -0.00000000000E+00 -0.00000000000E+00 -0.45593999997E+02  0.45594000000E+02  0.51100000000E-03 0. -1.
    9900012    2    1    2    0    0 -0.19902415476E+02  0.42239988560E+01 -0.35202525503E+02  0.50528854535E+02  0.29999983845E+02 0.  0.
        -12    1    1    2    0    0  0.19902415476E+02 -0.42239988560E+01  0.35202525503E+02  0.40659145465E+02  0.00000000000E+00 0.  1.
         11    1    3    3    0    0 -0.29729156432E+01  0.30932408437E+01 -0.11893374500E+02  0.12643524967E+02  0.51100000000E-03 0. -1.
        -11    1    3    3    0    0 -0.18186333953E+02 -0.50447215187E+01 -0.25034326260E+02  0.31351386722E+02  0.51100000000E-03 0.  1.
         12    1    3    3    0    0  0.12568341200E+01  0.61754795310E+01  0.17251752568E+01  0.65339428457E+01  0.00000000000E+00 0. -1.
</event>
<event>
 7    1  0.3449452E-011  0.5052887E+02  0.7816164E-02  0.1300439E+00
        -11   -1    0    0    0    0  0.00000000000E+00  0.00000000000E+00  0.45593999997E+02  0.45594000000E+02  0.51100000000E-03 0.  1.
         11   -1    0    0    0    0 -0.00000000000E+00 -0.00000000000E+00 -0.45593999997E+02  0.45594000000E+02  0.51100000000E-03 0. -1.
    9900012    2    1    2    0    0 -0.75314724213E+01 -0.28550014984E+02  0.27952436197E+02  0.50528866687E+02  0.30000020781E+02 0.  0.
        -12    1    1    2    0    0  0.75314724213E+01  0.28550014984E+02 -0.27952436197E+02  0.40659133313E+02  0.00000000000E+00 0.  1.
         11    1    3    3    0    0  0.35145573162E+01 -0.16630248106E+02  0.14403013399E+02  0.22279229350E+02  0.51100000000E-03 0. -1.
        -11    1    3    3    0    0  0.20376149644E+01 -0.11055659813E+02  0.88971347171E+01  0.14336613794E+02  0.51100000000E-03 0.  1.
        -12    1    3    3    0    0 -0.13083644702E+02 -0.86410706498E+00  0.46522880814E+01  0.13913023543E+02  0.00000000000E+00 0.  1.
</event>
<event>
 7    1  0.3449452E-011  0.5052886E+02  0.7816164E-02  0.1300439E+00
        -11   -1    0    0    0    0  0.00000000000E+00  0.00000000000E+00  0.45593999997E+02  0.45594000000E+02  0.51100000000E-03 0.  1.
         11   -1    0    0    0    0 -0.00000000000E+00 -0.00000000000E+00 -0.45593999997E+02  0.45594000000E+02  0.51100000000E-03 0. -1.
    9900012    2    1    2    0    0  0.37419290863E+02 -0.88405313361E+01 -0.13221471051E+02  0.50528860563E+02  0.30000002167E+02 0.  0.
        -12    1    1    2    0    0 -0.37419290863E+02  0.88405313361E+01  0.13221471051E+02  0.40659139437E+02  0.00000000000E+00 0.  1.
         11    1    3    3    0    0  0.12821049011E+02 -0.53669333744E+00 -0.55801722469E+01  0.13993057566E+02  0.51100000000E-03 0. -1.
        -11    1    3    3    0    0  0.90580262751E+01  0.72713537748E+01  0.31426966095E+01  0.12033161179E+02  0.51100000000E-03 0.  1.
        -12    1    3    3    0    0  0.15540215577E+02 -0.15575191773E+02 -0.10783995413E+02  0.24502641817E+02  0.00000000000E+00 0.  1.
</event>
<event>
 7    1  0.3449452E-011  0.5052886E+02  0.7816164E-02  0.1300439E+00
        -11   -1    0    0    0    0  0.00000000000E+00  0.00000000000E+00  0.45593999997E+02  0.45594000000E+02  0.51100000000E-03 0. -1.
         11   -1    0    0    0    0 -0.00000000000E+00 -0.00000000000E+00 -0.45593999997E+02  0.45594000000E+02  0.51100000000E-03 0.  1.
    9900012    2    1    2    0    0 -0.34162487645E+02  0.21090247297E+02 -0.64258485390E+01  0.50528860528E+02  0.30000002062E+02 0.  0.
        -12    1    1    2    0    0  0.34162487645E+02 -0.21090247297E+02  0.64258485390E+01  0.40659139472E+02  0.00000000000E+00 0.  1.
         11    1    3    3    0    0 -0.21641384167E+02  0.60817911245E+01 -0.18205382250E+00  0.22480454528E+02  0.51100000000E-03 0. -1.
        -11    1    3    3    0    0 -0.83698276429E+01 -0.17662836111E+01 -0.65356828997E+01  0.10765171796E+02  0.51100000000E-03 0.  1.
         12    1    3    3    0    0 -0.41512758354E+01  0.16774739783E+02  0.29188818320E+00  0.17283234205E+02  0.00000000000E+00 0. -1.
</event>
