<event>
 7    1  0.5855569E-013  0.5052887E+02  0.7816164E-02  0.1300439E+00
        -11   -1    0    0    0    0  0.00000000000E+00  0.00000000000E+00  0.45593999997E+02  0.45594000000E+02  0.51100000000E-03 0.  1.
         11   -1    0    0    0    0 -0.00000000000E+00 -0.00000000000E+00 -0.45593999997E+02  0.45594000000E+02  0.51100000000E-03 0. -1.
    9900012    2    1    2    0    0 -0.19182935345E+02  0.21771976885E+02 -0.28480879196E+02  0.50528874755E+02  0.30000045305E+02 0.  0.
        -12    1    1    2    0    0  0.19182935345E+02 -0.21771976885E+02  0.28480879196E+02  0.40659125245E+02  0.00000000000E+00 0.  1.
         11    1    3    3    0    0 -0.56580381188E+01  0.27686800561E+01 -0.17662073108E+02  0.18751741555E+02  0.51100000000E-03 0. -1.
        -11    1    3    3    0    0 -0.59928406289E+01  0.69066424064E+01 -0.14423936252E+02  0.17078225476E+02  0.51100000000E-03 0.  1.
        -12    1    3    3    0    0 -0.75320565972E+01  0.12096654422E+02  0.36051301636E+01  0.14698907724E+02  0.00000000000E+00 0.  1.
</event>
<event>
 7    1  0.5855569E-013  0.5052886E+02  0.7816164E-02  0.1300439E+00
        -11   -1    0    0    0    0  0.00000000000E+00  0.00000000000E+00  0.45593999997E+02  0.45594000000E+02  0.51100000000E-03 0. -1.
         11   -1    0    0    0    0 -0.00000000000E+00 -0.00000000000E+00 -0.45593999997E+02  0.45594000000E+02  0.51100000000E-03 0.  1.
    9900012    2    1    2    0    0  0.28292098560E+02 -0.62017084826E+01  0.28535277102E+02  0.50528855047E+02  0.29999985400E+02 0.  0.
        -12    1    1    2    0    0 -0.28292098560E+02  0.62017084826E+01 -0.28535277102E+02  0.40659144953E+02  0.00000000000E+00 0.  1.
         11    1    3    3    0    0  0.62299944885E+01  0.47613011116E+01 -0.13641356984E+01  0.79588746734E+01  0.51100000000E-03 0.  1.
        -11    1    3    3    0    0  0.11037948985E+02  0.34997060517E+01  0.78530134272E+01  0.13991214400E+02  0.51100000000E-03 0. -1.
         12    1    3    3    0    0  0.11024155086E+02 -0.14462715646E+02  0.22046399373E+02  0.28578765973E+02  0.00000000000E+00 0. -1.
</event>
<event>
 7    1  0.5855569E-013  0.5052886E+02  0.7816164E-02  0.1300439E+00
        -11   -1    0    0    0    0  0.00000000000E+00  0.00000000000E+00  0.45593999997E+02  0.45594000000E+02  0.51100000000E-03 0.  1.
         11   -1    0    0    0    0 -0.00000000000E+00 -0.00000000000E+00 -0.45593999997E+02  0.45594000000E+02  0.51100000000E-03 0. -1.
    9900012    2    1    2    0    0 -0.90786960954E+01 -0.38820142828E+02 -0.79837006642E+01  0.50528859720E+02  0.29999999606E+02 0.  0.
        -12    1    1    2    0    0  0.90786960954E+01  0.38820142828E+02  0.79837006642E+01  0.40659140280E+02  0.00000000000E+00 0.  1.
         11    1    3    3    0    0  0.20049980792E+01 -0.21625204637E+01  0.38280905045E+01  0.48322654341E+01  0.51100000000E-03 0. -1.
        -11    1    3    3    0    0 -0.46883928112E+01  0.19000716102E+01 -0.14141276961E+01  0.52527189795E+01  0.51100000000E-03 0.  1.
         12    1    3    3    0    0 -0.63953013634E+01 -0.38557693974E+02 -0.10397663473E+02  0.40443875307E+02  0.00000000000E+00 0. -1.
</event>
<event>
 7    1  0.5855569E-013  0.5052886E+02  0.7816164E-02  0.1300439E+00
        -11   -1    0    0    0    0  0.00000000000E+00  0.00000000000E+00  0.45593999997E+02  0.45594000000E+02  0.51100000000E-03 0. -1.
         11   -1    0    0    0    0 -0.00000000000E+00 -0.00000000000E+00 -0.45593999997E+02  0.45594000000E+02  0.51100000000E-03 0.  1.
    9900012    2    1    2    0    0 -0.17353223814E+02 -0.26884383681E+02  0.25085084290E+02  0.50528856914E+02  0.29999991076E+02 0.  0.
        -12    1    1    2    0    0  0.17353223814E+02  0.26884383681E+02 -0.25085084290E+02  0.40659143086E+02  0.00000000000E+00 0.  1.
         11    1    3    3    0    0 -0.19631423950E+01 -0.16766122124E+02 -0.25349715150E+01  0.17069940245E+02  0.51100000000E-03 0. -1.
        -11    1    3    3    0    0 -0.35669223446E+01 -0.42329238786E+01  0.63689814155E+01  0.84382761336E+01  0.51100000000E-03 0.  1.
         12    1    3    3    0    0 -0.11823159075E+02 -0.58853376786E+01  0.21251074389E+02  0.25020640535E+02  0.00000000000E+00 0. -1.
</event>
<event>
 7    1  0.5855569E-013  0.5052889E+02  0.7816164E-02  0.1300439E+00
        -11   -1    0    0    0    0  0.00000000000E+00  0.00000000000E+00  0.45593999997E+02  0.45594000000E+02  0.51100000000E-03 0.  1.
         11   -1    0    0    0    0 -0.00000000000E+00 -0.00000000000E+00 -0.45593999997E+02  0.45594000000E+02  0.51100000000E-03 0. -1.
    9900012    2    1    2    0    0 -0.45401297596E+01  0.80727627282E+01 -0.39590165911E+02  0.50528886469E+02  0.30000080911E+02 0.  0.
        -12    1    1    2    0    0  0.45401297596E+01 -0.80727627282E+01  0.39590165911E+02  0.40659113531E+02  0.00000000000E+00 0.  1.
         11    1    3    3    0    0  0.25877486565E+01 -0.20884331604E+01 -0.73230723180E+01  0.80427224626E+01  0.51100000000E-03 0. -1.
        -11    1    3    3    0    0 -0.47144533050E+01 -0.78635987535E+01 -0.80494317834E+01  0.12200639640E+02  0.51100000000E-03 0.  1.
         12    1    3    3    0    0 -0.24134251112E+01  0.18024794642E+02 -0.24217661809E+02  0.30285524367E+02  0.00000000000E+00 0. -1.
</event>
<event>
 7    1  0.5855569E-013  0.5052886E+02  0.7816164E-02  0.1300439E+00
        -11   -1    0    0    0    0  0.00000000000E+00  0.00000000000E+00  0.45593999997E+02  0.45594000000E+02  0.51100000000E-03 0.  1.
         11   -1    0    0    0    0 -0.00000000000E+00 -0.00000000000E+00 -0.45593999997E+02  0.45594000000E+02  0.51100000000E-03 0. -1.
    9900012    2    1    2    0    0 -0.29444117196E+02  0.51493786937E+01 -0.27562536928E+02  0.50528861048E+02  0.30000003642E+02 0.  0.
        -12    1    1    2    0    0  0.29444117196E+02 -0.51493786937E+01  0.27562536928E+02  0.40659138952E+02  0.00000000000E+00 0.  1.
         11    1    3    3    0    0 -0.15928668087E+02  0.86373746085E+00 -0.25270343113E+02  0.29884088588E+02  0.51100000000E-03 0. -1.
        -11    1    3    3    0    0  0.10735050025E+01 -0.11043545370E+01 -0.46644075754E+01  0.49120983524E+01  0.51100000000E-03 0.  1.
        -12    1    3    3    0    0 -0.14588954112E+02  0.53899957699E+01  0.23722137596E+01  0.15732674108E+02  0.00000000000E+00 0.  1.
</event>
<event>
 7    1  0.5855569E-013  0.5052886E+02  0.7816164E-02  0.1300439E+00
        -11   -1    0    0    0    0  0.00000000000E+00  0.00000000000E+00  0.45593999997E+02  0.45594000000E+02  0.51100000000E-03 0.  1.
         11   -1    0    0    0    0 -0.00000000000E+00 -0.00000000000E+00 -0.45593999997E+02  0.45594000000E+02  0.51100000000E-03 0. -1.
    9900012    2    1    2    0    0  0.35035935215E+02  0.15452999320E+02 -0.13669449197E+02  0.50528858522E+02  0.29999995965E+02 0.  0.
        -12    1    1    2    0    0 -0.35035935215E+02 -0.15452999320E+02  0.13669449197E+02  0.40659141478E+02  0.00000000000E+00 0.  1.
         11    1    3    3    0    0 -0.11713173899E+01  0.91412104068E+00 -0.13323403211E+01  0.19956785055E+01  0.51100000000E-03 0. -1.
        -11    1    3    3    0    0  0.36938790284E+01 -0.28247279768E+01 -0.10666371528E+02  0.11635949134E+02  0.51100000000E-03 0.  1.
         12    1    3    3    0    0  0.32513373576E+02  0.17363606256E+02 -0.16707373476E+01  0.36897230883E+02  0.00000000000E+00 0. -1.
</event>
<event>
 7    1  0.5855569E-013  0.5052887E+02  0.7816164E-02  0.1300439E+00
        -11   -1    0    0    0    0  0.00000000000E+00  0.00000000000E+00  0.45593999997E+02  0.45594000000E+02  0.51100000000E-03 0.  1.
         11   -1    0    0    0    0 -0.00000000000E+00 -0.00000000000E+00 -0.45593999997E+02  0.45594000000E+02  0.51100000000E-03 0. -1.
    9900012    2    1    2    0    0  0.26654701042E+02 -0.27086562902E+02  0.14457180288E+02  0.50528867700E+02  0.30000023862E+02 0.  0.
        -12    1    1    2    0    0 -0.26654701042E+02  0.27086562902E+02 -0.14457180288E+02  0.40659132300E+02  0.00000000000E+00 0.  1.
         11    1    3    3    0    0 -0.18251891943E+01  0.19351766633E+01 -0.19416230590E+01  0.32933455144E+01  0.51100000000E-03 0. -1.
        -11    1    3    3    0    0  0.55731737274E+01  0.75972369332E+00 -0.11917939508E+01  0.57495929046E+01  0.51100000000E-03 0.  1.
        -12    1    3    3    0    0  0.22906716509E+02 -0.29781463258E+02  0.17590597298E+02  0.41485929281E+02  0.00000000000E+00 0.  1.
</event>
<event>
 7    1  0.5855569E-013  0.5052886E+02  0.7816164E-02  0.1300439E+00
        -11   -1    0    0    0    0  0.00000000000E+00  0.00000000000E+00  0.45593999997E+02  0.45594000000E+02  0.51100000000E-03 0.  1.
         11   -1    0    0    0    0 -0.00000000000E+00 -0.00000000000E+00 -0.45593999997E+02  0.45594000000E+02  0.51100000000E-03 0. -1.
    9900012    2    1    2    0    0  0.33516559203E+02  0.20013709806E+02 -0.11369127190E+02  0.50528863584E+02  0.30000011350E+02 0.  0.
        -12    1    1    2    0    0 -0.33516559203E+02 -0.20013709806E+02  0.11369127190E+02  0.40659136416E+02  0.00000000000E+00 0.  1.
         11    1    3    3    0    0  0.25223556619E+02  0.56568559495E+01 -0.33415619295E+01  0.26065184905E+02  0.51100000000E-03 0. -1.
        -11    1    3    3    0    0 -0.43517420688E+01  0.16173280106E+01  0.34927891752E+00  0.46556852289E+01  0.51100000000E-03 0.  1.
         12    1    3    3    0    0  0.12644744653E+02  0.12739525846E+02 -0.83768441776E+01  0.19807993450E+02  0.00000000000E+00 0. -1.
</event>
<event>
 7    1  0.5855569E-013  0.5052888E+02  0.7816164E-02  0.1300439E+00
        -11   -1    0    0    0    0  0.00000000000E+00  0.00000000000E+00  0.45593999997E+02  0.45594000000E+02  0.51100000000E-03 0.  1.
         11   -1    0    0    0    0 -0.00000000000E+00 -0.00000000000E+00 -0.45593999997E+02  0.45594000000E+02  0.51100000000E-03 0. -1.
    9900012    2    1    2    0    0 -0.46629619147E+01 -0.20166695403E+02 -0.34996077121E+02  0.50528877640E+02  0.30000054073E+02 0.  0.
        -12    1    1    2    0    0  0.46629619147E+01  0.20166695403E+02  0.34996077121E+02  0.40659122360E+02  0.00000000000E+00 0.  1.
         11    1    3    3    0    0  0.18022396190E+01 -0.48382798330E+01 -0.21702001773E+02  0.22307709444E+02  0.51100000000E-03 0. -1.
        -11    1    3    3    0    0  0.61615235709E+01 -0.31863908238E+01 -0.62615113988E+01  0.93447303040E+01  0.51100000000E-03 0.  1.
        -12    1    3    3    0    0 -0.12626725105E+02 -0.12142024746E+02 -0.70325639483E+01  0.18876437892E+02  0.00000000000E+00 0.  1.
</event>
<event>
 7    1  0.5855569E-013  0.5052887E+02  0.7816164E-02  0.1300439E+00
        -11   -1    0    0    0    0  0.00000000000E+00  0.00000000000E+00  0.45593999997E+02  0.45594000000E+02  0.51100000000E-03 0. -1.
         11   -1    0    0    0    0 -0.00000000000E+00 -0.00000000000E+00 -0.45593999997E+02  0.45594000000E+02  0.51100000000E-03 0.  1.
    9900012    2    1    2    0    0  0.36790967981E+01  0.40452228090E+02  0.18018541870E+01  0.50528865857E+02  0.30000018260E+02 0.  0.
        -12    1    1    2    0    0 -0.36790967981E+01 -0.40452228090E+02 -0.18018541870E+01  0.40659134143E+02  0.00000000000E+00 0.  1.
         11    1    3    3    0    0  0.16820542553E+01 -0.39090221209E+01 -0.32076253330E+01  0.53290356536E+01  0.51100000000E-03 0. -1.
        -11    1    3    3    0    0  0.26756743068E+00  0.34255814733E+01  0.23069208617E+01  0.41386090518E+01  0.51100000000E-03 0.  1.
         12    1    3    3    0    0  0.17294751120E+01  0.40935668738E+02  0.27025586583E+01  0.41061221152E+02  0.00000000000E+00 0. -1.
</event>
<event>
 7    1  0.5855569E-013  0.5052886E+02  0.7816164E-02  0.1300439E+00
        -11   -1    0    0    0    0  0.00000000000E+00  0.00000000000E+00  0.45593999997E+02  0.45594000000E+02  0.51100000000E-03 0. -1.
         11   -1    0    0    0    0 -0.00000000000E+00 -0.00000000000E+00 -0.45593999997E+02  0.45594000000E+02  0.51100000000E-03 0.  1.
    9900012    2    1    2    0    0 -0.27793560249E+02  0.57229250841E+01  0.29119268635E+02  0.50528859962E+02  0.30000000339E+02 0.  0.
        -12    1    1    2    0    0  0.27793560249E+02 -0.57229250841E+01 -0.29119268635E+02  0.40659140038E+02  0.00000000000E+00 0.  1.
         11    1    3    3    0    0 -0.15809458014E+02 -0.33080254257E+01  0.69810743162E+01  0.17595948220E+02  0.51100000000E-03 0. -1.
        -11    1    3    3    0    0 -0.23980885946E+01 -0.52353354792E+01  0.12683309533E+01  0.58964591201E+01  0.51100000000E-03 0.  1.
         12    1    3    3    0    0 -0.95860136405E+01  0.14266285989E+02  0.20869863366E+02  0.27036452621E+02  0.00000000000E+00 0. -1.
</event>
<event>
 7    1  0.5855569E-013  0.5052886E+02  0.7816164E-02  0.1300439E+00
        -11   -1    0    0    0    0  0.00000000000E+00  0.00000000000E+00  0.45593999997E+02  0.45594000000E+02  0.51100000000E-03 0.  1.
         11   -1    0    0    0    0 -0.00000000000E+00 -0.00000000000E+00 -0.45593999997E+02  0.45594000000E+02  0.51100000000E-03 0. -1.
    9900012    2    1    2    0    0 -0.30433856400E+02  0.13863884676E+02 -0.23124415558E+02  0.50528861930E+02  0.30000006322E+02 0.  0.
        -12    1    1    2    0    0  0.30433856400E+02 -0.13863884676E+02  0.23124415558E+02  0.40659138070E+02  0.00000000000E+00 0.  1.
         11    1    3    3    0    0 -0.25534312707E+02  0.60690387158E+01 -0.19605761735E+02  0.32760040443E+02  0.51100000000E-03 0. -1.
        -11    1    3    3    0    0  0.19558201888E+01 -0.15848882893E+01 -0.54389760011E+01  0.59932932268E+01  0.51100000000E-03 0.  1.
        -12    1    3    3    0    0 -0.68553638823E+01  0.93797342493E+01  0.19203221778E+01  0.11775528260E+02  0.00000000000E+00 0.  1.
</event>
<event>
 7    1  0.5855569E-013  0.5052885E+02  0.7816164E-02  0.1300439E+00
        -11   -1    0    0    0    0  0.00000000000E+00  0.00000000000E+00  0.45593999997E+02  0.45594000000E+02  0.51100000000E-03 0.  1.
         11   -1    0    0    0    0 -0.00000000000E+00 -0.00000000000E+00 -0.45593999997E+02  0.45594000000E+02  0.51100000000E-03 0. -1.
    9900012    2    1    2    0    0 -0.74883553672E+01  0.17833499758E+02 -0.35763905144E+02  0.50528854769E+02  0.29999984557E+02 0.  0.
        -12    1    1    2    0    0  0.74883553672E+01 -0.17833499758E+02  0.35763905144E+02  0.40659145231E+02  0.00000000000E+00 0.  1.
         11    1    3    3    0    0 -0.27444010314E+01  0.21947794909E+02 -0.29449709765E+02  0.36831003840E+02  0.51100000000E-03 0. -1.
        -11    1    3    3    0    0  0.15318505173E+01  0.25610096143E+01 -0.17855488745E+01  0.34775740534E+01  0.51100000000E-03 0.  1.
        -12    1    3    3    0    0 -0.62758048531E+01 -0.66753047650E+01 -0.45286465050E+01  0.10220276876E+02  0.00000000000E+00 0.  1.
</event>
<event>
 7    1  0.5855569E-013  0.5052886E+02  0.7816164E-02  0.1300439E+00
        -11   -1    0    0    0    0  0.00000000000E+00  0.00000000000E+00  0.45593999997E+02  0.45594000000E+02  0.51100000000E-03 0.  1.
         11   -1    0    0    0    0 -0.00000000000E+00 -0.00000000000E+00 -0.45593999997E+02  0.45594000000E+02  0.51100000000E-03 0. -1.
    9900012    2    1    2    0    0 -0.32773354775E+01 -0.20753414387E+02 -0.34809775622E+02  0.50528860617E+02  0.30000002330E+02 0.  0.
        -12    1    1    2    0    0  0.32773354775E+01  0.20753414387E+02  0.34809775622E+02  0.40659139383E+02  0.00000000000E+00 0.  1.
         11    1    3    3    0    0  0.33958597393E+01 -0.57556580768E+00 -0.43788440454E+01  0.55711232981E+01  0.51100000000E-03 0. -1.
        -11    1    3    3    0    0  0.43056300524E+01 -0.59075195591E+01  0.22472290393E+01  0.76476974381E+01  0.51100000000E-03 0.  1.
         12    1    3    3    0    0 -0.10978825269E+02 -0.14270329021E+02 -0.32678160616E+02  0.37310039880E+02  0.00000000000E+00 0. -1.
</event>
<event>
 7    1  0.5855569E-013  0.5052875E+02  0.7816164E-02  0.1300439E+00
        -11   -1    0    0    0    0  0.00000000000E+00  0.00000000000E+00  0.45593999997E+02  0.45594000000E+02  0.51100000000E-03 0. -1.
         11   -1    0    0    0    0 -0.00000000000E+00 -0.00000000000E+00 -0.45593999997E+02  0.45594000000E+02  0.51100000000E-03 0.  1.
    9900012    2    1    2    0    0 -0.35006188644E+02 -0.11373193590E+02  0.17274015385E+02  0.50528752794E+02  0.29999674591E+02 0.  0.
        -12    1    1    2    0    0  0.35006188644E+02  0.11373193590E+02 -0.17274015385E+02  0.40659247206E+02  0.00000000000E+00 0.  1.
         11    1    3    3    0    0 -0.25838006458E+02 -0.64462366469E+01  0.60222072640E+01  0.27302445408E+02  0.51100000000E-03 0. -1.
        -11    1    3    3    0    0 -0.15311175641E+01  0.29562116889E+00 -0.46082220262E+01  0.48649176123E+01  0.51100000000E-03 0.  1.
        -12    1    3    3    0    0 -0.76370646221E+01 -0.52225781118E+01  0.15860030147E+02  0.18361389774E+02  0.00000000000E+00 0.  1.
</event>
<event>
 7    1  0.5855569E-013  0.5052886E+02  0.7816164E-02  0.1300439E+00
        -11   -1    0    0    0    0  0.00000000000E+00  0.00000000000E+00  0.45593999997E+02  0.45594000000E+02  0.51100000000E-03 0.  1.
         11   -1    0    0    0    0 -0.00000000000E+00 -0.00000000000E+00 -0.45593999997E+02  0.45594000000E+02  0.51100000000E-03 0. -1.
    9900012    2    1    2    0    0  0.23703605732E+02 -0.31549278322E+02 -0.97952870560E+01  0.50528861595E+02  0.30000005306E+02 0.  0.
        -12    1    1    2    0    0 -0.23703605732E+02  0.31549278322E+02  0.97952870560E+01  0.40659138405E+02  0.00000000000E+00 0.  1.
         11    1    3    3    0    0  0.89665226786E+01 -0.12973785622E+02  0.66259044444E+01  0.17106146623E+02  0.51100000000E-03 0. -1.
        -11    1    3    3    0    0  0.20716460850E-01 -0.33339981815E+01  0.31449891218E+01  0.45833317448E+01  0.51100000000E-03 0.  1.
         12    1    3    3    0    0  0.14716366592E+02 -0.15241494518E+02 -0.19566180622E+02  0.28839383228E+02  0.00000000000E+00 0. -1.
</event>
<event>
 7    1  0.5855569E-013  0.5052887E+02  0.7816164E-02  0.1300439E+00
        -11   -1    0    0    0    0  0.00000000000E+00  0.00000000000E+00  0.45593999997E+02  0.45594000000E+02  0.51100000000E-03 0.  1.
         11   -1    0    0    0    0 -0.00000000000E+00 -0.00000000000E+00 -0.45593999997E+02  0.45594000000E+02  0.51100000000E-03 0. -1.
    9900012    2    1    2    0    0  0.40243807756E+02  0.24548300773E+01 -0.52511851439E+01  0.50528865740E+02  0.30000017903E+02 0.  0.
        -12    1    1    2    0    0 -0.40243807756E+02 -0.24548300773E+01  0.52511851439E+01  0.40659134260E+02  0.00000000000E+00 0.  1.
         11    1    3    3    0    0  0.25629639390E+02  0.50579699346E+01 -0.30265955498E+01  0.26298702554E+02  0.51100000000E-03 0. -1.
        -11    1    3    3    0    0  0.15184872095E+02  0.18379690377E+01  0.46845439680E+01  0.15996981690E+02  0.51100000000E-03 0.  1.
        -12    1    3    3    0    0 -0.57070373018E+00 -0.44411088950E+01 -0.69091335621E+01  0.82331814959E+01  0.00000000000E+00 0.  1.
</event>
<event>
 7    1  0.5855569E-013  0.5052886E+02  0.7816164E-02  0.1300439E+00
        -11   -1    0    0    0    0  0.00000000000E+00  0.00000000000E+00  0.45593999997E+02  0.45594000000E+02  0.51100000000E-03 0.  1.
         11   -1    0    0    0    0 -0.00000000000E+00 -0.00000000000E+00 -0.45593999997E+02  0.45594000000E+02  0.51100000000E-03 0. -1.
    9900012    2    1    2    0    0 -0.27587815294E+01  0.31162515651E+01 -0.40445567737E+02  0.50528857745E+02  0.29999993601E+02 0.  0.
        -12    1    1    2    0    0  0.27587815294E+01 -0.31162515651E+01  0.40445567737E+02  0.40659142255E+02  0.00000000000E+00 0.  1.
         11    1    3    3    0    0  0.88750111992E+00  0.10719401757E+02 -0.23272973547E+02  0.25638341020E+02  0.51100000000E-03 0. -1.
        -11    1    3    3    0    0 -0.84073398989E+01 -0.19952230326E+01 -0.14841436900E+02  0.17173599758E+02  0.51100000000E-03 0.  1.
        -12    1    3    3    0    0  0.47610572496E+01 -0.56079271598E+01 -0.23311572902E+01  0.77169169669E+01  0.00000000000E+00 0.  1.
</event>
<event>
 7    1  0.5855569E-013  0.5052886E+02  0.7816164E-02  0.1300439E+00
        -11   -1    0    0    0    0  0.00000000000E+00  0.00000000000E+00  0.45593999997E+02  0.45594000000E+02  0.51100000000E-03 0. -1.
         11   -1    0    0    0    0 -0.00000000000E+00 -0.00000000000E+00 -0.45593999997E+02  0.45594000000E+02  0.51100000000E-03 0.  1.
    9900012    2    1    2    0    0 -0.31655813418E+02  0.45821529651E+01  0.25101374030E+02  0.50528860472E+02  0.30000001890E+02 0.  0.
        -12    1    1    2    0    0  0.31655813418E+02 -0.45821529651E+01 -0.25101374030E+02  0.40659139528E+02  0.00000000000E+00 0.  1.
         11    1    3    3    0    0 -0.13033692013E+02 -0.10491855724E+02  0.11644309223E+02  0.20384947917E+02  0.51100000000E-03 0. -1.
        -11    1    3    3    0    0 -0.95085567217E+01  0.46217288014E+01  0.12313345218E+02  0.16229340675E+02  0.51100000000E-03 0.  1.
        -12    1    3    3    0    0 -0.91135646839E+01  0.10452279888E+02  0.11437195891E+01  0.13914571880E+02  0.00000000000E+00 0.  1.
</event>
<event>
 7    1  0.5855569E-013  0.5052890E+02  0.7816164E-02  0.1300439E+00
        -11   -1    0    0    0    0  0.00000000000E+00  0.00000000000E+00  0.45593999997E+02  0.45594000000E+02  0.51100000000E-03 0. -1.
         11   -1    0    0    0    0 -0.00000000000E+00 -0.00000000000E+00 -0.45593999997E+02  0.45594000000E+02  0.51100000000E-03 0.  1.
    9900012    2    1    2    0    0  0.24281162399E+02  0.32597181721E+02  0.10055864384E+01  0.50528901293E+02  0.30000125970E+02 0.  0.
        -12    1    1    2    0    0 -0.24281162399E+02 -0.32597181721E+02 -0.10055864384E+01  0.40659098707E+02  0.00000000000E+00 0.  1.
         11    1    3    3    0    0  0.26075312063E+02  0.27202293449E+02  0.58262727438E+00  0.37685887582E+02  0.51100000000E-03 0. -1.
        -11    1    3    3    0    0  0.30885884114E+01  0.63922314208E+01  0.23819730225E+01  0.74882438965E+01  0.51100000000E-03 0.  1.
        -12    1    3    3    0    0 -0.48827380749E+01 -0.99734314953E+00 -0.19590138584E+01  0.53547698143E+01  0.00000000000E+00 0.  1.
</event>
<event>
 7    1  0.5855569E-013  0.5052886E+02  0.7816164E-02  0.1300439E+00
        -11   -1    0    0    0    0  0.00000000000E+00  0.00000000000E+00  0.45593999997E+02  0.45594000000E+02  0.51100000000E-03 0. -1.
         11   -1    0    0    0    0 -0.00000000000E+00 -0.00000000000E+00 -0.45593999997E+02  0.45594000000E+02  0.51100000000E-03 0.  1.
    9900012    2    1    2    0    0  0.88886407510E+01  0.38765424136E+02 -0.84498208328E+01  0.50528861852E+02  0.30000006084E+02 0.  0.
        -12    1    1    2    0    0 -0.88886407510E+01 -0.38765424136E+02  0.84498208328E+01  0.40659138148E+02  0.00000000000E+00 0.  1.
         11    1    3    3    0    0  0.42192584352E+01 -0.11505040506E+01  0.30216906052E+01  0.53156764093E+01  0.51100000000E-03 0.  1.
        -11    1    3    3    0    0  0.71594216497E+01  0.14151282948E+02 -0.11042515996E+02  0.19324939514E+02  0.51100000000E-03 0. -1.
        -12    1    3    3    0    0 -0.24900393340E+01  0.25764645238E+02 -0.42899544162E+00  0.25888245928E+02  0.00000000000E+00 0.  1.
</event>
<event>
 7    1  0.5855569E-013  0.5052886E+02  0.7816164E-02  0.1300439E+00
        -11   -1    0    0    0    0  0.00000000000E+00  0.00000000000E+00  0.45593999997E+02  0.45594000000E+02  0.51100000000E-03 0. -1.
         11   -1    0    0    0    0 -0.00000000000E+00 -0.00000000000E+00 -0.45593999997E+02  0.45594000000E+02  0.51100000000E-03 0.  1.
    9900012    2    1    2    0    0  0.30697882026E+02 -0.23608843331E+02  0.12386617397E+02  0.50528859148E+02  0.29999997865E+02 0.  0.
        -12    1    1    2    0    0 -0.30697882026E+02  0.23608843331E+02 -0.12386617397E+02  0.40659140852E+02  0.00000000000E+00 0.  1.
         11    1    3    3    0    0 -0.28549848578E+01 -0.10454904763E+02  0.49392372903E+01  0.11910165297E+02  0.51100000000E-03 0. -1.
        -11    1    3    3    0    0  0.15067574242E+02 -0.41046773340E+00  0.37101792087E+00  0.15077729666E+02  0.51100000000E-03 0.  1.
        -12    1    3    3    0    0  0.18485292641E+02 -0.12743470835E+02  0.70763621859E+01  0.23540964185E+02  0.00000000000E+00 0.  1.
</event>
<event>
 7    1  0.5855569E-013  0.5052887E+02  0.7816164E-02  0.1300439E+00
        -11   -1    0    0    0    0  0.00000000000E+00  0.00000000000E+00  0.45593999997E+02  0.45594000000E+02  0.51100000000E-03 0.  1.
         11   -1    0    0    0    0 -0.00000000000E+00 -0.00000000000E+00 -0.45593999997E+02  0.45594000000E+02  0.51100000000E-03 0. -1.
    9900012    2    1    2    0    0 -0.31652643433E+02 -0.11555275903E+02 -0.22754140339E+02  0.50528866461E+02  0.30000020096E+02 0.  0.
        -12    1    1    2    0    0  0.31652643433E+02  0.11555275903E+02  0.22754140339E+02  0.40659133539E+02  0.00000000000E+00 0.  1.
         11    1    3    3    0    0 -0.19446509589E+02 -0.58305206520E+01 -0.85877349981E+01  0.22043386739E+02  0.51100000000E-03 0. -1.
        -11    1    3    3    0    0 -0.14363302667E+02 -0.96073466048E+01 -0.16121347821E+02  0.23632677126E+02  0.51100000000E-03 0.  1.
         12    1    3    3    0    0  0.21571688229E+01  0.38825913533E+01  0.19549424795E+01  0.48528025970E+01  0.00000000000E+00 0. -1.
</event>
<event>
 7    1  0.5855569E-013  0.5052887E+02  0.7816164E-02  0.1300439E+00
        -11   -1    0    0    0    0  0.00000000000E+00  0.00000000000E+00  0.45593999997E+02  0.45594000000E+02  0.51100000000E-03 0. -1.
         11   -1    0    0    0    0 -0.00000000000E+00 -0.00000000000E+00 -0.45593999997E+02  0.45594000000E+02  0.51100000000E-03 0.  1.
    9900012    2    1    2    0    0 -0.82007130588E+01  0.16837739298E+02 -0.36088831408E+02  0.50528869270E+02  0.30000028633E+02 0.  0.
        -12    1    1    2    0    0  0.82007130588E+01 -0.16837739298E+02  0.36088831408E+02  0.40659130730E+02  0.00000000000E+00 0.  1.
         11    1    3    3    0    0  0.12837374359E+01  0.14198371304E+02 -0.81641333011E+01  0.16428475350E+02  0.51100000000E-03 0. -1.
        -11    1    3    3    0    0  0.38879565903E+01 -0.15463403130E+01 -0.12873219560E+02  0.13536142615E+02  0.51100000000E-03 0.  1.
         12    1    3    3    0    0 -0.13372407085E+02  0.41857083063E+01 -0.15051478547E+02  0.20564251305E+02  0.00000000000E+00 0. -1.
</event>
<event>
 7    1  0.5855569E-013  0.5052886E+02  0.7816164E-02  0.1300439E+00
        -11   -1    0    0    0    0  0.00000000000E+00  0.00000000000E+00  0.45593999997E+02  0.45594000000E+02  0.51100000000E-03 0. -1.
         11   -1    0    0    0    0 -0.00000000000E+00 -0.00000000000E+00 -0.45593999997E+02  0.45594000000E+02  0.51100000000E-03 0.  1.
    9900012    2    1    2    0    0 -0.31602669749E+02  0.14165946944E+02  0.21301707988E+02  0.50528861405E+02  0.30000004726E+02 0.  0.
        -12    1    1    2    0    0  0.31602669749E+02 -0.14165946944E+02 -0.21301707988E+02  0.40659138595E+02  0.00000000000E+00 0.  1.
         11    1    3    3    0    0 -0.55442446648E+00  0.55692646099E+01  0.39684347513E+01  0.68609452279E+01  0.51100000000E-03 0. -1.
        -11    1    3    3    0    0 -0.91868433430E+01  0.14082581596E+02  0.11548624038E+02  0.20398233071E+02  0.51100000000E-03 0.  1.
         12    1    3    3    0    0 -0.21861401940E+02 -0.54858992618E+01  0.57846491989E+01  0.23269683106E+02  0.00000000000E+00 0. -1.
</event>
<event>
 7    1  0.5855569E-013  0.5052884E+02  0.7816164E-02  0.1300439E+00
        -11   -1    0    0    0    0  0.00000000000E+00  0.00000000000E+00  0.45593999997E+02  0.45594000000E+02  0.51100000000E-03 0. -1.
         11   -1    0    0    0    0 -0.00000000000E+00 -0.00000000000E+00 -0.45593999997E+02  0.45594000000E+02  0.51100000000E-03 0.  1.
    9900012    2    1    2    0    0 -0.35701269786E+02 -0.11479119544E+02 -0.15710398968E+02  0.50528837618E+02  0.29999932424E+02 0.  0.
        -12    1    1    2    0    0  0.35701269786E+02  0.11479119544E+02  0.15710398968E+02  0.40659162382E+02  0.00000000000E+00 0.  1.
         11    1    3    3    0    0 -0.18270585870E+02 -0.88111662225E+01 -0.23175435147E+00  0.20285577847E+02  0.51100000000E-03 0. -1.
        -11    1    3    3    0    0 -0.89898187126E+01  0.57406188738E+01  0.55079202174E-01  0.10666516747E+02  0.51100000000E-03 0.  1.
        -12    1    3    3    0    0 -0.84408652032E+01 -0.84085721957E+01 -0.15533723819E+02  0.19576743024E+02  0.00000000000E+00 0.  1.
</event>
<event>
 7    1  0.5855569E-013  0.5052886E+02  0.7816164E-02  0.1300439E+00
        -11   -1    0    0    0    0  0.00000000000E+00  0.00000000000E+00  0.45593999997E+02  0.45594000000E+02  0.51100000000E-03 0.  1.
         11   -1    0    0    0    0 -0.00000000000E+00 -0.00000000000E+00 -0.45593999997E+02  0.45594000000E+02  0.51100000000E-03 0. -1.
    9900012    2    1    2    0    0  0.30131683122E+02  0.22664111192E+02 -0.15217930709E+02  0.50528859835E+02  0.29999999955E+02 0.  0.
        -12    1    1    2    0    0 -0.30131683122E+02 -0.22664111192E+02  0.15217930709E+02  0.40659140165E+02  0.00000000000E+00 0.  1.
         11    1    3    3    0    0  0.55509294789E+01  0.27736642696E+01 -0.44489240712E+01  0.76353753813E+01  0.51100000000E-03 0. -1.
        -11    1    3    3    0    0  0.22086573891E+02  0.25341904214E+02 -0.13601171815E+02  0.36263214563E+02  0.51100000000E-03 0.  1.
        -12    1    3    3    0    0  0.24941797518E+01 -0.54514572917E+01  0.28321651767E+01  0.66302698909E+01  0.00000000000E+00 0.  1.
</event>
<event>
 7    1  0.5855569E-013  0.5052885E+02  0.7816164E-02  0.1300439E+00
        -11   -1    0    0    0    0  0.00000000000E+00  0.00000000000E+00  0.45593999997E+02  0.45594000000E+02  0.51100000000E-03 0. -1.
         11   -1    0    0    0    0 -0.00000000000E+00 -0.00000000000E+00 -0.45593999997E+02  0.45594000000E+02  0.51100000000E-03 0.  1.
    9900012    2    1    2    0    0 -0.11930797191E+02  0.29369462118E+02 -0.25460902490E+02  0.50528846267E+02  0.29999958713E+02 0.  0.
        -12    1    1    2    0    0  0.11930797191E+02 -0.29369462118E+02  0.25460902490E+02  0.40659153733E+02  0.00000000000E+00 0.  1.
         11    1    3    3    0    0 -0.18418837777E+01 -0.38371066672E+00 -0.99646903053E+01  0.10140750607E+02  0.51100000000E-03 0. -1.
        -11    1    3    3    0    0 -0.40752460478E+01 -0.21696387731E+01 -0.61558397375E+00  0.46576718053E+01  0.51100000000E-03 0.  1.
         12    1    3    3    0    0 -0.60136673655E+01  0.31922811557E+02 -0.14880628211E+02  0.35730423855E+02  0.00000000000E+00 0. -1.
</event>
<event>
 7    1  0.5855569E-013  0.5052889E+02  0.7816164E-02  0.1300439E+00
        -11   -1    0    0    0    0  0.00000000000E+00  0.00000000000E+00  0.45593999997E+02  0.45594000000E+02  0.51100000000E-03 0.  1.
         11   -1    0    0    0    0 -0.00000000000E+00 -0.00000000000E+00 -0.45593999997E+02  0.45594000000E+02  0.51100000000E-03 0. -1.
    9900012    2    1    2    0    0  0.13781207927E+02  0.37695927264E+02 -0.65006425614E+01  0.50528893050E+02  0.30000100916E+02 0.  0.
        -12    1    1    2    0    0 -0.13781207927E+02 -0.37695927264E+02  0.65006425614E+01  0.40659106950E+02  0.00000000000E+00 0.  1.
         11    1    3    3    0    0  0.88545157230E+01  0.81839606820E+01 -0.11023275472E+02  0.16336837623E+02  0.51100000000E-03 0. -1.
        -11    1    3    3    0    0  0.45245996140E+01  0.40775251557E+01  0.62101590998E+01  0.86985222520E+01  0.51100000000E-03 0.  1.
         12    1    3    3    0    0  0.40209258970E+00  0.25434441426E+02 -0.16875261894E+01  0.25493533175E+02  0.00000000000E+00 0. -1.
</event>
<event>
 7    1  0.5855569E-013  0.5052891E+02  0.7816164E-02  0.1300439E+00
        -11   -1    0    0    0    0  0.00000000000E+00  0.00000000000E+00  0.45593999997E+02  0.45594000000E+02  0.51100000000E-03 0.  1.
         11   -1    0    0    0    0 -0.00000000000E+00 -0.00000000000E+00 -0.45593999997E+02  0.45594000000E+02  0.51100000000E-03 0. -1.
    9900012    2    1    2    0    0  0.14684999265E+02 -0.24466038125E+02 -0.28964207679E+02  0.50528910593E+02  0.30000154237E+02 0.  0.
        -12    1    1    2    0    0 -0.14684999265E+02  0.24466038125E+02  0.28964207679E+02  0.40659089407E+02  0.00000000000E+00 0.  1.
         11    1    3    3    0    0 -0.21339629148E+01 -0.12243348130E+02 -0.56995988151E+01  0.13672556384E+02  0.51100000000E-03 0. -1.
        -11    1    3    3    0    0  0.57561263023E+01 -0.95777938264E+01 -0.24186483352E+00  0.11177013172E+02  0.51100000000E-03 0.  1.
         12    1    3    3    0    0  0.11062835877E+02 -0.26448961684E+01 -0.23022744031E+02  0.25679341037E+02  0.00000000000E+00 0. -1.
</event>
<event>
 7    1  0.5855569E-013  0.5052886E+02  0.7816164E-02  0.1300439E+00
        -11   -1    0    0    0    0  0.00000000000E+00  0.00000000000E+00  0.45593999997E+02  0.45594000000E+02  0.51100000000E-03 0. -1.
         11   -1    0    0    0    0 -0.00000000000E+00 -0.00000000000E+00 -0.45593999997E+02  0.45594000000E+02  0.51100000000E-03 0.  1.
    9900012    2    1    2    0    0 -0.85348025286E+01  0.63421202967E+01  0.39244116838E+02  0.50528855267E+02  0.29999986069E+02 0.  0.
        -12    1    1    2    0    0  0.85348025286E+01 -0.63421202967E+01 -0.39244116838E+02  0.40659144733E+02  0.00000000000E+00 0.  1.
         11    1    3    3    0    0  0.31269013029E+01  0.23076701247E+01 -0.15878303060E+01  0.41981017739E+01  0.51100000000E-03 0. -1.
        -11    1    3    3    0    0 -0.96936007975E+01  0.25600087282E+01  0.65837600804E+01  0.11994391947E+02  0.51100000000E-03 0.  1.
         12    1    3    3    0    0 -0.19681030340E+01  0.14744414438E+01  0.34248187063E+02  0.34336361546E+02  0.00000000000E+00 0. -1.
</event>
<event>
 7    1  0.5855569E-013  0.5052883E+02  0.7816164E-02  0.1300439E+00
        -11   -1    0    0    0    0  0.00000000000E+00  0.00000000000E+00  0.45593999997E+02  0.45594000000E+02  0.51100000000E-03 0.  1.
         11   -1    0    0    0    0 -0.00000000000E+00 -0.00000000000E+00 -0.45593999997E+02  0.45594000000E+02  0.51100000000E-03 0. -1.
    9900012    2    1    2    0    0  0.37989549071E+01 -0.29375892779E+02 -0.27853057188E+02  0.50528832157E+02  0.29999915826E+02 0.  0.
        -12    1    1    2    0    0 -0.37989549071E+01  0.29375892779E+02  0.27853057188E+02  0.40659167843E+02  0.00000000000E+00 0.  1.
         11    1    3    3    0    0 -0.19824015539E+00 -0.40077085455E+01 -0.12739823423E+00  0.40146304334E+01  0.51100000000E-03 0. -1.
        -11    1    3    3    0    0 -0.10088942974E+02 -0.11864898223E+02 -0.45657022805E+01  0.16229855752E+02  0.51100000000E-03 0.  1.
         12    1    3    3    0    0  0.14086138036E+02 -0.13503286011E+02 -0.23159956673E+02  0.30284345972E+02  0.00000000000E+00 0. -1.
</event>
<event>
 7    1  0.5855569E-013  0.5052890E+02  0.7816164E-02  0.1300439E+00
        -11   -1    0    0    0    0  0.00000000000E+00  0.00000000000E+00  0.45593999997E+02  0.45594000000E+02  0.51100000000E-03 0.  1.
         11   -1    0    0    0    0 -0.00000000000E+00 -0.00000000000E+00 -0.45593999997E+02  0.45594000000E+02  0.51100000000E-03 0. -1.
    9900012    2    1    2    0    0  0.31209124388E+02 -0.26043005797E+02  0.95637571163E+00  0.50528901996E+02  0.30000128106E+02 0.  0.
        -12    1    1    2    0    0 -0.31209124388E+02  0.26043005797E+02 -0.95637571163E+00  0.40659098004E+02  0.00000000000E+00 0.  1.
         11    1    3    3    0    0  0.17439293298E+02 -0.60725125501E+01  0.60507757300E+01  0.19432350516E+02  0.51100000000E-03 0. -1.
        -11    1    3    3    0    0  0.40470438115E+01  0.33125041042E+01  0.49537801608E+00  0.52532510593E+01  0.51100000000E-03 0.  1.
         12    1    3    3    0    0  0.97227872791E+01 -0.23282997351E+02 -0.55897780344E+01  0.25843300420E+02  0.00000000000E+00 0. -1.
</event>
<event>
 7    1  0.5855569E-013  0.5052885E+02  0.7816164E-02  0.1300439E+00
        -11   -1    0    0    0    0  0.00000000000E+00  0.00000000000E+00  0.45593999997E+02  0.45594000000E+02  0.51100000000E-03 0. -1.
         11   -1    0    0    0    0 -0.00000000000E+00 -0.00000000000E+00 -0.45593999997E+02  0.45594000000E+02  0.51100000000E-03 0.  1.
    9900012    2    1    2    0    0 -0.25981784909E+02 -0.19239308360E+02  0.24656889455E+02  0.50528851819E+02  0.29999975588E+02 0.  0.
        -12    1    1    2    0    0  0.25981784909E+02  0.19239308360E+02 -0.24656889455E+02  0.40659148181E+02  0.00000000000E+00 0.  1.
         11    1    3    3    0    0 -0.12244501974E+02 -0.72996301268E+01  0.73106017720E+01  0.16020528303E+02  0.51100000000E-03 0. -1.
        -11    1    3    3    0    0 -0.48871803149E+01 -0.25186665192E+01 -0.58035120294E+01  0.79943082629E+01  0.51100000000E-03 0.  1.
         12    1    3    3    0    0 -0.88501026209E+01 -0.94210117138E+01  0.23149799712E+02  0.26514015253E+02  0.00000000000E+00 0. -1.
</event>
<event>
 7    1  0.5855569E-013  0.5052886E+02  0.7816164E-02  0.1300439E+00
        -11   -1    0    0    0    0  0.00000000000E+00  0.00000000000E+00  0.45593999997E+02  0.45594000000E+02  0.51100000000E-03 0.  1.
         11   -1    0    0    0    0 -0.00000000000E+00 -0.00000000000E+00 -0.45593999997E+02  0.45594000000E+02  0.51100000000E-03 0. -1.
    9900012    2    1    2    0    0  0.23671762065E+02 -0.31615532696E+02 -0.96577060461E+01  0.50528861876E+02  0.30000006158E+02 0.  0.
        -12    1    1    2    0    0 -0.23671762065E+02  0.31615532696E+02  0.96577060461E+01  0.40659138124E+02  0.00000000000E+00 0.  1.
         11    1    3    3    0    0  0.58354426615E+01 -0.41735618095E+01 -0.27372622899E+01  0.76787768777E+01  0.51100000000E-03 0. -1.
        -11    1    3    3    0    0  0.20244274960E+02 -0.30847220368E+02 -0.28250540457E+01  0.37004899726E+02  0.51100000000E-03 0.  1.
         12    1    3    3    0    0 -0.24079555561E+01  0.34052494817E+01 -0.40953897105E+01  0.58451852728E+01  0.00000000000E+00 0. -1.
</event>
<event>
 7    1  0.5855569E-013  0.5052887E+02  0.7816164E-02  0.1300439E+00
        -11   -1    0    0    0    0  0.00000000000E+00  0.00000000000E+00  0.45593999997E+02  0.45594000000E+02  0.51100000000E-03 0. -1.
         11   -1    0    0    0    0 -0.00000000000E+00 -0.00000000000E+00 -0.45593999997E+02  0.45594000000E+02  0.51100000000E-03 0.  1.
    9900012    2    1    2    0    0 -0.67449520874E+01 -0.22865141994E+02  0.32937153982E+02  0.50528865608E+02  0.30000017502E+02 0.  0.
        -12    1    1    2    0    0  0.67449520874E+01  0.22865141994E+02 -0.32937153982E+02  0.40659134392E+02  0.00000000000E+00 0.  1.
         11    1    3    3    0    0 -0.18235705150E+01 -0.50523376386E+01  0.14605509119E+02  0.15561890050E+02  0.51100000000E-03 0. -1.
        -11    1    3    3    0    0  0.36030564632E+01 -0.17455885081E+02  0.19427378333E+02  0.26364995145E+02  0.51100000000E-03 0.  1.
         12    1    3    3    0    0 -0.85244380356E+01 -0.35691927358E+00 -0.10957334697E+01  0.86019804131E+01  0.00000000000E+00 0. -1.
</event>
<event>
 7    1  0.5855569E-013  0.5052886E+02  0.7816164E-02  0.1300439E+00
        -11   -1    0    0    0    0  0.00000000000E+00  0.00000000000E+00  0.45593999997E+02  0.45594000000E+02  0.51100000000E-03 0.  1.
         11   -1    0    0    0    0 -0.00000000000E+00 -0.00000000000E+00 -0.45593999997E+02  0.45594000000E+02  0.51100000000E-03 0. -1.
    9900012    2    1    2    0    0 -0.26771800460E+02  0.10466048920E+02 -0.28755837459E+02  0.50528859972E+02  0.30000000370E+02 0.  0.
        -12    1    1    2    0    0  0.26771800460E+02 -0.10466048920E+02  0.28755837459E+02  0.40659140028E+02  0.00000000000E+00 0.  1.
         11    1    3    3    0    0 -0.17833718812E+02  0.14781783996E+02 -0.18220359303E+02  0.29470733927E+02  0.51100000000E-03 0. -1.
        -11    1    3    3    0    0 -0.18907083009E+01  0.55106658987E+01 -0.16589644073E+01  0.60575886037E+01  0.51100000000E-03 0.  1.
         12    1    3    3    0    0 -0.70473733467E+01 -0.98264009747E+01 -0.88765137485E+01  0.15000537441E+02  0.00000000000E+00 0. -1.
</event>
<event>
 7    1  0.5855569E-013  0.5052886E+02  0.7816164E-02  0.1300439E+00
        -11   -1    0    0    0    0  0.00000000000E+00  0.00000000000E+00  0.45593999997E+02  0.45594000000E+02  0.51100000000E-03 0. -1.
         11   -1    0    0    0    0 -0.00000000000E+00 -0.00000000000E+00 -0.45593999997E+02  0.45594000000E+02  0.51100000000E-03 0.  1.
    9900012    2    1    2    0    0  0.28548147965E+02  0.28344417046E+02 -0.58960086204E+01  0.50528860221E+02  0.30000001129E+02 0.  0.
        -12    1    1    2    0    0 -0.28548147965E+02 -0.28344417046E+02  0.58960086204E+01  0.40659139779E+02  0.00000000000E+00 0.  1.
         11    1    3    3    0    0  0.23832667902E+02  0.17353498486E+02 -0.71488972520E+01  0.30335568252E+02  0.51100000000E-03 0. -1.
        -11    1    3    3    0    0  0.30461087023E+01 -0.31181407595E+01 -0.30827443034E+01  0.53389973519E+01  0.51100000000E-03 0.  1.
        -12    1    3    3    0    0  0.16693713608E+01  0.14109059319E+02  0.43356329349E+01  0.14854294617E+02  0.00000000000E+00 0.  1.
</event>
<event>
 7    1  0.5855569E-013  0.5052886E+02  0.7816164E-02  0.1300439E+00
        -11   -1    0    0    0    0  0.00000000000E+00  0.00000000000E+00  0.45593999997E+02  0.45594000000E+02  0.51100000000E-03 0. -1.
         11   -1    0    0    0    0 -0.00000000000E+00 -0.00000000000E+00 -0.45593999997E+02  0.45594000000E+02  0.51100000000E-03 0.  1.
    9900012    2    1    2    0    0 -0.36392891973E+01  0.37853316863E+02  0.14389153962E+02  0.50528858652E+02  0.29999996359E+02 0.  0.
        -12    1    1    2    0    0  0.36392891973E+01 -0.37853316863E+02 -0.14389153962E+02  0.40659141348E+02  0.00000000000E+00 0.  1.
         11    1    3    3    0    0 -0.10078661597E+01 -0.42445946283E+01 -0.19765889664E+01  0.47894970464E+01  0.51100000000E-03 0. -1.
        -11    1    3    3    0    0  0.10975870774E+01  0.12989005379E+01  0.10640597744E+01  0.20060068456E+01  0.51100000000E-03 0.  1.
         12    1    3    3    0    0 -0.37290101151E+01  0.40799010953E+02  0.15301683154E+02  0.43733354760E+02  0.00000000000E+00 0. -1.
</event>
<event>
 7    1  0.5855569E-013  0.5052886E+02  0.7816164E-02  0.1300439E+00
        -11   -1    0    0    0    0  0.00000000000E+00  0.00000000000E+00  0.45593999997E+02  0.45594000000E+02  0.51100000000E-03 0.  1.
         11   -1    0    0    0    0 -0.00000000000E+00 -0.00000000000E+00 -0.45593999997E+02  0.45594000000E+02  0.51100000000E-03 0. -1.
    9900012    2    1    2    0    0  0.16625961876E+02 -0.33831157745E+02 -0.15237966561E+02  0.50528862434E+02  0.30000007854E+02 0.  0.
        -12    1    1    2    0    0 -0.16625961876E+02  0.33831157745E+02  0.15237966561E+02  0.40659137566E+02  0.00000000000E+00 0.  1.
         11    1    3    3    0    0  0.26514656095E+01 -0.21726912905E+02 -0.92542327866E+01  0.23764045089E+02  0.51100000000E-03 0. -1.
        -11    1    3    3    0    0  0.65772042507E+01 -0.16120142670E+02 -0.22439438944E+01  0.17554312858E+02  0.51100000000E-03 0.  1.
        -12    1    3    3    0    0  0.73972920156E+01  0.40158978300E+01 -0.37397898804E+01  0.92105044865E+01  0.00000000000E+00 0.  1.
</event>
<event>
 7    1  0.5855569E-013  0.5052892E+02  0.7816164E-02  0.1300439E+00
        -11   -1    0    0    0    0  0.00000000000E+00  0.00000000000E+00  0.45593999997E+02  0.45594000000E+02  0.51100000000E-03 0.  1.
         11   -1    0    0    0    0 -0.00000000000E+00 -0.00000000000E+00 -0.45593999997E+02  0.45594000000E+02  0.51100000000E-03 0. -1.
    9900012    2    1    2    0    0 -0.25157376012E+02  0.82532900610E+01 -0.30856933036E+02  0.50528921296E+02  0.30000186771E+02 0.  0.
        -12    1    1    2    0    0  0.25157376012E+02 -0.82532900610E+01  0.30856933036E+02  0.40659078704E+02  0.00000000000E+00 0.  1.
         11    1    3    3    0    0 -0.70937033901E+01  0.28294743572E+01 -0.22755425257E+02  0.24002831745E+02  0.51100000000E-03 0. -1.
        -11    1    3    3    0    0  0.87600557187E+00  0.47102162591E+01  0.18299304564E+01  0.51285640004E+01  0.51100000000E-03 0.  1.
        -12    1    3    3    0    0 -0.18939678193E+02  0.71359944466E+00 -0.99314382362E+01  0.21397525550E+02  0.00000000000E+00 0.  1.
</event>
<event>
 7    1  0.5855569E-013  0.5052886E+02  0.7816164E-02  0.1300439E+00
        -11   -1    0    0    0    0  0.00000000000E+00  0.00000000000E+00  0.45593999997E+02  0.45594000000E+02  0.51100000000E-03 0. -1.
         11   -1    0    0    0    0 -0.00000000000E+00 -0.00000000000E+00 -0.45593999997E+02  0.45594000000E+02  0.51100000000E-03 0.  1.
    9900012    2    1    2    0    0  0.13936005465E+02 -0.25052309348E+02  0.28832885555E+02  0.50528859067E+02  0.29999997621E+02 0.  0.
        -12    1    1    2    0    0 -0.13936005465E+02  0.25052309348E+02 -0.28832885555E+02  0.40659140933E+02  0.00000000000E+00 0.  1.
         11    1    3    3    0    0  0.10042170918E+01 -0.17301782316E+02  0.10633310187E+02  0.20332914427E+02  0.51100000000E-03 0. -1.
        -11    1    3    3    0    0 -0.14102282936E+01 -0.53396688588E+01 -0.14876223093E+01  0.57196003145E+01  0.51100000000E-03 0.  1.
        -12    1    3    3    0    0  0.14342016666E+02 -0.24108581726E+01  0.19687197677E+02  0.24476344326E+02  0.00000000000E+00 0.  1.
</event>
<event>
 7    1  0.5855569E-013  0.5052888E+02  0.7816164E-02  0.1300439E+00
        -11   -1    0    0    0    0  0.00000000000E+00  0.00000000000E+00  0.45593999997E+02  0.45594000000E+02  0.51100000000E-03 0. -1.
         11   -1    0    0    0    0 -0.00000000000E+00 -0.00000000000E+00 -0.45593999997E+02  0.45594000000E+02  0.51100000000E-03 0.  1.
    9900012    2    1    2    0    0  0.13942529610E+02 -0.15614677403E+02  0.34856160150E+02  0.50528878235E+02  0.30000055882E+02 0.  0.
        -12    1    1    2    0    0 -0.13942529610E+02  0.15614677403E+02 -0.34856160150E+02  0.40659121765E+02  0.00000000000E+00 0.  1.
         11    1    3    3    0    0  0.67661541733E+01 -0.14641418407E+02  0.10243364936E+02  0.19107027522E+02  0.51100000000E-03 0. -1.
        -11    1    3    3    0    0  0.76098097422E+01 -0.25149445913E+01  0.13783516082E+01  0.81322816003E+01  0.51100000000E-03 0.  1.
        -12    1    3    3    0    0 -0.43343430521E+00  0.15416855949E+01  0.23234443606E+02  0.23289569113E+02  0.00000000000E+00 0.  1.
</event>
<event>
 7    1  0.5855569E-013  0.5052886E+02  0.7816164E-02  0.1300439E+00
        -11   -1    0    0    0    0  0.00000000000E+00  0.00000000000E+00  0.45593999997E+02  0.45594000000E+02  0.51100000000E-03 0. -1.
         11   -1    0    0    0    0 -0.00000000000E+00 -0.00000000000E+00 -0.45593999997E+02  0.45594000000E+02  0.51100000000E-03 0.  1.
    9900012    2    1    2    0    0  0.11573230157E+02 -0.18809288816E+02  0.34138493416E+02  0.50528859149E+02  0.29999997870E+02 0.  0.
        -12    1    1    2    0    0 -0.11573230157E+02  0.18809288816E+02 -0.34138493416E+02  0.40659140851E+02  0.00000000000E+00 0.  1.
         11    1    3    3    0    0  0.72161620653E+01 -0.10568471177E+02  0.11713957244E+02  0.17348843551E+02  0.51100000000E-03 0. -1.
        -11    1    3    3    0    0  0.59502816967E+01 -0.81346966514E+01  0.26741222529E+02  0.28577475825E+02  0.51100000000E-03 0.  1.
         12    1    3    3    0    0 -0.15932136050E+01 -0.10612098787E+00 -0.43166863579E+01  0.46025397736E+01  0.00000000000E+00 0. -1.
</event>
<event>
 7    1  0.5855569E-013  0.5052886E+02  0.7816164E-02  0.1300439E+00
        -11   -1    0    0    0    0  0.00000000000E+00  0.00000000000E+00  0.45593999997E+02  0.45594000000E+02  0.51100000000E-03 0.  1.
         11   -1    0    0    0    0 -0.00000000000E+00 -0.00000000000E+00 -0.45593999997E+02  0.45594000000E+02  0.51100000000E-03 0. -1.
    9900012    2    1    2    0    0 -0.22735494045E+02 -0.24708158073E+02 -0.22929670479E+02  0.50528861383E+02  0.30000004659E+02 0.  0.
        -12    1    1    2    0    0  0.22735494045E+02  0.24708158073E+02  0.22929670479E+02  0.40659138617E+02  0.00000000000E+00 0.  1.
         11    1    3    3    0    0 -0.21710674387E+02 -0.10231265110E+02 -0.12587552223E+02  0.27101266378E+02  0.51100000000E-03 0. -1.
        -11    1    3    3    0    0 -0.47858818317E+01 -0.15699625112E+02 -0.58060395076E+01  0.17409566008E+02  0.51100000000E-03 0.  1.
        -12    1    3    3    0    0  0.37610621732E+01  0.12227321499E+01 -0.45360787486E+01  0.60180289958E+01  0.00000000000E+00 0.  1.
</event>
<event>
 7    1  0.5855569E-013  0.5052885E+02  0.7816164E-02  0.1300439E+00
        -11   -1    0    0    0    0  0.00000000000E+00  0.00000000000E+00  0.45593999997E+02  0.45594000000E+02  0.51100000000E-03 0. -1.
         11   -1    0    0    0    0 -0.00000000000E+00 -0.00000000000E+00 -0.45593999997E+02  0.45594000000E+02  0.51100000000E-03 0.  1.
    9900012    2    1    2    0    0  0.68007252508E+01 -0.39904085893E+02  0.38184107164E+01  0.50528853486E+02  0.29999980655E+02 0.  0.
        -12    1    1    2    0    0 -0.68007252508E+01  0.39904085893E+02 -0.38184107164E+01  0.40659146514E+02  0.00000000000E+00 0.  1.
         11    1    3    3    0    0  0.66361037530E+01 -0.14640821736E+02  0.28730842304E+01  0.16329303334E+02  0.51100000000E-03 0. -1.
        -11    1    3    3    0    0  0.15588048351E+01 -0.35556499352E+01  0.99320944795E+01  0.10663912040E+02  0.51100000000E-03 0.  1.
        -12    1    3    3    0    0 -0.13941833372E+01 -0.21707614221E+02 -0.89867679935E+01  0.23535638112E+02  0.00000000000E+00 0.  1.
</event>
<event>
 7    1  0.5855569E-013  0.5052884E+02  0.7816164E-02  0.1300439E+00
        -11   -1    0    0    0    0  0.00000000000E+00  0.00000000000E+00  0.45593999997E+02  0.45594000000E+02  0.51100000000E-03 0. -1.
         11   -1    0    0    0    0 -0.00000000000E+00 -0.00000000000E+00 -0.45593999997E+02  0.45594000000E+02  0.51100000000E-03 0.  1.
    9900012    2    1    2    0    0  0.16827892481E+02  0.35530585145E+02 -0.10371438012E+02  0.50528841468E+02  0.29999944125E+02 0.  0.
        -12    1    1    2    0    0 -0.16827892481E+02 -0.35530585145E+02  0.10371438012E+02  0.40659158532E+02  0.00000000000E+00 0.  1.
         11    1    3    3    0    0 -0.52612278966E+01  0.47216670760E+01  0.25486625085E+01  0.75146749630E+01  0.51100000000E-03 0. -1.
        -11    1    3    3    0    0 -0.18902673601E+01  0.69282505685E+01 -0.20292051816E+01  0.74626698013E+01  0.51100000000E-03 0.  1.
         12    1    3    3    0    0  0.23979387738E+02  0.23880667501E+02 -0.10890895339E+02  0.35551496703E+02  0.00000000000E+00 0. -1.
</event>
<event>
 7    1  0.5855569E-013  0.5052886E+02  0.7816164E-02  0.1300439E+00
        -11   -1    0    0    0    0  0.00000000000E+00  0.00000000000E+00  0.45593999997E+02  0.45594000000E+02  0.51100000000E-03 0.  1.
         11   -1    0    0    0    0 -0.00000000000E+00 -0.00000000000E+00 -0.45593999997E+02  0.45594000000E+02  0.51100000000E-03 0. -1.
    9900012    2    1    2    0    0  0.83827153788E+01 -0.66779608560E+01 -0.39221177728E+02  0.50528857600E+02  0.29999993161E+02 0.  0.
        -12    1    1    2    0    0 -0.83827153788E+01  0.66779608560E+01  0.39221177728E+02  0.40659142400E+02  0.00000000000E+00 0.  1.
         11    1    3    3    0    0  0.12821479407E+02 -0.41470349779E+01 -0.16241897599E+02  0.21104205059E+02  0.51100000000E-03 0. -1.
        -11    1    3    3    0    0 -0.23103278660E+00 -0.20547940413E+01  0.26987364073E+01  0.33998136946E+01  0.51100000000E-03 0.  1.
         12    1    3    3    0    0 -0.42077312417E+01 -0.47613183681E+00 -0.25678016537E+02  0.26024838847E+02  0.00000000000E+00 0. -1.
</event>
<event>
 7    1  0.5855569E-013  0.5052886E+02  0.7816164E-02  0.1300439E+00
        -11   -1    0    0    0    0  0.00000000000E+00  0.00000000000E+00  0.45593999997E+02  0.45594000000E+02  0.51100000000E-03 0. -1.
         11   -1    0    0    0    0 -0.00000000000E+00 -0.00000000000E+00 -0.45593999997E+02  0.45594000000E+02  0.51100000000E-03 0.  1.
    9900012    2    1    2    0    0  0.11701935965E+02  0.14981024798E+02  0.35941606937E+02  0.50528861807E+02  0.30000005949E+02 0.  0.
        -12    1    1    2    0    0 -0.11701935965E+02 -0.14981024798E+02 -0.35941606937E+02  0.40659138193E+02  0.00000000000E+00 0.  1.
         11    1    3    3    0    0  0.75873878544E+01  0.24377858147E+01  0.24289388916E+02  0.25563365747E+02  0.51100000000E-03 0. -1.
        -11    1    3    3    0    0  0.18924855066E+01  0.14028403937E+02  0.15037734624E+02  0.20652144715E+02  0.51100000000E-03 0.  1.
        -12    1    3    3    0    0  0.22220626039E+01 -0.14851649539E+01 -0.33855166034E+01  0.43133513453E+01  0.00000000000E+00 0.  1.
</event>
<event>
 7    1  0.5855569E-013  0.5052887E+02  0.7816164E-02  0.1300439E+00
        -11   -1    0    0    0    0  0.00000000000E+00  0.00000000000E+00  0.45593999997E+02  0.45594000000E+02  0.51100000000E-03 0. -1.
         11   -1    0    0    0    0 -0.00000000000E+00 -0.00000000000E+00 -0.45593999997E+02  0.45594000000E+02  0.51100000000E-03 0.  1.
    9900012    2    1    2    0    0 -0.29835577609E+02  0.15106901677E+02  0.23125409246E+02  0.50528871599E+02  0.30000035712E+02 0.  0.
        -12    1    1    2    0    0  0.29835577609E+02 -0.15106901677E+02 -0.23125409246E+02  0.40659128401E+02  0.00000000000E+00 0.  1.
         11    1    3    3    0    0 -0.17602449772E+02  0.13799913083E+02  0.12979877842E+02  0.25860415080E+02  0.51100000000E-03 0.  1.
        -11    1    3    3    0    0 -0.91344098572E+01  0.97922159715E+01  0.51624623841E+01  0.14351862430E+02  0.51100000000E-03 0. -1.
        -12    1    3    3    0    0 -0.30987179797E+01 -0.84852273766E+01  0.49830690194E+01  0.10316594089E+02  0.00000000000E+00 0.  1.
</event>
<event>
 7    1  0.5855569E-013  0.5052886E+02  0.7816164E-02  0.1300439E+00
        -11   -1    0    0    0    0  0.00000000000E+00  0.00000000000E+00  0.45593999997E+02  0.45594000000E+02  0.51100000000E-03 0.  1.
         11   -1    0    0    0    0 -0.00000000000E+00 -0.00000000000E+00 -0.45593999997E+02  0.45594000000E+02  0.51100000000E-03 0. -1.
    9900012    2    1    2    0    0 -0.35422061610E+02 -0.15867142859E+02  0.12111040582E+02  0.50528856192E+02  0.29999988882E+02 0.  0.
        -12    1    1    2    0    0  0.35422061610E+02  0.15867142859E+02 -0.12111040582E+02  0.40659143808E+02  0.00000000000E+00 0.  1.
         11    1    3    3    0    0 -0.16117744921E+02 -0.32671353880E+01  0.16929245263E+02  0.23602017296E+02  0.51100000000E-03 0. -1.
        -11    1    3    3    0    0  0.11943751158E+01  0.58750944341E+00  0.12310820517E+01  0.18130809531E+01  0.51100000000E-03 0.  1.
         12    1    3    3    0    0 -0.20498691805E+02 -0.13187516914E+02 -0.60492867327E+01  0.25113757944E+02  0.00000000000E+00 0. -1.
</event>
<event>
 7    1  0.5855569E-013  0.5052886E+02  0.7816164E-02  0.1300439E+00
        -11   -1    0    0    0    0  0.00000000000E+00  0.00000000000E+00  0.45593999997E+02  0.45594000000E+02  0.51100000000E-03 0.  1.
         11   -1    0    0    0    0 -0.00000000000E+00 -0.00000000000E+00 -0.45593999997E+02  0.45594000000E+02  0.51100000000E-03 0. -1.
    9900012    2    1    2    0    0 -0.22524475801E+02 -0.21491648171E+02 -0.26151915267E+02  0.50528860519E+02  0.30000002035E+02 0.  0.
        -12    1    1    2    0    0  0.22524475801E+02  0.21491648171E+02  0.26151915267E+02  0.40659139481E+02  0.00000000000E+00 0.  1.
         11    1    3    3    0    0 -0.21746331876E+02 -0.17688072689E+02 -0.16868426313E+02  0.32715664016E+02  0.51100000000E-03 0. -1.
        -11    1    3    3    0    0 -0.19052269240E+01  0.53625442422E+01 -0.52244461655E+01  0.77253872640E+01  0.51100000000E-03 0.  1.
         12    1    3    3    0    0  0.11270829992E+01 -0.91661197243E+01 -0.40590427881E+01  0.10087809239E+02  0.00000000000E+00 0. -1.
</event>
<event>
 7    1  0.5855569E-013  0.5052880E+02  0.7816164E-02  0.1300439E+00
        -11   -1    0    0    0    0  0.00000000000E+00  0.00000000000E+00  0.45593999997E+02  0.45594000000E+02  0.51100000000E-03 0.  1.
         11   -1    0    0    0    0 -0.00000000000E+00 -0.00000000000E+00 -0.45593999997E+02  0.45594000000E+02  0.51100000000E-03 0. -1.
    9900012    2    1    2    0    0 -0.23566207540E+02 -0.17580385445E+02 -0.28084411356E+02  0.50528803606E+02  0.29999829041E+02 0.  0.
        -12    1    1    2    0    0  0.23566207540E+02  0.17580385445E+02  0.28084411356E+02  0.40659196394E+02  0.00000000000E+00 0.  1.
         11    1    3    3    0    0 -0.49144728056E+01 -0.87297528666E+01 -0.13800465503E+02  0.17053254130E+02  0.51100000000E-03 0. -1.
        -11    1    3    3    0    0 -0.12604687647E+02  0.61581579336E+01 -0.77315035172E+01  0.16018027554E+02  0.51100000000E-03 0.  1.
         12    1    3    3    0    0 -0.60470470868E+01 -0.15008790512E+02 -0.65524423352E+01  0.17457521922E+02  0.00000000000E+00 0. -1.
</event>
<event>
 7    1  0.5855569E-013  0.5052887E+02  0.7816164E-02  0.1300439E+00
        -11   -1    0    0    0    0  0.00000000000E+00  0.00000000000E+00  0.45593999997E+02  0.45594000000E+02  0.51100000000E-03 0.  1.
         11   -1    0    0    0    0 -0.00000000000E+00 -0.00000000000E+00 -0.45593999997E+02  0.45594000000E+02  0.51100000000E-03 0. -1.
    9900012    2    1    2    0    0  0.19769881789E+02 -0.63612838086E+01 -0.34954984620E+02  0.50528866863E+02  0.30000021316E+02 0.  0.
        -12    1    1    2    0    0 -0.19769881789E+02  0.63612838086E+01  0.34954984620E+02  0.40659133137E+02  0.00000000000E+00 0.  1.
         11    1    3    3    0    0  0.15699719761E+02 -0.18409141878E+01 -0.24885549473E+02  0.29481532159E+02  0.51100000000E-03 0. -1.
        -11    1    3    3    0    0 -0.42063490099E+01 -0.29087473540E+00 -0.10927978433E+02  0.11713184580E+02  0.51100000000E-03 0.  1.
         12    1    3    3    0    0  0.82765110388E+01 -0.42294948854E+01  0.85854328600E+00  0.93341501238E+01  0.00000000000E+00 0. -1.
</event>
<event>
 7    1  0.5855569E-013  0.5052886E+02  0.7816164E-02  0.1300439E+00
        -11   -1    0    0    0    0  0.00000000000E+00  0.00000000000E+00  0.45593999997E+02  0.45594000000E+02  0.51100000000E-03 0. -1.
         11   -1    0    0    0    0 -0.00000000000E+00 -0.00000000000E+00 -0.45593999997E+02  0.45594000000E+02  0.51100000000E-03 0.  1.
    9900012    2    1    2    0    0  0.12555302834E+02 -0.15887571546E+02  0.35257843059E+02  0.50528855198E+02  0.29999985859E+02 0.  0.
        -12    1    1    2    0    0 -0.12555302834E+02  0.15887571546E+02 -0.35257843059E+02  0.40659144802E+02  0.00000000000E+00 0.  1.
         11    1    3    3    0    0  0.73238738392E+01 -0.10072402047E+02  0.16561190817E+02  0.20721135407E+02  0.51100000000E-03 0. -1.
        -11    1    3    3    0    0 -0.65619980268E+01 -0.77117122571E+01  0.13259139985E+02  0.16683378478E+02  0.51100000000E-03 0.  1.
        -12    1    3    3    0    0  0.11793427022E+02  0.18965427580E+01  0.54375122566E+01  0.13124341313E+02  0.00000000000E+00 0.  1.
</event>
<event>
 7    1  0.5855569E-013  0.5052886E+02  0.7816164E-02  0.1300439E+00
        -11   -1    0    0    0    0  0.00000000000E+00  0.00000000000E+00  0.45593999997E+02  0.45594000000E+02  0.51100000000E-03 0.  1.
         11   -1    0    0    0    0 -0.00000000000E+00 -0.00000000000E+00 -0.45593999997E+02  0.45594000000E+02  0.51100000000E-03 0. -1.
    9900012    2    1    2    0    0 -0.49705609106E+01 -0.25273154709E+02 -0.31459929315E+02  0.50528856167E+02  0.29999988805E+02 0.  0.
        -12    1    1    2    0    0  0.49705609106E+01  0.25273154709E+02  0.31459929315E+02  0.40659143833E+02  0.00000000000E+00 0.  1.
         11    1    3    3    0    0 -0.89917723669E+01 -0.19025396986E+02 -0.10448737782E+02  0.23494548778E+02  0.51100000000E-03 0. -1.
        -11    1    3    3    0    0  0.71300408379E+00 -0.39767857269E+01  0.13930083190E+01  0.42736017572E+01  0.51100000000E-03 0.  1.
         12    1    3    3    0    0  0.33082073726E+01 -0.22709719962E+01 -0.22404199852E+02  0.22760705632E+02  0.00000000000E+00 0. -1.
</event>
<event>
 7    1  0.5855569E-013  0.5052886E+02  0.7816164E-02  0.1300439E+00
        -11   -1    0    0    0    0  0.00000000000E+00  0.00000000000E+00  0.45593999997E+02  0.45594000000E+02  0.51100000000E-03 0.  1.
         11   -1    0    0    0    0 -0.00000000000E+00 -0.00000000000E+00 -0.45593999997E+02  0.45594000000E+02  0.51100000000E-03 0. -1.
    9900012    2    1    2    0    0  0.35042088330E+02  0.18741150652E+02 -0.86015795282E+01  0.50528857699E+02  0.29999993462E+02 0.  0.
        -12    1    1    2    0    0 -0.35042088330E+02 -0.18741150652E+02  0.86015795282E+01  0.40659142301E+02  0.00000000000E+00 0.  1.
         11    1    3    3    0    0  0.15341569690E+01 -0.91329063160E+00  0.22212865881E+01  0.28498862698E+01  0.51100000000E-03 0. -1.
        -11    1    3    3    0    0  0.35088125274E+01  0.36016169228E+00  0.69756053499E+01  0.78166842111E+01  0.51100000000E-03 0.  1.
         12    1    3    3    0    0  0.29999118833E+02  0.19294279591E+02 -0.17798471466E+02  0.39862287218E+02  0.00000000000E+00 0. -1.
</event>
<event>
 7    1  0.5855569E-013  0.5052886E+02  0.7816164E-02  0.1300439E+00
        -11   -1    0    0    0    0  0.00000000000E+00  0.00000000000E+00  0.45593999997E+02  0.45594000000E+02  0.51100000000E-03 0.  1.
         11   -1    0    0    0    0 -0.00000000000E+00 -0.00000000000E+00 -0.45593999997E+02  0.45594000000E+02  0.51100000000E-03 0. -1.
    9900012    2    1    2    0    0 -0.27572263892E+02 -0.27591300098E+01 -0.29754373311E+02  0.50528864918E+02  0.30000015404E+02 0.  0.
        -12    1    1    2    0    0  0.27572263892E+02  0.27591300098E+01  0.29754373311E+02  0.40659135082E+02  0.00000000000E+00 0.  1.
         11    1    3    3    0    0 -0.15374023230E+02  0.93566456040E+00 -0.19416139140E+02  0.24783513024E+02  0.51100000000E-03 0. -1.
        -11    1    3    3    0    0 -0.39421411018E+01 -0.87392395927E+01 -0.12577090476E+02  0.15814486720E+02  0.51100000000E-03 0.  1.
        -12    1    3    3    0    0 -0.82560995603E+01  0.50444450225E+01  0.22388563054E+01  0.99308651733E+01  0.00000000000E+00 0.  1.
</event>
<event>
 7    1  0.5855569E-013  0.5052886E+02  0.7816164E-02  0.1300439E+00
        -11   -1    0    0    0    0  0.00000000000E+00  0.00000000000E+00  0.45593999997E+02  0.45594000000E+02  0.51100000000E-03 0.  1.
         11   -1    0    0    0    0 -0.00000000000E+00 -0.00000000000E+00 -0.45593999997E+02  0.45594000000E+02  0.51100000000E-03 0. -1.
    9900012    2    1    2    0    0  0.17365415459E+02  0.25995360835E+02 -0.25997097777E+02  0.50528861644E+02  0.30000005454E+02 0.  0.
        -12    1    1    2    0    0 -0.17365415459E+02 -0.25995360835E+02  0.25997097777E+02  0.40659138356E+02  0.00000000000E+00 0.  1.
         11    1    3    3    0    0  0.68939269625E+01  0.16191322916E+02 -0.65183970126E+01  0.18766317342E+02  0.51100000000E-03 0. -1.
        -11    1    3    3    0    0  0.14678037733E+02  0.86743222788E+01 -0.21088912073E+02  0.27118828724E+02  0.51100000000E-03 0.  1.
         12    1    3    3    0    0 -0.42065492370E+01  0.11297156403E+01  0.16102113081E+01  0.46437155779E+01  0.00000000000E+00 0. -1.
</event>
<event>
 7    1  0.5855569E-013  0.5052886E+02  0.7816164E-02  0.1300439E+00
        -11   -1    0    0    0    0  0.00000000000E+00  0.00000000000E+00  0.45593999997E+02  0.45594000000E+02  0.51100000000E-03 0.  1.
         11   -1    0    0    0    0 -0.00000000000E+00 -0.00000000000E+00 -0.45593999997E+02  0.45594000000E+02  0.51100000000E-03 0. -1.
    9900012    2    1    2    0    0 -0.21477000811E+02  0.30620561989E+02 -0.15946314638E+02  0.50528864115E+02  0.30000012965E+02 0.  0.
        -12    1    1    2    0    0  0.21477000811E+02 -0.30620561989E+02  0.15946314638E+02  0.40659135885E+02  0.00000000000E+00 0.  1.
         11    1    3    3    0    0 -0.77400236404E+00  0.43537105646E+01 -0.86271919249E+01  0.96944476950E+01  0.51100000000E-03 0. -1.
        -11    1    3    3    0    0 -0.16847108217E+02  0.61090443064E+01 -0.93461360439E+01  0.20211277466E+02  0.51100000000E-03 0.  1.
        -12    1    3    3    0    0 -0.38558902301E+01  0.20157807118E+02  0.20270133306E+01  0.20623138954E+02  0.00000000000E+00 0.  1.
</event>
<event>
 7    1  0.5855569E-013  0.5052886E+02  0.7816164E-02  0.1300439E+00
        -11   -1    0    0    0    0  0.00000000000E+00  0.00000000000E+00  0.45593999997E+02  0.45594000000E+02  0.51100000000E-03 0.  1.
         11   -1    0    0    0    0 -0.00000000000E+00 -0.00000000000E+00 -0.45593999997E+02  0.45594000000E+02  0.51100000000E-03 0. -1.
    9900012    2    1    2    0    0  0.38676242121E+02  0.26185410961E+01 -0.12266099959E+02  0.50528859941E+02  0.30000000277E+02 0.  0.
        -12    1    1    2    0    0 -0.38676242121E+02 -0.26185410961E+01  0.12266099959E+02  0.40659140059E+02  0.00000000000E+00 0.  1.
         11    1    3    3    0    0  0.21175554456E+01 -0.72558315117E+01 -0.37055870379E+01  0.84179871435E+01  0.51100000000E-03 0. -1.
        -11    1    3    3    0    0 -0.93673078827E+00  0.25599636079E+01  0.67476593262E+00  0.28082356682E+01  0.51100000000E-03 0.  1.
         12    1    3    3    0    0  0.37495417464E+02  0.73144089999E+01 -0.92352788541E+01  0.39302637130E+02  0.00000000000E+00 0. -1.
</event>
<event>
 7    1  0.5855569E-013  0.5052887E+02  0.7816164E-02  0.1300439E+00
        -11   -1    0    0    0    0  0.00000000000E+00  0.00000000000E+00  0.45593999997E+02  0.45594000000E+02  0.51100000000E-03 0.  1.
         11   -1    0    0    0    0 -0.00000000000E+00 -0.00000000000E+00 -0.45593999997E+02  0.45594000000E+02  0.51100000000E-03 0. -1.
    9900012    2    1    2    0    0 -0.18740703413E+02  0.34024841341E+02 -0.12010862329E+02  0.50528873022E+02  0.30000040038E+02 0.  0.
        -12    1    1    2    0    0  0.18740703413E+02 -0.34024841341E+02  0.12010862329E+02  0.40659126978E+02  0.00000000000E+00 0.  1.
         11    1    3    3    0    0 -0.16699868618E+02  0.19236731280E+02 -0.10102284330E+02  0.27404262281E+02  0.51100000000E-03 0. -1.
        -11    1    3    3    0    0 -0.11900512710E+01 -0.37354378083E+01  0.16320012290E+01  0.42465451746E+01  0.51100000000E-03 0.  1.
         12    1    3    3    0    0 -0.85078352456E+00  0.18523547869E+02 -0.35405792275E+01  0.18878065567E+02  0.00000000000E+00 0. -1.
</event>
<event>
 7    1  0.5855569E-013  0.5052888E+02  0.7816164E-02  0.1300439E+00
        -11   -1    0    0    0    0  0.00000000000E+00  0.00000000000E+00  0.45593999997E+02  0.45594000000E+02  0.51100000000E-03 0.  1.
         11   -1    0    0    0    0 -0.00000000000E+00 -0.00000000000E+00 -0.45593999997E+02  0.45594000000E+02  0.51100000000E-03 0. -1.
    9900012    2    1    2    0    0 -0.90229044582E+01  0.37481845172E+02 -0.12917514549E+02  0.50528884116E+02  0.30000073759E+02 0.  0.
        -12    1    1    2    0    0  0.90229044582E+01 -0.37481845172E+02  0.12917514549E+02  0.40659115884E+02  0.00000000000E+00 0.  1.
         11    1    3    3    0    0 -0.57570085561E+01  0.10471815755E+02  0.21843233922E+01  0.12147976855E+02  0.51100000000E-03 0. -1.
        -11    1    3    3    0    0  0.28093964286E+01  0.82422559257E+01  0.51439844235E+01  0.10113756327E+02  0.51100000000E-03 0.  1.
         12    1    3    3    0    0 -0.60752923306E+01  0.18767773491E+02 -0.20245822364E+02  0.28267150934E+02  0.00000000000E+00 0. -1.
</event>
<event>
 7    1  0.5855569E-013  0.5052886E+02  0.7816164E-02  0.1300439E+00
        -11   -1    0    0    0    0  0.00000000000E+00  0.00000000000E+00  0.45593999997E+02  0.45594000000E+02  0.51100000000E-03 0.  1.
         11   -1    0    0    0    0 -0.00000000000E+00 -0.00000000000E+00 -0.45593999997E+02  0.45594000000E+02  0.51100000000E-03 0. -1.
    9900012    2    1    2    0    0  0.21434362570E+02  0.31617488113E+02  0.13930843904E+02  0.50528857544E+02  0.29999992991E+02 0.  0.
        -12    1    1    2    0    0 -0.21434362570E+02 -0.31617488113E+02 -0.13930843904E+02  0.40659142456E+02  0.00000000000E+00 0.  1.
         11    1    3    3    0    0  0.23412937518E+02  0.20128124170E+02  0.10202039689E+02  0.32517512819E+02  0.51100000000E-03 0. -1.
        -11    1    3    3    0    0  0.53317603994E+01  0.22814036555E+01  0.51037092914E+00  0.58217652256E+01  0.51100000000E-03 0.  1.
        -12    1    3    3    0    0 -0.73103353478E+01  0.92079602882E+01  0.32184332859E+01  0.12189579500E+02  0.00000000000E+00 0.  1.
</event>
<event>
 7    1  0.5855569E-013  0.5052886E+02  0.7816164E-02  0.1300439E+00
        -11   -1    0    0    0    0  0.00000000000E+00  0.00000000000E+00  0.45593999997E+02  0.45594000000E+02  0.51100000000E-03 0.  1.
         11   -1    0    0    0    0 -0.00000000000E+00 -0.00000000000E+00 -0.45593999997E+02  0.45594000000E+02  0.51100000000E-03 0. -1.
    9900012    2    1    2    0    0 -0.19213778484E+02  0.29604856604E+02 -0.20187842140E+02  0.50528858489E+02  0.29999995863E+02 0.  0.
        -12    1    1    2    0    0  0.19213778484E+02 -0.29604856604E+02  0.20187842140E+02  0.40659141511E+02  0.00000000000E+00 0.  1.
         11    1    3    3    0    0 -0.12466127194E+02  0.82441717566E+01 -0.31401952210E+01  0.15271919377E+02  0.51100000000E-03 0. -1.
        -11    1    3    3    0    0  0.73931631978E+00 -0.28331099873E+01 -0.77394288090E+01  0.82747724664E+01  0.51100000000E-03 0.  1.
        -12    1    3    3    0    0 -0.74869676093E+01  0.24193794835E+02 -0.93082181097E+01  0.26982166645E+02  0.00000000000E+00 0.  1.
</event>
<event>
 7    1  0.5855569E-013  0.5052887E+02  0.7816164E-02  0.1300439E+00
        -11   -1    0    0    0    0  0.00000000000E+00  0.00000000000E+00  0.45593999997E+02  0.45594000000E+02  0.51100000000E-03 0.  1.
         11   -1    0    0    0    0 -0.00000000000E+00 -0.00000000000E+00 -0.45593999997E+02  0.45594000000E+02  0.51100000000E-03 0. -1.
    9900012    2    1    2    0    0  0.20539141293E+02 -0.75673622899E+01 -0.34264322052E+02  0.50528867413E+02  0.30000022988E+02 0.  0.
        -12    1    1    2    0    0 -0.20539141293E+02  0.75673622899E+01  0.34264322052E+02  0.40659132587E+02  0.00000000000E+00 0.  1.
         11    1    3    3    0    0  0.69906504797E+01  0.57457319384E+01 -0.10827275585E+02  0.14110723811E+02  0.51100000000E-03 0. -1.
        -11    1    3    3    0    0  0.39336811739E+01  0.44654517281E+01 -0.69334844377E+00  0.59912301775E+01  0.51100000000E-03 0.  1.
         12    1    3    3    0    0  0.96148096394E+01 -0.17778545956E+02 -0.22743698023E+02  0.30426913424E+02  0.00000000000E+00 0. -1.
</event>
<event>
 7    1  0.5855569E-013  0.5052887E+02  0.7816164E-02  0.1300439E+00
        -11   -1    0    0    0    0  0.00000000000E+00  0.00000000000E+00  0.45593999997E+02  0.45594000000E+02  0.51100000000E-03 0. -1.
         11   -1    0    0    0    0 -0.00000000000E+00 -0.00000000000E+00 -0.45593999997E+02  0.45594000000E+02  0.51100000000E-03 0.  1.
    9900012    2    1    2    0    0  0.25055495908E+02  0.18210595922E+02 -0.26339348184E+02  0.50528868900E+02  0.30000027509E+02 0.  0.
        -12    1    1    2    0    0 -0.25055495908E+02 -0.18210595922E+02  0.26339348184E+02  0.40659131100E+02  0.00000000000E+00 0.  1.
         11    1    3    3    0    0  0.27113879911E+02  0.17630604954E+02 -0.11252842781E+02  0.34243644458E+02  0.51100000000E-03 0. -1.
        -11    1    3    3    0    0 -0.69247722003E+00 -0.25642785316E+01 -0.55914143512E+01  0.61902313200E+01  0.51100000000E-03 0.  1.
        -12    1    3    3    0    0 -0.13659067835E+01  0.31442695001E+01 -0.94950910527E+01  0.10094993122E+02  0.00000000000E+00 0.  1.
</event>
<event>
 7    1  0.5855569E-013  0.5052887E+02  0.7816164E-02  0.1300439E+00
        -11   -1    0    0    0    0  0.00000000000E+00  0.00000000000E+00  0.45593999997E+02  0.45594000000E+02  0.51100000000E-03 0.  1.
         11   -1    0    0    0    0 -0.00000000000E+00 -0.00000000000E+00 -0.45593999997E+02  0.45594000000E+02  0.51100000000E-03 0. -1.
    9900012    2    1    2    0    0 -0.75707095459E+01  0.71116392064E+01 -0.39309975807E+02  0.50528865071E+02  0.30000015868E+02 0.  0.
        -12    1    1    2    0    0  0.75707095459E+01 -0.71116392064E+01  0.39309975807E+02  0.40659134929E+02  0.00000000000E+00 0.  1.
         11    1    3    3    0    0 -0.28114516211E+01  0.11400997628E+02 -0.30663700003E+02  0.32835186999E+02  0.51100000000E-03 0. -1.
        -11    1    3    3    0    0 -0.40427505670E+01  0.28205692329E+00 -0.11543544307E+02  0.12234247165E+02  0.51100000000E-03 0.  1.
        -12    1    3    3    0    0 -0.71650735781E+00 -0.45714153450E+01  0.28972685026E+01  0.54594309068E+01  0.00000000000E+00 0.  1.
</event>
<event>
 7    1  0.5855569E-013  0.5052885E+02  0.7816164E-02  0.1300439E+00
        -11   -1    0    0    0    0  0.00000000000E+00  0.00000000000E+00  0.45593999997E+02  0.45594000000E+02  0.51100000000E-03 0.  1.
         11   -1    0    0    0    0 -0.00000000000E+00 -0.00000000000E+00 -0.45593999997E+02  0.45594000000E+02  0.51100000000E-03 0. -1.
    9900012    2    1    2    0    0  0.35779234628E+02  0.12834395230E-01  0.19313527364E+02  0.50528854232E+02  0.29999982925E+02 0.  0.
        -12    1    1    2    0    0 -0.35779234628E+02 -0.12834395230E-01 -0.19313527364E+02  0.40659145768E+02  0.00000000000E+00 0.  1.
         11    1    3    3    0    0  0.10993849969E+02 -0.10460476154E+02  0.50612978892E+00  0.15183624934E+02  0.51100000000E-03 0. -1.
        -11    1    3    3    0    0 -0.76957868065E+00 -0.14037137901E+01  0.29350116320E+00  0.16275155742E+01  0.51100000000E-03 0.  1.
         12    1    3    3    0    0  0.25554963340E+02  0.11877024339E+02  0.18513896412E+02  0.33717713724E+02  0.00000000000E+00 0. -1.
</event>
<event>
 7    1  0.5855569E-013  0.5052886E+02  0.7816164E-02  0.1300439E+00
        -11   -1    0    0    0    0  0.00000000000E+00  0.00000000000E+00  0.45593999997E+02  0.45594000000E+02  0.51100000000E-03 0.  1.
         11   -1    0    0    0    0 -0.00000000000E+00 -0.00000000000E+00 -0.45593999997E+02  0.45594000000E+02  0.51100000000E-03 0. -1.
    9900012    2    1    2    0    0 -0.54307833862E+01  0.49806274042E+01 -0.39985819968E+02  0.50528857657E+02  0.29999993334E+02 0.  0.
        -12    1    1    2    0    0  0.54307833862E+01 -0.49806274042E+01  0.39985819968E+02  0.40659142343E+02  0.00000000000E+00 0.  1.
         11    1    3    3    0    0 -0.69392064431E+01  0.18704978314E+01 -0.31278767965E+02  0.32093810522E+02  0.51100000000E-03 0. -1.
        -11    1    3    3    0    0 -0.28996551275E+01  0.58084386501E+01 -0.11006326302E+02  0.12778308900E+02  0.51100000000E-03 0.  1.
        -12    1    3    3    0    0  0.44080781844E+01 -0.26983090773E+01  0.22992742983E+01  0.56567382347E+01  0.00000000000E+00 0.  1.
</event>
<event>
 7    1  0.5855569E-013  0.5052886E+02  0.7816164E-02  0.1300439E+00
        -11   -1    0    0    0    0  0.00000000000E+00  0.00000000000E+00  0.45593999997E+02  0.45594000000E+02  0.51100000000E-03 0.  1.
         11   -1    0    0    0    0 -0.00000000000E+00 -0.00000000000E+00 -0.45593999997E+02  0.45594000000E+02  0.51100000000E-03 0. -1.
    9900012    2    1    2    0    0  0.21434457275E+02  0.30609332791E+02 -0.16024926273E+02  0.50528862347E+02  0.30000007591E+02 0.  0.
        -12    1    1    2    0    0 -0.21434457275E+02 -0.30609332791E+02  0.16024926273E+02  0.40659137653E+02  0.00000000000E+00 0.  1.
         11    1    3    3    0    0  0.16869552067E+02  0.20564885493E+02 -0.89650807217E+01  0.28069003810E+02  0.51100000000E-03 0. -1.
        -11    1    3    3    0    0  0.62281792396E+01  0.11976260615E+02 -0.11238589206E+02  0.17564934460E+02  0.51100000000E-03 0.  1.
        -12    1    3    3    0    0 -0.16632740309E+01 -0.19318133169E+01  0.41787436552E+01  0.48949240780E+01  0.00000000000E+00 0.  1.
</event>
<event>
 7    1  0.5855569E-013  0.5052886E+02  0.7816164E-02  0.1300439E+00
        -11   -1    0    0    0    0  0.00000000000E+00  0.00000000000E+00  0.45593999997E+02  0.45594000000E+02  0.51100000000E-03 0.  1.
         11   -1    0    0    0    0 -0.00000000000E+00 -0.00000000000E+00 -0.45593999997E+02  0.45594000000E+02  0.51100000000E-03 0. -1.
    9900012    2    1    2    0    0 -0.27795952682E+02 -0.21164018822E+02 -0.20799887800E+02  0.50528855755E+02  0.29999987554E+02 0.  0.
        -12    1    1    2    0    0  0.27795952682E+02  0.21164018822E+02  0.20799887800E+02  0.40659144245E+02  0.00000000000E+00 0.  1.
         11    1    3    3    0    0 -0.43600077740E+01 -0.13838387980E+02 -0.85663646248E+01  0.16849132109E+02  0.51100000000E-03 0. -1.
        -11    1    3    3    0    0 -0.51000170949E+01 -0.59446476168E+01  0.43143583824E+01  0.89421864311E+01  0.51100000000E-03 0.  1.
         12    1    3    3    0    0 -0.18335927813E+02 -0.13809832255E+01 -0.16547881557E+02  0.24737537215E+02  0.00000000000E+00 0. -1.
</event>
<event>
 7    1  0.5855569E-013  0.5052886E+02  0.7816164E-02  0.1300439E+00
        -11   -1    0    0    0    0  0.00000000000E+00  0.00000000000E+00  0.45593999997E+02  0.45594000000E+02  0.51100000000E-03 0. -1.
         11   -1    0    0    0    0 -0.00000000000E+00 -0.00000000000E+00 -0.45593999997E+02  0.45594000000E+02  0.51100000000E-03 0.  1.
    9900012    2    1    2    0    0  0.15524896293E+02  0.51130295199E+01  0.37229020812E+02  0.50528862449E+02  0.30000007900E+02 0.  0.
        -12    1    1    2    0    0 -0.15524896293E+02 -0.51130295199E+01 -0.37229020812E+02  0.40659137551E+02  0.00000000000E+00 0.  1.
         11    1    3    3    0    0  0.60230244715E+01  0.32947659703E+01  0.68586533578E+01  0.97042997030E+01  0.51100000000E-03 0. -1.
        -11    1    3    3    0    0  0.63059578223E+01  0.88643741602E+01  0.15556494243E+01  0.10989189174E+02  0.51100000000E-03 0.  1.
         12    1    3    3    0    0  0.31959139990E+01 -0.70461106106E+01  0.28814718030E+02  0.29835373572E+02  0.00000000000E+00 0. -1.
</event>
<event>
 7    1  0.5855569E-013  0.5052885E+02  0.7816164E-02  0.1300439E+00
        -11   -1    0    0    0    0  0.00000000000E+00  0.00000000000E+00  0.45593999997E+02  0.45594000000E+02  0.51100000000E-03 0.  1.
         11   -1    0    0    0    0 -0.00000000000E+00 -0.00000000000E+00 -0.45593999997E+02  0.45594000000E+02  0.51100000000E-03 0. -1.
    9900012    2    1    2    0    0 -0.54215815358E+01 -0.33237600650E+01 -0.40158754029E+02  0.50528850323E+02  0.29999971041E+02 0.  0.
        -12    1    1    2    0    0  0.54215815358E+01  0.33237600650E+01  0.40158754029E+02  0.40659149677E+02  0.00000000000E+00 0.  1.
         11    1    3    3    0    0 -0.34117844755E+01 -0.50534728709E+01 -0.14218773217E+02  0.15470984888E+02  0.51100000000E-03 0. -1.
        -11    1    3    3    0    0  0.13805437961E+01 -0.10441104658E+02 -0.15103372397E+02  0.18412887488E+02  0.51100000000E-03 0.  1.
         12    1    3    3    0    0 -0.33903408564E+01  0.12170817464E+02 -0.10836608416E+02  0.16644977946E+02  0.00000000000E+00 0. -1.
</event>
<event>
 7    1  0.5855569E-013  0.5052885E+02  0.7816164E-02  0.1300439E+00
        -11   -1    0    0    0    0  0.00000000000E+00  0.00000000000E+00  0.45593999997E+02  0.45594000000E+02  0.51100000000E-03 0.  1.
         11   -1    0    0    0    0 -0.00000000000E+00 -0.00000000000E+00 -0.45593999997E+02  0.45594000000E+02  0.51100000000E-03 0. -1.
    9900012    2    1    2    0    0  0.24534668165E+02  0.23407964147E+02 -0.22433985460E+02  0.50528850585E+02  0.29999971840E+02 0.  0.
        -12    1    1    2    0    0 -0.24534668165E+02 -0.23407964147E+02  0.22433985460E+02  0.40659149415E+02  0.00000000000E+00 0.  1.
         11    1    3    3    0    0  0.33498811815E+01  0.18132852954E+02 -0.10643071749E+02  0.21290773511E+02  0.51100000000E-03 0.  1.
        -11    1    3    3    0    0  0.13714987368E+02  0.90076666032E+01 -0.22549394590E+01  0.16562719836E+02  0.51100000000E-03 0. -1.
         12    1    3    3    0    0  0.74697996149E+01 -0.37325554099E+01 -0.95359742527E+01  0.12675357238E+02  0.00000000000E+00 0. -1.
</event>
<event>
 7    1  0.5855569E-013  0.5052887E+02  0.7816164E-02  0.1300439E+00
        -11   -1    0    0    0    0  0.00000000000E+00  0.00000000000E+00  0.45593999997E+02  0.45594000000E+02  0.51100000000E-03 0. -1.
         11   -1    0    0    0    0 -0.00000000000E+00 -0.00000000000E+00 -0.45593999997E+02  0.45594000000E+02  0.51100000000E-03 0.  1.
    9900012    2    1    2    0    0 -0.35801505268E+02  0.16849879347E+01  0.19198392772E+02  0.50528865124E+02  0.30000016032E+02 0.  0.
        -12    1    1    2    0    0  0.35801505268E+02 -0.16849879347E+01 -0.19198392772E+02  0.40659134876E+02  0.00000000000E+00 0.  1.
         11    1    3    3    0    0 -0.27302187957E+02  0.39730486317E+00  0.45972190064E+01  0.27689379575E+02  0.51100000000E-03 0.  1.
        -11    1    3    3    0    0 -0.10828266724E+02  0.57577702685E+01  0.12038046733E+02  0.17184814462E+02  0.51100000000E-03 0. -1.
        -12    1    3    3    0    0  0.23289494128E+01 -0.44700871969E+01  0.25631270331E+01  0.56546710871E+01  0.00000000000E+00 0.  1.
</event>
<event>
 7    1  0.5855569E-013  0.5052888E+02  0.7816164E-02  0.1300439E+00
        -11   -1    0    0    0    0  0.00000000000E+00  0.00000000000E+00  0.45593999997E+02  0.45594000000E+02  0.51100000000E-03 0. -1.
         11   -1    0    0    0    0 -0.00000000000E+00 -0.00000000000E+00 -0.45593999997E+02  0.45594000000E+02  0.51100000000E-03 0.  1.
    9900012    2    1    2    0    0 -0.13486274869E+01 -0.92866649023E+01  0.39561382631E+02  0.50528881259E+02  0.30000065075E+02 0.  0.
        -12    1    1    2    0    0  0.13486274869E+01  0.92866649023E+01 -0.39561382631E+02  0.40659118741E+02  0.00000000000E+00 0.  1.
         11    1    3    3    0    0 -0.24676821211E+00  0.21450244991E+01 -0.20607571438E+01  0.29847520699E+01  0.51100000000E-03 0. -1.
        -11    1    3    3    0    0 -0.51067930771E+00  0.52846905102E+00 -0.20931455476E+01  0.22184074102E+01  0.51100000000E-03 0.  1.
         12    1    3    3    0    0 -0.59117996712E+00 -0.11960158452E+02  0.43715285322E+02  0.45325721779E+02  0.00000000000E+00 0. -1.
</event>
<event>
 7    1  0.5855569E-013  0.5052889E+02  0.7816164E-02  0.1300439E+00
        -11   -1    0    0    0    0  0.00000000000E+00  0.00000000000E+00  0.45593999997E+02  0.45594000000E+02  0.51100000000E-03 0.  1.
         11   -1    0    0    0    0 -0.00000000000E+00 -0.00000000000E+00 -0.45593999997E+02  0.45594000000E+02  0.51100000000E-03 0. -1.
    9900012    2    1    2    0    0  0.14848754360E+02 -0.22383379365E+02 -0.30523133899E+02  0.50528894244E+02  0.30000104544E+02 0.  0.
        -12    1    1    2    0    0 -0.14848754360E+02  0.22383379365E+02  0.30523133899E+02  0.40659105756E+02  0.00000000000E+00 0.  1.
         11    1    3    3    0    0  0.13116082927E+01 -0.27342167346E+01 -0.54781172396E-01  0.30330279760E+01  0.51100000000E-03 0. -1.
        -11    1    3    3    0    0  0.15674327790E+01  0.56082154793E+01  0.42083076223E+00  0.58383238323E+01  0.51100000000E-03 0.  1.
         12    1    3    3    0    0  0.11969713288E+02 -0.25257378110E+02 -0.30889183489E+02  0.41657542436E+02  0.00000000000E+00 0. -1.
</event>
<event>
 7    1  0.5855569E-013  0.5052888E+02  0.7816164E-02  0.1300439E+00
        -11   -1    0    0    0    0  0.00000000000E+00  0.00000000000E+00  0.45593999997E+02  0.45594000000E+02  0.51100000000E-03 0.  1.
         11   -1    0    0    0    0 -0.00000000000E+00 -0.00000000000E+00 -0.45593999997E+02  0.45594000000E+02  0.51100000000E-03 0. -1.
    9900012    2    1    2    0    0  0.21318490291E+02  0.31117016309E+02 -0.15179496905E+02  0.50528882222E+02  0.30000068001E+02 0.  0.
        -12    1    1    2    0    0 -0.21318490291E+02 -0.31117016309E+02  0.15179496905E+02  0.40659117778E+02  0.00000000000E+00 0.  1.
         11    1    3    3    0    0  0.16801208690E+02  0.13585055846E+02 -0.19596445949E+02  0.29169419773E+02  0.51100000000E-03 0. -1.
        -11    1    3    3    0    0  0.41920460084E+01  0.54276904433E+01 -0.26351661241E+01  0.73469159548E+01  0.51100000000E-03 0.  1.
        -12    1    3    3    0    0  0.32523559257E+00  0.12104270019E+02  0.70521151690E+01  0.14012546494E+02  0.00000000000E+00 0.  1.
</event>
<event>
 7    1  0.5855569E-013  0.5052885E+02  0.7816164E-02  0.1300439E+00
        -11   -1    0    0    0    0  0.00000000000E+00  0.00000000000E+00  0.45593999997E+02  0.45594000000E+02  0.51100000000E-03 0.  1.
         11   -1    0    0    0    0 -0.00000000000E+00 -0.00000000000E+00 -0.45593999997E+02  0.45594000000E+02  0.51100000000E-03 0. -1.
    9900012    2    1    2    0    0 -0.25708879054E+02 -0.12306405374E+02 -0.28996076627E+02  0.50528849305E+02  0.29999967948E+02 0.  0.
        -12    1    1    2    0    0  0.25708879054E+02  0.12306405374E+02  0.28996076627E+02  0.40659150695E+02  0.00000000000E+00 0.  1.
         11    1    3    3    0    0  0.39300740813E+01 -0.37348572461E+01 -0.31635643634E+01  0.62771634260E+01  0.51100000000E-03 0. -1.
        -11    1    3    3    0    0  0.10485382244E+01 -0.48696490031E+01 -0.29026844922E+01  0.57652832839E+01  0.51100000000E-03 0.  1.
        -12    1    3    3    0    0 -0.30687491360E+02 -0.37018991251E+01 -0.22929827772E+02  0.38486402595E+02  0.00000000000E+00 0.  1.
</event>
<event>
 7    1  0.5855569E-013  0.5052886E+02  0.7816164E-02  0.1300439E+00
        -11   -1    0    0    0    0  0.00000000000E+00  0.00000000000E+00  0.45593999997E+02  0.45594000000E+02  0.51100000000E-03 0. -1.
         11   -1    0    0    0    0 -0.00000000000E+00 -0.00000000000E+00 -0.45593999997E+02  0.45594000000E+02  0.51100000000E-03 0.  1.
    9900012    2    1    2    0    0  0.22290874769E+02  0.64607494908E+00  0.33998022309E+02  0.50528855497E+02  0.29999986768E+02 0.  0.
        -12    1    1    2    0    0 -0.22290874769E+02 -0.64607494908E+00 -0.33998022309E+02  0.40659144503E+02  0.00000000000E+00 0.  1.
         11    1    3    3    0    0  0.12114444520E+02 -0.76069990352E+01  0.10203629640E+02  0.17571006187E+02  0.51100000000E-03 0. -1.
        -11    1    3    3    0    0  0.67521625807E+01 -0.53178019316E+01  0.11291275759E+02  0.14190265164E+02  0.51100000000E-03 0.  1.
        -12    1    3    3    0    0  0.34242676682E+01  0.13570875916E+02  0.12503116910E+02  0.18767584146E+02  0.00000000000E+00 0.  1.
</event>
<event>
 7    1  0.5855569E-013  0.5052886E+02  0.7816164E-02  0.1300439E+00
        -11   -1    0    0    0    0  0.00000000000E+00  0.00000000000E+00  0.45593999997E+02  0.45594000000E+02  0.51100000000E-03 0.  1.
         11   -1    0    0    0    0 -0.00000000000E+00 -0.00000000000E+00 -0.45593999997E+02  0.45594000000E+02  0.51100000000E-03 0. -1.
    9900012    2    1    2    0    0 -0.18399657487E+02 -0.13638998565E+02 -0.33594585163E+02  0.50528857981E+02  0.29999994318E+02 0.  0.
        -12    1    1    2    0    0  0.18399657487E+02  0.13638998565E+02  0.33594585163E+02  0.40659142019E+02  0.00000000000E+00 0.  1.
         11    1    3    3    0    0 -0.11251566496E+01  0.91772120930E+00  0.35903048952E+00  0.14956914313E+01  0.51100000000E-03 0.  1.
        -11    1    3    3    0    0 -0.44135262929E+01  0.66726988796E+00  0.41101557527E+01  0.60677709263E+01  0.51100000000E-03 0. -1.
         12    1    3    3    0    0 -0.12860974545E+02 -0.15223989662E+02 -0.38063771405E+02  0.42965395623E+02  0.00000000000E+00 0. -1.
</event>
<event>
 7    1  0.5855569E-013  0.5052887E+02  0.7816164E-02  0.1300439E+00
        -11   -1    0    0    0    0  0.00000000000E+00  0.00000000000E+00  0.45593999997E+02  0.45594000000E+02  0.51100000000E-03 0.  1.
         11   -1    0    0    0    0 -0.00000000000E+00 -0.00000000000E+00 -0.45593999997E+02  0.45594000000E+02  0.51100000000E-03 0. -1.
    9900012    2    1    2    0    0  0.67697190947E+01  0.30526638752E+02 -0.25989619684E+02  0.50528866937E+02  0.30000021541E+02 0.  0.
        -12    1    1    2    0    0 -0.67697190947E+01 -0.30526638752E+02  0.25989619684E+02  0.40659133063E+02  0.00000000000E+00 0.  1.
         11    1    3    3    0    0  0.13374758139E+02  0.22130532441E+02 -0.10165458094E+02  0.27784548942E+02  0.51100000000E-03 0. -1.
        -11    1    3    3    0    0  0.34621565329E+01  0.40912575718E+00 -0.33392173145E+01  0.48274511160E+01  0.51100000000E-03 0.  1.
         12    1    3    3    0    0 -0.10067195578E+02  0.79869805542E+01 -0.12484944276E+02  0.17916866879E+02  0.00000000000E+00 0. -1.
</event>
<event>
 7    1  0.5855569E-013  0.5052886E+02  0.7816164E-02  0.1300439E+00
        -11   -1    0    0    0    0  0.00000000000E+00  0.00000000000E+00  0.45593999997E+02  0.45594000000E+02  0.51100000000E-03 0. -1.
         11   -1    0    0    0    0 -0.00000000000E+00 -0.00000000000E+00 -0.45593999997E+02  0.45594000000E+02  0.51100000000E-03 0.  1.
    9900012    2    1    2    0    0 -0.34181403389E+01  0.27546170063E+02  0.29710106678E+02  0.50528860715E+02  0.30000002631E+02 0.  0.
        -12    1    1    2    0    0  0.34181403389E+01 -0.27546170063E+02 -0.29710106678E+02  0.40659139285E+02  0.00000000000E+00 0.  1.
         11    1    3    3    0    0  0.86473301904E-01  0.14768522988E+02  0.22387008544E+02  0.26819673762E+02  0.51100000000E-03 0. -1.
        -11    1    3    3    0    0 -0.41237836982E+01  0.14762249712E+02  0.11420648551E+02  0.19114413989E+02  0.51100000000E-03 0.  1.
        -12    1    3    3    0    0  0.61917005744E+00 -0.19846026364E+01 -0.40975504167E+01  0.45947729652E+01  0.00000000000E+00 0.  1.
</event>
<event>
 7    1  0.5855569E-013  0.5052885E+02  0.7816164E-02  0.1300439E+00
        -11   -1    0    0    0    0  0.00000000000E+00  0.00000000000E+00  0.45593999997E+02  0.45594000000E+02  0.51100000000E-03 0.  1.
         11   -1    0    0    0    0 -0.00000000000E+00 -0.00000000000E+00 -0.45593999997E+02  0.45594000000E+02  0.51100000000E-03 0. -1.
    9900012    2    1    2    0    0 -0.36092530043E+02 -0.18181318758E+02  0.44649416136E+01  0.50528846291E+02  0.29999958787E+02 0.  0.
        -12    1    1    2    0    0  0.36092530043E+02  0.18181318758E+02 -0.44649416136E+01  0.40659153709E+02  0.00000000000E+00 0.  1.
         11    1    3    3    0    0 -0.32911802611E+01 -0.57026054140E+01  0.34167723324E+01  0.74179450963E+01  0.51100000000E-03 0. -1.
        -11    1    3    3    0    0 -0.27905664848E+01 -0.28984423162E+01  0.96496917284E+01  0.10454892629E+02  0.51100000000E-03 0.  1.
         12    1    3    3    0    0 -0.30010783297E+02 -0.95802710275E+01 -0.86015224472E+01  0.32656008566E+02  0.00000000000E+00 0. -1.
</event>
<event>
 7    1  0.5855569E-013  0.5052886E+02  0.7816164E-02  0.1300439E+00
        -11   -1    0    0    0    0  0.00000000000E+00  0.00000000000E+00  0.45593999997E+02  0.45594000000E+02  0.51100000000E-03 0.  1.
         11   -1    0    0    0    0 -0.00000000000E+00 -0.00000000000E+00 -0.45593999997E+02  0.45594000000E+02  0.51100000000E-03 0. -1.
    9900012    2    1    2    0    0  0.39956281774E+02 -0.74341458519E+01 -0.11809790350E+01  0.50528859709E+02  0.29999999571E+02 0.  0.
        -12    1    1    2    0    0 -0.39956281774E+02  0.74341458519E+01  0.11809790350E+01  0.40659140291E+02  0.00000000000E+00 0.  1.
         11    1    3    3    0    0  0.98223985539E+01 -0.49653761090E+01 -0.10534194136E+02  0.15234950594E+02  0.51100000000E-03 0. -1.
        -11    1    3    3    0    0  0.16481025077E+01 -0.28506620460E+01  0.56858358111E+01  0.65704828672E+01  0.51100000000E-03 0.  1.
         12    1    3    3    0    0  0.28485780712E+02  0.38189230302E+00  0.36673792900E+01  0.28723426247E+02  0.00000000000E+00 0. -1.
</event>
<event>
 7    1  0.5855569E-013  0.5052886E+02  0.7816164E-02  0.1300439E+00
        -11   -1    0    0    0    0  0.00000000000E+00  0.00000000000E+00  0.45593999997E+02  0.45594000000E+02  0.51100000000E-03 0.  1.
         11   -1    0    0    0    0 -0.00000000000E+00 -0.00000000000E+00 -0.45593999997E+02  0.45594000000E+02  0.51100000000E-03 0. -1.
    9900012    2    1    2    0    0  0.22643619794E+02 -0.31732946795E+02 -0.11552151288E+02  0.50528860449E+02  0.30000001819E+02 0.  0.
        -12    1    1    2    0    0 -0.22643619794E+02  0.31732946795E+02  0.11552151288E+02  0.40659139551E+02  0.00000000000E+00 0.  1.
         11    1    3    3    0    0  0.10722649562E+02 -0.76423436675E+01  0.56946411358E+01  0.14346064558E+02  0.51100000000E-03 0. -1.
        -11    1    3    3    0    0 -0.42076621072E+01 -0.44621078821E+01 -0.15720599175E+01  0.63313663458E+01  0.51100000000E-03 0.  1.
         12    1    3    3    0    0  0.16128632339E+02 -0.19628495245E+02 -0.15674732506E+02  0.29851429545E+02  0.00000000000E+00 0. -1.
</event>
<event>
 7    1  0.5855569E-013  0.5052887E+02  0.7816164E-02  0.1300439E+00
        -11   -1    0    0    0    0  0.00000000000E+00  0.00000000000E+00  0.45593999997E+02  0.45594000000E+02  0.51100000000E-03 0.  1.
         11   -1    0    0    0    0 -0.00000000000E+00 -0.00000000000E+00 -0.45593999997E+02  0.45594000000E+02  0.51100000000E-03 0. -1.
    9900012    2    1    2    0    0 -0.11081835085E+02  0.15374877659E+02 -0.35971808124E+02  0.50528869272E+02  0.30000028639E+02 0.  0.
        -12    1    1    2    0    0  0.11081835085E+02 -0.15374877659E+02  0.35971808124E+02  0.40659130728E+02  0.00000000000E+00 0.  1.
         11    1    3    3    0    0  0.80457803163E+01 -0.72031984811E+00 -0.70898736521E+01  0.10748011455E+02  0.51100000000E-03 0. -1.
        -11    1    3    3    0    0 -0.89801472713E+00  0.41445698560E+01 -0.94230554081E+00  0.43441719274E+01  0.51100000000E-03 0.  1.
         12    1    3    3    0    0 -0.18229600674E+02  0.11950627651E+02 -0.27939628931E+02  0.35436685889E+02  0.00000000000E+00 0. -1.
</event>
<event>
 7    1  0.5855569E-013  0.5052884E+02  0.7816164E-02  0.1300439E+00
        -11   -1    0    0    0    0  0.00000000000E+00  0.00000000000E+00  0.45593999997E+02  0.45594000000E+02  0.51100000000E-03 0. -1.
         11   -1    0    0    0    0 -0.00000000000E+00 -0.00000000000E+00 -0.45593999997E+02  0.45594000000E+02  0.51100000000E-03 0.  1.
    9900012    2    1    2    0    0 -0.19784128600E+02  0.10106321554E+02  0.34053155711E+02  0.50528844897E+02  0.29999954549E+02 0.  0.
        -12    1    1    2    0    0  0.19784128600E+02 -0.10106321554E+02 -0.34053155711E+02  0.40659155103E+02  0.00000000000E+00 0.  1.
         11    1    3    3    0    0 -0.16814973665E+02 -0.27442568893E+01  0.22613258380E+02  0.28313137234E+02  0.51100000000E-03 0. -1.
        -11    1    3    3    0    0 -0.78309899612E+01  0.11114917432E+02  0.99315571523E+01  0.16837506378E+02  0.51100000000E-03 0.  1.
        -12    1    3    3    0    0  0.48618350263E+01  0.17356610112E+01  0.15083401788E+01  0.53782012852E+01  0.00000000000E+00 0.  1.
</event>
<event>
 7    1  0.5855569E-013  0.5052885E+02  0.7816164E-02  0.1300439E+00
        -11   -1    0    0    0    0  0.00000000000E+00  0.00000000000E+00  0.45593999997E+02  0.45594000000E+02  0.51100000000E-03 0.  1.
         11   -1    0    0    0    0 -0.00000000000E+00 -0.00000000000E+00 -0.45593999997E+02  0.45594000000E+02  0.51100000000E-03 0. -1.
    9900012    2    1    2    0    0  0.17428641848E+02  0.35899440698E+02 -0.77870868345E+01  0.50528854406E+02  0.29999983453E+02 0.  0.
        -12    1    1    2    0    0 -0.17428641848E+02 -0.35899440698E+02  0.77870868345E+01  0.40659145594E+02  0.00000000000E+00 0.  1.
         11    1    3    3    0    0  0.11839619094E+02  0.12180371703E+02 -0.22618603384E+00  0.16987913218E+02  0.51100000000E-03 0. -1.
        -11    1    3    3    0    0  0.60846667136E+01  0.78681288581E+01  0.68787495712E+01  0.12093296352E+02  0.51100000000E-03 0.  1.
        -12    1    3    3    0    0 -0.49564395946E+00  0.15850940136E+02 -0.14439650372E+02  0.21447644836E+02  0.00000000000E+00 0.  1.
</event>
<event>
 7    1  0.5855569E-013  0.5052886E+02  0.7816164E-02  0.1300439E+00
        -11   -1    0    0    0    0  0.00000000000E+00  0.00000000000E+00  0.45593999997E+02  0.45594000000E+02  0.51100000000E-03 0. -1.
         11   -1    0    0    0    0 -0.00000000000E+00 -0.00000000000E+00 -0.45593999997E+02  0.45594000000E+02  0.51100000000E-03 0.  1.
    9900012    2    1    2    0    0  0.27614918734E+02 -0.16829111871E+02  0.24644735417E+02  0.50528859246E+02  0.29999998164E+02 0.  0.
        -12    1    1    2    0    0 -0.27614918734E+02  0.16829111871E+02 -0.24644735417E+02  0.40659140754E+02  0.00000000000E+00 0.  1.
         11    1    3    3    0    0  0.11018955496E+02 -0.68114649596E+01 -0.16789637854E+01  0.13062632001E+02  0.51100000000E-03 0. -1.
        -11    1    3    3    0    0  0.97485473544E+01 -0.81675007162E+01  0.29711411904E+01  0.13060242100E+02  0.51100000000E-03 0.  1.
        -12    1    3    3    0    0  0.68474158834E+01 -0.18501461957E+01  0.23352558012E+02  0.24405985146E+02  0.00000000000E+00 0.  1.
</event>
<event>
 7    1  0.5855569E-013  0.5052886E+02  0.7816164E-02  0.1300439E+00
        -11   -1    0    0    0    0  0.00000000000E+00  0.00000000000E+00  0.45593999997E+02  0.45594000000E+02  0.51100000000E-03 0. -1.
         11   -1    0    0    0    0 -0.00000000000E+00 -0.00000000000E+00 -0.45593999997E+02  0.45594000000E+02  0.51100000000E-03 0.  1.
    9900012    2    1    2    0    0  0.36306063418E+02 -0.48541625858E+01 -0.17648593220E+02  0.50528856158E+02  0.29999988777E+02 0.  0.
        -12    1    1    2    0    0 -0.36306063418E+02  0.48541625858E+01  0.17648593220E+02  0.40659143842E+02  0.00000000000E+00 0.  1.
         11    1    3    3    0    0  0.17927887391E+02 -0.29307073730E+01  0.19809734418E+01  0.18273545032E+02  0.51100000000E-03 0. -1.
        -11    1    3    3    0    0  0.82314504181E+01 -0.97524795863E+01 -0.10376222567E+02  0.16447906526E+02  0.51100000000E-03 0.  1.
         12    1    3    3    0    0  0.10146725609E+02  0.78290243734E+01 -0.92533440956E+01  0.15807404600E+02  0.00000000000E+00 0. -1.
</event>
<event>
 7    1  0.5855569E-013  0.5052886E+02  0.7816164E-02  0.1300439E+00
        -11   -1    0    0    0    0  0.00000000000E+00  0.00000000000E+00  0.45593999997E+02  0.45594000000E+02  0.51100000000E-03 0.  1.
         11   -1    0    0    0    0 -0.00000000000E+00 -0.00000000000E+00 -0.45593999997E+02  0.45594000000E+02  0.51100000000E-03 0. -1.
    9900012    2    1    2    0    0  0.19702146729E+02 -0.30760805878E+02 -0.17853954173E+02  0.50528862729E+02  0.30000008752E+02 0.  0.
        -12    1    1    2    0    0 -0.19702146729E+02  0.30760805878E+02  0.17853954173E+02  0.40659137271E+02  0.00000000000E+00 0.  1.
         11    1    3    3    0    0  0.12887401732E+02 -0.16878607793E+02 -0.12102827982E+02  0.24442810187E+02  0.51100000000E-03 0. -1.
        -11    1    3    3    0    0 -0.17829236669E+01 -0.16246719069E+02 -0.52026013348E+01  0.17152310580E+02  0.51100000000E-03 0.  1.
        -12    1    3    3    0    0  0.85976686637E+01  0.23645209839E+01 -0.54852485622E+00  0.89337419624E+01  0.00000000000E+00 0.  1.
</event>
<event>
 7    1  0.5855569E-013  0.5052886E+02  0.7816164E-02  0.1300439E+00
        -11   -1    0    0    0    0  0.00000000000E+00  0.00000000000E+00  0.45593999997E+02  0.45594000000E+02  0.51100000000E-03 0. -1.
         11   -1    0    0    0    0 -0.00000000000E+00 -0.00000000000E+00 -0.45593999997E+02  0.45594000000E+02  0.51100000000E-03 0.  1.
    9900012    2    1    2    0    0 -0.59034812468E+01 -0.23555652095E+02  0.32610516516E+02  0.50528860512E+02  0.30000002014E+02 0.  0.
        -12    1    1    2    0    0  0.59034812468E+01  0.23555652095E+02 -0.32610516516E+02  0.40659139488E+02  0.00000000000E+00 0.  1.
         11    1    3    3    0    0  0.64595914851E+01 -0.24076562545E+01  0.41807523855E+01  0.80623707161E+01  0.51100000000E-03 0. -1.
        -11    1    3    3    0    0 -0.49886499879E+01 -0.23260121114E+02  0.20111063282E+02  0.31150838344E+02  0.51100000000E-03 0.  1.
         12    1    3    3    0    0 -0.73744227440E+01  0.21121252742E+01  0.83187008486E+01  0.11315651452E+02  0.00000000000E+00 0. -1.
</event>
<event>
 7    1  0.5855569E-013  0.5052887E+02  0.7816164E-02  0.1300439E+00
        -11   -1    0    0    0    0  0.00000000000E+00  0.00000000000E+00  0.45593999997E+02  0.45594000000E+02  0.51100000000E-03 0.  1.
         11   -1    0    0    0    0 -0.00000000000E+00 -0.00000000000E+00 -0.45593999997E+02  0.45594000000E+02  0.51100000000E-03 0. -1.
    9900012    2    1    2    0    0 -0.34274926423E+02  0.16877813412E+02 -0.13911627104E+02  0.50528873895E+02  0.30000042692E+02 0.  0.
        -12    1    1    2    0    0  0.34274926423E+02 -0.16877813412E+02  0.13911627104E+02  0.40659126105E+02  0.00000000000E+00 0.  1.
         11    1    3    3    0    0 -0.18634365389E+02 -0.14029438701E+01  0.94491791729E+00  0.18710977930E+02  0.51100000000E-03 0. -1.
        -11    1    3    3    0    0  0.10499670218E+01 -0.75789993017E+00  0.12583805884E+01  0.18056480879E+01  0.51100000000E-03 0.  1.
         12    1    3    3    0    0 -0.16690528056E+02  0.19038657213E+02 -0.16114925610E+02  0.30012247877E+02  0.00000000000E+00 0. -1.
</event>
<event>
 7    1  0.5855569E-013  0.5052889E+02  0.7816164E-02  0.1300439E+00
        -11   -1    0    0    0    0  0.00000000000E+00  0.00000000000E+00  0.45593999997E+02  0.45594000000E+02  0.51100000000E-03 0.  1.
         11   -1    0    0    0    0 -0.00000000000E+00 -0.00000000000E+00 -0.45593999997E+02  0.45594000000E+02  0.51100000000E-03 0. -1.
    9900012    2    1    2    0    0  0.63139626253E+01  0.27312344348E+02 -0.29450516048E+02  0.50528890647E+02  0.30000093612E+02 0.  0.
        -12    1    1    2    0    0 -0.63139626253E+01 -0.27312344348E+02  0.29450516048E+02  0.40659109353E+02  0.00000000000E+00 0.  1.
         11    1    3    3    0    0  0.34485978131E+01  0.15916650038E+02 -0.12045464031E+02  0.20256499680E+02  0.51100000000E-03 0. -1.
        -11    1    3    3    0    0  0.96677020611E+01  0.13511113030E+02 -0.79058817259E+01  0.18398847915E+02  0.51100000000E-03 0.  1.
        -12    1    3    3    0    0 -0.68023372489E+01 -0.21154187195E+01 -0.94991702910E+01  0.11873543053E+02  0.00000000000E+00 0.  1.
</event>
<event>
 7    1  0.5855569E-013  0.5052886E+02  0.7816164E-02  0.1300439E+00
        -11   -1    0    0    0    0  0.00000000000E+00  0.00000000000E+00  0.45593999997E+02  0.45594000000E+02  0.51100000000E-03 0. -1.
         11   -1    0    0    0    0 -0.00000000000E+00 -0.00000000000E+00 -0.45593999997E+02  0.45594000000E+02  0.51100000000E-03 0.  1.
    9900012    2    1    2    0    0 -0.29173619850E+02 -0.28240989593E+02  0.21241115236E+01  0.50528862797E+02  0.30000008957E+02 0.  0.
        -12    1    1    2    0    0  0.29173619850E+02  0.28240989593E+02 -0.21241115236E+01  0.40659137203E+02  0.00000000000E+00 0.  1.
         11    1    3    3    0    0 -0.77706486499E+01 -0.92253679163E+00  0.13003999101E+01  0.79325339432E+01  0.51100000000E-03 0. -1.
        -11    1    3    3    0    0 -0.83730696695E+01 -0.39227641123E+01 -0.10083264366E+02  0.13680957368E+02  0.51100000000E-03 0.  1.
         12    1    3    3    0    0 -0.13029901531E+02 -0.23395688689E+02  0.10906975979E+02  0.28915371486E+02  0.00000000000E+00 0. -1.
</event>
<event>
 7    1  0.5855569E-013  0.5052887E+02  0.7816164E-02  0.1300439E+00
        -11   -1    0    0    0    0  0.00000000000E+00  0.00000000000E+00  0.45593999997E+02  0.45594000000E+02  0.51100000000E-03 0.  1.
         11   -1    0    0    0    0 -0.00000000000E+00 -0.00000000000E+00 -0.45593999997E+02  0.45594000000E+02  0.51100000000E-03 0. -1.
    9900012    2    1    2    0    0 -0.56608161651E+01 -0.19249197159E+02 -0.35363663738E+02  0.50528866414E+02  0.30000019953E+02 0.  0.
        -12    1    1    2    0    0  0.56608161651E+01  0.19249197159E+02  0.35363663738E+02  0.40659133586E+02  0.00000000000E+00 0.  1.
         11    1    3    3    0    0  0.43905156699E+01 -0.13267719802E+02 -0.14412443516E+02  0.20075545944E+02  0.51100000000E-03 0.  1.
        -11    1    3    3    0    0 -0.90226050416E+01  0.39108702009E+01 -0.17221378395E+02  0.19831242562E+02  0.51100000000E-03 0. -1.
         12    1    3    3    0    0 -0.10287267934E+01 -0.98923475587E+01 -0.37298418272E+01  0.10622077909E+02  0.00000000000E+00 0. -1.
</event>
<event>
 7    1  0.5855569E-013  0.5052885E+02  0.7816164E-02  0.1300439E+00
        -11   -1    0    0    0    0  0.00000000000E+00  0.00000000000E+00  0.45593999997E+02  0.45594000000E+02  0.51100000000E-03 0.  1.
         11   -1    0    0    0    0 -0.00000000000E+00 -0.00000000000E+00 -0.45593999997E+02  0.45594000000E+02  0.51100000000E-03 0. -1.
    9900012    2    1    2    0    0 -0.15416590947E+02  0.37076036287E+02  0.63923649873E+01  0.50528854985E+02  0.29999985213E+02 0.  0.
        -12    1    1    2    0    0  0.15416590947E+02 -0.37076036287E+02 -0.63923649873E+01  0.40659145015E+02  0.00000000000E+00 0.  1.
         11    1    3    3    0    0 -0.35392969458E+01  0.17637482232E+02  0.11570398418E+02  0.21388817689E+02  0.51100000000E-03 0. -1.
        -11    1    3    3    0    0 -0.41100713069E+01  0.21467413237E+01  0.56500859709E+01  0.73092172083E+01  0.51100000000E-03 0.  1.
         12    1    3    3    0    0 -0.77672226943E+01  0.17291812732E+02 -0.10828119401E+02  0.21830820088E+02  0.00000000000E+00 0. -1.
</event>
<event>
 7    1  0.5855569E-013  0.5052895E+02  0.7816164E-02  0.1300438E+00
        -11   -1    0    0    0    0  0.00000000000E+00  0.00000000000E+00  0.45593999997E+02  0.45594000000E+02  0.51100000000E-03 0. -1.
         11   -1    0    0    0    0 -0.00000000000E+00 -0.00000000000E+00 -0.45593999997E+02  0.45594000000E+02  0.51100000000E-03 0.  1.
    9900012    2    1    2    0    0  0.23764989863E+02  0.17240905588E+02  0.28127121875E+02  0.50528947458E+02  0.30000266291E+02 0.  0.
        -12    1    1    2    0    0 -0.23764989863E+02 -0.17240905588E+02 -0.28127121875E+02  0.40659052542E+02  0.00000000000E+00 0.  1.
         11    1    3    3    0    0  0.10707829341E+02 -0.19318986685E+01  0.14349611662E+01  0.10974923939E+02  0.51100000000E-03 0. -1.
        -11    1    3    3    0    0  0.83819300032E+01  0.15324247591E+02  0.67717432868E+01  0.18733548042E+02  0.51100000000E-03 0.  1.
        -12    1    3    3    0    0  0.46752305184E+01  0.38485566653E+01  0.19920417422E+02  0.20820475477E+02  0.00000000000E+00 0.  1.
</event>
<event>
 7    1  0.5855569E-013  0.5052886E+02  0.7816164E-02  0.1300439E+00
        -11   -1    0    0    0    0  0.00000000000E+00  0.00000000000E+00  0.45593999997E+02  0.45594000000E+02  0.51100000000E-03 0.  1.
         11   -1    0    0    0    0 -0.00000000000E+00 -0.00000000000E+00 -0.45593999997E+02  0.45594000000E+02  0.51100000000E-03 0. -1.
    9900012    2    1    2    0    0  0.29159764835E+02  0.43403613295E+01 -0.28000621801E+02  0.50528862737E+02  0.30000008775E+02 0.  0.
        -12    1    1    2    0    0 -0.29159764835E+02 -0.43403613295E+01  0.28000621801E+02  0.40659137263E+02  0.00000000000E+00 0.  1.
         11    1    3    3    0    0  0.16406016619E+02  0.53561766988E+01 -0.81933030004E+01  0.19104350930E+02  0.51100000000E-03 0. -1.
        -11    1    3    3    0    0  0.14833255369E+02  0.46212146458E+01 -0.65337554624E+01  0.16854407446E+02  0.51100000000E-03 0.  1.
        -12    1    3    3    0    0 -0.20795071532E+01 -0.56370300151E+01 -0.13273563338E+02  0.14570104361E+02  0.00000000000E+00 0.  1.
</event>
<event>
 7    1  0.5855569E-013  0.5052886E+02  0.7816164E-02  0.1300439E+00
        -11   -1    0    0    0    0  0.00000000000E+00  0.00000000000E+00  0.45593999997E+02  0.45594000000E+02  0.51100000000E-03 0. -1.
         11   -1    0    0    0    0 -0.00000000000E+00 -0.00000000000E+00 -0.45593999997E+02  0.45594000000E+02  0.51100000000E-03 0.  1.
    9900012    2    1    2    0    0  0.99667964443E+01  0.15956429799E+02  0.36044704061E+02  0.50528863583E+02  0.30000011348E+02 0.  0.
        -12    1    1    2    0    0 -0.99667964443E+01 -0.15956429799E+02 -0.36044704061E+02  0.40659136417E+02  0.00000000000E+00 0.  1.
         11    1    3    3    0    0  0.63519838746E+01 -0.14224325258E+01  0.73354156757E+01  0.98071064453E+01  0.51100000000E-03 0. -1.
        -11    1    3    3    0    0  0.24979370612E+00 -0.28782583704E+01  0.16668959986E+02  0.16917476036E+02  0.51100000000E-03 0.  1.
         12    1    3    3    0    0  0.33650188635E+01  0.20257120695E+02  0.12040328399E+02  0.23804281102E+02  0.00000000000E+00 0. -1.
</event>
<event>
 7    1  0.5855569E-013  0.5052886E+02  0.7816164E-02  0.1300439E+00
        -11   -1    0    0    0    0  0.00000000000E+00  0.00000000000E+00  0.45593999997E+02  0.45594000000E+02  0.51100000000E-03 0.  1.
         11   -1    0    0    0    0 -0.00000000000E+00 -0.00000000000E+00 -0.45593999997E+02  0.45594000000E+02  0.51100000000E-03 0. -1.
    9900012    2    1    2    0    0  0.31587690857E+02 -0.12652282937E+02 -0.22255403111E+02  0.50528862714E+02  0.30000008705E+02 0.  0.
        -12    1    1    2    0    0 -0.31587690857E+02  0.12652282937E+02  0.22255403111E+02  0.40659137286E+02  0.00000000000E+00 0.  1.
         11    1    3    3    0    0  0.95638099646E+01  0.66071073526E+00  0.33713917221E+01  0.10162149483E+02  0.51100000000E-03 0. -1.
        -11    1    3    3    0    0  0.63824974348E+01 -0.55294960248E+01  0.10170091521E+01  0.85056397567E+01  0.51100000000E-03 0.  1.
         12    1    3    3    0    0  0.15641383458E+02 -0.77834976475E+01 -0.26643803985E+02  0.31861073474E+02  0.00000000000E+00 0. -1.
</event>
<event>
 7    1  0.5855569E-013  0.5052887E+02  0.7816164E-02  0.1300439E+00
        -11   -1    0    0    0    0  0.00000000000E+00  0.00000000000E+00  0.45593999997E+02  0.45594000000E+02  0.51100000000E-03 0.  1.
         11   -1    0    0    0    0 -0.00000000000E+00 -0.00000000000E+00 -0.45593999997E+02  0.45594000000E+02  0.51100000000E-03 0. -1.
    9900012    2    1    2    0    0  0.82549454725E+01 -0.34560857390E+02 -0.19762795953E+02  0.50528867051E+02  0.30000021889E+02 0.  0.
        -12    1    1    2    0    0 -0.82549454725E+01  0.34560857390E+02  0.19762795953E+02  0.40659132949E+02  0.00000000000E+00 0.  1.
         11    1    3    3    0    0 -0.18381700348E+01 -0.19609338206E+02 -0.43417533289E+01  0.20168188719E+02  0.51100000000E-03 0. -1.
        -11    1    3    3    0    0  0.29451423420E+01 -0.93767539813E+01  0.26188699942E+01  0.10171325329E+02  0.51100000000E-03 0.  1.
         12    1    3    3    0    0  0.71479731653E+01 -0.55747652022E+01 -0.18039912618E+02  0.20189353003E+02  0.00000000000E+00 0. -1.
</event>
<event>
 7    1  0.5855569E-013  0.5052887E+02  0.7816164E-02  0.1300439E+00
        -11   -1    0    0    0    0  0.00000000000E+00  0.00000000000E+00  0.45593999997E+02  0.45594000000E+02  0.51100000000E-03 0.  1.
         11   -1    0    0    0    0 -0.00000000000E+00 -0.00000000000E+00 -0.45593999997E+02  0.45594000000E+02  0.51100000000E-03 0. -1.
    9900012    2    1    2    0    0  0.56640403635E+01 -0.14452223427E+02 -0.37579477625E+02  0.50528865063E+02  0.30000015846E+02 0.  0.
        -12    1    1    2    0    0 -0.56640403635E+01  0.14452223427E+02  0.37579477625E+02  0.40659134937E+02  0.00000000000E+00 0.  1.
         11    1    3    3    0    0 -0.12162355980E+01 -0.10329196309E+02 -0.21092985584E+01  0.10612288447E+02  0.51100000000E-03 0. -1.
        -11    1    3    3    0    0  0.39645672873E+01  0.34139987151E+01 -0.21943279392E+01  0.56734695177E+01  0.51100000000E-03 0.  1.
         12    1    3    3    0    0  0.29157086742E+01 -0.75370258330E+01 -0.33275851128E+02  0.34243107098E+02  0.00000000000E+00 0. -1.
</event>
<event>
 7    1  0.5855569E-013  0.5052888E+02  0.7816164E-02  0.1300439E+00
        -11   -1    0    0    0    0  0.00000000000E+00  0.00000000000E+00  0.45593999997E+02  0.45594000000E+02  0.51100000000E-03 0. -1.
         11   -1    0    0    0    0 -0.00000000000E+00 -0.00000000000E+00 -0.45593999997E+02  0.45594000000E+02  0.51100000000E-03 0.  1.
    9900012    2    1    2    0    0  0.25110971986E+02  0.29854221273E+02  0.11459873714E+02  0.50528878669E+02  0.30000057202E+02 0.  0.
        -12    1    1    2    0    0 -0.25110971986E+02 -0.29854221273E+02 -0.11459873714E+02  0.40659121331E+02  0.00000000000E+00 0.  1.
         11    1    3    3    0    0  0.95825804265E+00  0.36099546744E+01 -0.30425714152E+00  0.37473462472E+01  0.51100000000E-03 0. -1.
        -11    1    3    3    0    0  0.93623132251E+01  0.51802401824E+01 -0.87867709043E+01  0.13845401419E+02  0.51100000000E-03 0.  1.
         12    1    3    3    0    0  0.14790400718E+02  0.21064026416E+02  0.20550901760E+02  0.32936131002E+02  0.00000000000E+00 0. -1.
</event>
<event>
 7    1  0.5855569E-013  0.5052889E+02  0.7816164E-02  0.1300439E+00
        -11   -1    0    0    0    0  0.00000000000E+00  0.00000000000E+00  0.45593999997E+02  0.45594000000E+02  0.51100000000E-03 0. -1.
         11   -1    0    0    0    0 -0.00000000000E+00 -0.00000000000E+00 -0.45593999997E+02  0.45594000000E+02  0.51100000000E-03 0.  1.
    9900012    2    1    2    0    0 -0.17524313361E+02  0.36138780904E+02  0.63285270094E+01  0.50528889113E+02  0.30000088948E+02 0.  0.
        -12    1    1    2    0    0  0.17524313361E+02 -0.36138780904E+02 -0.63285270094E+01  0.40659110887E+02  0.00000000000E+00 0.  1.
         11    1    3    3    0    0 -0.11664218501E+02  0.11293009505E+02  0.65378866129E+01  0.17502286095E+02  0.51100000000E-03 0. -1.
        -11    1    3    3    0    0 -0.12703202527E+02  0.85735513058E+01 -0.98200330333E+00  0.15357130825E+02  0.51100000000E-03 0.  1.
        -12    1    3    3    0    0  0.68431076669E+01  0.16272220093E+02  0.77264369982E+00  0.17669472193E+02  0.00000000000E+00 0.  1.
</event>
<event>
 7    1  0.5855569E-013  0.5052886E+02  0.7816164E-02  0.1300439E+00
        -11   -1    0    0    0    0  0.00000000000E+00  0.00000000000E+00  0.45593999997E+02  0.45594000000E+02  0.51100000000E-03 0. -1.
         11   -1    0    0    0    0 -0.00000000000E+00 -0.00000000000E+00 -0.45593999997E+02  0.45594000000E+02  0.51100000000E-03 0.  1.
    9900012    2    1    2    0    0  0.38365039029E+02 -0.13459473923E+02  0.36355656337E+00  0.50528857961E+02  0.29999994257E+02 0.  0.
        -12    1    1    2    0    0 -0.38365039029E+02  0.13459473923E+02 -0.36355656337E+00  0.40659142039E+02  0.00000000000E+00 0.  1.
         11    1    3    3    0    0  0.99203542686E+00  0.56193648154E+00 -0.74897739826E-01  0.11425921538E+01  0.51100000000E-03 0. -1.
        -11    1    3    3    0    0  0.32202465941E+02 -0.22611022046E+02  0.76217400585E+00  0.39355279698E+02  0.51100000000E-03 0.  1.
        -12    1    3    3    0    0  0.51705376620E+01  0.85896116419E+01 -0.32371970265E+00  0.10030986109E+02  0.00000000000E+00 0.  1.
</event>
<event>
 7    1  0.5855569E-013  0.5052885E+02  0.7816164E-02  0.1300439E+00
        -11   -1    0    0    0    0  0.00000000000E+00  0.00000000000E+00  0.45593999997E+02  0.45594000000E+02  0.51100000000E-03 0.  1.
         11   -1    0    0    0    0 -0.00000000000E+00 -0.00000000000E+00 -0.45593999997E+02  0.45594000000E+02  0.51100000000E-03 0. -1.
    9900012    2    1    2    0    0  0.13945656909E+02  0.40997752580E+01 -0.37972055851E+02  0.50528849377E+02  0.29999968168E+02 0.  0.
        -12    1    1    2    0    0 -0.13945656909E+02 -0.40997752580E+01  0.37972055851E+02  0.40659150623E+02  0.00000000000E+00 0.  1.
         11    1    3    3    0    0 -0.27527462985E+01  0.26820018107E+01 -0.12313832614E+02  0.12899659678E+02  0.51100000000E-03 0. -1.
        -11    1    3    3    0    0  0.74059480631E+01 -0.68491125071E+01 -0.22706267348E+02  0.24846186548E+02  0.51100000000E-03 0.  1.
         12    1    3    3    0    0  0.92924551441E+01  0.82668859544E+01 -0.29519558887E+01  0.12783003151E+02  0.00000000000E+00 0. -1.
</event>
<event>
 7    1  0.5855569E-013  0.5052885E+02  0.7816164E-02  0.1300439E+00
        -11   -1    0    0    0    0  0.00000000000E+00  0.00000000000E+00  0.45593999997E+02  0.45594000000E+02  0.51100000000E-03 0.  1.
         11   -1    0    0    0    0 -0.00000000000E+00 -0.00000000000E+00 -0.45593999997E+02  0.45594000000E+02  0.51100000000E-03 0. -1.
    9900012    2    1    2    0    0  0.11063158620E+02 -0.39119828552E+02  0.64206467209E+00  0.50528847136E+02  0.29999961355E+02 0.  0.
        -12    1    1    2    0    0 -0.11063158620E+02  0.39119828552E+02 -0.64206467209E+00  0.40659152864E+02  0.00000000000E+00 0.  1.
         11    1    3    3    0    0  0.71891036578E+01 -0.64542722302E+01 -0.88854832143E+01  0.13126029622E+02  0.51100000000E-03 0.  1.
        -11    1    3    3    0    0  0.29047758581E+01 -0.83968927823E+01 -0.38397540809E+01  0.96793203711E+01  0.51100000000E-03 0. -1.
         12    1    3    3    0    0  0.96927910411E+00 -0.24268663539E+02  0.13367301967E+02  0.27723497143E+02  0.00000000000E+00 0. -1.
</event>
<event>
 7    1  0.5855569E-013  0.5052886E+02  0.7816164E-02  0.1300439E+00
        -11   -1    0    0    0    0  0.00000000000E+00  0.00000000000E+00  0.45593999997E+02  0.45594000000E+02  0.51100000000E-03 0.  1.
         11   -1    0    0    0    0 -0.00000000000E+00 -0.00000000000E+00 -0.45593999997E+02  0.45594000000E+02  0.51100000000E-03 0. -1.
    9900012    2    1    2    0    0  0.14956503146E+02 -0.65661413059E+00 -0.37802612815E+02  0.50528860017E+02  0.30000000509E+02 0.  0.
        -12    1    1    2    0    0 -0.14956503146E+02  0.65661413059E+00  0.37802612815E+02  0.40659139983E+02  0.00000000000E+00 0.  1.
         11    1    3    3    0    0  0.19110454091E+01 -0.14878858939E+01 -0.38509544288E+01  0.45492581003E+01  0.51100000000E-03 0. -1.
        -11    1    3    3    0    0  0.15807994768E+02  0.49248576137E+01 -0.60248123046E+01  0.17619457559E+02  0.51100000000E-03 0.  1.
         12    1    3    3    0    0 -0.27625370310E+01 -0.40935858503E+01 -0.27926846082E+02  0.28360144358E+02  0.00000000000E+00 0. -1.
</event>
<event>
 7    1  0.5855569E-013  0.5052885E+02  0.7816164E-02  0.1300439E+00
        -11   -1    0    0    0    0  0.00000000000E+00  0.00000000000E+00  0.45593999997E+02  0.45594000000E+02  0.51100000000E-03 0.  1.
         11   -1    0    0    0    0 -0.00000000000E+00 -0.00000000000E+00 -0.45593999997E+02  0.45594000000E+02  0.51100000000E-03 0. -1.
    9900012    2    1    2    0    0  0.14745856257E+02 -0.36305874599E+02 -0.10844798783E+02  0.50528850134E+02  0.29999970467E+02 0.  0.
        -12    1    1    2    0    0 -0.14745856257E+02  0.36305874599E+02  0.10844798783E+02  0.40659149866E+02  0.00000000000E+00 0.  1.
         11    1    3    3    0    0 -0.34159741423E+01 -0.36018210441E+01 -0.45022944526E+01  0.67016900684E+01  0.51100000000E-03 0. -1.
        -11    1    3    3    0    0  0.12499960439E+02 -0.20112272006E+02 -0.14523447310E+02  0.27779183182E+02  0.51100000000E-03 0.  1.
        -12    1    3    3    0    0  0.56618699603E+01 -0.12591781549E+02  0.81809429789E+01  0.16047976883E+02  0.00000000000E+00 0.  1.
</event>
<event>
 7    1  0.5855569E-013  0.5052886E+02  0.7816164E-02  0.1300439E+00
        -11   -1    0    0    0    0  0.00000000000E+00  0.00000000000E+00  0.45593999997E+02  0.45594000000E+02  0.51100000000E-03 0. -1.
         11   -1    0    0    0    0 -0.00000000000E+00 -0.00000000000E+00 -0.45593999997E+02  0.45594000000E+02  0.51100000000E-03 0.  1.
    9900012    2    1    2    0    0  0.30721351982E+02 -0.98747353520E+01  0.24735680084E+02  0.50528859145E+02  0.29999997856E+02 0.  0.
        -12    1    1    2    0    0 -0.30721351982E+02  0.98747353520E+01 -0.24735680084E+02  0.40659140855E+02  0.00000000000E+00 0.  1.
         11    1    3    3    0    0  0.74674815674E+01  0.20824209271E+01 -0.28019017439E+01  0.82432039597E+01  0.51100000000E-03 0. -1.
        -11    1    3    3    0    0 -0.24094832014E+01  0.17593851046E+01  0.28297163618E+01  0.41119752180E+01  0.51100000000E-03 0.  1.
         12    1    3    3    0    0  0.25663353616E+02 -0.13716541384E+02  0.24707865466E+02  0.38173679967E+02  0.00000000000E+00 0. -1.
</event>
<event>
 7    1  0.5855569E-013  0.5052885E+02  0.7816164E-02  0.1300439E+00
        -11   -1    0    0    0    0  0.00000000000E+00  0.00000000000E+00  0.45593999997E+02  0.45594000000E+02  0.51100000000E-03 0.  1.
         11   -1    0    0    0    0 -0.00000000000E+00 -0.00000000000E+00 -0.45593999997E+02  0.45594000000E+02  0.51100000000E-03 0. -1.
    9900012    2    1    2    0    0 -0.32966406831E+02  0.20421704753E+02 -0.12220317227E+02  0.50528853950E+02  0.29999982067E+02 0.  0.
        -12    1    1    2    0    0  0.32966406831E+02 -0.20421704753E+02  0.12220317227E+02  0.40659146050E+02  0.00000000000E+00 0.  1.
         11    1    3    3    0    0 -0.42308584269E+01 -0.23170375521E+01 -0.79357832400E+01  0.92868445632E+01  0.51100000000E-03 0. -1.
        -11    1    3    3    0    0 -0.11566052930E+02 -0.47000941160E+00 -0.43687382884E+01  0.12372564961E+02  0.51100000000E-03 0.  1.
         12    1    3    3    0    0 -0.17169495474E+02  0.23208751717E+02  0.84204301377E-01  0.28869444426E+02  0.00000000000E+00 0. -1.
</event>
<event>
 7    1  0.5855569E-013  0.5052886E+02  0.7816164E-02  0.1300439E+00
        -11   -1    0    0    0    0  0.00000000000E+00  0.00000000000E+00  0.45593999997E+02  0.45594000000E+02  0.51100000000E-03 0.  1.
         11   -1    0    0    0    0 -0.00000000000E+00 -0.00000000000E+00 -0.45593999997E+02  0.45594000000E+02  0.51100000000E-03 0. -1.
    9900012    2    1    2    0    0  0.41116071284E+01  0.20838246540E+02 -0.34670278443E+02  0.50528855403E+02  0.29999986482E+02 0.  0.
        -12    1    1    2    0    0 -0.41116071284E+01 -0.20838246540E+02  0.34670278443E+02  0.40659144597E+02  0.00000000000E+00 0.  1.
         11    1    3    3    0    0 -0.19874111088E+01  0.15661780539E+02 -0.31784905081E+02  0.35489736035E+02  0.51100000000E-03 0. -1.
        -11    1    3    3    0    0  0.48884202116E+01  0.80790657393E+01 -0.55187082254E+01  0.10937280106E+02  0.51100000000E-03 0.  1.
         12    1    3    3    0    0  0.12105980256E+01 -0.29025997380E+01  0.26333348635E+01  0.41018392608E+01  0.00000000000E+00 0. -1.
</event>
<event>
 7    1  0.5855569E-013  0.5052886E+02  0.7816164E-02  0.1300439E+00
        -11   -1    0    0    0    0  0.00000000000E+00  0.00000000000E+00  0.45593999997E+02  0.45594000000E+02  0.51100000000E-03 0. -1.
         11   -1    0    0    0    0 -0.00000000000E+00 -0.00000000000E+00 -0.45593999997E+02  0.45594000000E+02  0.51100000000E-03 0.  1.
    9900012    2    1    2    0    0 -0.58484319778E+01  0.15252005132E+01  0.40207403812E+02  0.50528859398E+02  0.29999998627E+02 0.  0.
        -12    1    1    2    0    0  0.58484319778E+01 -0.15252005132E+01 -0.40207403812E+02  0.40659140602E+02  0.00000000000E+00 0.  1.
         11    1    3    3    0    0 -0.10735846239E+01  0.48971408138E+01  0.26667984632E+02  0.27135142835E+02  0.51100000000E-03 0. -1.
        -11    1    3    3    0    0 -0.46870470776E+01  0.68568348791E+01  0.33507909954E+01  0.89561373048E+01  0.51100000000E-03 0.  1.
         12    1    3    3    0    0 -0.87800276256E-01 -0.10228775180E+02  0.10188628185E+02  0.14437579259E+02  0.00000000000E+00 0. -1.
</event>
<event>
 7    1  0.5855569E-013  0.5052886E+02  0.7816164E-02  0.1300439E+00
        -11   -1    0    0    0    0  0.00000000000E+00  0.00000000000E+00  0.45593999997E+02  0.45594000000E+02  0.51100000000E-03 0. -1.
         11   -1    0    0    0    0 -0.00000000000E+00 -0.00000000000E+00 -0.45593999997E+02  0.45594000000E+02  0.51100000000E-03 0.  1.
    9900012    2    1    2    0    0 -0.32249502676E+02 -0.14622523830E+02  0.19982926258E+02  0.50528856283E+02  0.29999989157E+02 0.  0.
        -12    1    1    2    0    0  0.32249502676E+02  0.14622523830E+02 -0.19982926258E+02  0.40659143717E+02  0.00000000000E+00 0.  1.
         11    1    3    3    0    0 -0.24922035299E+02 -0.82476952549E+01  0.97272606283E+01  0.27995569650E+02  0.51100000000E-03 0. -1.
        -11    1    3    3    0    0 -0.74043399276E+01 -0.33795038965E+01  0.14916412789E+02  0.16992488549E+02  0.51100000000E-03 0.  1.
         12    1    3    3    0    0  0.76872550672E-01 -0.29953246785E+01 -0.46607471589E+01  0.55407980831E+01  0.00000000000E+00 0. -1.
</event>
<event>
 7    1  0.5855569E-013  0.5052885E+02  0.7816164E-02  0.1300439E+00
        -11   -1    0    0    0    0  0.00000000000E+00  0.00000000000E+00  0.45593999997E+02  0.45594000000E+02  0.51100000000E-03 0.  1.
         11   -1    0    0    0    0 -0.00000000000E+00 -0.00000000000E+00 -0.45593999997E+02  0.45594000000E+02  0.51100000000E-03 0. -1.
    9900012    2    1    2    0    0 -0.28608491675E+02  0.68621623559E+01 -0.28064771605E+02  0.50528850066E+02  0.29999970260E+02 0.  0.
        -12    1    1    2    0    0  0.28608491675E+02 -0.68621623559E+01  0.28064771605E+02  0.40659149934E+02  0.00000000000E+00 0.  1.
         11    1    3    3    0    0 -0.28175464685E+01  0.62601139504E+01 -0.21649205633E+01  0.71982272874E+01  0.51100000000E-03 0. -1.
        -11    1    3    3    0    0 -0.73837560322E+01  0.11134654407E+02 -0.12125679105E+02  0.18042518558E+02  0.51100000000E-03 0.  1.
         12    1    3    3    0    0 -0.18407189174E+02 -0.10532606002E+02 -0.13774171937E+02  0.25288104220E+02  0.00000000000E+00 0. -1.
</event>
<event>
 7    1  0.5855569E-013  0.5052886E+02  0.7816164E-02  0.1300439E+00
        -11   -1    0    0    0    0  0.00000000000E+00  0.00000000000E+00  0.45593999997E+02  0.45594000000E+02  0.51100000000E-03 0.  1.
         11   -1    0    0    0    0 -0.00000000000E+00 -0.00000000000E+00 -0.45593999997E+02  0.45594000000E+02  0.51100000000E-03 0. -1.
    9900012    2    1    2    0    0  0.20758386138E+02  0.71566338932E+01 -0.34220425827E+02  0.50528861451E+02  0.30000004868E+02 0.  0.
        -12    1    1    2    0    0 -0.20758386138E+02 -0.71566338932E+01  0.34220425827E+02  0.40659138549E+02  0.00000000000E+00 0.  1.
         11    1    3    3    0    0  0.48068088860E+01 -0.28515702363E+01 -0.33506620664E+01  0.65164254790E+01  0.51100000000E-03 0. -1.
        -11    1    3    3    0    0  0.53940591481E+01 -0.71729767460E+01 -0.17934181545E+02  0.20054484223E+02  0.51100000000E-03 0.  1.
        -12    1    3    3    0    0  0.10557518104E+02  0.17181180875E+02 -0.12935582215E+02  0.23957951750E+02  0.00000000000E+00 0.  1.
</event>
<event>
 7    1  0.5855569E-013  0.5052886E+02  0.7816164E-02  0.1300439E+00
        -11   -1    0    0    0    0  0.00000000000E+00  0.00000000000E+00  0.45593999997E+02  0.45594000000E+02  0.51100000000E-03 0.  1.
         11   -1    0    0    0    0 -0.00000000000E+00 -0.00000000000E+00 -0.45593999997E+02  0.45594000000E+02  0.51100000000E-03 0. -1.
    9900012    2    1    2    0    0 -0.14527582288E+02 -0.34149706038E+02 -0.16610606186E+02  0.50528864403E+02  0.30000013839E+02 0.  0.
        -12    1    1    2    0    0  0.14527582288E+02  0.34149706038E+02  0.16610606186E+02  0.40659135597E+02  0.00000000000E+00 0.  1.
         11    1    3    3    0    0 -0.42847621942E+01 -0.22066782990E+01 -0.27364079451E+01  0.55422508857E+01  0.51100000000E-03 0. -1.
        -11    1    3    3    0    0 -0.63921795075E+01 -0.21706776352E+01  0.59605422849E+01  0.90055463379E+01  0.51100000000E-03 0.  1.
         12    1    3    3    0    0 -0.38506405867E+01 -0.29772350104E+02 -0.19834740526E+02  0.35981067179E+02  0.00000000000E+00 0. -1.
</event>
<event>
 7    1  0.5855569E-013  0.5052886E+02  0.7816164E-02  0.1300439E+00
        -11   -1    0    0    0    0  0.00000000000E+00  0.00000000000E+00  0.45593999997E+02  0.45594000000E+02  0.51100000000E-03 0. -1.
         11   -1    0    0    0    0 -0.00000000000E+00 -0.00000000000E+00 -0.45593999997E+02  0.45594000000E+02  0.51100000000E-03 0.  1.
    9900012    2    1    2    0    0 -0.42831240777E+01  0.40037196461E+02 -0.56429818008E+01  0.50528862086E+02  0.30000006795E+02 0.  0.
        -12    1    1    2    0    0  0.42831240777E+01 -0.40037196461E+02  0.56429818008E+01  0.40659137914E+02  0.00000000000E+00 0.  1.
         11    1    3    3    0    0  0.43757034032E+01  0.26237167218E+01  0.19702168692E+01  0.54692252177E+01  0.51100000000E-03 0. -1.
        -11    1    3    3    0    0  0.84172497305E+00  0.48365866256E+01  0.66366891363E+01  0.82551023052E+01  0.51100000000E-03 0.  1.
        -12    1    3    3    0    0 -0.95005524540E+01  0.32576893114E+02 -0.14249887806E+02  0.36804534563E+02  0.00000000000E+00 0.  1.
</event>
<event>
 7    1  0.5855569E-013  0.5052886E+02  0.7816164E-02  0.1300439E+00
        -11   -1    0    0    0    0  0.00000000000E+00  0.00000000000E+00  0.45593999997E+02  0.45594000000E+02  0.51100000000E-03 0.  1.
         11   -1    0    0    0    0 -0.00000000000E+00 -0.00000000000E+00 -0.45593999997E+02  0.45594000000E+02  0.51100000000E-03 0. -1.
    9900012    2    1    2    0    0 -0.82645038011E+01  0.24120650815E+02 -0.31671088503E+02  0.50528859997E+02  0.30000000447E+02 0.  0.
        -12    1    1    2    0    0  0.82645038011E+01 -0.24120650815E+02  0.31671088503E+02  0.40659140003E+02  0.00000000000E+00 0.  1.
         11    1    3    3    0    0 -0.61155861624E+01  0.13061556957E+01 -0.15472814703E+01  0.64420894918E+01  0.51100000000E-03 0. -1.
        -11    1    3    3    0    0 -0.59368200071E+01 -0.25731775322E+01 -0.70875668023E+01  0.95969098071E+01  0.51100000000E-03 0.  1.
         12    1    3    3    0    0  0.37879023684E+01  0.25387672652E+02 -0.23036240230E+02  0.34489860698E+02  0.00000000000E+00 0. -1.
</event>
<event>
 7    1  0.5855569E-013  0.5052885E+02  0.7816164E-02  0.1300439E+00
        -11   -1    0    0    0    0  0.00000000000E+00  0.00000000000E+00  0.45593999997E+02  0.45594000000E+02  0.51100000000E-03 0.  1.
         11   -1    0    0    0    0 -0.00000000000E+00 -0.00000000000E+00 -0.45593999997E+02  0.45594000000E+02  0.51100000000E-03 0. -1.
    9900012    2    1    2    0    0 -0.13623965247E+02 -0.27085844756E+02 -0.27090787824E+02  0.50528853427E+02  0.29999980475E+02 0.  0.
        -12    1    1    2    0    0  0.13623965247E+02  0.27085844756E+02  0.27090787824E+02  0.40659146573E+02  0.00000000000E+00 0.  1.
         11    1    3    3    0    0 -0.73070856276E+01 -0.17782785328E+02 -0.16100266473E+02  0.25076673128E+02  0.51100000000E-03 0. -1.
        -11    1    3    3    0    0 -0.48518888867E+01 -0.12990282132E+02 -0.14566081322E+02  0.20111165580E+02  0.51100000000E-03 0.  1.
        -12    1    3    3    0    0 -0.14649907322E+01  0.36872227041E+01  0.35755599718E+01  0.53410147188E+01  0.00000000000E+00 0.  1.
</event>
<event>
 7    1  0.5855569E-013  0.5052886E+02  0.7816164E-02  0.1300439E+00
        -11   -1    0    0    0    0  0.00000000000E+00  0.00000000000E+00  0.45593999997E+02  0.45594000000E+02  0.51100000000E-03 0.  1.
         11   -1    0    0    0    0 -0.00000000000E+00 -0.00000000000E+00 -0.45593999997E+02  0.45594000000E+02  0.51100000000E-03 0. -1.
    9900012    2    1    2    0    0 -0.11446329686E+02  0.10343475751E+02 -0.37618609566E+02  0.50528859089E+02  0.29999997688E+02 0.  0.
        -12    1    1    2    0    0  0.11446329686E+02 -0.10343475751E+02  0.37618609566E+02  0.40659140911E+02  0.00000000000E+00 0.  1.
         11    1    3    3    0    0 -0.55087158826E+01  0.28336648812E+01 -0.58026679961E+01  0.84880247094E+01  0.51100000000E-03 0. -1.
        -11    1    3    3    0    0 -0.17580584928E+01  0.36904238101E+01  0.40360463644E+01  0.57445337565E+01  0.51100000000E-03 0.  1.
         12    1    3    3    0    0 -0.41795553107E+01  0.38193870595E+01 -0.35851987935E+02  0.36296300624E+02  0.00000000000E+00 0. -1.
</event>
<event>
 7    1  0.5855569E-013  0.5052887E+02  0.7816164E-02  0.1300439E+00
        -11   -1    0    0    0    0  0.00000000000E+00  0.00000000000E+00  0.45593999997E+02  0.45594000000E+02  0.51100000000E-03 0.  1.
         11   -1    0    0    0    0 -0.00000000000E+00 -0.00000000000E+00 -0.45593999997E+02  0.45594000000E+02  0.51100000000E-03 0. -1.
    9900012    2    1    2    0    0  0.21418095256E+02  0.20143811532E+02 -0.28083041370E+02  0.50528866217E+02  0.30000019352E+02 0.  0.
        -12    1    1    2    0    0 -0.21418095256E+02 -0.20143811532E+02  0.28083041370E+02  0.40659133783E+02  0.00000000000E+00 0.  1.
         11    1    3    3    0    0  0.14279315298E+02  0.12064694291E+02 -0.28246894536E+02  0.33872448169E+02  0.51100000000E-03 0. -1.
        -11    1    3    3    0    0 -0.29822524772E+01  0.45578281350E+01 -0.18506510453E+01  0.57526112939E+01  0.51100000000E-03 0.  1.
        -12    1    3    3    0    0  0.10121032434E+02  0.35212891066E+01  0.20145042119E+01  0.10903806754E+02  0.00000000000E+00 0.  1.
</event>
<event>
 7    1  0.5855569E-013  0.5052886E+02  0.7816164E-02  0.1300439E+00
        -11   -1    0    0    0    0  0.00000000000E+00  0.00000000000E+00  0.45593999997E+02  0.45594000000E+02  0.51100000000E-03 0.  1.
         11   -1    0    0    0    0 -0.00000000000E+00 -0.00000000000E+00 -0.45593999997E+02  0.45594000000E+02  0.51100000000E-03 0. -1.
    9900012    2    1    2    0    0  0.16224709431E+02 -0.35988244714E+02 -0.97350184639E+01  0.50528861566E+02  0.30000005215E+02 0.  0.
        -12    1    1    2    0    0 -0.16224709431E+02  0.35988244714E+02  0.97350184639E+01  0.40659138434E+02  0.00000000000E+00 0.  1.
         11    1    3    3    0    0  0.18186011083E+01  0.21711589175E+01  0.77166655652E+00  0.29354234059E+01  0.51100000000E-03 0. -1.
        -11    1    3    3    0    0  0.70817573660E+01 -0.29175974100E+01 -0.86458224984E+01  0.11550493884E+02  0.51100000000E-03 0.  1.
         12    1    3    3    0    0  0.73243509564E+01 -0.35241806222E+02 -0.18608625220E+01  0.36042944275E+02  0.00000000000E+00 0. -1.
</event>
<event>
 7    1  0.5855569E-013  0.5052886E+02  0.7816164E-02  0.1300439E+00
        -11   -1    0    0    0    0  0.00000000000E+00  0.00000000000E+00  0.45593999997E+02  0.45594000000E+02  0.51100000000E-03 0. -1.
         11   -1    0    0    0    0 -0.00000000000E+00 -0.00000000000E+00 -0.45593999997E+02  0.45594000000E+02  0.51100000000E-03 0.  1.
    9900012    2    1    2    0    0 -0.79028122883E+00  0.15599175450E+02  0.37539401958E+02  0.50528861808E+02  0.30000005953E+02 0.  0.
        -12    1    1    2    0    0  0.79028122883E+00 -0.15599175450E+02 -0.37539401958E+02  0.40659138192E+02  0.00000000000E+00 0.  1.
         11    1    3    3    0    0 -0.89368259736E+01  0.86465691460E+01  0.11814136943E+02  0.17152371511E+02  0.51100000000E-03 0. -1.
        -11    1    3    3    0    0 -0.34633261260E+01  0.15784113387E+01 -0.83419570225E+00  0.38963948645E+01  0.51100000000E-03 0.  1.
         12    1    3    3    0    0  0.11609870871E+02  0.53741949649E+01  0.26559460717E+02  0.29480095433E+02  0.00000000000E+00 0. -1.
</event>
<event>
 7    1  0.5855569E-013  0.5052886E+02  0.7816164E-02  0.1300439E+00
        -11   -1    0    0    0    0  0.00000000000E+00  0.00000000000E+00  0.45593999997E+02  0.45594000000E+02  0.51100000000E-03 0.  1.
         11   -1    0    0    0    0 -0.00000000000E+00 -0.00000000000E+00 -0.45593999997E+02  0.45594000000E+02  0.51100000000E-03 0. -1.
    9900012    2    1    2    0    0  0.35618328891E+02 -0.12369292194E+00 -0.19608281234E+02  0.50528863931E+02  0.30000012404E+02 0.  0.
        -12    1    1    2    0    0 -0.35618328891E+02  0.12369292194E+00  0.19608281234E+02  0.40659136069E+02  0.00000000000E+00 0.  1.
         11    1    3    3    0    0  0.15060254832E+02 -0.38966062828E+01 -0.12240202107E+01  0.15604263579E+02  0.51100000000E-03 0. -1.
        -11    1    3    3    0    0  0.58028271016E+01 -0.81685004338E+01 -0.29083089155E+01  0.10433382132E+02  0.51100000000E-03 0.  1.
        -12    1    3    3    0    0  0.14755246958E+02  0.11941413795E+02 -0.15475952108E+02  0.24491218219E+02  0.00000000000E+00 0.  1.
</event>
<event>
 7    1  0.5855569E-013  0.5052886E+02  0.7816164E-02  0.1300439E+00
        -11   -1    0    0    0    0  0.00000000000E+00  0.00000000000E+00  0.45593999997E+02  0.45594000000E+02  0.51100000000E-03 0. -1.
         11   -1    0    0    0    0 -0.00000000000E+00 -0.00000000000E+00 -0.45593999997E+02  0.45594000000E+02  0.51100000000E-03 0.  1.
    9900012    2    1    2    0    0  0.80268479374E+01  0.19993970116E+02  0.34481539546E+02  0.50528859598E+02  0.29999999234E+02 0.  0.
        -12    1    1    2    0    0 -0.80268479374E+01 -0.19993970116E+02 -0.34481539546E+02  0.40659140402E+02  0.00000000000E+00 0.  1.
         11    1    3    3    0    0 -0.63882300335E+01  0.97073081100E+01  0.27827572025E+02  0.30156509724E+02  0.51100000000E-03 0. -1.
        -11    1    3    3    0    0 -0.95701407704E-01  0.30121337702E+01  0.81403268936E+00  0.31216595089E+01  0.51100000000E-03 0.  1.
         12    1    3    3    0    0  0.14510779379E+02  0.72745282354E+01  0.58399348319E+01  0.17250690365E+02  0.00000000000E+00 0. -1.
</event>
<event>
 7    1  0.5855569E-013  0.5052886E+02  0.7816164E-02  0.1300439E+00
        -11   -1    0    0    0    0  0.00000000000E+00  0.00000000000E+00  0.45593999997E+02  0.45594000000E+02  0.51100000000E-03 0. -1.
         11   -1    0    0    0    0 -0.00000000000E+00 -0.00000000000E+00 -0.45593999997E+02  0.45594000000E+02  0.51100000000E-03 0.  1.
    9900012    2    1    2    0    0 -0.30623284999E+02 -0.29188692622E+01  0.26586840587E+02  0.50528862352E+02  0.30000007604E+02 0.  0.
        -12    1    1    2    0    0  0.30623284999E+02  0.29188692622E+01 -0.26586840587E+02  0.40659137648E+02  0.00000000000E+00 0.  1.
         11    1    3    3    0    0 -0.89008606928E+01  0.19722087504E+01  0.11298246400E+02  0.14517758105E+02  0.51100000000E-03 0. -1.
        -11    1    3    3    0    0 -0.24955905660E+02 -0.25531151059E+01  0.18266735764E+02  0.31032068248E+02  0.51100000000E-03 0.  1.
        -12    1    3    3    0    0  0.32334813529E+01 -0.23379629066E+01 -0.29781415776E+01  0.49790359979E+01  0.00000000000E+00 0.  1.
</event>
<event>
 7    1  0.5855569E-013  0.5052886E+02  0.7816164E-02  0.1300439E+00
        -11   -1    0    0    0    0  0.00000000000E+00  0.00000000000E+00  0.45593999997E+02  0.45594000000E+02  0.51100000000E-03 0. -1.
         11   -1    0    0    0    0 -0.00000000000E+00 -0.00000000000E+00 -0.45593999997E+02  0.45594000000E+02  0.51100000000E-03 0.  1.
    9900012    2    1    2    0    0  0.11638574665E+02  0.22344995667E+02  0.31912548324E+02  0.50528855984E+02  0.29999988249E+02 0.  0.
        -12    1    1    2    0    0 -0.11638574665E+02 -0.22344995667E+02 -0.31912548324E+02  0.40659144016E+02  0.00000000000E+00 0.  1.
         11    1    3    3    0    0  0.10919450715E+02  0.12025678390E+02  0.28700472413E+01  0.16495105822E+02  0.51100000000E-03 0. -1.
        -11    1    3    3    0    0  0.68439761864E+01  0.43320571096E+01  0.83232326159E+01  0.11613911067E+02  0.51100000000E-03 0.  1.
         12    1    3    3    0    0 -0.61248522367E+01  0.59872601679E+01  0.20719268467E+02  0.22419839095E+02  0.00000000000E+00 0. -1.
</event>
<event>
 7    1  0.5855569E-013  0.5052886E+02  0.7816164E-02  0.1300439E+00
        -11   -1    0    0    0    0  0.00000000000E+00  0.00000000000E+00  0.45593999997E+02  0.45594000000E+02  0.51100000000E-03 0.  1.
         11   -1    0    0    0    0 -0.00000000000E+00 -0.00000000000E+00 -0.45593999997E+02  0.45594000000E+02  0.51100000000E-03 0. -1.
    9900012    2    1    2    0    0  0.26309839753E+02 -0.14374674957E+02 -0.27465011496E+02  0.50528858292E+02  0.29999995263E+02 0.  0.
        -12    1    1    2    0    0 -0.26309839753E+02  0.14374674957E+02  0.27465011496E+02  0.40659141708E+02  0.00000000000E+00 0.  1.
         11    1    3    3    0    0  0.83399215515E+00 -0.73822454791E+01 -0.19653377409E+02  0.21010671933E+02  0.51100000000E-03 0. -1.
        -11    1    3    3    0    0  0.16911634188E+02 -0.96496631629E+01 -0.59521627007E+01  0.20360442312E+02  0.51100000000E-03 0.  1.
        -12    1    3    3    0    0  0.85642134102E+01  0.26572336847E+01 -0.18594713868E+01  0.91577440469E+01  0.00000000000E+00 0.  1.
</event>
<event>
 7    1  0.5855569E-013  0.5052887E+02  0.7816164E-02  0.1300439E+00
        -11   -1    0    0    0    0  0.00000000000E+00  0.00000000000E+00  0.45593999997E+02  0.45594000000E+02  0.51100000000E-03 0. -1.
         11   -1    0    0    0    0 -0.00000000000E+00 -0.00000000000E+00 -0.45593999997E+02  0.45594000000E+02  0.51100000000E-03 0.  1.
    9900012    2    1    2    0    0  0.32886372147E+02 -0.23906407995E+02  0.36792890750E+00  0.50528865874E+02  0.30000018311E+02 0.  0.
        -12    1    1    2    0    0 -0.32886372147E+02  0.23906407995E+02 -0.36792890750E+00  0.40659134126E+02  0.00000000000E+00 0.  1.
         11    1    3    3    0    0  0.71580166337E+01  0.13553795047E+01 -0.52206102321E+01  0.89626462156E+01  0.51100000000E-03 0. -1.
        -11    1    3    3    0    0 -0.38931237832E+00 -0.69887234066E+00  0.56564207457E+01  0.57127123672E+01  0.51100000000E-03 0.  1.
         12    1    3    3    0    0  0.26117667891E+02 -0.24562915159E+02 -0.67881606145E-01  0.35853507291E+02  0.00000000000E+00 0. -1.
</event>
<event>
 7    1  0.5855569E-013  0.5052886E+02  0.7816164E-02  0.1300439E+00
        -11   -1    0    0    0    0  0.00000000000E+00  0.00000000000E+00  0.45593999997E+02  0.45594000000E+02  0.51100000000E-03 0.  1.
         11   -1    0    0    0    0 -0.00000000000E+00 -0.00000000000E+00 -0.45593999997E+02  0.45594000000E+02  0.51100000000E-03 0. -1.
    9900012    2    1    2    0    0  0.46555701772E+01 -0.34719856430E+02 -0.20640322352E+02  0.50528859933E+02  0.30000000251E+02 0.  0.
        -12    1    1    2    0    0 -0.46555701772E+01  0.34719856430E+02  0.20640322352E+02  0.40659140067E+02  0.00000000000E+00 0.  1.
         11    1    3    3    0    0 -0.38666441075E+01 -0.46850121578E+00 -0.72275696350E+01  0.82102492735E+01  0.51100000000E-03 0. -1.
        -11    1    3    3    0    0 -0.32915597779E+01 -0.14202553773E+02 -0.12210635311E+02  0.19017005926E+02  0.51100000000E-03 0.  1.
        -12    1    3    3    0    0  0.11813774062E+02 -0.20048801442E+02 -0.12021174058E+01  0.23301604733E+02  0.00000000000E+00 0.  1.
</event>
<event>
 7    1  0.5855569E-013  0.5052886E+02  0.7816164E-02  0.1300439E+00
        -11   -1    0    0    0    0  0.00000000000E+00  0.00000000000E+00  0.45593999997E+02  0.45594000000E+02  0.51100000000E-03 0.  1.
         11   -1    0    0    0    0 -0.00000000000E+00 -0.00000000000E+00 -0.45593999997E+02  0.45594000000E+02  0.51100000000E-03 0. -1.
    9900012    2    1    2    0    0 -0.31694644544E+02 -0.21423954432E+02  0.13770592171E+02  0.50528861728E+02  0.30000005710E+02 0.  0.
        -12    1    1    2    0    0  0.31694644544E+02  0.21423954432E+02 -0.13770592171E+02  0.40659138272E+02  0.00000000000E+00 0.  1.
         11    1    3    3    0    0 -0.11694223141E+02 -0.93061213920E+01 -0.89603232964E+01  0.17425445305E+02  0.51100000000E-03 0. -1.
        -11    1    3    3    0    0 -0.78277370881E+01 -0.55552230760E+01  0.56944052335E+01  0.11160655114E+02  0.51100000000E-03 0.  1.
        -12    1    3    3    0    0 -0.12172684314E+02 -0.65626099644E+01  0.17036510233E+02  0.21942761310E+02  0.00000000000E+00 0.  1.
</event>
<event>
 7    1  0.5855569E-013  0.5052884E+02  0.7816164E-02  0.1300439E+00
        -11   -1    0    0    0    0  0.00000000000E+00  0.00000000000E+00  0.45593999997E+02  0.45594000000E+02  0.51100000000E-03 0.  1.
         11   -1    0    0    0    0 -0.00000000000E+00 -0.00000000000E+00 -0.45593999997E+02  0.45594000000E+02  0.51100000000E-03 0. -1.
    9900012    2    1    2    0    0 -0.33327859968E+02 -0.18860447733E+02 -0.13663980423E+02  0.50528842363E+02  0.29999946846E+02 0.  0.
        -12    1    1    2    0    0  0.33327859968E+02  0.18860447733E+02  0.13663980423E+02  0.40659157637E+02  0.00000000000E+00 0.  1.
         11    1    3    3    0    0 -0.18471781767E+01 -0.13523180330E+02 -0.70998636267E+01  0.15384945149E+02  0.51100000000E-03 0. -1.
        -11    1    3    3    0    0  0.27957271017E+00 -0.26350516144E+01 -0.55884170612E+00  0.27081289157E+01  0.51100000000E-03 0.  1.
        -12    1    3    3    0    0 -0.31760254502E+02 -0.27022157884E+01 -0.60052750904E+01  0.32435768298E+02  0.00000000000E+00 0.  1.
</event>
<event>
 7    1  0.5855569E-013  0.5052886E+02  0.7816164E-02  0.1300439E+00
        -11   -1    0    0    0    0  0.00000000000E+00  0.00000000000E+00  0.45593999997E+02  0.45594000000E+02  0.51100000000E-03 0. -1.
         11   -1    0    0    0    0 -0.00000000000E+00 -0.00000000000E+00 -0.45593999997E+02  0.45594000000E+02  0.51100000000E-03 0.  1.
    9900012    2    1    2    0    0  0.36235872220E+02  0.17823641891E+02 -0.47376583603E+01  0.50528855241E+02  0.29999985991E+02 0.  0.
        -12    1    1    2    0    0 -0.36235872220E+02 -0.17823641891E+02  0.47376583603E+01  0.40659144759E+02  0.00000000000E+00 0.  1.
         11    1    3    3    0    0  0.16093684476E+02  0.13425755273E+02 -0.51074618466E+01  0.21571827726E+02  0.51100000000E-03 0. -1.
        -11    1    3    3    0    0 -0.41620997762E+01 -0.37719074418E+00  0.27049764868E+00  0.41879012218E+01  0.51100000000E-03 0.  1.
         12    1    3    3    0    0  0.24304287520E+02  0.47750773621E+01  0.99305837641E-01  0.24769126293E+02  0.00000000000E+00 0. -1.
</event>
<event>
 7    1  0.5855569E-013  0.5052885E+02  0.7816164E-02  0.1300439E+00
        -11   -1    0    0    0    0  0.00000000000E+00  0.00000000000E+00  0.45593999997E+02  0.45594000000E+02  0.51100000000E-03 0. -1.
         11   -1    0    0    0    0 -0.00000000000E+00 -0.00000000000E+00 -0.45593999997E+02  0.45594000000E+02  0.51100000000E-03 0.  1.
    9900012    2    1    2    0    0  0.35335093457E+02  0.17705230963E+02 -0.95458275940E+01  0.50528845342E+02  0.29999955901E+02 0.  0.
        -12    1    1    2    0    0 -0.35335093457E+02 -0.17705230963E+02  0.95458275940E+01  0.40659154658E+02  0.00000000000E+00 0.  1.
         11    1    3    3    0    0  0.10433748538E+00  0.26864729111E+01 -0.37669449212E+01  0.46279474191E+01  0.51100000000E-03 0. -1.
        -11    1    3    3    0    0  0.43979869384E+01  0.14009877038E+02 -0.20852688514E+01  0.14831294285E+02  0.51100000000E-03 0.  1.
         12    1    3    3    0    0  0.30832769033E+02  0.10088810140E+01 -0.36936138214E+01  0.31069603638E+02  0.00000000000E+00 0. -1.
</event>
<event>
 7    1  0.5855569E-013  0.5052883E+02  0.7816164E-02  0.1300439E+00
        -11   -1    0    0    0    0  0.00000000000E+00  0.00000000000E+00  0.45593999997E+02  0.45594000000E+02  0.51100000000E-03 0. -1.
         11   -1    0    0    0    0 -0.00000000000E+00 -0.00000000000E+00 -0.45593999997E+02  0.45594000000E+02  0.51100000000E-03 0.  1.
    9900012    2    1    2    0    0  0.15943101933E+02  0.32130375990E+02  0.19147436527E+02  0.50528832694E+02  0.29999917455E+02 0.  0.
        -12    1    1    2    0    0 -0.15943101933E+02 -0.32130375990E+02 -0.19147436527E+02  0.40659167306E+02  0.00000000000E+00 0.  1.
         11    1    3    3    0    0  0.43882045233E+01  0.14898412665E+01  0.26926467405E+00  0.46420329236E+01  0.51100000000E-03 0. -1.
        -11    1    3    3    0    0  0.10011405911E+02  0.37985631669E+01  0.15428331755E+02  0.18780062605E+02  0.51100000000E-03 0.  1.
         12    1    3    3    0    0  0.15434914989E+01  0.26841971556E+02  0.34498400983E+01  0.27106737165E+02  0.00000000000E+00 0. -1.
</event>
<event>
 7    1  0.5855569E-013  0.5052886E+02  0.7816164E-02  0.1300439E+00
        -11   -1    0    0    0    0  0.00000000000E+00  0.00000000000E+00  0.45593999997E+02  0.45594000000E+02  0.51100000000E-03 0. -1.
         11   -1    0    0    0    0 -0.00000000000E+00 -0.00000000000E+00 -0.45593999997E+02  0.45594000000E+02  0.51100000000E-03 0.  1.
    9900012    2    1    2    0    0 -0.23438882854E+02  0.10061757855E+02  0.31662993989E+02  0.50528863402E+02  0.30000010796E+02 0.  0.
        -12    1    1    2    0    0  0.23438882854E+02 -0.10061757855E+02 -0.31662993989E+02  0.40659136598E+02  0.00000000000E+00 0.  1.
         11    1    3    3    0    0  0.38963814934E+00  0.18145930962E+01  0.18419345462E+01  0.26148210504E+01  0.51100000000E-03 0. -1.
        -11    1    3    3    0    0 -0.25801272876E+02  0.15409485770E+02  0.23258238107E+02  0.38001362789E+02  0.51100000000E-03 0.  1.
        -12    1    3    3    0    0  0.19727518725E+01 -0.71623210114E+01  0.65628213360E+01  0.99126795625E+01  0.00000000000E+00 0.  1.
</event>
<event>
 7    1  0.5855569E-013  0.5052887E+02  0.7816164E-02  0.1300439E+00
        -11   -1    0    0    0    0  0.00000000000E+00  0.00000000000E+00  0.45593999997E+02  0.45594000000E+02  0.51100000000E-03 0. -1.
         11   -1    0    0    0    0 -0.00000000000E+00 -0.00000000000E+00 -0.45593999997E+02  0.45594000000E+02  0.51100000000E-03 0.  1.
    9900012    2    1    2    0    0 -0.13655509003E+01  0.30162295348E+02  0.27231166431E+02  0.50528865538E+02  0.30000017291E+02 0.  0.
        -12    1    1    2    0    0  0.13655509003E+01 -0.30162295348E+02 -0.27231166431E+02  0.40659134462E+02  0.00000000000E+00 0.  1.
         11    1    3    3    0    0 -0.24533309527E+01  0.11368421856E+02 -0.33545888431E+01  0.12104260194E+02  0.51100000000E-03 0. -1.
        -11    1    3    3    0    0 -0.13285019670E+00  0.41025418684E+01 -0.38656944664E+00  0.41228552187E+01  0.51100000000E-03 0.  1.
         12    1    3    3    0    0  0.12206302491E+01  0.14691331624E+02  0.30972324721E+02  0.34301750126E+02  0.00000000000E+00 0. -1.
</event>
<event>
 7    1  0.5855569E-013  0.5052886E+02  0.7816164E-02  0.1300439E+00
        -11   -1    0    0    0    0  0.00000000000E+00  0.00000000000E+00  0.45593999997E+02  0.45594000000E+02  0.51100000000E-03 0.  1.
         11   -1    0    0    0    0 -0.00000000000E+00 -0.00000000000E+00 -0.45593999997E+02  0.45594000000E+02  0.51100000000E-03 0. -1.
    9900012    2    1    2    0    0 -0.58746201394E+01 -0.15402026221E+02 -0.37167620361E+02  0.50528861091E+02  0.30000003773E+02 0.  0.
        -12    1    1    2    0    0  0.58746201394E+01  0.15402026221E+02  0.37167620361E+02  0.40659138909E+02  0.00000000000E+00 0.  1.
         11    1    3    3    0    0 -0.95537980281E+01 -0.81631741279E+01 -0.11791422155E+02  0.17232240287E+02  0.51100000000E-03 0. -1.
        -11    1    3    3    0    0 -0.69610712329E+01 -0.49316474718E+00 -0.29550443447E+01  0.75783910903E+01  0.51100000000E-03 0.  1.
         12    1    3    3    0    0  0.10640249122E+02 -0.67456873456E+01 -0.22421153862E+02  0.25718229714E+02  0.00000000000E+00 0. -1.
</event>
<event>
 7    1  0.5855569E-013  0.5052886E+02  0.7816164E-02  0.1300439E+00
        -11   -1    0    0    0    0  0.00000000000E+00  0.00000000000E+00  0.45593999997E+02  0.45594000000E+02  0.51100000000E-03 0.  1.
         11   -1    0    0    0    0 -0.00000000000E+00 -0.00000000000E+00 -0.45593999997E+02  0.45594000000E+02  0.51100000000E-03 0. -1.
    9900012    2    1    2    0    0  0.20887114539E+02 -0.69408107060E+01 -0.34186540754E+02  0.50528856185E+02  0.29999988861E+02 0.  0.
        -12    1    1    2    0    0 -0.20887114539E+02  0.69408107060E+01  0.34186540754E+02  0.40659143815E+02  0.00000000000E+00 0.  1.
         11    1    3    3    0    0  0.12881453518E+02 -0.32626810318E+01 -0.23611276903E+02  0.27093713837E+02  0.51100000000E-03 0. -1.
        -11    1    3    3    0    0  0.71299582035E+01 -0.99447537696E+01 -0.14379084837E+01  0.12320795940E+02  0.51100000000E-03 0.  1.
         12    1    3    3    0    0  0.87570281732E+00  0.62666240954E+01 -0.91373553673E+01  0.11114346408E+02  0.00000000000E+00 0. -1.
</event>
<event>
 7    1  0.5855569E-013  0.5052886E+02  0.7816164E-02  0.1300439E+00
        -11   -1    0    0    0    0  0.00000000000E+00  0.00000000000E+00  0.45593999997E+02  0.45594000000E+02  0.51100000000E-03 0.  1.
         11   -1    0    0    0    0 -0.00000000000E+00 -0.00000000000E+00 -0.45593999997E+02  0.45594000000E+02  0.51100000000E-03 0. -1.
    9900012    2    1    2    0    0 -0.19395847687E+02  0.12099207410E+02 -0.33624037221E+02  0.50528860726E+02  0.30000002663E+02 0.  0.
        -12    1    1    2    0    0  0.19395847687E+02 -0.12099207410E+02  0.33624037221E+02  0.40659139274E+02  0.00000000000E+00 0.  1.
         11    1    3    3    0    0 -0.19640979953E+02  0.74704560903E+01 -0.27295775637E+02  0.34447571404E+02  0.51100000000E-03 0. -1.
        -11    1    3    3    0    0 -0.50803622807E+01 -0.33862782875E+00 -0.71227956563E+01  0.87555107180E+01  0.51100000000E-03 0.  1.
        -12    1    3    3    0    0  0.53254945470E+01  0.49673791480E+01  0.79453407206E+00  0.73257786045E+01  0.00000000000E+00 0.  1.
</event>
<event>
 7    1  0.5855569E-013  0.5052886E+02  0.7816164E-02  0.1300439E+00
        -11   -1    0    0    0    0  0.00000000000E+00  0.00000000000E+00  0.45593999997E+02  0.45594000000E+02  0.51100000000E-03 0.  1.
         11   -1    0    0    0    0 -0.00000000000E+00 -0.00000000000E+00 -0.45593999997E+02  0.45594000000E+02  0.51100000000E-03 0. -1.
    9900012    2    1    2    0    0  0.32006242256E+02  0.20524185707E+02 -0.14405685622E+02  0.50528861783E+02  0.30000005876E+02 0.  0.
        -12    1    1    2    0    0 -0.32006242256E+02 -0.20524185707E+02  0.14405685622E+02  0.40659138217E+02  0.00000000000E+00 0.  1.
         11    1    3    3    0    0  0.23085710231E+02  0.15106128973E+02 -0.20934625858E+01  0.27668171882E+02  0.51100000000E-03 0. -1.
        -11    1    3    3    0    0  0.64216876219E+01  0.82150832699E+01 -0.46895073891E+00  0.10437699943E+02  0.51100000000E-03 0.  1.
         12    1    3    3    0    0  0.24988444029E+01 -0.27970265354E+01 -0.11843272297E+02  0.12422989958E+02  0.00000000000E+00 0. -1.
</event>
<event>
 7    1  0.5855569E-013  0.5052886E+02  0.7816164E-02  0.1300439E+00
        -11   -1    0    0    0    0  0.00000000000E+00  0.00000000000E+00  0.45593999997E+02  0.45594000000E+02  0.51100000000E-03 0.  1.
         11   -1    0    0    0    0 -0.00000000000E+00 -0.00000000000E+00 -0.45593999997E+02  0.45594000000E+02  0.51100000000E-03 0. -1.
    9900012    2    1    2    0    0  0.92605357922E+01 -0.67791895697E+01 -0.39005779679E+02  0.50528858559E+02  0.29999996075E+02 0.  0.
        -12    1    1    2    0    0 -0.92605357922E+01  0.67791895697E+01  0.39005779679E+02  0.40659141441E+02  0.00000000000E+00 0.  1.
         11    1    3    3    0    0 -0.23149074482E+01  0.60007378920E+01 -0.88297106795E+01  0.10923893202E+02  0.51100000000E-03 0.  1.
        -11    1    3    3    0    0 -0.46003446232E+01 -0.55503400393E+00 -0.98989182752E+01  0.10929767458E+02  0.51100000000E-03 0. -1.
         12    1    3    3    0    0  0.16175787864E+02 -0.12224893458E+02 -0.20277150724E+02  0.28675197899E+02  0.00000000000E+00 0. -1.
</event>
<event>
 7    1  0.5855569E-013  0.5052886E+02  0.7816164E-02  0.1300439E+00
        -11   -1    0    0    0    0  0.00000000000E+00  0.00000000000E+00  0.45593999997E+02  0.45594000000E+02  0.51100000000E-03 0.  1.
         11   -1    0    0    0    0 -0.00000000000E+00 -0.00000000000E+00 -0.45593999997E+02  0.45594000000E+02  0.51100000000E-03 0. -1.
    9900012    2    1    2    0    0  0.52630590692E+00  0.38302038048E+02 -0.13632408633E+02  0.50528859801E+02  0.29999999852E+02 0.  0.
        -12    1    1    2    0    0 -0.52630590692E+00 -0.38302038048E+02  0.13632408633E+02  0.40659140199E+02  0.00000000000E+00 0.  1.
         11    1    3    3    0    0 -0.91662169162E+00  0.13305628592E+02 -0.62221710783E+01  0.14717179102E+02  0.51100000000E-03 0. -1.
        -11    1    3    3    0    0 -0.10276076268E+02  0.19607103990E+02 -0.48147334576E+01  0.22654313692E+02  0.51100000000E-03 0.  1.
        -12    1    3    3    0    0  0.11719003866E+02  0.53893054664E+01 -0.25955040973E+01  0.13157367007E+02  0.00000000000E+00 0.  1.
</event>
<event>
 7    1  0.5855569E-013  0.5052886E+02  0.7816164E-02  0.1300439E+00
        -11   -1    0    0    0    0  0.00000000000E+00  0.00000000000E+00  0.45593999997E+02  0.45594000000E+02  0.51100000000E-03 0.  1.
         11   -1    0    0    0    0 -0.00000000000E+00 -0.00000000000E+00 -0.45593999997E+02  0.45594000000E+02  0.51100000000E-03 0. -1.
    9900012    2    1    2    0    0  0.32381511765E+02  0.56213182499E+01 -0.23937511863E+02  0.50528855921E+02  0.29999988056E+02 0.  0.
        -12    1    1    2    0    0 -0.32381511765E+02 -0.56213182499E+01  0.23937511863E+02  0.40659144079E+02  0.00000000000E+00 0.  1.
         11    1    3    3    0    0  0.14322344989E+02  0.19082823115E+01 -0.14860319517E+02  0.20726799169E+02  0.51100000000E-03 0. -1.
        -11    1    3    3    0    0  0.18708557091E+02  0.84246756877E+01 -0.12424080374E+02  0.23986309476E+02  0.51100000000E-03 0.  1.
        -12    1    3    3    0    0 -0.64939031530E+00 -0.47116397493E+01  0.33468880276E+01  0.58157472760E+01  0.00000000000E+00 0.  1.
</event>
<event>
 7    1  0.5855569E-013  0.5052874E+02  0.7816164E-02  0.1300439E+00
        -11   -1    0    0    0    0  0.00000000000E+00  0.00000000000E+00  0.45593999997E+02  0.45594000000E+02  0.51100000000E-03 0.  1.
         11   -1    0    0    0    0 -0.00000000000E+00 -0.00000000000E+00 -0.45593999997E+02  0.45594000000E+02  0.51100000000E-03 0. -1.
    9900012    2    1    2    0    0 -0.72091001561E+01 -0.19334616081E+02 -0.35033940302E+02  0.50528739343E+02  0.29999633705E+02 0.  0.
        -12    1    1    2    0    0  0.72091001561E+01  0.19334616081E+02  0.35033940302E+02  0.40659260657E+02  0.00000000000E+00 0.  1.
         11    1    3    3    0    0 -0.93594572256E+01  0.81671331856E+00 -0.16149000364E+02  0.18683058454E+02  0.51100000000E-03 0. -1.
        -11    1    3    3    0    0  0.38822047197E+01 -0.68301628373E+01 -0.16399756249E+02  0.18184461586E+02  0.51100000000E-03 0.  1.
        -12    1    3    3    0    0 -0.17318476503E+01 -0.13321166562E+02 -0.24851836893E+01  0.13661219303E+02  0.00000000000E+00 0.  1.
</event>
<event>
 7    1  0.5855569E-013  0.5052886E+02  0.7816164E-02  0.1300439E+00
        -11   -1    0    0    0    0  0.00000000000E+00  0.00000000000E+00  0.45593999997E+02  0.45594000000E+02  0.51100000000E-03 0. -1.
         11   -1    0    0    0    0 -0.00000000000E+00 -0.00000000000E+00 -0.45593999997E+02  0.45594000000E+02  0.51100000000E-03 0.  1.
    9900012    2    1    2    0    0  0.13344289027E+02 -0.36842313727E+02  0.10850780609E+02  0.50528861172E+02  0.30000004019E+02 0.  0.
        -12    1    1    2    0    0 -0.13344289027E+02  0.36842313727E+02 -0.10850780609E+02  0.40659138828E+02  0.00000000000E+00 0.  1.
         11    1    3    3    0    0  0.10862136710E+02 -0.82947474241E+01  0.48566900456E+01  0.14504354077E+02  0.51100000000E-03 0. -1.
        -11    1    3    3    0    0  0.10082426271E+02 -0.18641256923E+02 -0.18584668939E+01  0.21274531220E+02  0.51100000000E-03 0.  1.
         12    1    3    3    0    0 -0.76002739537E+01 -0.99063093803E+01  0.78525574570E+01  0.14749975875E+02  0.00000000000E+00 0. -1.
</event>
<event>
 7    1  0.5855569E-013  0.5052886E+02  0.7816164E-02  0.1300439E+00
        -11   -1    0    0    0    0  0.00000000000E+00  0.00000000000E+00  0.45593999997E+02  0.45594000000E+02  0.51100000000E-03 0.  1.
         11   -1    0    0    0    0 -0.00000000000E+00 -0.00000000000E+00 -0.45593999997E+02  0.45594000000E+02  0.51100000000E-03 0. -1.
    9900012    2    1    2    0    0  0.29240500205E+02  0.24511875808E+02 -0.14047293008E+02  0.50528863896E+02  0.30000012298E+02 0.  0.
        -12    1    1    2    0    0 -0.29240500205E+02 -0.24511875808E+02  0.14047293008E+02  0.40659136104E+02  0.00000000000E+00 0.  1.
         11    1    3    3    0    0  0.10449488113E+02  0.71815584797E+01  0.38781746383E+01  0.13259216523E+02  0.51100000000E-03 0. -1.
        -11    1    3    3    0    0  0.55278269801E+01 -0.56750488378E+00  0.33309519279E+01  0.64787478668E+01  0.51100000000E-03 0.  1.
         12    1    3    3    0    0  0.13263185112E+02  0.17897822212E+02 -0.21256419574E+02  0.30790899506E+02  0.00000000000E+00 0. -1.
</event>
<event>
 7    1  0.5855569E-013  0.5052886E+02  0.7816164E-02  0.1300439E+00
        -11   -1    0    0    0    0  0.00000000000E+00  0.00000000000E+00  0.45593999997E+02  0.45594000000E+02  0.51100000000E-03 0.  1.
         11   -1    0    0    0    0 -0.00000000000E+00 -0.00000000000E+00 -0.45593999997E+02  0.45594000000E+02  0.51100000000E-03 0. -1.
    9900012    2    1    2    0    0 -0.60371592264E+01  0.40004263592E+02 -0.40469065974E+01  0.50528857731E+02  0.29999993559E+02 0.  0.
        -12    1    1    2    0    0  0.60371592264E+01 -0.40004263592E+02  0.40469065974E+01  0.40659142269E+02  0.00000000000E+00 0.  1.
         11    1    3    3    0    0 -0.49710893009E+01 -0.13261966488E+01 -0.16750286148E+01  0.54107529522E+01  0.51100000000E-03 0. -1.
        -11    1    3    3    0    0  0.61678226627E+01  0.17970122203E+02  0.48704484128E+01  0.19613479967E+02  0.51100000000E-03 0.  1.
         12    1    3    3    0    0 -0.72338925882E+01  0.23360338037E+02 -0.72423263954E+01  0.25504624812E+02  0.00000000000E+00 0. -1.
</event>
<event>
 7    1  0.5855569E-013  0.5052886E+02  0.7816164E-02  0.1300439E+00
        -11   -1    0    0    0    0  0.00000000000E+00  0.00000000000E+00  0.45593999997E+02  0.45594000000E+02  0.51100000000E-03 0.  1.
         11   -1    0    0    0    0 -0.00000000000E+00 -0.00000000000E+00 -0.45593999997E+02  0.45594000000E+02  0.51100000000E-03 0. -1.
    9900012    2    1    2    0    0  0.38227919879E+02  0.31382998455E+01 -0.13488633288E+02  0.50528855738E+02  0.29999987501E+02 0.  0.
        -12    1    1    2    0    0 -0.38227919879E+02 -0.31382998455E+01  0.13488633288E+02  0.40659144262E+02  0.00000000000E+00 0.  1.
         11    1    3    3    0    0  0.12038759650E+02  0.16654415394E+01 -0.94508604823E+01  0.15395590068E+02  0.51100000000E-03 0. -1.
        -11    1    3    3    0    0  0.21236032927E+02  0.10777650342E+02 -0.56347861899E+01  0.24471976974E+02  0.51100000000E-03 0.  1.
         12    1    3    3    0    0  0.49531273019E+01 -0.93047920358E+01  0.15970133845E+01  0.10661288695E+02  0.00000000000E+00 0. -1.
</event>
<event>
 7    1  0.5855569E-013  0.5052887E+02  0.7816164E-02  0.1300439E+00
        -11   -1    0    0    0    0  0.00000000000E+00  0.00000000000E+00  0.45593999997E+02  0.45594000000E+02  0.51100000000E-03 0. -1.
         11   -1    0    0    0    0 -0.00000000000E+00 -0.00000000000E+00 -0.45593999997E+02  0.45594000000E+02  0.51100000000E-03 0.  1.
    9900012    2    1    2    0    0 -0.13571674592E+02  0.35801828248E+02  0.13682246466E+02  0.50528866641E+02  0.30000020641E+02 0.  0.
        -12    1    1    2    0    0  0.13571674592E+02 -0.35801828248E+02 -0.13682246466E+02  0.40659133359E+02  0.00000000000E+00 0.  1.
         11    1    3    3    0    0 -0.53433700919E+01 -0.25225902263E+01  0.73951121308E+01  0.94658728640E+01  0.51100000000E-03 0. -1.
        -11    1    3    3    0    0  0.18909498776E+01  0.10495078937E+02  0.39002935160E+01  0.11354940031E+02  0.51100000000E-03 0.  1.
        -12    1    3    3    0    0 -0.10119254378E+02  0.27829339537E+02  0.23868408194E+01  0.29708053746E+02  0.00000000000E+00 0.  1.
</event>
<event>
 7    1  0.5855569E-013  0.5052886E+02  0.7816164E-02  0.1300439E+00
        -11   -1    0    0    0    0  0.00000000000E+00  0.00000000000E+00  0.45593999997E+02  0.45594000000E+02  0.51100000000E-03 0. -1.
         11   -1    0    0    0    0 -0.00000000000E+00 -0.00000000000E+00 -0.45593999997E+02  0.45594000000E+02  0.51100000000E-03 0.  1.
    9900012    2    1    2    0    0  0.62694337326E+01 -0.82391950304E+01  0.39318890948E+02  0.50528864256E+02  0.30000013394E+02 0.  0.
        -12    1    1    2    0    0 -0.62694337326E+01  0.82391950304E+01 -0.39318890948E+02  0.40659135744E+02  0.00000000000E+00 0.  1.
         11    1    3    3    0    0  0.71790851415E+01 -0.19006230246E+02  0.29213986013E+02  0.35584168259E+02  0.51100000000E-03 0.  1.
        -11    1    3    3    0    0 -0.15232357830E+01  0.56777072473E+01  0.51513988567E+01  0.78162342134E+01  0.51100000000E-03 0. -1.
        -12    1    3    3    0    0  0.61358437403E+00  0.50893279679E+01  0.49535060777E+01  0.71284617844E+01  0.00000000000E+00 0.  1.
</event>
<event>
 7    1  0.5855569E-013  0.5052887E+02  0.7816164E-02  0.1300439E+00
        -11   -1    0    0    0    0  0.00000000000E+00  0.00000000000E+00  0.45593999997E+02  0.45594000000E+02  0.51100000000E-03 0.  1.
         11   -1    0    0    0    0 -0.00000000000E+00 -0.00000000000E+00 -0.45593999997E+02  0.45594000000E+02  0.51100000000E-03 0. -1.
    9900012    2    1    2    0    0 -0.27633041705E+02 -0.25864493722E+02 -0.14852874889E+02  0.50528869145E+02  0.30000028255E+02 0.  0.
        -12    1    1    2    0    0  0.27633041705E+02  0.25864493722E+02  0.14852874889E+02  0.40659130855E+02  0.00000000000E+00 0.  1.
         11    1    3    3    0    0 -0.16050797975E+02 -0.17693903738E+02  0.63525124595E+00  0.23897821857E+02  0.51100000000E-03 0. -1.
        -11    1    3    3    0    0  0.29175823807E+01  0.13833895340E+01  0.19205501863E+00  0.32346466487E+01  0.51100000000E-03 0.  1.
         12    1    3    3    0    0 -0.14499826111E+02 -0.95539795188E+01 -0.15680181154E+02  0.23396400640E+02  0.00000000000E+00 0. -1.
</event>
<event>
 7    1  0.5855569E-013  0.5052886E+02  0.7816164E-02  0.1300439E+00
        -11   -1    0    0    0    0  0.00000000000E+00  0.00000000000E+00  0.45593999997E+02  0.45594000000E+02  0.51100000000E-03 0.  1.
         11   -1    0    0    0    0 -0.00000000000E+00 -0.00000000000E+00 -0.45593999997E+02  0.45594000000E+02  0.51100000000E-03 0. -1.
    9900012    2    1    2    0    0  0.10029617147E+02 -0.29244298172E+02 -0.26407261758E+02  0.50528859955E+02  0.30000000318E+02 0.  0.
        -12    1    1    2    0    0 -0.10029617147E+02  0.29244298172E+02  0.26407261758E+02  0.40659140045E+02  0.00000000000E+00 0.  1.
         11    1    3    3    0    0  0.12679122145E+02 -0.17168218641E+02 -0.75242618936E+01  0.22630121232E+02  0.51100000000E-03 0. -1.
        -11    1    3    3    0    0 -0.17444842999E+01 -0.15908259117E+02 -0.12128295222E+02  0.20080126465E+02  0.51100000000E-03 0.  1.
        -12    1    3    3    0    0 -0.90502069789E+00  0.38321795854E+01 -0.67547046421E+01  0.78186122580E+01  0.00000000000E+00 0.  1.
</event>
<event>
 7    1  0.5855569E-013  0.5052886E+02  0.7816164E-02  0.1300439E+00
        -11   -1    0    0    0    0  0.00000000000E+00  0.00000000000E+00  0.45593999997E+02  0.45594000000E+02  0.51100000000E-03 0.  1.
         11   -1    0    0    0    0 -0.00000000000E+00 -0.00000000000E+00 -0.45593999997E+02  0.45594000000E+02  0.51100000000E-03 0. -1.
    9900012    2    1    2    0    0  0.30129999817E+02 -0.40021798565E+01 -0.27006139697E+02  0.50528856945E+02  0.29999991171E+02 0.  0.
        -12    1    1    2    0    0 -0.30129999817E+02  0.40021798565E+01  0.27006139697E+02  0.40659143055E+02  0.00000000000E+00 0.  1.
         11    1    3    3    0    0  0.15088954146E+01 -0.16716599759E+01 -0.50941594389E+01  0.55697103243E+01  0.51100000000E-03 0. -1.
        -11    1    3    3    0    0  0.73897185316E+00 -0.94343274677E+01 -0.10144043056E+02  0.13872787173E+02  0.51100000000E-03 0.  1.
         12    1    3    3    0    0  0.27882132549E+02  0.71038075870E+01 -0.11767937203E+02  0.31086359448E+02  0.00000000000E+00 0. -1.
</event>
<event>
 7    1  0.5855569E-013  0.5052886E+02  0.7816164E-02  0.1300439E+00
        -11   -1    0    0    0    0  0.00000000000E+00  0.00000000000E+00  0.45593999997E+02  0.45594000000E+02  0.51100000000E-03 0.  1.
         11   -1    0    0    0    0 -0.00000000000E+00 -0.00000000000E+00 -0.45593999997E+02  0.45594000000E+02  0.51100000000E-03 0. -1.
    9900012    2    1    2    0    0 -0.24333329156E+01  0.39761457066E+02 -0.81407010004E+01  0.50528860930E+02  0.30000003284E+02 0.  0.
        -12    1    1    2    0    0  0.24333329156E+01 -0.39761457066E+02  0.81407010004E+01  0.40659139070E+02  0.00000000000E+00 0.  1.
         11    1    3    3    0    0  0.18495794938E+01  0.10485255318E+02  0.79337642673E+01  0.13278032200E+02  0.51100000000E-03 0. -1.
        -11    1    3    3    0    0 -0.32151882961E+01  0.79263162795E+01  0.25216820612E+01  0.89175560678E+01  0.51100000000E-03 0.  1.
         12    1    3    3    0    0 -0.10677241133E+01  0.21349885469E+02 -0.18596147329E+02  0.28333272663E+02  0.00000000000E+00 0. -1.
</event>
<event>
 7    1  0.5855569E-013  0.5052887E+02  0.7816164E-02  0.1300439E+00
        -11   -1    0    0    0    0  0.00000000000E+00  0.00000000000E+00  0.45593999997E+02  0.45594000000E+02  0.51100000000E-03 0. -1.
         11   -1    0    0    0    0 -0.00000000000E+00 -0.00000000000E+00 -0.45593999997E+02  0.45594000000E+02  0.51100000000E-03 0.  1.
    9900012    2    1    2    0    0 -0.39914847826E+02 -0.13494148748E+01 -0.76255584148E+01  0.50528866480E+02  0.30000020152E+02 0.  0.
        -12    1    1    2    0    0  0.39914847826E+02  0.13494148748E+01  0.76255584148E+01  0.40659133520E+02  0.00000000000E+00 0.  1.
         11    1    3    3    0    0 -0.78696540303E+01 -0.10873831681E+01 -0.22008861724E+01  0.82436494901E+01  0.51100000000E-03 0.  1.
        -11    1    3    3    0    0 -0.16464569548E+02 -0.78197973770E-01 -0.16390032299E+02  0.23231903158E+02  0.51100000000E-03 0. -1.
         12    1    3    3    0    0 -0.15580624247E+02 -0.18383373300E+00  0.10965360057E+02  0.19053313831E+02  0.00000000000E+00 0. -1.
</event>
<event>
 7    1  0.5855569E-013  0.5052885E+02  0.7816164E-02  0.1300439E+00
        -11   -1    0    0    0    0  0.00000000000E+00  0.00000000000E+00  0.45593999997E+02  0.45594000000E+02  0.51100000000E-03 0.  1.
         11   -1    0    0    0    0 -0.00000000000E+00 -0.00000000000E+00 -0.45593999997E+02  0.45594000000E+02  0.51100000000E-03 0. -1.
    9900012    2    1    2    0    0  0.12325888220E+02  0.11045127325E+02 -0.37138172905E+02  0.50528852877E+02  0.29999978805E+02 0.  0.
        -12    1    1    2    0    0 -0.12325888220E+02 -0.11045127325E+02  0.37138172905E+02  0.40659147123E+02  0.00000000000E+00 0.  1.
         11    1    3    3    0    0 -0.38710760893E+01  0.45159989728E+01 -0.29279736145E+01  0.66296686614E+01  0.51100000000E-03 0. -1.
        -11    1    3    3    0    0 -0.75502296335E+00  0.51451116105E+01  0.52170447039E+00  0.52263188742E+01  0.51100000000E-03 0.  1.
         12    1    3    3    0    0  0.16951987273E+02  0.13840167415E+01 -0.34731903761E+02  0.38672865341E+02  0.00000000000E+00 0. -1.
</event>
<event>
 7    1  0.5855569E-013  0.5052886E+02  0.7816164E-02  0.1300439E+00
        -11   -1    0    0    0    0  0.00000000000E+00  0.00000000000E+00  0.45593999997E+02  0.45594000000E+02  0.51100000000E-03 0.  1.
         11   -1    0    0    0    0 -0.00000000000E+00 -0.00000000000E+00 -0.45593999997E+02  0.45594000000E+02  0.51100000000E-03 0. -1.
    9900012    2    1    2    0    0 -0.26835453230E+01  0.26601734010E+02 -0.30631880018E+02  0.50528859069E+02  0.29999997625E+02 0.  0.
        -12    1    1    2    0    0  0.26835453230E+01 -0.26601734010E+02  0.30631880018E+02  0.40659140931E+02  0.00000000000E+00 0.  1.
         11    1    3    3    0    0 -0.69032848976E+01  0.18880031016E+01 -0.44057307527E+01  0.84041871597E+01  0.51100000000E-03 0. -1.
        -11    1    3    3    0    0 -0.40836932775E+01 -0.59776695468E+00  0.76984055040E+00  0.41983962237E+01  0.51100000000E-03 0.  1.
         12    1    3    3    0    0  0.83034328521E+01  0.25311497863E+02 -0.26995989816E+02  0.37926275685E+02  0.00000000000E+00 0. -1.
</event>
<event>
 7    1  0.5855569E-013  0.5052886E+02  0.7816164E-02  0.1300439E+00
        -11   -1    0    0    0    0  0.00000000000E+00  0.00000000000E+00  0.45593999997E+02  0.45594000000E+02  0.51100000000E-03 0. -1.
         11   -1    0    0    0    0 -0.00000000000E+00 -0.00000000000E+00 -0.45593999997E+02  0.45594000000E+02  0.51100000000E-03 0.  1.
    9900012    2    1    2    0    0  0.27680097205E+02 -0.27664443783E+02  0.11029795670E+02  0.50528860516E+02  0.30000002024E+02 0.  0.
        -12    1    1    2    0    0 -0.27680097205E+02  0.27664443783E+02 -0.11029795670E+02  0.40659139484E+02  0.00000000000E+00 0.  1.
         11    1    3    3    0    0  0.23372580507E+01 -0.27514980886E+01  0.84907715314E+01  0.92264141673E+01  0.51100000000E-03 0. -1.
        -11    1    3    3    0    0 -0.75830892397E+00  0.29497624254E+01  0.21395351612E+00  0.30531798438E+01  0.51100000000E-03 0.  1.
        -12    1    3    3    0    0  0.26101148078E+02 -0.27862708120E+02  0.23250706228E+01  0.38249266505E+02  0.00000000000E+00 0.  1.
</event>
<event>
 7    1  0.5855569E-013  0.5052883E+02  0.7816164E-02  0.1300439E+00
        -11   -1    0    0    0    0  0.00000000000E+00  0.00000000000E+00  0.45593999997E+02  0.45594000000E+02  0.51100000000E-03 0.  1.
         11   -1    0    0    0    0 -0.00000000000E+00 -0.00000000000E+00 -0.45593999997E+02  0.45594000000E+02  0.51100000000E-03 0. -1.
    9900012    2    1    2    0    0 -0.33950146115E+01  0.18854878960E+02 -0.35862732728E+02  0.50528829035E+02  0.29999906336E+02 0.  0.
        -12    1    1    2    0    0  0.33950146115E+01 -0.18854878960E+02  0.35862732728E+02  0.40659170965E+02  0.00000000000E+00 0.  1.
         11    1    3    3    0    0  0.36590822936E+01  0.32985686745E+01 -0.15382324854E+02  0.16151945911E+02  0.51100000000E-03 0. -1.
        -11    1    3    3    0    0 -0.53905368819E+01  0.20779517934E+02 -0.12978528512E+02  0.25085622497E+02  0.51100000000E-03 0.  1.
         12    1    3    3    0    0 -0.16635600233E+01 -0.52232076484E+01 -0.75018793623E+01  0.92912606279E+01  0.00000000000E+00 0. -1.
</event>
<event>
 7    1  0.5855569E-013  0.5052886E+02  0.7816164E-02  0.1300439E+00
        -11   -1    0    0    0    0  0.00000000000E+00  0.00000000000E+00  0.45593999997E+02  0.45594000000E+02  0.51100000000E-03 0.  1.
         11   -1    0    0    0    0 -0.00000000000E+00 -0.00000000000E+00 -0.45593999997E+02  0.45594000000E+02  0.51100000000E-03 0. -1.
    9900012    2    1    2    0    0 -0.84985890788E+01  0.22474297336E+02 -0.32800079415E+02  0.50528864905E+02  0.30000015364E+02 0.  0.
        -12    1    1    2    0    0  0.84985890788E+01 -0.22474297336E+02  0.32800079415E+02  0.40659135095E+02  0.00000000000E+00 0.  1.
         11    1    3    3    0    0 -0.87290828096E+01 -0.18666884443E+01 -0.13828434680E+02  0.16459253276E+02  0.51100000000E-03 0.  1.
        -11    1    3    3    0    0 -0.51805696037E+01  0.12997404228E+02 -0.40620024238E+01  0.14569512073E+02  0.51100000000E-03 0. -1.
        -12    1    3    3    0    0  0.54110633345E+01  0.11343581552E+02 -0.14909642312E+02  0.19500099556E+02  0.00000000000E+00 0.  1.
</event>
<event>
 7    1  0.5855569E-013  0.5052886E+02  0.7816164E-02  0.1300439E+00
        -11   -1    0    0    0    0  0.00000000000E+00  0.00000000000E+00  0.45593999997E+02  0.45594000000E+02  0.51100000000E-03 0.  1.
         11   -1    0    0    0    0 -0.00000000000E+00 -0.00000000000E+00 -0.45593999997E+02  0.45594000000E+02  0.51100000000E-03 0. -1.
    9900012    2    1    2    0    0  0.33178867615E+02 -0.65416922955E+01 -0.22572880028E+02  0.50528857030E+02  0.29999991429E+02 0.  0.
        -12    1    1    2    0    0 -0.33178867615E+02  0.65416922955E+01  0.22572880028E+02  0.40659142970E+02  0.00000000000E+00 0.  1.
         11    1    3    3    0    0 -0.12670862894E+01  0.38003589978E+00  0.15070068899E+01  0.20052443685E+01  0.51100000000E-03 0. -1.
        -11    1    3    3    0    0  0.12400541781E+02 -0.13824768649E+02 -0.72243618477E+01  0.19927093843E+02  0.51100000000E-03 0.  1.
        -12    1    3    3    0    0  0.22045412123E+02  0.69030404534E+01 -0.16855525070E+02  0.28596518819E+02  0.00000000000E+00 0.  1.
</event>
<event>
 7    1  0.5855569E-013  0.5052887E+02  0.7816164E-02  0.1300439E+00
        -11   -1    0    0    0    0  0.00000000000E+00  0.00000000000E+00  0.45593999997E+02  0.45594000000E+02  0.51100000000E-03 0.  1.
         11   -1    0    0    0    0 -0.00000000000E+00 -0.00000000000E+00 -0.45593999997E+02  0.45594000000E+02  0.51100000000E-03 0. -1.
    9900012    2    1    2    0    0  0.59180714886E+01 -0.80102319542E+01 -0.39420521250E+02  0.50528869639E+02  0.30000029754E+02 0.  0.
        -12    1    1    2    0    0 -0.59180714886E+01  0.80102319542E+01  0.39420521250E+02  0.40659130361E+02  0.00000000000E+00 0.  1.
         11    1    3    3    0    0 -0.54212855945E+00  0.83716314919E+01 -0.77009020959E+01  0.11387800954E+02  0.51100000000E-03 0. -1.
        -11    1    3    3    0    0 -0.26066914758E+01 -0.43273903739E+01 -0.18190233907E+02  0.18878711761E+02  0.51100000000E-03 0.  1.
        -12    1    3    3    0    0  0.90668915239E+01 -0.12054473072E+02 -0.13529385247E+02  0.20262356924E+02  0.00000000000E+00 0.  1.
</event>
<event>
 7    1  0.5855569E-013  0.5052887E+02  0.7816164E-02  0.1300439E+00
        -11   -1    0    0    0    0  0.00000000000E+00  0.00000000000E+00  0.45593999997E+02  0.45594000000E+02  0.51100000000E-03 0.  1.
         11   -1    0    0    0    0 -0.00000000000E+00 -0.00000000000E+00 -0.45593999997E+02  0.45594000000E+02  0.51100000000E-03 0. -1.
    9900012    2    1    2    0    0 -0.87828586751E+01 -0.30700929422E+02 -0.25169016681E+02  0.50528867267E+02  0.30000022545E+02 0.  0.
        -12    1    1    2    0    0  0.87828586751E+01  0.30700929422E+02  0.25169016681E+02  0.40659132733E+02  0.00000000000E+00 0.  1.
         11    1    3    3    0    0 -0.63011367636E+01  0.82329303767E+00 -0.56088858701E+01  0.84759505015E+01  0.51100000000E-03 0. -1.
        -11    1    3    3    0    0 -0.74041109228E+00 -0.31525668777E+01 -0.12294719978E+02  0.12714048376E+02  0.51100000000E-03 0.  1.
         12    1    3    3    0    0 -0.17413108192E+01 -0.28371655582E+02 -0.72654108334E+01  0.29338868390E+02  0.00000000000E+00 0. -1.
</event>
<event>
 7    1  0.5855569E-013  0.5052895E+02  0.7816164E-02  0.1300438E+00
        -11   -1    0    0    0    0  0.00000000000E+00  0.00000000000E+00  0.45593999997E+02  0.45594000000E+02  0.51100000000E-03 0. -1.
         11   -1    0    0    0    0 -0.00000000000E+00 -0.00000000000E+00 -0.45593999997E+02  0.45594000000E+02  0.51100000000E-03 0.  1.
    9900012    2    1    2    0    0 -0.36071078361E+02  0.51310325583E+01  0.18047388972E+02  0.50528948881E+02  0.30000270617E+02 0.  0.
        -12    1    1    2    0    0  0.36071078361E+02 -0.51310325583E+01 -0.18047388972E+02  0.40659051119E+02  0.00000000000E+00 0.  1.
         11    1    3    3    0    0  0.14021501586E+01 -0.24471847945E+01  0.58599288411E+01  0.65033456598E+01  0.51100000000E-03 0. -1.
        -11    1    3    3    0    0 -0.10358403423E+02 -0.20008411452E+01 -0.36898568231E+01  0.11176534811E+02  0.51100000000E-03 0.  1.
         12    1    3    3    0    0 -0.27114825097E+02  0.95790584981E+01  0.15877316954E+02  0.32849068410E+02  0.00000000000E+00 0. -1.
</event>
<event>
 7    1  0.5855569E-013  0.5052887E+02  0.7816164E-02  0.1300439E+00
        -11   -1    0    0    0    0  0.00000000000E+00  0.00000000000E+00  0.45593999997E+02  0.45594000000E+02  0.51100000000E-03 0.  1.
         11   -1    0    0    0    0 -0.00000000000E+00 -0.00000000000E+00 -0.45593999997E+02  0.45594000000E+02  0.51100000000E-03 0. -1.
    9900012    2    1    2    0    0 -0.74937611771E+01  0.33066452732E+02 -0.22441441419E+02  0.50528867621E+02  0.30000023622E+02 0.  0.
        -12    1    1    2    0    0  0.74937611771E+01 -0.33066452732E+02  0.22441441419E+02  0.40659132379E+02  0.00000000000E+00 0.  1.
         11    1    3    3    0    0 -0.10991938901E+02  0.94601934969E+01 -0.14999404961E+02  0.20863847470E+02  0.51100000000E-03 0. -1.
        -11    1    3    3    0    0 -0.56799877496E+01  0.36975860525E+01 -0.13336220424E+01  0.69074562224E+01  0.51100000000E-03 0.  1.
        -12    1    3    3    0    0  0.91781654732E+01  0.19908673182E+02 -0.61084144154E+01  0.22757563929E+02  0.00000000000E+00 0.  1.
</event>
<event>
 7    1  0.5855569E-013  0.5052888E+02  0.7816164E-02  0.1300439E+00
        -11   -1    0    0    0    0  0.00000000000E+00  0.00000000000E+00  0.45593999997E+02  0.45594000000E+02  0.51100000000E-03 0.  1.
         11   -1    0    0    0    0 -0.00000000000E+00 -0.00000000000E+00 -0.45593999997E+02  0.45594000000E+02  0.51100000000E-03 0. -1.
    9900012    2    1    2    0    0 -0.22741770344E+02  0.26033970776E+02 -0.21405798291E+02  0.50528881057E+02  0.30000064462E+02 0.  0.
        -12    1    1    2    0    0  0.22741770344E+02 -0.26033970776E+02  0.21405798291E+02  0.40659118943E+02  0.00000000000E+00 0.  1.
         11    1    3    3    0    0 -0.47967533237E+01 -0.27775814440E+01  0.23046948334E-02  0.55429059797E+01  0.51100000000E-03 0. -1.
        -11    1    3    3    0    0 -0.12327592490E+01  0.18738885021E+02 -0.16170968798E+02  0.24782367508E+02  0.51100000000E-03 0.  1.
         12    1    3    3    0    0 -0.16712257771E+02  0.10072667199E+02 -0.52371341870E+01  0.20203607569E+02  0.00000000000E+00 0. -1.
</event>
<event>
 7    1  0.5855569E-013  0.5052886E+02  0.7816164E-02  0.1300439E+00
        -11   -1    0    0    0    0  0.00000000000E+00  0.00000000000E+00  0.45593999997E+02  0.45594000000E+02  0.51100000000E-03 0. -1.
         11   -1    0    0    0    0 -0.00000000000E+00 -0.00000000000E+00 -0.45593999997E+02  0.45594000000E+02  0.51100000000E-03 0.  1.
    9900012    2    1    2    0    0 -0.24692818755E+02  0.10890096298E+02  0.30411115450E+02  0.50528862794E+02  0.30000008948E+02 0.  0.
        -12    1    1    2    0    0  0.24692818755E+02 -0.10890096298E+02 -0.30411115450E+02  0.40659137206E+02  0.00000000000E+00 0.  1.
         11    1    3    3    0    0 -0.20025808453E+02  0.49346772737E+01  0.98598895796E+01  0.22860478271E+02  0.51100000000E-03 0. -1.
        -11    1    3    3    0    0  0.13296020864E+01 -0.36930503698E+01 -0.28615309747E+00  0.39355236752E+01  0.51100000000E-03 0.  1.
        -12    1    3    3    0    0 -0.59966123889E+01  0.96484693938E+01  0.20837378968E+02  0.23732860848E+02  0.00000000000E+00 0.  1.
</event>
<event>
 7    1  0.5855569E-013  0.5052886E+02  0.7816164E-02  0.1300439E+00
        -11   -1    0    0    0    0  0.00000000000E+00  0.00000000000E+00  0.45593999997E+02  0.45594000000E+02  0.51100000000E-03 0.  1.
         11   -1    0    0    0    0 -0.00000000000E+00 -0.00000000000E+00 -0.45593999997E+02  0.45594000000E+02  0.51100000000E-03 0. -1.
    9900012    2    1    2    0    0  0.20674911493E+02 -0.34920254836E+02 -0.25079290668E+01  0.50528857470E+02  0.29999992766E+02 0.  0.
        -12    1    1    2    0    0 -0.20674911493E+02  0.34920254836E+02  0.25079290668E+01  0.40659142530E+02  0.00000000000E+00 0.  1.
         11    1    3    3    0    0  0.22844538166E+02 -0.25898661385E+02 -0.14039834889E+01  0.34562765448E+02  0.51100000000E-03 0. -1.
        -11    1    3    3    0    0  0.24398793820E+00 -0.80110282494E+01  0.49158361665E+01  0.94022098043E+01  0.51100000000E-03 0.  1.
        -12    1    3    3    0    0 -0.24136146107E+01 -0.10105652019E+01 -0.60197817443E+01  0.65638822176E+01  0.00000000000E+00 0.  1.
</event>
<event>
 7    1  0.5855569E-013  0.5052886E+02  0.7816164E-02  0.1300439E+00
        -11   -1    0    0    0    0  0.00000000000E+00  0.00000000000E+00  0.45593999997E+02  0.45594000000E+02  0.51100000000E-03 0.  1.
         11   -1    0    0    0    0 -0.00000000000E+00 -0.00000000000E+00 -0.45593999997E+02  0.45594000000E+02  0.51100000000E-03 0. -1.
    9900012    2    1    2    0    0  0.87444722427E+01  0.14685305308E+02 -0.36892299379E+02  0.50528859082E+02  0.29999997665E+02 0.  0.
        -12    1    1    2    0    0 -0.87444722427E+01 -0.14685305308E+02  0.36892299379E+02  0.40659140918E+02  0.00000000000E+00 0.  1.
         11    1    3    3    0    0  0.33456667731E+01 -0.32270468903E+00  0.13937105074E+00  0.33640821964E+01  0.51100000000E-03 0. -1.
        -11    1    3    3    0    0  0.15464562761E+01 -0.65096715686E+01 -0.48619305053E+01  0.82707750208E+01  0.51100000000E-03 0.  1.
         12    1    3    3    0    0  0.38523491934E+01  0.21517681565E+02 -0.32169739924E+02  0.38894001864E+02  0.00000000000E+00 0. -1.
</event>
<event>
 7    1  0.5855569E-013  0.5052886E+02  0.7816164E-02  0.1300439E+00
        -11   -1    0    0    0    0  0.00000000000E+00  0.00000000000E+00  0.45593999997E+02  0.45594000000E+02  0.51100000000E-03 0. -1.
         11   -1    0    0    0    0 -0.00000000000E+00 -0.00000000000E+00 -0.45593999997E+02  0.45594000000E+02  0.51100000000E-03 0.  1.
    9900012    2    1    2    0    0  0.60589837870E+01 -0.28658486561E+02  0.28198328838E+02  0.50528857292E+02  0.29999992225E+02 0.  0.
        -12    1    1    2    0    0 -0.60589837870E+01  0.28658486561E+02 -0.28198328838E+02  0.40659142708E+02  0.00000000000E+00 0.  1.
         11    1    3    3    0    0 -0.10612263815E+01 -0.17602348148E+02  0.17544352189E+02  0.24875151372E+02  0.51100000000E-03 0. -1.
        -11    1    3    3    0    0 -0.45730997845E+01 -0.10225547780E+02  0.76103974966E+01  0.13542275265E+02  0.51100000000E-03 0.  1.
        -12    1    3    3    0    0  0.11693309953E+02 -0.83059063221E+00  0.30435791518E+01  0.12111430655E+02  0.00000000000E+00 0.  1.
</event>
<event>
 7    1  0.5855569E-013  0.5052886E+02  0.7816164E-02  0.1300439E+00
        -11   -1    0    0    0    0  0.00000000000E+00  0.00000000000E+00  0.45593999997E+02  0.45594000000E+02  0.51100000000E-03 0.  1.
         11   -1    0    0    0    0 -0.00000000000E+00 -0.00000000000E+00 -0.45593999997E+02  0.45594000000E+02  0.51100000000E-03 0. -1.
    9900012    2    1    2    0    0  0.33794835535E+02  0.16671521109E+02 -0.15268762587E+02  0.50528860365E+02  0.30000001564E+02 0.  0.
        -12    1    1    2    0    0 -0.33794835535E+02 -0.16671521109E+02  0.15268762587E+02  0.40659139635E+02  0.00000000000E+00 0.  1.
         11    1    3    3    0    0  0.14587699864E+02  0.78349307998E+01 -0.99150610743E+01  0.19300144153E+02  0.51100000000E-03 0. -1.
        -11    1    3    3    0    0  0.12780458206E+02  0.69772902416E+01 -0.14065098903E+02  0.20244744960E+02  0.51100000000E-03 0.  1.
        -12    1    3    3    0    0  0.64266774650E+01  0.18593000673E+01  0.87113973898E+01  0.10983971252E+02  0.00000000000E+00 0.  1.
</event>
<event>
 7    1  0.5855569E-013  0.5052886E+02  0.7816164E-02  0.1300439E+00
        -11   -1    0    0    0    0  0.00000000000E+00  0.00000000000E+00  0.45593999997E+02  0.45594000000E+02  0.51100000000E-03 0.  1.
         11   -1    0    0    0    0 -0.00000000000E+00 -0.00000000000E+00 -0.45593999997E+02  0.45594000000E+02  0.51100000000E-03 0. -1.
    9900012    2    1    2    0    0  0.12710270901E+02 -0.38616943057E+02  0.58858681563E+00  0.50528859430E+02  0.29999998723E+02 0.  0.
        -12    1    1    2    0    0 -0.12710270901E+02  0.38616943057E+02 -0.58858681563E+00  0.40659140570E+02  0.00000000000E+00 0.  1.
         11    1    3    3    0    0  0.53532873015E+01 -0.56411281895E+01  0.11862962793E+01  0.78668488804E+01  0.51100000000E-03 0. -1.
        -11    1    3    3    0    0  0.28736748195E+01 -0.21281002187E+02  0.12247562058E+02  0.24721283092E+02  0.51100000000E-03 0.  1.
        -12    1    3    3    0    0  0.44833087804E+01 -0.11694812680E+02 -0.12845271522E+02  0.17940727458E+02  0.00000000000E+00 0.  1.
</event>
<event>
 7    1  0.5855569E-013  0.5052886E+02  0.7816164E-02  0.1300439E+00
        -11   -1    0    0    0    0  0.00000000000E+00  0.00000000000E+00  0.45593999997E+02  0.45594000000E+02  0.51100000000E-03 0. -1.
         11   -1    0    0    0    0 -0.00000000000E+00 -0.00000000000E+00 -0.45593999997E+02  0.45594000000E+02  0.51100000000E-03 0.  1.
    9900012    2    1    2    0    0  0.22366420610E+01 -0.25556770403E+01  0.40517056630E+02  0.50528856738E+02  0.29999990540E+02 0.  0.
        -12    1    1    2    0    0 -0.22366420610E+01  0.25556770403E+01 -0.40517056630E+02  0.40659143262E+02  0.00000000000E+00 0.  1.
         11    1    3    3    0    0  0.13127482356E+01 -0.27957128174E+01 -0.26360069028E+01  0.40605234564E+01  0.51100000000E-03 0. -1.
        -11    1    3    3    0    0 -0.39446173191E+01  0.10925973235E+01  0.12571005836E+01  0.42818310153E+01  0.51100000000E-03 0.  1.
         12    1    3    3    0    0  0.48685111446E+01 -0.85256154645E+00  0.41895962950E+02  0.42186502266E+02  0.00000000000E+00 0. -1.
</event>
<event>
 7    1  0.5855569E-013  0.5052884E+02  0.7816164E-02  0.1300439E+00
        -11   -1    0    0    0    0  0.00000000000E+00  0.00000000000E+00  0.45593999997E+02  0.45594000000E+02  0.51100000000E-03 0. -1.
         11   -1    0    0    0    0 -0.00000000000E+00 -0.00000000000E+00 -0.45593999997E+02  0.45594000000E+02  0.51100000000E-03 0.  1.
    9900012    2    1    2    0    0 -0.12841091905E+02  0.48213629044E+01  0.38275685173E+02  0.50528840429E+02  0.29999940968E+02 0.  0.
        -12    1    1    2    0    0  0.12841091905E+02 -0.48213629044E+01 -0.38275685173E+02  0.40659159571E+02  0.00000000000E+00 0.  1.
         11    1    3    3    0    0  0.24255009593E+01  0.24357587495E+01  0.75375512309E+01  0.82843620400E+01  0.51100000000E-03 0. -1.
        -11    1    3    3    0    0  0.40513813777E+01  0.25114814981E+01  0.19112061080E+02  0.19697515310E+02  0.51100000000E-03 0.  1.
        -12    1    3    3    0    0 -0.19317974242E+02 -0.12587734316E+00  0.11626072862E+02  0.22546963079E+02  0.00000000000E+00 0.  1.
</event>
<event>
 7    1  0.5855569E-013  0.5052886E+02  0.7816164E-02  0.1300439E+00
        -11   -1    0    0    0    0  0.00000000000E+00  0.00000000000E+00  0.45593999997E+02  0.45594000000E+02  0.51100000000E-03 0.  1.
         11   -1    0    0    0    0 -0.00000000000E+00 -0.00000000000E+00 -0.45593999997E+02  0.45594000000E+02  0.51100000000E-03 0. -1.
    9900012    2    1    2    0    0  0.36757161765E+02  0.90561190651E+01 -0.14834538190E+02  0.50528858877E+02  0.29999997044E+02 0.  0.
        -12    1    1    2    0    0 -0.36757161765E+02 -0.90561190651E+01  0.14834538190E+02  0.40659141123E+02  0.00000000000E+00 0.  1.
         11    1    3    3    0    0  0.22462612326E+02  0.96013634742E+01 -0.47129708125E+01  0.24879051976E+02  0.51100000000E-03 0. -1.
        -11    1    3    3    0    0  0.13391929090E+02 -0.54593327635E+01 -0.11180105342E+00  0.14462384959E+02  0.51100000000E-03 0.  1.
         12    1    3    3    0    0  0.90262034826E+00  0.49140883544E+01 -0.10009766324E+02  0.11187421942E+02  0.00000000000E+00 0. -1.
</event>
<event>
 7    1  0.5855569E-013  0.5052886E+02  0.7816164E-02  0.1300439E+00
        -11   -1    0    0    0    0  0.00000000000E+00  0.00000000000E+00  0.45593999997E+02  0.45594000000E+02  0.51100000000E-03 0.  1.
         11   -1    0    0    0    0 -0.00000000000E+00 -0.00000000000E+00 -0.45593999997E+02  0.45594000000E+02  0.51100000000E-03 0. -1.
    9900012    2    1    2    0    0  0.29690457663E+01  0.20099879383E+02 -0.35218536568E+02  0.50528859552E+02  0.29999999093E+02 0.  0.
        -12    1    1    2    0    0 -0.29690457663E+01 -0.20099879383E+02  0.35218536568E+02  0.40659140448E+02  0.00000000000E+00 0.  1.
         11    1    3    3    0    0 -0.21735973913E+01 -0.30058749436E+01 -0.28970376938E+00  0.37207174485E+01  0.51100000000E-03 0. -1.
        -11    1    3    3    0    0 -0.47299436777E+01  0.79588076495E+01 -0.23552485053E+01  0.95531242103E+01  0.51100000000E-03 0.  1.
        -12    1    3    3    0    0  0.98725868353E+01  0.15146946677E+02 -0.32573584294E+02  0.37255017893E+02  0.00000000000E+00 0.  1.
</event>
<event>
 7    1  0.5855569E-013  0.5052886E+02  0.7816164E-02  0.1300439E+00
        -11   -1    0    0    0    0  0.00000000000E+00  0.00000000000E+00  0.45593999997E+02  0.45594000000E+02  0.51100000000E-03 0. -1.
         11   -1    0    0    0    0 -0.00000000000E+00 -0.00000000000E+00 -0.45593999997E+02  0.45594000000E+02  0.51100000000E-03 0.  1.
    9900012    2    1    2    0    0 -0.26841026162E+02 -0.59056684073E+01  0.29964113472E+02  0.50528859565E+02  0.29999999134E+02 0.  0.
        -12    1    1    2    0    0  0.26841026162E+02  0.59056684073E+01 -0.29964113472E+02  0.40659140435E+02  0.00000000000E+00 0.  1.
         11    1    3    3    0    0 -0.25736892389E+02 -0.34035423922E+01  0.85202335053E+01  0.27323361980E+02  0.51100000000E-03 0. -1.
        -11    1    3    3    0    0 -0.25287805424E+01 -0.51838118001E+01  0.15327928867E+02  0.16377180448E+02  0.51100000000E-03 0.  1.
        -12    1    3    3    0    0  0.14246467695E+01  0.26816857850E+01  0.61159510998E+01  0.68283171370E+01  0.00000000000E+00 0.  1.
</event>
<event>
 7    1  0.5855569E-013  0.5052884E+02  0.7816164E-02  0.1300439E+00
        -11   -1    0    0    0    0  0.00000000000E+00  0.00000000000E+00  0.45593999997E+02  0.45594000000E+02  0.51100000000E-03 0.  1.
         11   -1    0    0    0    0 -0.00000000000E+00 -0.00000000000E+00 -0.45593999997E+02  0.45594000000E+02  0.51100000000E-03 0. -1.
    9900012    2    1    2    0    0  0.36945059017E+02  0.16621218598E+02 -0.34590171436E+01  0.50528842445E+02  0.29999947097E+02 0.  0.
        -12    1    1    2    0    0 -0.36945059017E+02 -0.16621218598E+02  0.34590171436E+01  0.40659157555E+02  0.00000000000E+00 0.  1.
         11    1    3    3    0    0  0.12429653883E+02  0.29084412896E+01 -0.67455087373E+01  0.14438047470E+02  0.51100000000E-03 0. -1.
        -11    1    3    3    0    0  0.70805517729E+01  0.15530827958E+02 -0.32630421756E+01  0.17377809844E+02  0.51100000000E-03 0.  1.
        -12    1    3    3    0    0  0.17434853362E+02 -0.18180506496E+01  0.65495337693E+01  0.18712985131E+02  0.00000000000E+00 0.  1.
</event>
<event>
 7    1  0.5855569E-013  0.5052886E+02  0.7816164E-02  0.1300439E+00
        -11   -1    0    0    0    0  0.00000000000E+00  0.00000000000E+00  0.45593999997E+02  0.45594000000E+02  0.51100000000E-03 0.  1.
         11   -1    0    0    0    0 -0.00000000000E+00 -0.00000000000E+00 -0.45593999997E+02  0.45594000000E+02  0.51100000000E-03 0. -1.
    9900012    2    1    2    0    0  0.18881809629E+02 -0.25051361841E+02 -0.25866427585E+02  0.50528861532E+02  0.30000005113E+02 0.  0.
        -12    1    1    2    0    0 -0.18881809629E+02  0.25051361841E+02  0.25866427585E+02  0.40659138468E+02  0.00000000000E+00 0.  1.
         11    1    3    3    0    0  0.34823495712E+00 -0.45989080520E+01  0.63532579395E+01  0.78508031158E+01  0.51100000000E-03 0.  1.
        -11    1    3    3    0    0  0.93765527073E+01 -0.77913814963E+01 -0.16482822752E+02  0.20501434400E+02  0.51100000000E-03 0. -1.
        -12    1    3    3    0    0  0.91570219642E+01 -0.12661072293E+02 -0.15736862772E+02  0.22176624017E+02  0.00000000000E+00 0.  1.
</event>
<event>
 7    1  0.5855569E-013  0.5052885E+02  0.7816164E-02  0.1300439E+00
        -11   -1    0    0    0    0  0.00000000000E+00  0.00000000000E+00  0.45593999997E+02  0.45594000000E+02  0.51100000000E-03 0. -1.
         11   -1    0    0    0    0 -0.00000000000E+00 -0.00000000000E+00 -0.45593999997E+02  0.45594000000E+02  0.51100000000E-03 0.  1.
    9900012    2    1    2    0    0  0.39359236214E+02  0.86515063429E+01  0.54007939116E+01  0.50528848358E+02  0.29999965069E+02 0.  0.
        -12    1    1    2    0    0 -0.39359236214E+02 -0.86515063429E+01 -0.54007939116E+01  0.40659151642E+02  0.00000000000E+00 0.  1.
         11    1    3    3    0    0  0.34392932163E+02  0.19262780920E+01  0.70658917104E+01  0.35164060573E+02  0.51100000000E-03 0. -1.
        -11    1    3    3    0    0  0.93283959815E+01  0.42623863558E+01 -0.87216604104E+00  0.10293084227E+02  0.51100000000E-03 0.  1.
         12    1    3    3    0    0 -0.43620919304E+01  0.24628418951E+01 -0.79293175773E+00  0.50717035581E+01  0.00000000000E+00 0. -1.
</event>
<event>
 7    1  0.5855569E-013  0.5052886E+02  0.7816164E-02  0.1300439E+00
        -11   -1    0    0    0    0  0.00000000000E+00  0.00000000000E+00  0.45593999997E+02  0.45594000000E+02  0.51100000000E-03 0.  1.
         11   -1    0    0    0    0 -0.00000000000E+00 -0.00000000000E+00 -0.45593999997E+02  0.45594000000E+02  0.51100000000E-03 0. -1.
    9900012    2    1    2    0    0  0.39301329421E+02  0.42924165213E+01 -0.94945231172E+01  0.50528864457E+02  0.30000014004E+02 0.  0.
        -12    1    1    2    0    0 -0.39301329421E+02 -0.42924165213E+01  0.94945231172E+01  0.40659135543E+02  0.00000000000E+00 0.  1.
         11    1    3    3    0    0  0.98961173617E+01 -0.44069609405E+01  0.23940505264E+01  0.11094409482E+02  0.51100000000E-03 0. -1.
        -11    1    3    3    0    0  0.24029477680E+00 -0.44462067669E+01  0.15793030096E+01  0.47244782200E+01  0.51100000000E-03 0.  1.
        -12    1    3    3    0    0  0.29164917283E+02  0.13145584229E+02 -0.13467876653E+02  0.34709976755E+02  0.00000000000E+00 0.  1.
</event>
<event>
 7    1  0.5855569E-013  0.5052886E+02  0.7816164E-02  0.1300439E+00
        -11   -1    0    0    0    0  0.00000000000E+00  0.00000000000E+00  0.45593999997E+02  0.45594000000E+02  0.51100000000E-03 0.  1.
         11   -1    0    0    0    0 -0.00000000000E+00 -0.00000000000E+00 -0.45593999997E+02  0.45594000000E+02  0.51100000000E-03 0. -1.
    9900012    2    1    2    0    0  0.39851961931E+02  0.24963536130E+01  0.76651753792E+01  0.50528861240E+02  0.30000004224E+02 0.  0.
        -12    1    1    2    0    0 -0.39851961931E+02 -0.24963536130E+01 -0.76651753792E+01  0.40659138760E+02  0.00000000000E+00 0.  1.
         11    1    3    3    0    0  0.18125540298E+02  0.17144896358E+01 -0.51857839594E+01  0.18930584813E+02  0.51100000000E-03 0. -1.
        -11    1    3    3    0    0  0.21877278724E+02  0.47266592777E+00  0.34046009823E+01  0.22145655230E+02  0.51100000000E-03 0.  1.
        -12    1    3    3    0    0 -0.15085709100E+00  0.30919804943E+00  0.94463583564E+01  0.94526211969E+01  0.00000000000E+00 0.  1.
</event>
<event>
 7    1  0.5855569E-013  0.5052887E+02  0.7816164E-02  0.1300439E+00
        -11   -1    0    0    0    0  0.00000000000E+00  0.00000000000E+00  0.45593999997E+02  0.45594000000E+02  0.51100000000E-03 0. -1.
         11   -1    0    0    0    0 -0.00000000000E+00 -0.00000000000E+00 -0.45593999997E+02  0.45594000000E+02  0.51100000000E-03 0.  1.
    9900012    2    1    2    0    0  0.16678361236E+02  0.23569581305E+02  0.28626426408E+02  0.50528865906E+02  0.30000018409E+02 0.  0.
        -12    1    1    2    0    0 -0.16678361236E+02 -0.23569581305E+02 -0.28626426408E+02  0.40659134094E+02  0.00000000000E+00 0.  1.
         11    1    3    3    0    0  0.22116796806E+01  0.77721193627E+01  0.87381225248E+01  0.11901770957E+02  0.51100000000E-03 0. -1.
        -11    1    3    3    0    0  0.52969949882E+01  0.20604287161E+02  0.18477465924E+02  0.28178210599E+02  0.51100000000E-03 0.  1.
        -12    1    3    3    0    0  0.91696865670E+01 -0.48068252190E+01  0.14108379592E+01  0.10448884350E+02  0.00000000000E+00 0.  1.
</event>
<event>
 7    1  0.5855569E-013  0.5052885E+02  0.7816164E-02  0.1300439E+00
        -11   -1    0    0    0    0  0.00000000000E+00  0.00000000000E+00  0.45593999997E+02  0.45594000000E+02  0.51100000000E-03 0.  1.
         11   -1    0    0    0    0 -0.00000000000E+00 -0.00000000000E+00 -0.45593999997E+02  0.45594000000E+02  0.51100000000E-03 0. -1.
    9900012    2    1    2    0    0  0.31077719234E+02 -0.24168426258E+02  0.10160177650E+02  0.50528847642E+02  0.29999962894E+02 0.  0.
        -12    1    1    2    0    0 -0.31077719234E+02  0.24168426258E+02 -0.10160177650E+02  0.40659152358E+02  0.00000000000E+00 0.  1.
         11    1    3    3    0    0  0.13627789821E+02 -0.66104335958E+01 -0.64603957083E+01  0.16466669387E+02  0.51100000000E-03 0. -1.
        -11    1    3    3    0    0 -0.30470452965E+01 -0.43082396659E+01  0.37162944240E+01  0.64541659852E+01  0.51100000000E-03 0.  1.
         12    1    3    3    0    0  0.20496974709E+02 -0.13249752996E+02  0.12904278934E+02  0.27608012270E+02  0.00000000000E+00 0. -1.
</event>
<event>
 7    1  0.5855569E-013  0.5052886E+02  0.7816164E-02  0.1300439E+00
        -11   -1    0    0    0    0  0.00000000000E+00  0.00000000000E+00  0.45593999997E+02  0.45594000000E+02  0.51100000000E-03 0.  1.
         11   -1    0    0    0    0 -0.00000000000E+00 -0.00000000000E+00 -0.45593999997E+02  0.45594000000E+02  0.51100000000E-03 0. -1.
    9900012    2    1    2    0    0  0.21442719808E+02  0.30714386348E+02 -0.15811457775E+02  0.50528856398E+02  0.29999989507E+02 0.  0.
        -12    1    1    2    0    0 -0.21442719808E+02 -0.30714386348E+02  0.15811457775E+02  0.40659143602E+02  0.00000000000E+00 0.  1.
         11    1    3    3    0    0  0.15434753484E+02  0.94356124795E+01 -0.35574674942E+01  0.18436864517E+02  0.51100000000E-03 0. -1.
        -11    1    3    3    0    0  0.10182752879E+02  0.14755967091E+02 -0.40050133039E+00  0.17932858739E+02  0.51100000000E-03 0.  1.
        -12    1    3    3    0    0 -0.41747865552E+01  0.65228067777E+01 -0.11853488951E+02  0.14159133142E+02  0.00000000000E+00 0.  1.
</event>
<event>
 7    1  0.5855569E-013  0.5052887E+02  0.7816164E-02  0.1300439E+00
        -11   -1    0    0    0    0  0.00000000000E+00  0.00000000000E+00  0.45593999997E+02  0.45594000000E+02  0.51100000000E-03 0. -1.
         11   -1    0    0    0    0 -0.00000000000E+00 -0.00000000000E+00 -0.45593999997E+02  0.45594000000E+02  0.51100000000E-03 0.  1.
    9900012    2    1    2    0    0  0.22978306527E+02 -0.15674054715E+01  0.33506795221E+02  0.50528872406E+02  0.30000038164E+02 0.  0.
        -12    1    1    2    0    0 -0.22978306527E+02  0.15674054715E+01 -0.33506795221E+02  0.40659127594E+02  0.00000000000E+00 0.  1.
         11    1    3    3    0    0  0.42811745126E+01 -0.24933016983E+01  0.10467530255E+02  0.11580768475E+02  0.51100000000E-03 0. -1.
        -11    1    3    3    0    0 -0.47244240049E+01 -0.50232277036E+01  0.76468879445E+01  0.10296984716E+02  0.51100000000E-03 0.  1.
         12    1    3    3    0    0  0.23421556020E+02  0.59491239304E+01  0.15392377021E+02  0.28651119215E+02  0.00000000000E+00 0. -1.
</event>
<event>
 7    1  0.5855569E-013  0.5052886E+02  0.7816164E-02  0.1300439E+00
        -11   -1    0    0    0    0  0.00000000000E+00  0.00000000000E+00  0.45593999997E+02  0.45594000000E+02  0.51100000000E-03 0.  1.
         11   -1    0    0    0    0 -0.00000000000E+00 -0.00000000000E+00 -0.45593999997E+02  0.45594000000E+02  0.51100000000E-03 0. -1.
    9900012    2    1    2    0    0 -0.20772132448E+02  0.34287731370E+02 -0.67849722114E+01  0.50528857648E+02  0.29999993306E+02 0.  0.
        -12    1    1    2    0    0  0.20772132448E+02 -0.34287731370E+02  0.67849722114E+01  0.40659142352E+02  0.00000000000E+00 0.  1.
         11    1    3    3    0    0 -0.17695698503E+02  0.10498981298E+02  0.24607596765E+01  0.20722492423E+02  0.51100000000E-03 0. -1.
        -11    1    3    3    0    0 -0.88089922665E+01  0.11466906626E+02 -0.26516566312E+01  0.14701005934E+02  0.51100000000E-03 0.  1.
         12    1    3    3    0    0  0.57325583213E+01  0.12321843445E+02 -0.65940752567E+01  0.15105359290E+02  0.00000000000E+00 0. -1.
</event>
<event>
 7    1  0.5855569E-013  0.5052886E+02  0.7816164E-02  0.1300439E+00
        -11   -1    0    0    0    0  0.00000000000E+00  0.00000000000E+00  0.45593999997E+02  0.45594000000E+02  0.51100000000E-03 0.  1.
         11   -1    0    0    0    0 -0.00000000000E+00 -0.00000000000E+00 -0.45593999997E+02  0.45594000000E+02  0.51100000000E-03 0. -1.
    9900012    2    1    2    0    0  0.32208186786E+02  0.12130447601E+02 -0.21648339935E+02  0.50528859859E+02  0.30000000027E+02 0.  0.
        -12    1    1    2    0    0 -0.32208186786E+02 -0.12130447601E+02  0.21648339935E+02  0.40659140141E+02  0.00000000000E+00 0.  1.
         11    1    3    3    0    0  0.27493104865E+00  0.56669254952E+01 -0.18302721574E+01  0.59615038439E+01  0.51100000000E-03 0. -1.
        -11    1    3    3    0    0  0.61900938837E+01  0.11179462389E+02 -0.11260567380E+02  0.17032264077E+02  0.51100000000E-03 0.  1.
         12    1    3    3    0    0  0.25743161854E+02 -0.47159402832E+01 -0.85575003981E+01  0.27535091938E+02  0.00000000000E+00 0. -1.
</event>
<event>
 7    1  0.5855569E-013  0.5052885E+02  0.7816164E-02  0.1300439E+00
        -11   -1    0    0    0    0  0.00000000000E+00  0.00000000000E+00  0.45593999997E+02  0.45594000000E+02  0.51100000000E-03 0.  1.
         11   -1    0    0    0    0 -0.00000000000E+00 -0.00000000000E+00 -0.45593999997E+02  0.45594000000E+02  0.51100000000E-03 0. -1.
    9900012    2    1    2    0    0  0.25523843797E+02  0.11359081449E+02 -0.29541004876E+02  0.50528852166E+02  0.29999976644E+02 0.  0.
        -12    1    1    2    0    0 -0.25523843797E+02 -0.11359081449E+02  0.29541004876E+02  0.40659147834E+02  0.00000000000E+00 0.  1.
         11    1    3    3    0    0  0.24938211077E+02  0.34716517390E+01 -0.93189462342E+01  0.26847895573E+02  0.51100000000E-03 0.  1.
        -11    1    3    3    0    0  0.44466176885E+01  0.24060301801E+01 -0.53152844332E+01  0.73357780066E+01  0.51100000000E-03 0. -1.
        -12    1    3    3    0    0 -0.38609849690E+01  0.54813995296E+01 -0.14906774208E+02  0.16345178587E+02  0.00000000000E+00 0.  1.
</event>
<event>
 7    1  0.5855569E-013  0.5052886E+02  0.7816164E-02  0.1300439E+00
        -11   -1    0    0    0    0  0.00000000000E+00  0.00000000000E+00  0.45593999997E+02  0.45594000000E+02  0.51100000000E-03 0.  1.
         11   -1    0    0    0    0 -0.00000000000E+00 -0.00000000000E+00 -0.45593999997E+02  0.45594000000E+02  0.51100000000E-03 0. -1.
    9900012    2    1    2    0    0  0.14079092438E+02  0.13159763706E+02 -0.35801752093E+02  0.50528859852E+02  0.30000000006E+02 0.  0.
        -12    1    1    2    0    0 -0.14079092438E+02 -0.13159763706E+02  0.35801752093E+02  0.40659140148E+02  0.00000000000E+00 0.  1.
         11    1    3    3    0    0  0.53143429586E+01  0.39255684361E+01 -0.14761757246E+02  0.16172872530E+02  0.51100000000E-03 0. -1.
        -11    1    3    3    0    0  0.17146414973E+02  0.60950569451E+01 -0.13619603247E+02  0.22729779111E+02  0.51100000000E-03 0.  1.
        -12    1    3    3    0    0 -0.83816654934E+01  0.31391383243E+01 -0.74203916007E+01  0.11626208211E+02  0.00000000000E+00 0.  1.
</event>
<event>
 7    1  0.5855569E-013  0.5052886E+02  0.7816164E-02  0.1300439E+00
        -11   -1    0    0    0    0  0.00000000000E+00  0.00000000000E+00  0.45593999997E+02  0.45594000000E+02  0.51100000000E-03 0.  1.
         11   -1    0    0    0    0 -0.00000000000E+00 -0.00000000000E+00 -0.45593999997E+02  0.45594000000E+02  0.51100000000E-03 0. -1.
    9900012    2    1    2    0    0 -0.24561590955E+02 -0.61025607999E+01 -0.31822207628E+02  0.50528857155E+02  0.29999991808E+02 0.  0.
        -12    1    1    2    0    0  0.24561590955E+02  0.61025607999E+01  0.31822207628E+02  0.40659142845E+02  0.00000000000E+00 0.  1.
         11    1    3    3    0    0 -0.16878502335E+02 -0.49024602276E+01 -0.20982719433E+02  0.27371380535E+02  0.51100000000E-03 0. -1.
        -11    1    3    3    0    0  0.55860739174E+01 -0.18432396572E+01 -0.73652501718E+01  0.94259569593E+01  0.51100000000E-03 0.  1.
         12    1    3    3    0    0 -0.13269162538E+02  0.64313908485E+00 -0.34742380237E+01  0.13731519660E+02  0.00000000000E+00 0. -1.
</event>
<event>
 7    1  0.5855569E-013  0.5052881E+02  0.7816164E-02  0.1300439E+00
        -11   -1    0    0    0    0  0.00000000000E+00  0.00000000000E+00  0.45593999997E+02  0.45594000000E+02  0.51100000000E-03 0.  1.
         11   -1    0    0    0    0 -0.00000000000E+00 -0.00000000000E+00 -0.45593999997E+02  0.45594000000E+02  0.51100000000E-03 0. -1.
    9900012    2    1    2    0    0  0.20836798238E+02 -0.19408289435E+02 -0.29022678769E+02  0.50528809864E+02  0.29999848063E+02 0.  0.
        -12    1    1    2    0    0 -0.20836798238E+02  0.19408289435E+02  0.29022678769E+02  0.40659190136E+02  0.00000000000E+00 0.  1.
         11    1    3    3    0    0 -0.85074623683E-02 -0.32769567467E+01 -0.38275939908E+00  0.32992458100E+01  0.51100000000E-03 0. -1.
        -11    1    3    3    0    0  0.13497455327E+02 -0.90367729520E+00  0.50308722855E+00  0.13537024414E+02  0.51100000000E-03 0.  1.
        -12    1    3    3    0    0  0.73478503731E+01 -0.15227655393E+02 -0.29143006598E+02  0.33692539641E+02  0.00000000000E+00 0.  1.
</event>
<event>
 7    1  0.5855569E-013  0.5052884E+02  0.7816164E-02  0.1300439E+00
        -11   -1    0    0    0    0  0.00000000000E+00  0.00000000000E+00  0.45593999997E+02  0.45594000000E+02  0.51100000000E-03 0.  1.
         11   -1    0    0    0    0 -0.00000000000E+00 -0.00000000000E+00 -0.45593999997E+02  0.45594000000E+02  0.51100000000E-03 0. -1.
    9900012    2    1    2    0    0 -0.30637626675E+02  0.14833684965E+02 -0.22236560708E+02  0.50528843467E+02  0.29999950202E+02 0.  0.
        -12    1    1    2    0    0  0.30637626675E+02 -0.14833684965E+02  0.22236560708E+02  0.40659156533E+02  0.00000000000E+00 0.  1.
         11    1    3    3    0    0 -0.53530401299E+01  0.14299874040E+02 -0.49152464841E+01  0.16040607359E+02  0.51100000000E-03 0. -1.
        -11    1    3    3    0    0 -0.32527284515E+00 -0.35564087096E+01  0.41735485999E+00  0.35955570742E+01  0.51100000000E-03 0.  1.
         12    1    3    3    0    0 -0.24959313700E+02  0.40902196347E+01 -0.17738669083E+02  0.30892679034E+02  0.00000000000E+00 0. -1.
</event>
<event>
 7    1  0.5855569E-013  0.5052887E+02  0.7816164E-02  0.1300439E+00
        -11   -1    0    0    0    0  0.00000000000E+00  0.00000000000E+00  0.45593999997E+02  0.45594000000E+02  0.51100000000E-03 0.  1.
         11   -1    0    0    0    0 -0.00000000000E+00 -0.00000000000E+00 -0.45593999997E+02  0.45594000000E+02  0.51100000000E-03 0. -1.
    9900012    2    1    2    0    0 -0.14873576090E+02  0.22725461603E+02 -0.30257148440E+02  0.50528869383E+02  0.30000028977E+02 0.  0.
        -12    1    1    2    0    0  0.14873576090E+02 -0.22725461603E+02  0.30257148440E+02  0.40659130617E+02  0.00000000000E+00 0.  1.
         11    1    3    3    0    0 -0.39813972323E+01  0.11741290379E+01 -0.81850137041E+01  0.91773935579E+01  0.51100000000E-03 0. -1.
        -11    1    3    3    0    0 -0.37639281702E+01  0.10821239133E+02  0.41098423543E+01  0.12171983244E+02  0.51100000000E-03 0.  1.
         12    1    3    3    0    0 -0.71282506879E+01  0.10730093432E+02 -0.26181977091E+02  0.29179492581E+02  0.00000000000E+00 0. -1.
</event>
<event>
 7    1  0.5855569E-013  0.5052886E+02  0.7816164E-02  0.1300439E+00
        -11   -1    0    0    0    0  0.00000000000E+00  0.00000000000E+00  0.45593999997E+02  0.45594000000E+02  0.51100000000E-03 0.  1.
         11   -1    0    0    0    0 -0.00000000000E+00 -0.00000000000E+00 -0.45593999997E+02  0.45594000000E+02  0.51100000000E-03 0. -1.
    9900012    2    1    2    0    0  0.24734109001E+02  0.29256892434E+02  0.13617034068E+02  0.50528861793E+02  0.30000005905E+02 0.  0.
        -12    1    1    2    0    0 -0.24734109001E+02 -0.29256892434E+02 -0.13617034068E+02  0.40659138207E+02  0.00000000000E+00 0.  1.
         11    1    3    3    0    0  0.23737324987E+02  0.13551254986E+02  0.73237636976E+01  0.28297254711E+02  0.51100000000E-03 0. -1.
        -11    1    3    3    0    0  0.58822910363E+01  0.68945102719E+01  0.79081621072E+01  0.12028077482E+02  0.51100000000E-03 0.  1.
         12    1    3    3    0    0 -0.48855070225E+01  0.88111271759E+01 -0.16148917365E+01  0.10203529600E+02  0.00000000000E+00 0. -1.
</event>
<event>
 7    1  0.5855569E-013  0.5052886E+02  0.7816164E-02  0.1300439E+00
        -11   -1    0    0    0    0  0.00000000000E+00  0.00000000000E+00  0.45593999997E+02  0.45594000000E+02  0.51100000000E-03 0.  1.
         11   -1    0    0    0    0 -0.00000000000E+00 -0.00000000000E+00 -0.45593999997E+02  0.45594000000E+02  0.51100000000E-03 0. -1.
    9900012    2    1    2    0    0  0.40221501589E+02 -0.39226530834E+01 -0.44731775190E+01  0.50528859399E+02  0.29999998629E+02 0.  0.
        -12    1    1    2    0    0 -0.40221501589E+02  0.39226530834E+01  0.44731775190E+01  0.40659140601E+02  0.00000000000E+00 0.  1.
         11    1    3    3    0    0  0.21417754038E+02  0.24669683762E+01  0.93648045710E+01  0.23505439497E+02  0.51100000000E-03 0. -1.
        -11    1    3    3    0    0  0.74663453711E+01  0.10006991503E+01  0.18452357480E+00  0.75353673568E+01  0.51100000000E-03 0.  1.
        -12    1    3    3    0    0  0.11337402179E+02 -0.73903206099E+01 -0.14022505665E+02  0.19488052545E+02  0.00000000000E+00 0.  1.
</event>
<event>
 7    1  0.5855569E-013  0.5052885E+02  0.7816164E-02  0.1300439E+00
        -11   -1    0    0    0    0  0.00000000000E+00  0.00000000000E+00  0.45593999997E+02  0.45594000000E+02  0.51100000000E-03 0.  1.
         11   -1    0    0    0    0 -0.00000000000E+00 -0.00000000000E+00 -0.45593999997E+02  0.45594000000E+02  0.51100000000E-03 0. -1.
    9900012    2    1    2    0    0  0.28865945549E+02 -0.28451724949E+02  0.32284241327E+01  0.50528853583E+02  0.29999980949E+02 0.  0.
        -12    1    1    2    0    0 -0.28865945549E+02  0.28451724949E+02 -0.32284241327E+01  0.40659146417E+02  0.00000000000E+00 0.  1.
         11    1    3    3    0    0  0.20371446843E+02 -0.16895930756E+02  0.28973927678E+01  0.26624485116E+02  0.51100000000E-03 0. -1.
        -11    1    3    3    0    0  0.11241485493E+02 -0.66436954764E+01 -0.68780049689E+01  0.14758612343E+02  0.51100000000E-03 0.  1.
         12    1    3    3    0    0 -0.27469867869E+01 -0.49120987173E+01  0.72090363338E+01  0.91457561239E+01  0.00000000000E+00 0. -1.
</event>
<event>
 7    1  0.5855569E-013  0.5052885E+02  0.7816164E-02  0.1300439E+00
        -11   -1    0    0    0    0  0.00000000000E+00  0.00000000000E+00  0.45593999997E+02  0.45594000000E+02  0.51100000000E-03 0.  1.
         11   -1    0    0    0    0 -0.00000000000E+00 -0.00000000000E+00 -0.45593999997E+02  0.45594000000E+02  0.51100000000E-03 0. -1.
    9900012    2    1    2    0    0  0.18422981461E+01  0.53433142467E+01 -0.40264396237E+02  0.50528847600E+02  0.29999962764E+02 0.  0.
        -12    1    1    2    0    0 -0.18422981461E+01 -0.53433142467E+01  0.40264396237E+02  0.40659152400E+02  0.00000000000E+00 0.  1.
         11    1    3    3    0    0 -0.20306390188E+00  0.32210333026E+01 -0.63373389427E+01  0.71118320861E+01  0.51100000000E-03 0. -1.
        -11    1    3    3    0    0 -0.10520553999E+02 -0.51537254585E+01 -0.20649694794E+02  0.23741373968E+02  0.51100000000E-03 0.  1.
        -12    1    3    3    0    0  0.12565916047E+02  0.72760064025E+01 -0.13277362500E+02  0.19675641546E+02  0.00000000000E+00 0.  1.
</event>
<event>
 7    1  0.5855569E-013  0.5052896E+02  0.7816164E-02  0.1300438E+00
        -11   -1    0    0    0    0  0.00000000000E+00  0.00000000000E+00  0.45593999997E+02  0.45594000000E+02  0.51100000000E-03 0.  1.
         11   -1    0    0    0    0 -0.00000000000E+00 -0.00000000000E+00 -0.45593999997E+02  0.45594000000E+02  0.51100000000E-03 0. -1.
    9900012    2    1    2    0    0 -0.23842893529E+02 -0.12346658565E+02 -0.30532513379E+02  0.50528955216E+02  0.30000289872E+02 0.  0.
        -12    1    1    2    0    0  0.23842893529E+02  0.12346658565E+02  0.30532513379E+02  0.40659044784E+02  0.00000000000E+00 0.  1.
         11    1    3    3    0    0 -0.18160932145E+01 -0.10604897411E+02 -0.11439059302E+02  0.15703952421E+02  0.51100000000E-03 0. -1.
        -11    1    3    3    0    0  0.19907925139E+00 -0.60022191661E+01 -0.15818240967E+01  0.62103490402E+01  0.51100000000E-03 0.  1.
         12    1    3    3    0    0 -0.22225879566E+02  0.42604580115E+01 -0.17511629980E+02  0.28614653755E+02  0.00000000000E+00 0. -1.
</event>
<event>
 7    1  0.5855569E-013  0.5052886E+02  0.7816164E-02  0.1300439E+00
        -11   -1    0    0    0    0  0.00000000000E+00  0.00000000000E+00  0.45593999997E+02  0.45594000000E+02  0.51100000000E-03 0.  1.
         11   -1    0    0    0    0 -0.00000000000E+00 -0.00000000000E+00 -0.45593999997E+02  0.45594000000E+02  0.51100000000E-03 0. -1.
    9900012    2    1    2    0    0 -0.12440217209E+02  0.16542609526E+02 -0.34996407943E+02  0.50528861998E+02  0.30000006528E+02 0.  0.
        -12    1    1    2    0    0  0.12440217209E+02 -0.16542609526E+02  0.34996407943E+02  0.40659138002E+02  0.00000000000E+00 0.  1.
         11    1    3    3    0    0 -0.11328991483E+02  0.36279594726E+01 -0.11650934041E+02  0.16650897941E+02  0.51100000000E-03 0.  1.
        -11    1    3    3    0    0 -0.78724535106E+01  0.25098221512E+01 -0.19019546159E+02  0.20736872182E+02  0.51100000000E-03 0. -1.
         12    1    3    3    0    0  0.67612277846E+01  0.10404827902E+02 -0.43259277432E+01  0.13141091875E+02  0.00000000000E+00 0. -1.
</event>
<event>
 7    1  0.5855569E-013  0.5052886E+02  0.7816164E-02  0.1300439E+00
        -11   -1    0    0    0    0  0.00000000000E+00  0.00000000000E+00  0.45593999997E+02  0.45594000000E+02  0.51100000000E-03 0. -1.
         11   -1    0    0    0    0 -0.00000000000E+00 -0.00000000000E+00 -0.45593999997E+02  0.45594000000E+02  0.51100000000E-03 0.  1.
    9900012    2    1    2    0    0 -0.36052959076E+02 -0.12034462039E+02 -0.14440277179E+02  0.50528859087E+02  0.29999997682E+02 0.  0.
        -12    1    1    2    0    0  0.36052959076E+02  0.12034462039E+02  0.14440277179E+02  0.40659140913E+02  0.00000000000E+00 0.  1.
         11    1    3    3    0    0 -0.27193453885E+02 -0.13236067448E+02 -0.13916973918E+02  0.33292034768E+02  0.51100000000E-03 0. -1.
        -11    1    3    3    0    0 -0.10020339258E+02 -0.27870721596E+01 -0.46396316475E+01  0.11388641365E+02  0.51100000000E-03 0.  1.
         12    1    3    3    0    0  0.11608340667E+01  0.39886775692E+01  0.41163283858E+01  0.58481829538E+01  0.00000000000E+00 0. -1.
</event>
<event>
 7    1  0.5855569E-013  0.5052885E+02  0.7816164E-02  0.1300439E+00
        -11   -1    0    0    0    0  0.00000000000E+00  0.00000000000E+00  0.45593999997E+02  0.45594000000E+02  0.51100000000E-03 0. -1.
         11   -1    0    0    0    0 -0.00000000000E+00 -0.00000000000E+00 -0.45593999997E+02  0.45594000000E+02  0.51100000000E-03 0.  1.
    9900012    2    1    2    0    0  0.23120442713E+02  0.20333835764E+02  0.26554591876E+02  0.50528854684E+02  0.29999984298E+02 0.  0.
        -12    1    1    2    0    0 -0.23120442713E+02 -0.20333835764E+02 -0.26554591876E+02  0.40659145316E+02  0.00000000000E+00 0.  1.
         11    1    3    3    0    0 -0.25024070103E+00 -0.40623716989E+01  0.26966473947E+01  0.48823551347E+01  0.51100000000E-03 0. -1.
        -11    1    3    3    0    0  0.33586944136E+01  0.24226704335E+00 -0.28791190037E+01  0.44304455739E+01  0.51100000000E-03 0.  1.
         12    1    3    3    0    0  0.20011989001E+02  0.24153940419E+02  0.26737063485E+02  0.41216053976E+02  0.00000000000E+00 0. -1.
</event>
<event>
 7    1  0.5855569E-013  0.5052880E+02  0.7816164E-02  0.1300439E+00
        -11   -1    0    0    0    0  0.00000000000E+00  0.00000000000E+00  0.45593999997E+02  0.45594000000E+02  0.51100000000E-03 0.  1.
         11   -1    0    0    0    0 -0.00000000000E+00 -0.00000000000E+00 -0.45593999997E+02  0.45594000000E+02  0.51100000000E-03 0. -1.
    9900012    2    1    2    0    0  0.39414866374E+02 -0.84488689627E+01 -0.53155546129E+01  0.50528804252E+02  0.29999831003E+02 0.  0.
        -12    1    1    2    0    0 -0.39414866374E+02  0.84488689627E+01  0.53155546129E+01  0.40659195748E+02  0.00000000000E+00 0.  1.
         11    1    3    3    0    0  0.30370677659E+02 -0.77464723385E+01 -0.10828907717E+02  0.33160988190E+02  0.51100000000E-03 0. -1.
        -11    1    3    3    0    0  0.11630277202E+02 -0.26922855481E+01  0.12558696999E+01  0.12003706021E+02  0.51100000000E-03 0.  1.
        -12    1    3    3    0    0 -0.25860884866E+01  0.19898889239E+01  0.42574834045E+01  0.53641100408E+01  0.00000000000E+00 0.  1.
</event>
<event>
 7    1  0.5855569E-013  0.5052887E+02  0.7816164E-02  0.1300439E+00
        -11   -1    0    0    0    0  0.00000000000E+00  0.00000000000E+00  0.45593999997E+02  0.45594000000E+02  0.51100000000E-03 0. -1.
         11   -1    0    0    0    0 -0.00000000000E+00 -0.00000000000E+00 -0.45593999997E+02  0.45594000000E+02  0.51100000000E-03 0.  1.
    9900012    2    1    2    0    0 -0.58584452870E+01 -0.36028578352E+02  0.17910483280E+02  0.50528865103E+02  0.30000015968E+02 0.  0.
        -12    1    1    2    0    0  0.58584452870E+01  0.36028578352E+02 -0.17910483280E+02  0.40659134897E+02  0.00000000000E+00 0.  1.
         11    1    3    3    0    0 -0.52796510863E+01 -0.18441831037E+02  0.94970653798E+01  0.21404908285E+02  0.51100000000E-03 0. -1.
        -11    1    3    3    0    0 -0.89782472495E+01 -0.15511931140E+02  0.96960288068E+01  0.20377485278E+02  0.51100000000E-03 0.  1.
        -12    1    3    3    0    0  0.83994530488E+01 -0.20748161748E+01 -0.12826109066E+01  0.87464715410E+01  0.00000000000E+00 0.  1.
</event>
<event>
 7    1  0.5855569E-013  0.5052886E+02  0.7816164E-02  0.1300439E+00
        -11   -1    0    0    0    0  0.00000000000E+00  0.00000000000E+00  0.45593999997E+02  0.45594000000E+02  0.51100000000E-03 0.  1.
         11   -1    0    0    0    0 -0.00000000000E+00 -0.00000000000E+00 -0.45593999997E+02  0.45594000000E+02  0.51100000000E-03 0. -1.
    9900012    2    1    2    0    0  0.29568793078E+02  0.20150765706E+02 -0.19308001665E+02  0.50528858212E+02  0.29999995022E+02 0.  0.
        -12    1    1    2    0    0 -0.29568793078E+02 -0.20150765706E+02  0.19308001665E+02  0.40659141788E+02  0.00000000000E+00 0.  1.
         11    1    3    3    0    0  0.10921400525E+01  0.65762622816E+01 -0.78840426694E+01  0.10324636776E+02  0.51100000000E-03 0. -1.
        -11    1    3    3    0    0 -0.31688771909E+01 -0.13237021700E+01 -0.85649804277E-01  0.34353029322E+01  0.51100000000E-03 0.  1.
        -12    1    3    3    0    0  0.31645530216E+02  0.14898205594E+02 -0.11338309191E+02  0.36768918504E+02  0.00000000000E+00 0.  1.
</event>
<event>
 7    1  0.5855569E-013  0.5052885E+02  0.7816164E-02  0.1300439E+00
        -11   -1    0    0    0    0  0.00000000000E+00  0.00000000000E+00  0.45593999997E+02  0.45594000000E+02  0.51100000000E-03 0.  1.
         11   -1    0    0    0    0 -0.00000000000E+00 -0.00000000000E+00 -0.45593999997E+02  0.45594000000E+02  0.51100000000E-03 0. -1.
    9900012    2    1    2    0    0 -0.73778271178E+01  0.39881471853E+02 -0.28640288818E+01  0.50528846153E+02  0.29999958367E+02 0.  0.
        -12    1    1    2    0    0  0.73778271178E+01 -0.39881471853E+02  0.28640288818E+01  0.40659153847E+02  0.00000000000E+00 0.  1.
         11    1    3    3    0    0  0.42779844123E+01  0.20808359585E+02 -0.88763034758E+01  0.23023417272E+02  0.51100000000E-03 0. -1.
        -11    1    3    3    0    0 -0.22716582291E+01  0.11873507725E+02 -0.32093227846E+01  0.12507612474E+02  0.51100000000E-03 0.  1.
        -12    1    3    3    0    0 -0.93841533010E+01  0.71996045431E+01  0.92215973787E+01  0.14997816407E+02  0.00000000000E+00 0.  1.
</event>
<event>
 7    1  0.5855569E-013  0.5052886E+02  0.7816164E-02  0.1300439E+00
        -11   -1    0    0    0    0  0.00000000000E+00  0.00000000000E+00  0.45593999997E+02  0.45594000000E+02  0.51100000000E-03 0. -1.
         11   -1    0    0    0    0 -0.00000000000E+00 -0.00000000000E+00 -0.45593999997E+02  0.45594000000E+02  0.51100000000E-03 0.  1.
    9900012    2    1    2    0    0  0.13426192511E+02  0.28845725110E+02  0.25314571869E+02  0.50528855255E+02  0.29999986033E+02 0.  0.
        -12    1    1    2    0    0 -0.13426192511E+02 -0.28845725110E+02 -0.25314571869E+02  0.40659144745E+02  0.00000000000E+00 0.  1.
         11    1    3    3    0    0  0.10089626737E+02  0.21858841834E+02  0.30779152880E+01  0.24271034111E+02  0.51100000000E-03 0.  1.
        -11    1    3    3    0    0  0.37336300602E+01  0.10051130619E+02  0.18748396556E+02  0.21597860863E+02  0.51100000000E-03 0. -1.
        -12    1    3    3    0    0 -0.39706428580E+00 -0.30642473433E+01  0.34882600245E+01  0.46599602817E+01  0.00000000000E+00 0.  1.
</event>
<event>
 7    1  0.5855569E-013  0.5052886E+02  0.7816164E-02  0.1300439E+00
        -11   -1    0    0    0    0  0.00000000000E+00  0.00000000000E+00  0.45593999997E+02  0.45594000000E+02  0.51100000000E-03 0. -1.
         11   -1    0    0    0    0 -0.00000000000E+00 -0.00000000000E+00 -0.45593999997E+02  0.45594000000E+02  0.51100000000E-03 0.  1.
    9900012    2    1    2    0    0  0.30495250704E+02 -0.24322129225E+02  0.11473420862E+02  0.50528859923E+02  0.30000000221E+02 0.  0.
        -12    1    1    2    0    0 -0.30495250704E+02  0.24322129225E+02 -0.11473420862E+02  0.40659140077E+02  0.00000000000E+00 0.  1.
         11    1    3    3    0    0  0.50996167217E-02 -0.17799106855E+01  0.67130773721E-01  0.17811835550E+01  0.51100000000E-03 0. -1.
        -11    1    3    3    0    0  0.33492786618E+02 -0.10736153161E+02  0.93542002110E+01  0.36394131422E+02  0.51100000000E-03 0.  1.
        -12    1    3    3    0    0 -0.30026355305E+01 -0.11806065378E+02  0.20520898769E+01  0.12353544945E+02  0.00000000000E+00 0.  1.
</event>
<event>
 7    1  0.5855569E-013  0.5052875E+02  0.7816164E-02  0.1300439E+00
        -11   -1    0    0    0    0  0.00000000000E+00  0.00000000000E+00  0.45593999997E+02  0.45594000000E+02  0.51100000000E-03 0. -1.
         11   -1    0    0    0    0 -0.00000000000E+00 -0.00000000000E+00 -0.45593999997E+02  0.45594000000E+02  0.51100000000E-03 0.  1.
    9900012    2    1    2    0    0  0.27899570588E+02 -0.73142345857E+01  0.28658166253E+02  0.50528750628E+02  0.29999668006E+02 0.  0.
        -12    1    1    2    0    0 -0.27899570588E+02  0.73142345857E+01 -0.28658166253E+02  0.40659249372E+02  0.00000000000E+00 0.  1.
         11    1    3    3    0    0  0.62973673776E+01 -0.44216475092E+01 -0.21164101321E+01  0.79804131906E+01  0.51100000000E-03 0.  1.
        -11    1    3    3    0    0  0.12560632343E+02 -0.88921640109E+01  0.80542926786E+01  0.17369850214E+02  0.51100000000E-03 0. -1.
         12    1    3    3    0    0  0.90415708673E+01  0.59995769344E+01  0.22720283706E+02  0.25178487223E+02  0.00000000000E+00 0. -1.
</event>
<event>
 7    1  0.5855569E-013  0.5052886E+02  0.7816164E-02  0.1300439E+00
        -11   -1    0    0    0    0  0.00000000000E+00  0.00000000000E+00  0.45593999997E+02  0.45594000000E+02  0.51100000000E-03 0.  1.
         11   -1    0    0    0    0 -0.00000000000E+00 -0.00000000000E+00 -0.45593999997E+02  0.45594000000E+02  0.51100000000E-03 0. -1.
    9900012    2    1    2    0    0  0.29996607548E+02  0.58400827807E+01 -0.26819070377E+02  0.50528861210E+02  0.30000004134E+02 0.  0.
        -12    1    1    2    0    0 -0.29996607548E+02 -0.58400827807E+01  0.26819070377E+02  0.40659138790E+02  0.00000000000E+00 0.  1.
         11    1    3    3    0    0  0.67188282310E+01 -0.53280881998E+00 -0.13759266608E+02  0.15321356203E+02  0.51100000000E-03 0. -1.
        -11    1    3    3    0    0  0.48931260822E+01  0.12014649087E+02 -0.82851881644E+01  0.15392817115E+02  0.51100000000E-03 0.  1.
        -12    1    3    3    0    0  0.18384653235E+02 -0.56417574865E+01 -0.47746156037E+01  0.19814687892E+02  0.00000000000E+00 0.  1.
</event>
<event>
 7    1  0.5855569E-013  0.5052886E+02  0.7816164E-02  0.1300439E+00
        -11   -1    0    0    0    0  0.00000000000E+00  0.00000000000E+00  0.45593999997E+02  0.45594000000E+02  0.51100000000E-03 0. -1.
         11   -1    0    0    0    0 -0.00000000000E+00 -0.00000000000E+00 -0.45593999997E+02  0.45594000000E+02  0.51100000000E-03 0.  1.
    9900012    2    1    2    0    0  0.39728033912E+02  0.76731691325E+01 -0.39964522960E+01  0.50528857928E+02  0.29999994158E+02 0.  0.
        -12    1    1    2    0    0 -0.39728033912E+02 -0.76731691325E+01  0.39964522960E+01  0.40659142072E+02  0.00000000000E+00 0.  1.
         11    1    3    3    0    0  0.72967466724E+01 -0.16639034906E+01 -0.79794113279E+01  0.10939931089E+02  0.51100000000E-03 0. -1.
        -11    1    3    3    0    0  0.22153037901E+02  0.12695998560E+01 -0.61819190302E+01  0.23034432817E+02  0.51100000000E-03 0.  1.
         12    1    3    3    0    0  0.10278249338E+02  0.80674727671E+01  0.10164878062E+02  0.16554494022E+02  0.00000000000E+00 0. -1.
</event>
<event>
 7    1  0.5855569E-013  0.5052892E+02  0.7816164E-02  0.1300439E+00
        -11   -1    0    0    0    0  0.00000000000E+00  0.00000000000E+00  0.45593999997E+02  0.45594000000E+02  0.51100000000E-03 0. -1.
         11   -1    0    0    0    0 -0.00000000000E+00 -0.00000000000E+00 -0.45593999997E+02  0.45594000000E+02  0.51100000000E-03 0.  1.
    9900012    2    1    2    0    0 -0.10085591777E+02 -0.33986788972E+02  0.19908283016E+02  0.50528920832E+02  0.30000185361E+02 0.  0.
        -12    1    1    2    0    0  0.10085591777E+02  0.33986788972E+02 -0.19908283016E+02  0.40659079168E+02  0.00000000000E+00 0.  1.
         11    1    3    3    0    0  0.14940604227E+01 -0.15102028530E+02  0.30602180993E+01  0.15481227901E+02  0.51100000000E-03 0. -1.
        -11    1    3    3    0    0 -0.62895125524E+01 -0.16104274108E+02  0.21417376053E+02  0.27524709080E+02  0.51100000000E-03 0.  1.
        -12    1    3    3    0    0 -0.52901396474E+01 -0.27804863346E+01 -0.45693111369E+01  0.75229838503E+01  0.00000000000E+00 0.  1.
</event>
<event>
 7    1  0.5855569E-013  0.5052884E+02  0.7816164E-02  0.1300439E+00
        -11   -1    0    0    0    0  0.00000000000E+00  0.00000000000E+00  0.45593999997E+02  0.45594000000E+02  0.51100000000E-03 0. -1.
         11   -1    0    0    0    0 -0.00000000000E+00 -0.00000000000E+00 -0.45593999997E+02  0.45594000000E+02  0.51100000000E-03 0.  1.
    9900012    2    1    2    0    0  0.28627799369E+02 -0.28562088488E+02 -0.42217480298E+01  0.50528844181E+02  0.29999952371E+02 0.  0.
        -12    1    1    2    0    0 -0.28627799369E+02  0.28562088488E+02  0.42217480298E+01  0.40659155819E+02  0.00000000000E+00 0.  1.
         11    1    3    3    0    0 -0.51755380122E+00  0.78161931891E+00  0.14860042615E+00  0.94914332144E+00  0.51100000000E-03 0. -1.
        -11    1    3    3    0    0  0.10728586465E+02 -0.39571590611E+01 -0.12739609505E+02  0.17118975611E+02  0.51100000000E-03 0.  1.
        -12    1    3    3    0    0  0.18416766705E+02 -0.25386548746E+02  0.83692610491E+01  0.32460725248E+02  0.00000000000E+00 0.  1.
</event>
<event>
 7    1  0.5855569E-013  0.5052891E+02  0.7816164E-02  0.1300439E+00
        -11   -1    0    0    0    0  0.00000000000E+00  0.00000000000E+00  0.45593999997E+02  0.45594000000E+02  0.51100000000E-03 0.  1.
         11   -1    0    0    0    0 -0.00000000000E+00 -0.00000000000E+00 -0.45593999997E+02  0.45594000000E+02  0.51100000000E-03 0. -1.
    9900012    2    1    2    0    0 -0.36937244789E+01 -0.90904181656E+01 -0.39457352518E+02  0.50528905437E+02  0.30000138567E+02 0.  0.
        -12    1    1    2    0    0  0.36937244789E+01  0.90904181656E+01  0.39457352518E+02  0.40659094563E+02  0.00000000000E+00 0.  1.
         11    1    3    3    0    0  0.42156001296E+00 -0.17667259543E+01 -0.10431839857E+02  0.10588782579E+02  0.51100000000E-03 0. -1.
        -11    1    3    3    0    0  0.64197444914E+01 -0.13492475968E+02 -0.18804701313E+02  0.24018260112E+02  0.51100000000E-03 0.  1.
        -12    1    3    3    0    0 -0.10535028983E+02  0.61687837563E+01 -0.10220811348E+02  0.15921862747E+02  0.00000000000E+00 0.  1.
</event>
<event>
 7    1  0.5855569E-013  0.5052891E+02  0.7816164E-02  0.1300439E+00
        -11   -1    0    0    0    0  0.00000000000E+00  0.00000000000E+00  0.45593999997E+02  0.45594000000E+02  0.51100000000E-03 0. -1.
         11   -1    0    0    0    0 -0.00000000000E+00 -0.00000000000E+00 -0.45593999997E+02  0.45594000000E+02  0.51100000000E-03 0.  1.
    9900012    2    1    2    0    0 -0.36589466120E+02 -0.16829350615E+02  0.55808198341E+01  0.50528909712E+02  0.30000151559E+02 0.  0.
        -12    1    1    2    0    0  0.36589466120E+02  0.16829350615E+02 -0.55808198341E+01  0.40659090288E+02  0.00000000000E+00 0.  1.
         11    1    3    3    0    0 -0.23026127302E+01 -0.87986108587E+01  0.65148370932E+01  0.11187523454E+02  0.51100000000E-03 0. -1.
        -11    1    3    3    0    0  0.20570606360E+01 -0.91852510631E+00 -0.48977974436E+00  0.23054438380E+01  0.51100000000E-03 0.  1.
        -12    1    3    3    0    0 -0.36343914025E+02 -0.71122146503E+01 -0.44423751478E+00  0.37035942419E+02  0.00000000000E+00 0.  1.
</event>
<event>
 7    1  0.5855569E-013  0.5052886E+02  0.7816164E-02  0.1300439E+00
        -11   -1    0    0    0    0  0.00000000000E+00  0.00000000000E+00  0.45593999997E+02  0.45594000000E+02  0.51100000000E-03 0.  1.
         11   -1    0    0    0    0 -0.00000000000E+00 -0.00000000000E+00 -0.45593999997E+02  0.45594000000E+02  0.51100000000E-03 0. -1.
    9900012    2    1    2    0    0 -0.21002229408E+02 -0.18282164113E+02 -0.29628267203E+02  0.50528863484E+02  0.30000011046E+02 0.  0.
        -12    1    1    2    0    0  0.21002229408E+02  0.18282164113E+02  0.29628267203E+02  0.40659136516E+02  0.00000000000E+00 0.  1.
         11    1    3    3    0    0 -0.81085565650E+00 -0.54947856014E+01  0.99206804462E+00  0.56421941625E+01  0.51100000000E-03 0. -1.
        -11    1    3    3    0    0  0.95447200136E+00  0.37389241382E+00  0.29285514451E+01  0.31027771700E+01  0.51100000000E-03 0.  1.
         12    1    3    3    0    0 -0.21145845753E+02 -0.13161270926E+02 -0.33548886693E+02  0.41783892151E+02  0.00000000000E+00 0. -1.
</event>
<event>
 7    1  0.5855569E-013  0.5052886E+02  0.7816164E-02  0.1300439E+00
        -11   -1    0    0    0    0  0.00000000000E+00  0.00000000000E+00  0.45593999997E+02  0.45594000000E+02  0.51100000000E-03 0.  1.
         11   -1    0    0    0    0 -0.00000000000E+00 -0.00000000000E+00 -0.45593999997E+02  0.45594000000E+02  0.51100000000E-03 0. -1.
    9900012    2    1    2    0    0  0.78104140230E+01  0.16135449605E+02 -0.36493974216E+02  0.50528862586E+02  0.30000008316E+02 0.  0.
        -12    1    1    2    0    0 -0.78104140230E+01 -0.16135449605E+02  0.36493974216E+02  0.40659137414E+02  0.00000000000E+00 0.  1.
         11    1    3    3    0    0  0.17171669160E+01  0.77772763708E+01 -0.31126941389E+02  0.32129755220E+02  0.51100000000E-03 0. -1.
        -11    1    3    3    0    0 -0.29454372508E+01  0.18314271915E+01 -0.63204799730E+01  0.72095903841E+01  0.51100000000E-03 0.  1.
        -12    1    3    3    0    0  0.90386843578E+01  0.65267460428E+01  0.95344714618E+00  0.11189516982E+02  0.00000000000E+00 0.  1.
</event>
<event>
 7    1  0.5855569E-013  0.5052886E+02  0.7816164E-02  0.1300439E+00
        -11   -1    0    0    0    0  0.00000000000E+00  0.00000000000E+00  0.45593999997E+02  0.45594000000E+02  0.51100000000E-03 0.  1.
         11   -1    0    0    0    0 -0.00000000000E+00 -0.00000000000E+00 -0.45593999997E+02  0.45594000000E+02  0.51100000000E-03 0. -1.
    9900012    2    1    2    0    0  0.28074870382E+01 -0.27039049209E+02 -0.30235306177E+02  0.50528857053E+02  0.29999991497E+02 0.  0.
        -12    1    1    2    0    0 -0.28074870382E+01  0.27039049209E+02  0.30235306177E+02  0.40659142947E+02  0.00000000000E+00 0.  1.
         11    1    3    3    0    0 -0.80056462510E+01 -0.11874529386E+02 -0.56646101386E+01  0.15400734668E+02  0.51100000000E-03 0. -1.
        -11    1    3    3    0    0 -0.33444433041E+01 -0.81502878617E+01 -0.12266983415E+02  0.15102694316E+02  0.51100000000E-03 0.  1.
        -12    1    3    3    0    0  0.14157576593E+02 -0.70142319612E+01 -0.12303712624E+02  0.20025428069E+02  0.00000000000E+00 0.  1.
</event>
<event>
 7    1  0.5855569E-013  0.5052885E+02  0.7816164E-02  0.1300439E+00
        -11   -1    0    0    0    0  0.00000000000E+00  0.00000000000E+00  0.45593999997E+02  0.45594000000E+02  0.51100000000E-03 0. -1.
         11   -1    0    0    0    0 -0.00000000000E+00 -0.00000000000E+00 -0.45593999997E+02  0.45594000000E+02  0.51100000000E-03 0.  1.
    9900012    2    1    2    0    0  0.34767300530E+02 -0.20065715206E+02 -0.64628235404E+01  0.50528853416E+02  0.29999980442E+02 0.  0.
        -12    1    1    2    0    0 -0.34767300530E+02  0.20065715206E+02  0.64628235404E+01  0.40659146584E+02  0.00000000000E+00 0.  1.
         11    1    3    3    0    0  0.40908101243E+01 -0.12776071554E+02 -0.72761612173E+01  0.15261233703E+02  0.51100000000E-03 0. -1.
        -11    1    3    3    0    0  0.13750932843E+01  0.38439122804E+00 -0.43166206284E+01  0.45466308479E+01  0.51100000000E-03 0.  1.
         12    1    3    3    0    0  0.29301397121E+02 -0.76740348806E+01  0.51299583053E+01  0.30720988864E+02  0.00000000000E+00 0. -1.
</event>
<event>
 7    1  0.5855569E-013  0.5052886E+02  0.7816164E-02  0.1300439E+00
        -11   -1    0    0    0    0  0.00000000000E+00  0.00000000000E+00  0.45593999997E+02  0.45594000000E+02  0.51100000000E-03 0.  1.
         11   -1    0    0    0    0 -0.00000000000E+00 -0.00000000000E+00 -0.45593999997E+02  0.45594000000E+02  0.51100000000E-03 0. -1.
    9900012    2    1    2    0    0 -0.10730000468E+02 -0.16977944144E+02 -0.35352261109E+02  0.50528857573E+02  0.29999993079E+02 0.  0.
        -12    1    1    2    0    0  0.10730000468E+02  0.16977944144E+02  0.35352261109E+02  0.40659142427E+02  0.00000000000E+00 0.  1.
         11    1    3    3    0    0  0.16345276388E+01 -0.69353961076E+01 -0.11512060400E+02  0.13538793694E+02  0.51100000000E-03 0. -1.
        -11    1    3    3    0    0  0.69037044848E+01 -0.21576140384E+01 -0.41738840291E+01  0.83509126508E+01  0.51100000000E-03 0.  1.
         12    1    3    3    0    0 -0.19268232591E+02 -0.78849339982E+01 -0.19666316680E+02  0.28639151229E+02  0.00000000000E+00 0. -1.
</event>
<event>
 7    1  0.5855569E-013  0.5052886E+02  0.7816164E-02  0.1300439E+00
        -11   -1    0    0    0    0  0.00000000000E+00  0.00000000000E+00  0.45593999997E+02  0.45594000000E+02  0.51100000000E-03 0. -1.
         11   -1    0    0    0    0 -0.00000000000E+00 -0.00000000000E+00 -0.45593999997E+02  0.45594000000E+02  0.51100000000E-03 0.  1.
    9900012    2    1    2    0    0  0.40156304732E+02  0.38365826448E+00  0.63631548131E+01  0.50528859053E+02  0.29999997578E+02 0.  0.
        -12    1    1    2    0    0 -0.40156304732E+02 -0.38365826448E+00 -0.63631548131E+01  0.40659140947E+02  0.00000000000E+00 0.  1.
         11    1    3    3    0    0  0.27116889985E+02  0.35057073045E+01  0.10564900958E+02  0.29312673687E+02  0.51100000000E-03 0. -1.
        -11    1    3    3    0    0  0.34795495932E+01  0.60707039252E+01  0.79775312076E+00  0.70425224048E+01  0.51100000000E-03 0.  1.
        -12    1    3    3    0    0  0.95598651536E+01 -0.91927529652E+01 -0.49994992657E+01  0.14173662961E+02  0.00000000000E+00 0.  1.
</event>
<event>
 7    1  0.5855569E-013  0.5052885E+02  0.7816164E-02  0.1300439E+00
        -11   -1    0    0    0    0  0.00000000000E+00  0.00000000000E+00  0.45593999997E+02  0.45594000000E+02  0.51100000000E-03 0.  1.
         11   -1    0    0    0    0 -0.00000000000E+00 -0.00000000000E+00 -0.45593999997E+02  0.45594000000E+02  0.51100000000E-03 0. -1.
    9900012    2    1    2    0    0 -0.13750646889E+02 -0.21870876950E+02 -0.31396666648E+02  0.50528853119E+02  0.29999979542E+02 0.  0.
        -12    1    1    2    0    0  0.13750646889E+02  0.21870876950E+02  0.31396666648E+02  0.40659146881E+02  0.00000000000E+00 0.  1.
         11    1    3    3    0    0 -0.92810965420E+01 -0.13542120599E+02 -0.20016819001E+02  0.25888237223E+02  0.51100000000E-03 0. -1.
        -11    1    3    3    0    0 -0.82346724110E+01 -0.13272592304E+02 -0.86294361307E+01  0.17844850921E+02  0.51100000000E-03 0.  1.
        -12    1    3    3    0    0  0.37651220645E+01  0.49438359529E+01 -0.27504115166E+01  0.67957649754E+01  0.00000000000E+00 0.  1.
</event>
<event>
 7    1  0.5855569E-013  0.5052887E+02  0.7816164E-02  0.1300439E+00
        -11   -1    0    0    0    0  0.00000000000E+00  0.00000000000E+00  0.45593999997E+02  0.45594000000E+02  0.51100000000E-03 0.  1.
         11   -1    0    0    0    0 -0.00000000000E+00 -0.00000000000E+00 -0.45593999997E+02  0.45594000000E+02  0.51100000000E-03 0. -1.
    9900012    2    1    2    0    0 -0.21650649079E+02  0.34379228035E+02  0.15756363427E+01  0.50528873648E+02  0.30000041941E+02 0.  0.
        -12    1    1    2    0    0  0.21650649079E+02 -0.34379228035E+02 -0.15756363427E+01  0.40659126352E+02  0.00000000000E+00 0.  1.
         11    1    3    3    0    0 -0.37776787784E+01  0.13967696443E+02 -0.40017243004E+00  0.14475066118E+02  0.51100000000E-03 0. -1.
        -11    1    3    3    0    0 -0.93943347166E+01  0.24631856169E+02  0.29772104822E+01  0.26530089438E+02  0.51100000000E-03 0.  1.
        -12    1    3    3    0    0 -0.84786355845E+01 -0.42203245773E+01 -0.10014017094E+01  0.95237180920E+01  0.00000000000E+00 0.  1.
</event>
<event>
 7    1  0.5855569E-013  0.5052887E+02  0.7816164E-02  0.1300439E+00
        -11   -1    0    0    0    0  0.00000000000E+00  0.00000000000E+00  0.45593999997E+02  0.45594000000E+02  0.51100000000E-03 0.  1.
         11   -1    0    0    0    0 -0.00000000000E+00 -0.00000000000E+00 -0.45593999997E+02  0.45594000000E+02  0.51100000000E-03 0. -1.
    9900012    2    1    2    0    0  0.23467074652E+02 -0.25471433582E+02 -0.21299461286E+02  0.50528873441E+02  0.30000041312E+02 0.  0.
        -12    1    1    2    0    0 -0.23467074652E+02  0.25471433582E+02  0.21299461286E+02  0.40659126559E+02  0.00000000000E+00 0.  1.
         11    1    3    3    0    0  0.80195662067E+01 -0.13460506317E+02 -0.40301126489E+01  0.16178395492E+02  0.51100000000E-03 0. -1.
        -11    1    3    3    0    0 -0.50089919668E+01 -0.52039603779E+01 -0.82920407088E+01  0.10996778779E+02  0.51100000000E-03 0.  1.
        -12    1    3    3    0    0  0.20456500412E+02 -0.68069668871E+01 -0.89773079278E+01  0.23353699170E+02  0.00000000000E+00 0.  1.
</event>
<event>
 7    1  0.5855569E-013  0.5052886E+02  0.7816164E-02  0.1300439E+00
        -11   -1    0    0    0    0  0.00000000000E+00  0.00000000000E+00  0.45593999997E+02  0.45594000000E+02  0.51100000000E-03 0. -1.
         11   -1    0    0    0    0 -0.00000000000E+00 -0.00000000000E+00 -0.45593999997E+02  0.45594000000E+02  0.51100000000E-03 0.  1.
    9900012    2    1    2    0    0  0.18770335709E+02 -0.19858530299E+02  0.30107784162E+02  0.50528863322E+02  0.30000010552E+02 0.  0.
        -12    1    1    2    0    0 -0.18770335709E+02  0.19858530299E+02 -0.30107784162E+02  0.40659136678E+02  0.00000000000E+00 0.  1.
         11    1    3    3    0    0  0.47321625164E+01 -0.22421447681E+01  0.76958717235E+01  0.93084379511E+01  0.51100000000E-03 0. -1.
        -11    1    3    3    0    0  0.11309584402E+02 -0.23082093831E+02  0.23716502716E+02  0.34973736665E+02  0.51100000000E-03 0.  1.
        -12    1    3    3    0    0  0.27285887903E+01  0.54657082992E+01 -0.13045902772E+01  0.62466887060E+01  0.00000000000E+00 0.  1.
</event>
<event>
 7    1  0.5855569E-013  0.5052886E+02  0.7816164E-02  0.1300439E+00
        -11   -1    0    0    0    0  0.00000000000E+00  0.00000000000E+00  0.45593999997E+02  0.45594000000E+02  0.51100000000E-03 0.  1.
         11   -1    0    0    0    0 -0.00000000000E+00 -0.00000000000E+00 -0.45593999997E+02  0.45594000000E+02  0.51100000000E-03 0. -1.
    9900012    2    1    2    0    0  0.88958780210E+01 -0.19027223067E+02 -0.34813703122E+02  0.50528858488E+02  0.29999995861E+02 0.  0.
        -12    1    1    2    0    0 -0.88958780210E+01  0.19027223067E+02  0.34813703122E+02  0.40659141512E+02  0.00000000000E+00 0.  1.
         11    1    3    3    0    0  0.35188497764E+01 -0.76949772529E+01 -0.14524960749E+02  0.16809802607E+02  0.51100000000E-03 0. -1.
        -11    1    3    3    0    0 -0.61705810457E+01 -0.11197187124E+02 -0.17783256700E+02  0.21901992810E+02  0.51100000000E-03 0.  1.
        -12    1    3    3    0    0  0.11547609290E+02 -0.13505869031E+00 -0.25054856735E+01  0.11817063071E+02  0.00000000000E+00 0.  1.
</event>
<event>
 7    1  0.5855569E-013  0.5052892E+02  0.7816164E-02  0.1300439E+00
        -11   -1    0    0    0    0  0.00000000000E+00  0.00000000000E+00  0.45593999997E+02  0.45594000000E+02  0.51100000000E-03 0. -1.
         11   -1    0    0    0    0 -0.00000000000E+00 -0.00000000000E+00 -0.45593999997E+02  0.45594000000E+02  0.51100000000E-03 0.  1.
    9900012    2    1    2    0    0 -0.39015159284E+02 -0.47031659562E+01  0.10433530627E+02  0.50528917554E+02  0.30000175397E+02 0.  0.
        -12    1    1    2    0    0  0.39015159284E+02  0.47031659562E+01 -0.10433530627E+02  0.40659082446E+02  0.00000000000E+00 0.  1.
         11    1    3    3    0    0 -0.22222067096E+02 -0.22615877865E+01  0.16880865318E+02  0.27998190289E+02  0.51100000000E-03 0.  1.
        -11    1    3    3    0    0 -0.10813031021E+02  0.36670643543E+01  0.62631582567E+00  0.11435089532E+02  0.51100000000E-03 0. -1.
        -12    1    3    3    0    0 -0.59800611681E+01 -0.61086425240E+01 -0.70736505167E+01  0.11095637733E+02  0.00000000000E+00 0.  1.
</event>
<event>
 7    1  0.5855569E-013  0.5052885E+02  0.7816164E-02  0.1300439E+00
        -11   -1    0    0    0    0  0.00000000000E+00  0.00000000000E+00  0.45593999997E+02  0.45594000000E+02  0.51100000000E-03 0.  1.
         11   -1    0    0    0    0 -0.00000000000E+00 -0.00000000000E+00 -0.45593999997E+02  0.45594000000E+02  0.51100000000E-03 0. -1.
    9900012    2    1    2    0    0  0.19768595926E+02  0.35005033303E+01 -0.35356974860E+02  0.50528848758E+02  0.29999966286E+02 0.  0.
        -12    1    1    2    0    0 -0.19768595926E+02 -0.35005033303E+01  0.35356974860E+02  0.40659151242E+02  0.00000000000E+00 0.  1.
         11    1    3    3    0    0  0.78513989751E+01  0.12999023421E+02 -0.18147803202E+02  0.23663512780E+02  0.51100000000E-03 0. -1.
        -11    1    3    3    0    0  0.83983307561E+01 -0.12142376526E+01 -0.12973475473E+01  0.85842555580E+01  0.51100000000E-03 0.  1.
         12    1    3    3    0    0  0.35188661945E+01 -0.82842824379E+01 -0.15911824111E+02  0.18281080420E+02  0.00000000000E+00 0. -1.
</event>
<event>
 7    1  0.5855569E-013  0.5052886E+02  0.7816164E-02  0.1300439E+00
        -11   -1    0    0    0    0  0.00000000000E+00  0.00000000000E+00  0.45593999997E+02  0.45594000000E+02  0.51100000000E-03 0. -1.
         11   -1    0    0    0    0 -0.00000000000E+00 -0.00000000000E+00 -0.45593999997E+02  0.45594000000E+02  0.51100000000E-03 0.  1.
    9900012    2    1    2    0    0 -0.19748309511E+02 -0.25546786129E+02  0.24708933573E+02  0.50528863162E+02  0.30000010068E+02 0.  0.
        -12    1    1    2    0    0  0.19748309511E+02  0.25546786129E+02 -0.24708933573E+02  0.40659136838E+02  0.00000000000E+00 0.  1.
         11    1    3    3    0    0 -0.10256456906E+02 -0.36716377164E+00  0.16004530557E+02  0.19012488425E+02  0.51100000000E-03 0. -1.
        -11    1    3    3    0    0 -0.12418175276E+02 -0.16028214663E+02  0.82730129031E+01  0.21898801000E+02  0.51100000000E-03 0.  1.
        -12    1    3    3    0    0  0.29263226708E+01 -0.91514076944E+01  0.43139011228E+00  0.96175737373E+01  0.00000000000E+00 0.  1.
</event>
<event>
 7    1  0.5855569E-013  0.5052887E+02  0.7816164E-02  0.1300439E+00
        -11   -1    0    0    0    0  0.00000000000E+00  0.00000000000E+00  0.45593999997E+02  0.45594000000E+02  0.51100000000E-03 0.  1.
         11   -1    0    0    0    0 -0.00000000000E+00 -0.00000000000E+00 -0.45593999997E+02  0.45594000000E+02  0.51100000000E-03 0. -1.
    9900012    2    1    2    0    0  0.35294160873E+02 -0.18150651810E+02 -0.88340922248E+01  0.50528866484E+02  0.30000020165E+02 0.  0.
        -12    1    1    2    0    0 -0.35294160873E+02  0.18150651810E+02  0.88340922248E+01  0.40659133516E+02  0.00000000000E+00 0.  1.
         11    1    3    3    0    0  0.23762858675E+01 -0.11502103872E+02 -0.10266709671E+01  0.11789791412E+02  0.51100000000E-03 0. -1.
        -11    1    3    3    0    0  0.34915710822E+02 -0.68675028843E+01 -0.85483603421E+01  0.36597048008E+02  0.51100000000E-03 0.  1.
         12    1    3    3    0    0 -0.19978358167E+01  0.21895494635E+00  0.74093908436E+00  0.21420270647E+01  0.00000000000E+00 0. -1.
</event>
<event>
 7    1  0.5855569E-013  0.5052887E+02  0.7816164E-02  0.1300439E+00
        -11   -1    0    0    0    0  0.00000000000E+00  0.00000000000E+00  0.45593999997E+02  0.45594000000E+02  0.51100000000E-03 0. -1.
         11   -1    0    0    0    0 -0.00000000000E+00 -0.00000000000E+00 -0.45593999997E+02  0.45594000000E+02  0.51100000000E-03 0.  1.
    9900012    2    1    2    0    0 -0.20526170597E+01  0.57198485370E+01  0.40202423787E+02  0.50528870860E+02  0.30000033465E+02 0.  0.
        -12    1    1    2    0    0  0.20526170597E+01 -0.57198485370E+01 -0.40202423787E+02  0.40659129140E+02  0.00000000000E+00 0.  1.
         11    1    3    3    0    0 -0.10626188809E+01 -0.59852609657E+00  0.25879990633E+02  0.25908711041E+02  0.51100000000E-03 0. -1.
        -11    1    3    3    0    0 -0.72542899292E+01 -0.18687928849E+01  0.11849623886E+02  0.14018940607E+02  0.51100000000E-03 0.  1.
         12    1    3    3    0    0  0.62642917504E+01  0.81871675184E+01  0.24728092680E+01  0.10601219212E+02  0.00000000000E+00 0. -1.
</event>
<event>
 7    1  0.5855569E-013  0.5052894E+02  0.7816164E-02  0.1300439E+00
        -11   -1    0    0    0    0  0.00000000000E+00  0.00000000000E+00  0.45593999997E+02  0.45594000000E+02  0.51100000000E-03 0.  1.
         11   -1    0    0    0    0 -0.00000000000E+00 -0.00000000000E+00 -0.45593999997E+02  0.45594000000E+02  0.51100000000E-03 0. -1.
    9900012    2    1    2    0    0 -0.22745531919E+02  0.57449290939E+01 -0.33208371458E+02  0.50528937450E+02  0.30000235871E+02 0.  0.
        -12    1    1    2    0    0  0.22745531919E+02 -0.57449290939E+01  0.33208371458E+02  0.40659062550E+02  0.00000000000E+00 0.  1.
         11    1    3    3    0    0 -0.35164350111E+01  0.96989544908E+00  0.89806933103E+00  0.37566662287E+01  0.51100000000E-03 0. -1.
        -11    1    3    3    0    0 -0.15378145905E+02 -0.68866609879E+01 -0.96801925946E+01  0.19432436799E+02  0.51100000000E-03 0.  1.
        -12    1    3    3    0    0 -0.38509510033E+01  0.11661694633E+02 -0.24426248194E+02  0.27339834421E+02  0.00000000000E+00 0.  1.
</event>
<event>
 7    1  0.5855569E-013  0.5052886E+02  0.7816164E-02  0.1300439E+00
        -11   -1    0    0    0    0  0.00000000000E+00  0.00000000000E+00  0.45593999997E+02  0.45594000000E+02  0.51100000000E-03 0. -1.
         11   -1    0    0    0    0 -0.00000000000E+00 -0.00000000000E+00 -0.45593999997E+02  0.45594000000E+02  0.51100000000E-03 0.  1.
    9900012    2    1    2    0    0  0.27699841297E+02  0.18476108807E+02  0.23334905887E+02  0.50528860347E+02  0.30000001512E+02 0.  0.
        -12    1    1    2    0    0 -0.27699841297E+02 -0.18476108807E+02 -0.23334905887E+02  0.40659139653E+02  0.00000000000E+00 0.  1.
         11    1    3    3    0    0  0.26017734660E+02  0.17081629358E+02  0.25149319022E+02  0.40014907546E+02  0.51100000000E-03 0. -1.
        -11    1    3    3    0    0  0.87731781277E+00  0.45736966973E+01  0.23474470069E+01  0.52152560565E+01  0.51100000000E-03 0.  1.
        -12    1    3    3    0    0  0.80478882419E+00 -0.31792172477E+01 -0.41618601419E+01  0.52986967454E+01  0.00000000000E+00 0.  1.
</event>
<event>
 7    1  0.5855569E-013  0.5052886E+02  0.7816164E-02  0.1300439E+00
        -11   -1    0    0    0    0  0.00000000000E+00  0.00000000000E+00  0.45593999997E+02  0.45594000000E+02  0.51100000000E-03 0.  1.
         11   -1    0    0    0    0 -0.00000000000E+00 -0.00000000000E+00 -0.45593999997E+02  0.45594000000E+02  0.51100000000E-03 0. -1.
    9900012    2    1    2    0    0 -0.11480995812E+02 -0.42378657364E+01 -0.38773608768E+02  0.50528861941E+02  0.30000006355E+02 0.  0.
        -12    1    1    2    0    0  0.11480995812E+02  0.42378657364E+01  0.38773608768E+02  0.40659138059E+02  0.00000000000E+00 0.  1.
         11    1    3    3    0    0 -0.32997714366E+01 -0.63978602711E+01 -0.12310348423E+02  0.14260637649E+02  0.51100000000E-03 0. -1.
        -11    1    3    3    0    0  0.25924349001E+01 -0.89533656085E+01 -0.97634963852E+01  0.13498493855E+02  0.51100000000E-03 0.  1.
         12    1    3    3    0    0 -0.10773659276E+02  0.11113360143E+02 -0.16699763960E+02  0.22769730437E+02  0.00000000000E+00 0. -1.
</event>
<event>
 7    1  0.5855569E-013  0.5052886E+02  0.7816164E-02  0.1300439E+00
        -11   -1    0    0    0    0  0.00000000000E+00  0.00000000000E+00  0.45593999997E+02  0.45594000000E+02  0.51100000000E-03 0. -1.
         11   -1    0    0    0    0 -0.00000000000E+00 -0.00000000000E+00 -0.45593999997E+02  0.45594000000E+02  0.51100000000E-03 0.  1.
    9900012    2    1    2    0    0 -0.23635364146E+02  0.21482894849E+02  0.25159891420E+02  0.50528863934E+02  0.30000012412E+02 0.  0.
        -12    1    1    2    0    0  0.23635364146E+02 -0.21482894849E+02 -0.25159891420E+02  0.40659136066E+02  0.00000000000E+00 0.  1.
         11    1    3    3    0    0 -0.12487550404E+01 -0.76018629812E+00 -0.11569636669E+01  0.18643598222E+01  0.51100000000E-03 0. -1.
        -11    1    3    3    0    0  0.39956348665E+01  0.96212023112E+01  0.19523755228E+01  0.10599264236E+02  0.51100000000E-03 0.  1.
         12    1    3    3    0    0 -0.26382243972E+02  0.12621878836E+02  0.24364479564E+02  0.38065239875E+02  0.00000000000E+00 0. -1.
</event>
<event>
 7    1  0.5855569E-013  0.5052886E+02  0.7816164E-02  0.1300439E+00
        -11   -1    0    0    0    0  0.00000000000E+00  0.00000000000E+00  0.45593999997E+02  0.45594000000E+02  0.51100000000E-03 0.  1.
         11   -1    0    0    0    0 -0.00000000000E+00 -0.00000000000E+00 -0.45593999997E+02  0.45594000000E+02  0.51100000000E-03 0. -1.
    9900012    2    1    2    0    0  0.26014569296E+01 -0.15284399223E+02 -0.37587036696E+02  0.50528858772E+02  0.29999996724E+02 0.  0.
        -12    1    1    2    0    0 -0.26014569296E+01  0.15284399223E+02  0.37587036696E+02  0.40659141228E+02  0.00000000000E+00 0.  1.
         11    1    3    3    0    0  0.59596757252E+01 -0.12815366113E+02 -0.12883564418E+02  0.19124266672E+02  0.51100000000E-03 0. -1.
        -11    1    3    3    0    0 -0.45704894521E+00 -0.75457907413E+01 -0.18060522038E+01  0.77723662081E+01  0.51100000000E-03 0.  1.
        -12    1    3    3    0    0 -0.29011698504E+01  0.50767576316E+01 -0.22897420074E+02  0.23632225892E+02  0.00000000000E+00 0.  1.
</event>
<event>
 7    1  0.5855569E-013  0.5052898E+02  0.7816164E-02  0.1300438E+00
        -11   -1    0    0    0    0  0.00000000000E+00  0.00000000000E+00  0.45593999997E+02  0.45594000000E+02  0.51100000000E-03 0. -1.
         11   -1    0    0    0    0 -0.00000000000E+00 -0.00000000000E+00 -0.45593999997E+02  0.45594000000E+02  0.51100000000E-03 0.  1.
    9900012    2    1    2    0    0  0.21828692988E+02 -0.31131667652E+02  0.14404280933E+02  0.50528980367E+02  0.30000366320E+02 0.  0.
        -12    1    1    2    0    0 -0.21828692988E+02  0.31131667652E+02 -0.14404280933E+02  0.40659019633E+02  0.00000000000E+00 0.  1.
         11    1    3    3    0    0  0.53057618085E+01  0.26373392176E-01  0.69385339305E+01  0.87347041902E+01  0.51100000000E-03 0. -1.
        -11    1    3    3    0    0  0.96566304698E+01 -0.63477339177E+01  0.10823547166E+02  0.15833300712E+02  0.51100000000E-03 0.  1.
        -12    1    3    3    0    0  0.68663007096E+01 -0.24810307126E+02 -0.33578001632E+01  0.25960975465E+02  0.00000000000E+00 0.  1.
</event>
<event>
 7    1  0.5855569E-013  0.5052890E+02  0.7816164E-02  0.1300439E+00
        -11   -1    0    0    0    0  0.00000000000E+00  0.00000000000E+00  0.45593999997E+02  0.45594000000E+02  0.51100000000E-03 0.  1.
         11   -1    0    0    0    0 -0.00000000000E+00 -0.00000000000E+00 -0.45593999997E+02  0.45594000000E+02  0.51100000000E-03 0. -1.
    9900012    2    1    2    0    0  0.37011588876E+02  0.14377436440E+02 -0.87518180578E+01  0.50528896357E+02  0.30000110968E+02 0.  0.
        -12    1    1    2    0    0 -0.37011588876E+02 -0.14377436440E+02  0.87518180578E+01  0.40659103643E+02  0.00000000000E+00 0.  1.
         11    1    3    3    0    0  0.51330820375E+01 -0.22856782964E+01 -0.13338135054E+01  0.57751117051E+01  0.51100000000E-03 0.  1.
        -11    1    3    3    0    0  0.11847610135E+02  0.14206428484E+02  0.71837700031E+01  0.19844269397E+02  0.51100000000E-03 0. -1.
         12    1    3    3    0    0  0.20030896703E+02  0.24566862519E+01 -0.14601774555E+02  0.24909515255E+02  0.00000000000E+00 0. -1.
</event>
<event>
 7    1  0.5855569E-013  0.5052888E+02  0.7816164E-02  0.1300439E+00
        -11   -1    0    0    0    0  0.00000000000E+00  0.00000000000E+00  0.45593999997E+02  0.45594000000E+02  0.51100000000E-03 0.  1.
         11   -1    0    0    0    0 -0.00000000000E+00 -0.00000000000E+00 -0.45593999997E+02  0.45594000000E+02  0.51100000000E-03 0. -1.
    9900012    2    1    2    0    0 -0.19913616097E+02  0.17437439381E+02 -0.30863365186E+02  0.50528884063E+02  0.30000073598E+02 0.  0.
        -12    1    1    2    0    0  0.19913616097E+02 -0.17437439381E+02  0.30863365186E+02  0.40659115937E+02  0.00000000000E+00 0.  1.
         11    1    3    3    0    0 -0.11698224369E+02  0.11309309354E+01  0.26695299262E+00  0.11755795266E+02  0.51100000000E-03 0. -1.
        -11    1    3    3    0    0 -0.38283624084E+01  0.94121489352E+01 -0.48643648705E+01  0.11265298583E+02  0.51100000000E-03 0.  1.
         12    1    3    3    0    0 -0.43870293190E+01  0.68943595100E+01 -0.26265953308E+02  0.27507790214E+02  0.00000000000E+00 0. -1.
</event>
<event>
 7    1  0.5855569E-013  0.5052884E+02  0.7816164E-02  0.1300439E+00
        -11   -1    0    0    0    0  0.00000000000E+00  0.00000000000E+00  0.45593999997E+02  0.45594000000E+02  0.51100000000E-03 0. -1.
         11   -1    0    0    0    0 -0.00000000000E+00 -0.00000000000E+00 -0.45593999997E+02  0.45594000000E+02  0.51100000000E-03 0.  1.
    9900012    2    1    2    0    0 -0.30218092909E+02 -0.26186183782E+02 -0.73700916735E+01  0.50528836071E+02  0.29999927720E+02 0.  0.
        -12    1    1    2    0    0  0.30218092909E+02  0.26186183782E+02  0.73700916735E+01  0.40659163929E+02  0.00000000000E+00 0.  1.
         11    1    3    3    0    0 -0.66537834139E+01 -0.69774492824E+01 -0.26559852746E+01  0.10000594495E+02  0.51100000000E-03 0. -1.
        -11    1    3    3    0    0 -0.99275919796E+01 -0.17868599301E+02  0.78894476987E+01  0.21910894750E+02  0.51100000000E-03 0.  1.
        -12    1    3    3    0    0 -0.13636717516E+02 -0.13401351991E+01 -0.12603554098E+02  0.18617346826E+02  0.00000000000E+00 0.  1.
</event>
<event>
 7    1  0.5855569E-013  0.5052887E+02  0.7816164E-02  0.1300439E+00
        -11   -1    0    0    0    0  0.00000000000E+00  0.00000000000E+00  0.45593999997E+02  0.45594000000E+02  0.51100000000E-03 0.  1.
         11   -1    0    0    0    0 -0.00000000000E+00 -0.00000000000E+00 -0.45593999997E+02  0.45594000000E+02  0.51100000000E-03 0. -1.
    9900012    2    1    2    0    0 -0.27973744531E+02  0.91127624000E+01 -0.28064063923E+02  0.50528874265E+02  0.30000043817E+02 0.  0.
        -12    1    1    2    0    0  0.27973744531E+02 -0.91127624000E+01  0.28064063923E+02  0.40659125735E+02  0.00000000000E+00 0.  1.
         11    1    3    3    0    0  0.27748019768E+01 -0.66532006710E+00 -0.17519264629E+01  0.33483463672E+01  0.51100000000E-03 0. -1.
        -11    1    3    3    0    0 -0.44335761529E+01 -0.22297405253E+01  0.31617770837E+01  0.58843160096E+01  0.51100000000E-03 0.  1.
         12    1    3    3    0    0 -0.26314970355E+02  0.12007822992E+02 -0.29473914544E+02  0.41296211888E+02  0.00000000000E+00 0. -1.
</event>
<event>
 7    1  0.5855569E-013  0.5052886E+02  0.7816164E-02  0.1300439E+00
        -11   -1    0    0    0    0  0.00000000000E+00  0.00000000000E+00  0.45593999997E+02  0.45594000000E+02  0.51100000000E-03 0. -1.
         11   -1    0    0    0    0 -0.00000000000E+00 -0.00000000000E+00 -0.45593999997E+02  0.45594000000E+02  0.51100000000E-03 0.  1.
    9900012    2    1    2    0    0 -0.17156369660E+02  0.36854442660E+02 -0.75799506013E+00  0.50528861787E+02  0.30000005889E+02 0.  0.
        -12    1    1    2    0    0  0.17156369660E+02 -0.36854442660E+02  0.75799506013E+00  0.40659138213E+02  0.00000000000E+00 0.  1.
         11    1    3    3    0    0 -0.59396745411E+01  0.19497814405E+02 -0.64726767002E+01  0.21385510145E+02  0.51100000000E-03 0. -1.
        -11    1    3    3    0    0  0.25028309154E+01  0.53688171077E+01 -0.52195344648E+01  0.78950554157E+01  0.51100000000E-03 0.  1.
        -12    1    3    3    0    0 -0.13719526035E+02  0.11987811147E+02  0.10934216105E+02  0.21248296227E+02  0.00000000000E+00 0.  1.
</event>
<event>
 7    1  0.5855569E-013  0.5052887E+02  0.7816164E-02  0.1300439E+00
        -11   -1    0    0    0    0  0.00000000000E+00  0.00000000000E+00  0.45593999997E+02  0.45594000000E+02  0.51100000000E-03 0.  1.
         11   -1    0    0    0    0 -0.00000000000E+00 -0.00000000000E+00 -0.45593999997E+02  0.45594000000E+02  0.51100000000E-03 0. -1.
    9900012    2    1    2    0    0 -0.15500027296E+02  0.34884474104E+02 -0.13999565633E+02  0.50528865508E+02  0.30000017199E+02 0.  0.
        -12    1    1    2    0    0  0.15500027296E+02 -0.34884474104E+02  0.13999565633E+02  0.40659134492E+02  0.00000000000E+00 0.  1.
         11    1    3    3    0    0 -0.27178519089E+01  0.13549455899E+02 -0.22531422706E+01  0.14001825757E+02  0.51100000000E-03 0. -1.
        -11    1    3    3    0    0 -0.13753786613E+02  0.77854144690E+01  0.34160007360E+01  0.16169365663E+02  0.51100000000E-03 0.  1.
        -12    1    3    3    0    0  0.97161122572E+00  0.13549603736E+02 -0.15162424098E+02  0.20357674089E+02  0.00000000000E+00 0.  1.
</event>
<event>
 7    1  0.5855569E-013  0.5052887E+02  0.7816164E-02  0.1300439E+00
        -11   -1    0    0    0    0  0.00000000000E+00  0.00000000000E+00  0.45593999997E+02  0.45594000000E+02  0.51100000000E-03 0.  1.
         11   -1    0    0    0    0 -0.00000000000E+00 -0.00000000000E+00 -0.45593999997E+02  0.45594000000E+02  0.51100000000E-03 0. -1.
    9900012    2    1    2    0    0 -0.78346492092E+01 -0.39747517766E+02  0.34521994254E+01  0.50528873378E+02  0.30000041120E+02 0.  0.
        -12    1    1    2    0    0  0.78346492092E+01  0.39747517766E+02 -0.34521994254E+01  0.40659126622E+02  0.00000000000E+00 0.  1.
         11    1    3    3    0    0 -0.24669864248E+01  0.54587564746E+00 -0.16087034067E+01  0.29953178720E+01  0.51100000000E-03 0. -1.
        -11    1    3    3    0    0 -0.49424620451E+01 -0.28785249180E+01  0.81857578555E+01  0.99860136542E+01  0.51100000000E-03 0.  1.
        -12    1    3    3    0    0 -0.42520073931E+00 -0.37414868495E+02 -0.31248550235E+01  0.37547541852E+02  0.00000000000E+00 0.  1.
</event>
<event>
 7    1  0.5855569E-013  0.5052888E+02  0.7816164E-02  0.1300439E+00
        -11   -1    0    0    0    0  0.00000000000E+00  0.00000000000E+00  0.45593999997E+02  0.45594000000E+02  0.51100000000E-03 0. -1.
         11   -1    0    0    0    0 -0.00000000000E+00 -0.00000000000E+00 -0.45593999997E+02  0.45594000000E+02  0.51100000000E-03 0.  1.
    9900012    2    1    2    0    0  0.11248251680E+02  0.25983706508E+02  0.29180268249E+02  0.50528877716E+02  0.30000054307E+02 0.  0.
        -12    1    1    2    0    0 -0.11248251680E+02 -0.25983706508E+02 -0.29180268249E+02  0.40659122284E+02  0.00000000000E+00 0.  1.
         11    1    3    3    0    0 -0.53308995174E+01  0.10455277897E+02  0.12837191777E+02  0.17393240599E+02  0.51100000000E-03 0. -1.
        -11    1    3    3    0    0  0.13798231217E+01  0.83751114689E+01  0.13720333919E+02  0.16133628453E+02  0.51100000000E-03 0.  1.
        -12    1    3    3    0    0  0.15199328076E+02  0.71533171423E+01  0.26227425539E+01  0.17002008664E+02  0.00000000000E+00 0.  1.
</event>
<event>
 7    1  0.5855569E-013  0.5052885E+02  0.7816164E-02  0.1300439E+00
        -11   -1    0    0    0    0  0.00000000000E+00  0.00000000000E+00  0.45593999997E+02  0.45594000000E+02  0.51100000000E-03 0.  1.
         11   -1    0    0    0    0 -0.00000000000E+00 -0.00000000000E+00 -0.45593999997E+02  0.45594000000E+02  0.51100000000E-03 0. -1.
    9900012    2    1    2    0    0  0.12192470286E+02 -0.14019117237E+02 -0.36165927289E+02  0.50528852487E+02  0.29999977620E+02 0.  0.
        -12    1    1    2    0    0 -0.12192470286E+02  0.14019117237E+02  0.36165927289E+02  0.40659147513E+02  0.00000000000E+00 0.  1.
         11    1    3    3    0    0  0.10983899073E+02  0.27408487414E+01 -0.29940657307E+01  0.11709941098E+02  0.51100000000E-03 0. -1.
        -11    1    3    3    0    0  0.14197658448E+01  0.54141663437E+00 -0.13528108691E+00  0.15255059028E+01  0.51100000000E-03 0.  1.
         12    1    3    3    0    0 -0.21119463135E+00 -0.17301382613E+02 -0.33036580472E+02  0.37293405486E+02  0.00000000000E+00 0. -1.
</event>
<event>
 7    1  0.5855569E-013  0.5052886E+02  0.7816164E-02  0.1300439E+00
        -11   -1    0    0    0    0  0.00000000000E+00  0.00000000000E+00  0.45593999997E+02  0.45594000000E+02  0.51100000000E-03 0. -1.
         11   -1    0    0    0    0 -0.00000000000E+00 -0.00000000000E+00 -0.45593999997E+02  0.45594000000E+02  0.51100000000E-03 0.  1.
    9900012    2    1    2    0    0 -0.23153724976E+01 -0.28759452503E+02  0.28647842005E+02  0.50528856999E+02  0.29999991333E+02 0.  0.
        -12    1    1    2    0    0  0.23153724976E+01  0.28759452503E+02 -0.28647842005E+02  0.40659143001E+02  0.00000000000E+00 0.  1.
         11    1    3    3    0    0 -0.13769338662E+01 -0.18670861475E+02  0.96902586560E+01  0.21080752552E+02  0.51100000000E-03 0. -1.
        -11    1    3    3    0    0 -0.34533295215E+01 -0.14723672412E+02  0.75988960167E+01  0.16924988479E+02  0.51100000000E-03 0.  1.
        -12    1    3    3    0    0  0.25148908901E+01  0.46350813842E+01  0.11358687332E+02  0.12523115968E+02  0.00000000000E+00 0.  1.
</event>
<event>
 7    1  0.5855569E-013  0.5052886E+02  0.7816164E-02  0.1300439E+00
        -11   -1    0    0    0    0  0.00000000000E+00  0.00000000000E+00  0.45593999997E+02  0.45594000000E+02  0.51100000000E-03 0.  1.
         11   -1    0    0    0    0 -0.00000000000E+00 -0.00000000000E+00 -0.45593999997E+02  0.45594000000E+02  0.51100000000E-03 0. -1.
    9900012    2    1    2    0    0 -0.84832960164E+01 -0.29135905464E+02 -0.27061006828E+02  0.50528863400E+02  0.30000010790E+02 0.  0.
        -12    1    1    2    0    0  0.84832960164E+01  0.29135905464E+02  0.27061006828E+02  0.40659136600E+02  0.00000000000E+00 0.  1.
         11    1    3    3    0    0  0.15204972888E+01 -0.11053158140E+02 -0.18091788066E+02  0.21255517226E+02  0.51100000000E-03 0. -1.
        -11    1    3    3    0    0  0.51008384048E+01 -0.49341891594E+01 -0.54329815773E+01  0.89376766653E+01  0.51100000000E-03 0.  1.
         12    1    3    3    0    0 -0.15104631710E+02 -0.13148558165E+02 -0.35362371849E+01  0.20335669508E+02  0.00000000000E+00 0. -1.
</event>
<event>
 7    1  0.5855569E-013  0.5052886E+02  0.7816164E-02  0.1300439E+00
        -11   -1    0    0    0    0  0.00000000000E+00  0.00000000000E+00  0.45593999997E+02  0.45594000000E+02  0.51100000000E-03 0. -1.
         11   -1    0    0    0    0 -0.00000000000E+00 -0.00000000000E+00 -0.45593999997E+02  0.45594000000E+02  0.51100000000E-03 0.  1.
    9900012    2    1    2    0    0  0.53887504528E+01  0.35391452459E+02  0.19276207383E+02  0.50528859457E+02  0.29999998807E+02 0.  0.
        -12    1    1    2    0    0 -0.53887504528E+01 -0.35391452459E+02 -0.19276207383E+02  0.40659140543E+02  0.00000000000E+00 0.  1.
         11    1    3    3    0    0  0.67929354883E+01  0.18655864692E+02  0.15142140371E+02  0.24969374747E+02  0.51100000000E-03 0. -1.
        -11    1    3    3    0    0  0.47391743563E+01  0.14889890757E+02  0.85114189443E+01  0.17793618886E+02  0.51100000000E-03 0.  1.
        -12    1    3    3    0    0 -0.61433593918E+01  0.18456970093E+01 -0.43773519326E+01  0.77658658247E+01  0.00000000000E+00 0.  1.
</event>
<event>
 7    1  0.5855569E-013  0.5052886E+02  0.7816164E-02  0.1300439E+00
        -11   -1    0    0    0    0  0.00000000000E+00  0.00000000000E+00  0.45593999997E+02  0.45594000000E+02  0.51100000000E-03 0. -1.
         11   -1    0    0    0    0 -0.00000000000E+00 -0.00000000000E+00 -0.45593999997E+02  0.45594000000E+02  0.51100000000E-03 0.  1.
    9900012    2    1    2    0    0  0.10324970427E+02  0.37248668441E+02 -0.12613371238E+02  0.50528862664E+02  0.30000008553E+02 0.  0.
        -12    1    1    2    0    0 -0.10324970427E+02 -0.37248668441E+02  0.12613371238E+02  0.40659137336E+02  0.00000000000E+00 0.  1.
         11    1    3    3    0    0  0.44990103757E+01  0.12116339433E+02 -0.57933372891E+00  0.12937635156E+02  0.51100000000E-03 0. -1.
        -11    1    3    3    0    0  0.98788983585E+01  0.11168972465E+02  0.44984056164E+01  0.15574794768E+02  0.51100000000E-03 0.  1.
        -12    1    3    3    0    0 -0.40529383076E+01  0.13963356543E+02 -0.16532443126E+02  0.22016432739E+02  0.00000000000E+00 0.  1.
</event>
<event>
 7    1  0.5855569E-013  0.5052886E+02  0.7816164E-02  0.1300439E+00
        -11   -1    0    0    0    0  0.00000000000E+00  0.00000000000E+00  0.45593999997E+02  0.45594000000E+02  0.51100000000E-03 0.  1.
         11   -1    0    0    0    0 -0.00000000000E+00 -0.00000000000E+00 -0.45593999997E+02  0.45594000000E+02  0.51100000000E-03 0. -1.
    9900012    2    1    2    0    0 -0.71344416941E+01 -0.35995440130E+02 -0.17509813907E+02  0.50528861403E+02  0.30000004719E+02 0.  0.
        -12    1    1    2    0    0  0.71344416941E+01  0.35995440130E+02  0.17509813907E+02  0.40659138597E+02  0.00000000000E+00 0.  1.
         11    1    3    3    0    0 -0.14912240217E+01 -0.11944075589E+02  0.38758349454E+00  0.12043044133E+02  0.51100000000E-03 0. -1.
        -11    1    3    3    0    0  0.16004851488E+01 -0.19365668256E+02 -0.93333199712E+00  0.19454093878E+02  0.51100000000E-03 0.  1.
        -12    1    3    3    0    0 -0.72437028212E+01 -0.46856962847E+01 -0.16964065404E+02  0.19031723392E+02  0.00000000000E+00 0.  1.
</event>
<event>
 7    1  0.5855569E-013  0.5052887E+02  0.7816164E-02  0.1300439E+00
        -11   -1    0    0    0    0  0.00000000000E+00  0.00000000000E+00  0.45593999997E+02  0.45594000000E+02  0.51100000000E-03 0. -1.
         11   -1    0    0    0    0 -0.00000000000E+00 -0.00000000000E+00 -0.45593999997E+02  0.45594000000E+02  0.51100000000E-03 0.  1.
    9900012    2    1    2    0    0  0.20248976178E+02  0.33062323413E+02  0.12248547403E+02  0.50528865981E+02  0.30000018635E+02 0.  0.
        -12    1    1    2    0    0 -0.20248976178E+02 -0.33062323413E+02 -0.12248547403E+02  0.40659134019E+02  0.00000000000E+00 0.  1.
         11    1    3    3    0    0  0.16272085395E+02  0.21884955086E+02  0.15282733037E+02  0.31261701034E+02  0.51100000000E-03 0. -1.
        -11    1    3    3    0    0  0.95872638515E+01  0.78315762242E+01 -0.29872951856E+01  0.12734722105E+02  0.51100000000E-03 0.  1.
         12    1    3    3    0    0 -0.56103730685E+01  0.33457921032E+01 -0.46890448439E-01  0.65324428417E+01  0.00000000000E+00 0. -1.
</event>
<event>
 7    1  0.5855569E-013  0.5052887E+02  0.7816164E-02  0.1300439E+00
        -11   -1    0    0    0    0  0.00000000000E+00  0.00000000000E+00  0.45593999997E+02  0.45594000000E+02  0.51100000000E-03 0.  1.
         11   -1    0    0    0    0 -0.00000000000E+00 -0.00000000000E+00 -0.45593999997E+02  0.45594000000E+02  0.51100000000E-03 0. -1.
    9900012    2    1    2    0    0  0.30074398712E-01 -0.52509455690E+00 -0.40655730598E+02  0.50528867456E+02  0.30000023120E+02 0.  0.
        -12    1    1    2    0    0 -0.30074398712E-01  0.52509455690E+00  0.40655730598E+02  0.40659132544E+02  0.00000000000E+00 0.  1.
         11    1    3    3    0    0 -0.39553779281E+01 -0.61583067480E+01 -0.23929520414E+02  0.25023822731E+02  0.51100000000E-03 0. -1.
        -11    1    3    3    0    0  0.25742558804E+01 -0.57018386323E+01 -0.11170514600E+02  0.12803052519E+02  0.51100000000E-03 0.  1.
        -12    1    3    3    0    0  0.14111964465E+01  0.11335050823E+02 -0.55556955843E+01  0.12701992206E+02  0.00000000000E+00 0.  1.
</event>
<event>
 7    1  0.5855569E-013  0.5052884E+02  0.7816164E-02  0.1300439E+00
        -11   -1    0    0    0    0  0.00000000000E+00  0.00000000000E+00  0.45593999997E+02  0.45594000000E+02  0.51100000000E-03 0. -1.
         11   -1    0    0    0    0 -0.00000000000E+00 -0.00000000000E+00 -0.45593999997E+02  0.45594000000E+02  0.51100000000E-03 0.  1.
    9900012    2    1    2    0    0  0.19169231563E+02  0.35278073820E+02  0.64160021797E+01  0.50528843403E+02  0.29999950008E+02 0.  0.
        -12    1    1    2    0    0 -0.19169231563E+02 -0.35278073820E+02 -0.64160021797E+01  0.40659156597E+02  0.00000000000E+00 0.  1.
         11    1    3    3    0    0  0.17738805825E+02  0.30154764088E+02 -0.74106118243E+00  0.34993202215E+02  0.51100000000E-03 0. -1.
        -11    1    3    3    0    0  0.37641582573E+01  0.82120208633E+01  0.22948664896E+01  0.93205464707E+01  0.51100000000E-03 0.  1.
        -12    1    3    3    0    0 -0.23337325192E+01 -0.30887111311E+01  0.48621968725E+01  0.62150947176E+01  0.00000000000E+00 0.  1.
</event>
<event>
 7    1  0.5855569E-013  0.5052886E+02  0.7816164E-02  0.1300439E+00
        -11   -1    0    0    0    0  0.00000000000E+00  0.00000000000E+00  0.45593999997E+02  0.45594000000E+02  0.51100000000E-03 0. -1.
         11   -1    0    0    0    0 -0.00000000000E+00 -0.00000000000E+00 -0.45593999997E+02  0.45594000000E+02  0.51100000000E-03 0.  1.
    9900012    2    1    2    0    0 -0.29207850867E+02  0.16247424124E+02  0.23153577933E+02  0.50528861863E+02  0.30000006120E+02 0.  0.
        -12    1    1    2    0    0  0.29207850867E+02 -0.16247424124E+02 -0.23153577933E+02  0.40659138137E+02  0.00000000000E+00 0.  1.
         11    1    3    3    0    0 -0.19961750256E+02  0.11958348568E+02  0.14892527995E+02  0.27627177997E+02  0.51100000000E-03 0. -1.
        -11    1    3    3    0    0  0.43552136415E+01  0.62447107741E+01  0.27035936298E+01  0.80792151408E+01  0.51100000000E-03 0.  1.
        -12    1    3    3    0    0 -0.13601314252E+02 -0.19556352179E+01  0.55574563083E+01  0.14822468725E+02  0.00000000000E+00 0.  1.
</event>
<event>
 7    1  0.5855569E-013  0.5052886E+02  0.7816164E-02  0.1300439E+00
        -11   -1    0    0    0    0  0.00000000000E+00  0.00000000000E+00  0.45593999997E+02  0.45594000000E+02  0.51100000000E-03 0.  1.
         11   -1    0    0    0    0 -0.00000000000E+00 -0.00000000000E+00 -0.45593999997E+02  0.45594000000E+02  0.51100000000E-03 0. -1.
    9900012    2    1    2    0    0 -0.99867285513E+01  0.35394213912E+02 -0.17340149780E+02  0.50528856871E+02  0.29999990945E+02 0.  0.
        -12    1    1    2    0    0  0.99867285513E+01 -0.35394213912E+02  0.17340149780E+02  0.40659143129E+02  0.00000000000E+00 0.  1.
         11    1    3    3    0    0  0.19160408083E+00  0.85298609933E+00  0.62888216615E+00  0.10769356756E+01  0.51100000000E-03 0. -1.
        -11    1    3    3    0    0 -0.35843882595E+01  0.44438834967E+01  0.75356360133E+01  0.94541921978E+01  0.51100000000E-03 0.  1.
         12    1    3    3    0    0 -0.65939443726E+01  0.30097344316E+02 -0.25504667959E+02  0.39997728998E+02  0.00000000000E+00 0. -1.
</event>
<event>
 7    1  0.5855569E-013  0.5052886E+02  0.7816164E-02  0.1300439E+00
        -11   -1    0    0    0    0  0.00000000000E+00  0.00000000000E+00  0.45593999997E+02  0.45594000000E+02  0.51100000000E-03 0.  1.
         11   -1    0    0    0    0 -0.00000000000E+00 -0.00000000000E+00 -0.45593999997E+02  0.45594000000E+02  0.51100000000E-03 0. -1.
    9900012    2    1    2    0    0  0.27619697651E+02 -0.29575323966E+02 -0.39519762479E+01  0.50528860778E+02  0.30000002820E+02 0.  0.
        -12    1    1    2    0    0 -0.27619697651E+02  0.29575323966E+02  0.39519762479E+01  0.40659139222E+02  0.00000000000E+00 0.  1.
         11    1    3    3    0    0  0.52946955722E+01 -0.82109340547E+01  0.29987628858E+01  0.10219873696E+02  0.51100000000E-03 0. -1.
        -11    1    3    3    0    0  0.21251709190E+02 -0.75447337898E+01  0.36682946236E+01  0.22847637453E+02  0.51100000000E-03 0.  1.
         12    1    3    3    0    0  0.10732928888E+01 -0.13819656121E+02 -0.10619033757E+02  0.17461349629E+02  0.00000000000E+00 0. -1.
</event>
<event>
 7    1  0.5855569E-013  0.5052887E+02  0.7816164E-02  0.1300439E+00
        -11   -1    0    0    0    0  0.00000000000E+00  0.00000000000E+00  0.45593999997E+02  0.45594000000E+02  0.51100000000E-03 0. -1.
         11   -1    0    0    0    0 -0.00000000000E+00 -0.00000000000E+00 -0.45593999997E+02  0.45594000000E+02  0.51100000000E-03 0.  1.
    9900012    2    1    2    0    0  0.35149760232E+02 -0.13356302073E+02  0.15468296775E+02  0.50528872432E+02  0.30000038245E+02 0.  0.
        -12    1    1    2    0    0 -0.35149760232E+02  0.13356302073E+02 -0.15468296775E+02  0.40659127568E+02  0.00000000000E+00 0.  1.
         11    1    3    3    0    0 -0.21199805318E+01 -0.12653708406E+01  0.28650868068E+01  0.37820898312E+01  0.51100000000E-03 0. -1.
        -11    1    3    3    0    0 -0.27533989417E+01  0.75435541184E+00  0.16964087177E+01  0.33208523933E+01  0.51100000000E-03 0.  1.
         12    1    3    3    0    0  0.40023139706E+02 -0.12845286644E+02  0.10906801251E+02  0.43425930208E+02  0.00000000000E+00 0. -1.
</event>
<event>
 7    1  0.5855569E-013  0.5052885E+02  0.7816164E-02  0.1300439E+00
        -11   -1    0    0    0    0  0.00000000000E+00  0.00000000000E+00  0.45593999997E+02  0.45594000000E+02  0.51100000000E-03 0. -1.
         11   -1    0    0    0    0 -0.00000000000E+00 -0.00000000000E+00 -0.45593999997E+02  0.45594000000E+02  0.51100000000E-03 0.  1.
    9900012    2    1    2    0    0  0.13544321012E+02 -0.18842147016E+01  0.38290564217E+02  0.50528853369E+02  0.29999980301E+02 0.  0.
        -12    1    1    2    0    0 -0.13544321012E+02  0.18842147016E+01 -0.38290564217E+02  0.40659146631E+02  0.00000000000E+00 0.  1.
         11    1    3    3    0    0  0.95772279954E+01 -0.64157029365E+01  0.29023329298E+02  0.31228803756E+02  0.51100000000E-03 0. -1.
        -11    1    3    3    0    0  0.61098762983E+01  0.36979493031E+01  0.13048229575E+02  0.14874868494E+02  0.51100000000E-03 0.  1.
        -12    1    3    3    0    0 -0.21427832817E+01  0.83353893169E+00 -0.37809946560E+01  0.44251811185E+01  0.00000000000E+00 0.  1.
</event>
<event>
 7    1  0.5855569E-013  0.5052886E+02  0.7816164E-02  0.1300439E+00
        -11   -1    0    0    0    0  0.00000000000E+00  0.00000000000E+00  0.45593999997E+02  0.45594000000E+02  0.51100000000E-03 0. -1.
         11   -1    0    0    0    0 -0.00000000000E+00 -0.00000000000E+00 -0.45593999997E+02  0.45594000000E+02  0.51100000000E-03 0.  1.
    9900012    2    1    2    0    0 -0.19766364902E+02  0.17973365271E+02  0.30649866924E+02  0.50528863474E+02  0.30000011015E+02 0.  0.
        -12    1    1    2    0    0  0.19766364902E+02 -0.17973365271E+02 -0.30649866924E+02  0.40659136526E+02  0.00000000000E+00 0.  1.
         11    1    3    3    0    0 -0.87799112528E+01  0.16653820345E+02  0.30665029649E+02  0.35983060144E+02  0.51100000000E-03 0. -1.
        -11    1    3    3    0    0 -0.16148164108E+01  0.43294101793E+01 -0.72428431794E+00  0.46771799811E+01  0.51100000000E-03 0.  1.
        -12    1    3    3    0    0 -0.93716372382E+01 -0.30098652531E+01  0.70912159269E+00  0.98686233488E+01  0.00000000000E+00 0.  1.
</event>
<event>
 7    1  0.5855569E-013  0.5052883E+02  0.7816164E-02  0.1300439E+00
        -11   -1    0    0    0    0  0.00000000000E+00  0.00000000000E+00  0.45593999997E+02  0.45594000000E+02  0.51100000000E-03 0. -1.
         11   -1    0    0    0    0 -0.00000000000E+00 -0.00000000000E+00 -0.45593999997E+02  0.45594000000E+02  0.51100000000E-03 0.  1.
    9900012    2    1    2    0    0 -0.77985143538E+01 -0.27002116815E+02  0.29380887903E+02  0.50528834826E+02  0.29999923938E+02 0.  0.
        -12    1    1    2    0    0  0.77985143538E+01  0.27002116815E+02 -0.29380887903E+02  0.40659165174E+02  0.00000000000E+00 0.  1.
         11    1    3    3    0    0  0.69751494200E+00 -0.10129230958E+02  0.13005930522E+02  0.16499759874E+02  0.51100000000E-03 0. -1.
        -11    1    3    3    0    0  0.15569080472E+01 -0.65399392412E+01  0.18289722314E+02  0.19486115840E+02  0.51100000000E-03 0.  1.
        -12    1    3    3    0    0 -0.10052937343E+02 -0.10332946616E+02 -0.19147649330E+01  0.14542959112E+02  0.00000000000E+00 0.  1.
</event>
<event>
 7    1  0.5855569E-013  0.5052886E+02  0.7816164E-02  0.1300439E+00
        -11   -1    0    0    0    0  0.00000000000E+00  0.00000000000E+00  0.45593999997E+02  0.45594000000E+02  0.51100000000E-03 0. -1.
         11   -1    0    0    0    0 -0.00000000000E+00 -0.00000000000E+00 -0.45593999997E+02  0.45594000000E+02  0.51100000000E-03 0.  1.
    9900012    2    1    2    0    0  0.32128066879E+02 -0.19490108553E+01  0.24842596068E+02  0.50528857067E+02  0.29999991540E+02 0.  0.
        -12    1    1    2    0    0 -0.32128066879E+02  0.19490108553E+01 -0.24842596068E+02  0.40659142933E+02  0.00000000000E+00 0.  1.
         11    1    3    3    0    0 -0.22340005000E+01  0.45514355314E+01  0.22980177814E+01  0.55666156339E+01  0.51100000000E-03 0. -1.
        -11    1    3    3    0    0  0.71564061043E+00  0.36575638150E+01  0.16678634738E+01  0.40830972769E+01  0.51100000000E-03 0.  1.
         12    1    3    3    0    0  0.33646426769E+02 -0.10158010202E+02  0.20876714812E+02  0.40879144156E+02  0.00000000000E+00 0. -1.
</event>
<event>
 7    1  0.5855569E-013  0.5052886E+02  0.7816164E-02  0.1300439E+00
        -11   -1    0    0    0    0  0.00000000000E+00  0.00000000000E+00  0.45593999997E+02  0.45594000000E+02  0.51100000000E-03 0. -1.
         11   -1    0    0    0    0 -0.00000000000E+00 -0.00000000000E+00 -0.45593999997E+02  0.45594000000E+02  0.51100000000E-03 0.  1.
    9900012    2    1    2    0    0 -0.38374450356E+02 -0.49362479603E+01  0.12498023085E+02  0.50528861235E+02  0.30000004211E+02 0.  0.
        -12    1    1    2    0    0  0.38374450356E+02  0.49362479603E+01 -0.12498023085E+02  0.40659138765E+02  0.00000000000E+00 0.  1.
         11    1    3    3    0    0 -0.92594727214E+00 -0.44534228602E+01  0.15205923929E+01  0.47960978940E+01  0.51100000000E-03 0. -1.
        -11    1    3    3    0    0 -0.28955465298E+01 -0.44582750465E+00 -0.64128326377E+01  0.70503457057E+01  0.51100000000E-03 0.  1.
        -12    1    3    3    0    0 -0.34552956554E+02 -0.36997595412E-01  0.17390263330E+02  0.38682417636E+02  0.00000000000E+00 0.  1.
</event>
<event>
 7    1  0.5855569E-013  0.5052886E+02  0.7816164E-02  0.1300439E+00
        -11   -1    0    0    0    0  0.00000000000E+00  0.00000000000E+00  0.45593999997E+02  0.45594000000E+02  0.51100000000E-03 0.  1.
         11   -1    0    0    0    0 -0.00000000000E+00 -0.00000000000E+00 -0.45593999997E+02  0.45594000000E+02  0.51100000000E-03 0. -1.
    9900012    2    1    2    0    0  0.21876861650E+02  0.14341857334E+02 -0.31126829970E+02  0.50528862141E+02  0.30000006965E+02 0.  0.
        -12    1    1    2    0    0 -0.21876861650E+02 -0.14341857334E+02  0.31126829970E+02  0.40659137859E+02  0.00000000000E+00 0.  1.
         11    1    3    3    0    0 -0.22436816155E+01  0.33455940252E+01 -0.82846322429E+01  0.92120702470E+01  0.51100000000E-03 0. -1.
        -11    1    3    3    0    0 -0.32085769906E+01  0.57215056391E+01 -0.51040503055E+01  0.83115535771E+01  0.51100000000E-03 0.  1.
         12    1    3    3    0    0  0.27329120256E+02  0.52747576692E+01 -0.17738147421E+02  0.33005238317E+02  0.00000000000E+00 0. -1.
</event>
<event>
 7    1  0.5855569E-013  0.5052886E+02  0.7816164E-02  0.1300439E+00
        -11   -1    0    0    0    0  0.00000000000E+00  0.00000000000E+00  0.45593999997E+02  0.45594000000E+02  0.51100000000E-03 0. -1.
         11   -1    0    0    0    0 -0.00000000000E+00 -0.00000000000E+00 -0.45593999997E+02  0.45594000000E+02  0.51100000000E-03 0.  1.
    9900012    2    1    2    0    0 -0.38390929777E+02 -0.85283391818E+00  0.13363201013E+02  0.50528856427E+02  0.29999989594E+02 0.  0.
        -12    1    1    2    0    0  0.38390929777E+02  0.85283391818E+00 -0.13363201013E+02  0.40659143573E+02  0.00000000000E+00 0.  1.
         11    1    3    3    0    0 -0.23575221678E+02 -0.28716431855E+01  0.34415748424E+01  0.23997538403E+02  0.51100000000E-03 0. -1.
        -11    1    3    3    0    0 -0.18495269212E+02 -0.53733122372E-01  0.11768497433E+02  0.21922030074E+02  0.51100000000E-03 0.  1.
        -12    1    3    3    0    0  0.36795611133E+01  0.20725423897E+01 -0.18468712623E+01  0.46092879497E+01  0.00000000000E+00 0.  1.
</event>
<event>
 7    1  0.5855569E-013  0.5052886E+02  0.7816164E-02  0.1300439E+00
        -11   -1    0    0    0    0  0.00000000000E+00  0.00000000000E+00  0.45593999997E+02  0.45594000000E+02  0.51100000000E-03 0.  1.
         11   -1    0    0    0    0 -0.00000000000E+00 -0.00000000000E+00 -0.45593999997E+02  0.45594000000E+02  0.51100000000E-03 0. -1.
    9900012    2    1    2    0    0 -0.19222765361E+02 -0.13368897601E+02 -0.33240390303E+02  0.50528859838E+02  0.29999999965E+02 0.  0.
        -12    1    1    2    0    0  0.19222765361E+02  0.13368897601E+02  0.33240390303E+02  0.40659140162E+02  0.00000000000E+00 0.  1.
         11    1    3    3    0    0 -0.52765216545E+01 -0.58348768500E+01 -0.38202321436E+01  0.87453783518E+01  0.51100000000E-03 0. -1.
        -11    1    3    3    0    0  0.11817025662E-03 -0.54062960688E+01  0.31726154825E+01  0.62684548701E+01  0.51100000000E-03 0.  1.
        -12    1    3    3    0    0 -0.13946361877E+02 -0.21277246825E+01 -0.32592773641E+02  0.35515026617E+02  0.00000000000E+00 0.  1.
</event>
<event>
 7    1  0.5855569E-013  0.5052883E+02  0.7816164E-02  0.1300439E+00
        -11   -1    0    0    0    0  0.00000000000E+00  0.00000000000E+00  0.45593999997E+02  0.45594000000E+02  0.51100000000E-03 0.  1.
         11   -1    0    0    0    0 -0.00000000000E+00 -0.00000000000E+00 -0.45593999997E+02  0.45594000000E+02  0.51100000000E-03 0. -1.
    9900012    2    1    2    0    0  0.77887432588E+01 -0.16886857506E+02 -0.36157123978E+02  0.50528830157E+02  0.29999909745E+02 0.  0.
        -12    1    1    2    0    0 -0.77887432588E+01  0.16886857506E+02  0.36157123978E+02  0.40659169843E+02  0.00000000000E+00 0.  1.
         11    1    3    3    0    0  0.46417664934E+01 -0.92278583149E+01 -0.16967738934E+02  0.19864630126E+02  0.51100000000E-03 0. -1.
        -11    1    3    3    0    0  0.10666257817E+02 -0.82056139099E+01 -0.18793275341E+02  0.23114678319E+02  0.51100000000E-03 0.  1.
        -12    1    3    3    0    0 -0.75192810517E+01  0.54661471895E+00 -0.39610970300E+00  0.75495217122E+01  0.00000000000E+00 0.  1.
</event>
<event>
 7    1  0.5855569E-013  0.5052889E+02  0.7816164E-02  0.1300439E+00
        -11   -1    0    0    0    0  0.00000000000E+00  0.00000000000E+00  0.45593999997E+02  0.45594000000E+02  0.51100000000E-03 0.  1.
         11   -1    0    0    0    0 -0.00000000000E+00 -0.00000000000E+00 -0.45593999997E+02  0.45594000000E+02  0.51100000000E-03 0. -1.
    9900012    2    1    2    0    0 -0.22394653631E+02 -0.25507103226E+02 -0.22383709300E+02  0.50528889480E+02  0.30000090064E+02 0.  0.
        -12    1    1    2    0    0  0.22394653631E+02  0.25507103226E+02  0.22383709300E+02  0.40659110520E+02  0.00000000000E+00 0.  1.
         11    1    3    3    0    0 -0.13657482496E+02 -0.62911087196E+01 -0.95002916408E+01  0.17786523510E+02  0.51100000000E-03 0. -1.
        -11    1    3    3    0    0 -0.13830284409E+02 -0.54035387153E+01 -0.95304378002E+01  0.17643815982E+02  0.51100000000E-03 0.  1.
        -12    1    3    3    0    0  0.50931132745E+01 -0.13812455791E+02 -0.33529798592E+01  0.15098549988E+02  0.00000000000E+00 0.  1.
</event>
<event>
 7    1  0.5855569E-013  0.5052882E+02  0.7816164E-02  0.1300439E+00
        -11   -1    0    0    0    0  0.00000000000E+00  0.00000000000E+00  0.45593999997E+02  0.45594000000E+02  0.51100000000E-03 0.  1.
         11   -1    0    0    0    0 -0.00000000000E+00 -0.00000000000E+00 -0.45593999997E+02  0.45594000000E+02  0.51100000000E-03 0. -1.
    9900012    2    1    2    0    0  0.80214467647E+01 -0.17330342190E+02 -0.35895465846E+02  0.50528821001E+02  0.29999881913E+02 0.  0.
        -12    1    1    2    0    0 -0.80214467647E+01  0.17330342190E+02  0.35895465846E+02  0.40659178999E+02  0.00000000000E+00 0.  1.
         11    1    3    3    0    0  0.99552359170E+00 -0.83525810087E+00 -0.32444989962E+01  0.34950675693E+01  0.51100000000E-03 0. -1.
        -11    1    3    3    0    0 -0.99901219968E+01  0.19753694603E+00 -0.88273923370E+01  0.13332832186E+02  0.51100000000E-03 0.  1.
         12    1    3    3    0    0  0.17016045170E+02 -0.16692621036E+02 -0.23823574512E+02  0.33700921246E+02  0.00000000000E+00 0. -1.
</event>
<event>
 7    1  0.5855569E-013  0.5052887E+02  0.7816164E-02  0.1300439E+00
        -11   -1    0    0    0    0  0.00000000000E+00  0.00000000000E+00  0.45593999997E+02  0.45594000000E+02  0.51100000000E-03 0.  1.
         11   -1    0    0    0    0 -0.00000000000E+00 -0.00000000000E+00 -0.45593999997E+02  0.45594000000E+02  0.51100000000E-03 0. -1.
    9900012    2    1    2    0    0  0.19043478309E+02  0.16549703177E+02 -0.31884445657E+02  0.50528872904E+02  0.30000039678E+02 0.  0.
        -12    1    1    2    0    0 -0.19043478309E+02 -0.16549703177E+02  0.31884445657E+02  0.40659127096E+02  0.00000000000E+00 0.  1.
         11    1    3    3    0    0  0.83401627379E+01  0.15470266997E+01 -0.19288017051E+02  0.21070814131E+02  0.51100000000E-03 0. -1.
        -11    1    3    3    0    0  0.14397714414E+02  0.17089339497E+02 -0.99801318765E+01  0.24473306628E+02  0.51100000000E-03 0.  1.
         12    1    3    3    0    0 -0.36943988424E+01 -0.20866630200E+01 -0.26162967298E+01  0.49847521448E+01  0.00000000000E+00 0. -1.
</event>
<event>
 7    1  0.5855569E-013  0.5052886E+02  0.7816164E-02  0.1300439E+00
        -11   -1    0    0    0    0  0.00000000000E+00  0.00000000000E+00  0.45593999997E+02  0.45594000000E+02  0.51100000000E-03 0. -1.
         11   -1    0    0    0    0 -0.00000000000E+00 -0.00000000000E+00 -0.45593999997E+02  0.45594000000E+02  0.51100000000E-03 0.  1.
    9900012    2    1    2    0    0  0.26686624558E+02  0.28237890432E+02  0.11983806581E+02  0.50528855807E+02  0.29999987710E+02 0.  0.
        -12    1    1    2    0    0 -0.26686624558E+02 -0.28237890432E+02 -0.11983806581E+02  0.40659144193E+02  0.00000000000E+00 0.  1.
         11    1    3    3    0    0  0.37351470039E+01  0.12258026785E+02  0.27047133113E+01  0.13096794194E+02  0.51100000000E-03 0. -1.
        -11    1    3    3    0    0  0.15729199181E+01  0.14470474662E+02  0.60304178037E+01  0.15755464232E+02  0.51100000000E-03 0.  1.
         12    1    3    3    0    0  0.21378557636E+02  0.15093889841E+01  0.32486754663E+01  0.21676597381E+02  0.00000000000E+00 0. -1.
</event>
<event>
 7    1  0.5855569E-013  0.5052886E+02  0.7816164E-02  0.1300439E+00
        -11   -1    0    0    0    0  0.00000000000E+00  0.00000000000E+00  0.45593999997E+02  0.45594000000E+02  0.51100000000E-03 0. -1.
         11   -1    0    0    0    0 -0.00000000000E+00 -0.00000000000E+00 -0.45593999997E+02  0.45594000000E+02  0.51100000000E-03 0.  1.
    9900012    2    1    2    0    0 -0.18737716363E+02 -0.35200162416E+02  0.79380229660E+01  0.50528860103E+02  0.30000000768E+02 0.  0.
        -12    1    1    2    0    0  0.18737716363E+02  0.35200162416E+02 -0.79380229660E+01  0.40659139897E+02  0.00000000000E+00 0.  1.
         11    1    3    3    0    0 -0.17604886484E+02 -0.21984218046E+02  0.14514193302E+01  0.28201852591E+02  0.51100000000E-03 0. -1.
        -11    1    3    3    0    0 -0.33424620939E+01 -0.26390666960E+01  0.10077751514E+02  0.10940649054E+02  0.51100000000E-03 0.  1.
        -12    1    3    3    0    0  0.22096322158E+01 -0.10576877674E+02 -0.35911478782E+01  0.11386358459E+02  0.00000000000E+00 0.  1.
</event>
<event>
 7    1  0.5855569E-013  0.5052886E+02  0.7816164E-02  0.1300439E+00
        -11   -1    0    0    0    0  0.00000000000E+00  0.00000000000E+00  0.45593999997E+02  0.45594000000E+02  0.51100000000E-03 0. -1.
         11   -1    0    0    0    0 -0.00000000000E+00 -0.00000000000E+00 -0.45593999997E+02  0.45594000000E+02  0.51100000000E-03 0.  1.
    9900012    2    1    2    0    0 -0.36592788498E+02 -0.26877454529E+01 -0.17518824588E+02  0.50528863749E+02  0.30000011852E+02 0.  0.
        -12    1    1    2    0    0  0.36592788498E+02  0.26877454529E+01  0.17518824588E+02  0.40659136251E+02  0.00000000000E+00 0.  1.
         11    1    3    3    0    0 -0.14431247410E+02 -0.64675918529E+01 -0.87771403531E+01  0.18086703382E+02  0.51100000000E-03 0. -1.
        -11    1    3    3    0    0  0.20897314375E+01 -0.50241576923E+01 -0.14292797432E+01  0.56260091400E+01  0.51100000000E-03 0.  1.
         12    1    3    3    0    0 -0.24251272526E+02  0.88040040924E+01 -0.73124044921E+01  0.26816151228E+02  0.00000000000E+00 0. -1.
</event>
<event>
 7    1  0.5855569E-013  0.5052886E+02  0.7816164E-02  0.1300439E+00
        -11   -1    0    0    0    0  0.00000000000E+00  0.00000000000E+00  0.45593999997E+02  0.45594000000E+02  0.51100000000E-03 0.  1.
         11   -1    0    0    0    0 -0.00000000000E+00 -0.00000000000E+00 -0.45593999997E+02  0.45594000000E+02  0.51100000000E-03 0. -1.
    9900012    2    1    2    0    0  0.93350100768E+01  0.26895514024E+02 -0.29028517998E+02  0.50528856564E+02  0.29999990013E+02 0.  0.
        -12    1    1    2    0    0 -0.93350100768E+01 -0.26895514024E+02  0.29028517998E+02  0.40659143436E+02  0.00000000000E+00 0.  1.
         11    1    3    3    0    0  0.32965328444E+01  0.14578547704E+02 -0.55699883710E+01  0.15950735177E+02  0.51100000000E-03 0. -1.
        -11    1    3    3    0    0  0.56205507790E+01  0.50683802524E+01 -0.25848942444E+02  0.26934121392E+02  0.51100000000E-03 0.  1.
         12    1    3    3    0    0  0.41792645336E+00  0.72485860671E+01  0.23904128168E+01  0.76439999952E+01  0.00000000000E+00 0. -1.
</event>
<event>
 7    1  0.5855569E-013  0.5052886E+02  0.7816164E-02  0.1300439E+00
        -11   -1    0    0    0    0  0.00000000000E+00  0.00000000000E+00  0.45593999997E+02  0.45594000000E+02  0.51100000000E-03 0.  1.
         11   -1    0    0    0    0 -0.00000000000E+00 -0.00000000000E+00 -0.45593999997E+02  0.45594000000E+02  0.51100000000E-03 0. -1.
    9900012    2    1    2    0    0 -0.30210193293E+02 -0.10029982527E+02 -0.25296428393E+02  0.50528860588E+02  0.30000002244E+02 0.  0.
        -12    1    1    2    0    0  0.30210193293E+02  0.10029982527E+02  0.25296428393E+02  0.40659139412E+02  0.00000000000E+00 0.  1.
         11    1    3    3    0    0 -0.43070649989E+01 -0.30158901024E+01  0.31392694589E+01  0.61238398910E+01  0.51100000000E-03 0. -1.
        -11    1    3    3    0    0 -0.52291187084E+01 -0.10682469812E+02 -0.48970185986E+01  0.12862333970E+02  0.51100000000E-03 0.  1.
         12    1    3    3    0    0 -0.20674009585E+02  0.36683773870E+01 -0.23538679253E+02  0.31542686727E+02  0.00000000000E+00 0. -1.
</event>
<event>
 7    1  0.5855569E-013  0.5052883E+02  0.7816164E-02  0.1300439E+00
        -11   -1    0    0    0    0  0.00000000000E+00  0.00000000000E+00  0.45593999997E+02  0.45594000000E+02  0.51100000000E-03 0. -1.
         11   -1    0    0    0    0 -0.00000000000E+00 -0.00000000000E+00 -0.45593999997E+02  0.45594000000E+02  0.51100000000E-03 0.  1.
    9900012    2    1    2    0    0  0.11430210131E+02 -0.30148217330E+02  0.24771013697E+02  0.50528833366E+02  0.29999919499E+02 0.  0.
        -12    1    1    2    0    0 -0.11430210131E+02  0.30148217330E+02 -0.24771013697E+02  0.40659166634E+02  0.00000000000E+00 0.  1.
         11    1    3    3    0    0  0.11759184419E+02 -0.23454457532E+01  0.88141754003E+01  0.14881842031E+02  0.51100000000E-03 0. -1.
        -11    1    3    3    0    0 -0.13178439222E+01 -0.99967235631E+01 -0.20656642668E+01  0.10292626668E+02  0.51100000000E-03 0.  1.
        -12    1    3    3    0    0  0.98886963360E+00 -0.17806048014E+02  0.18022502563E+02  0.25354364667E+02  0.00000000000E+00 0.  1.
</event>
<event>
 7    1  0.5855569E-013  0.5052886E+02  0.7816164E-02  0.1300439E+00
        -11   -1    0    0    0    0  0.00000000000E+00  0.00000000000E+00  0.45593999997E+02  0.45594000000E+02  0.51100000000E-03 0.  1.
         11   -1    0    0    0    0 -0.00000000000E+00 -0.00000000000E+00 -0.45593999997E+02  0.45594000000E+02  0.51100000000E-03 0. -1.
    9900012    2    1    2    0    0  0.25433894187E+01 -0.13362433552E+02 -0.38316340950E+02  0.50528862725E+02  0.30000008738E+02 0.  0.
        -12    1    1    2    0    0 -0.25433894187E+01  0.13362433552E+02  0.38316340950E+02  0.40659137275E+02  0.00000000000E+00 0.  1.
         11    1    3    3    0    0 -0.11220962699E+02 -0.34936608244E+01 -0.25820993998E+02  0.28369691594E+02  0.51100000000E-03 0. -1.
        -11    1    3    3    0    0  0.37402257851E+01 -0.41091445147E+01 -0.62870402324E+00  0.55919251225E+01  0.51100000000E-03 0.  1.
        -12    1    3    3    0    0  0.10024126333E+02 -0.57596282131E+01 -0.11866642929E+02  0.16567246008E+02  0.00000000000E+00 0.  1.
</event>
<event>
 7    1  0.5855569E-013  0.5052886E+02  0.7816164E-02  0.1300439E+00
        -11   -1    0    0    0    0  0.00000000000E+00  0.00000000000E+00  0.45593999997E+02  0.45594000000E+02  0.51100000000E-03 0. -1.
         11   -1    0    0    0    0 -0.00000000000E+00 -0.00000000000E+00 -0.45593999997E+02  0.45594000000E+02  0.51100000000E-03 0.  1.
    9900012    2    1    2    0    0 -0.32833754548E+02  0.39653286915E+01  0.23651344970E+02  0.50528863410E+02  0.30000010822E+02 0.  0.
        -12    1    1    2    0    0  0.32833754548E+02 -0.39653286915E+01 -0.23651344970E+02  0.40659136590E+02  0.00000000000E+00 0.  1.
         11    1    3    3    0    0 -0.83249027336E+01  0.10408812437E+02  0.36835881869E+01  0.13828094737E+02  0.51100000000E-03 0. -1.
        -11    1    3    3    0    0  0.32657631961E+00  0.32984014610E+01 -0.10290643214E+00  0.33161263977E+01  0.51100000000E-03 0.  1.
         12    1    3    3    0    0 -0.24835428134E+02 -0.97418852063E+01  0.20070663215E+02  0.33384642275E+02  0.00000000000E+00 0. -1.
</event>
<event>
 7    1  0.5855569E-013  0.5052886E+02  0.7816164E-02  0.1300439E+00
        -11   -1    0    0    0    0  0.00000000000E+00  0.00000000000E+00  0.45593999997E+02  0.45594000000E+02  0.51100000000E-03 0.  1.
         11   -1    0    0    0    0 -0.00000000000E+00 -0.00000000000E+00 -0.45593999997E+02  0.45594000000E+02  0.51100000000E-03 0. -1.
    9900012    2    1    2    0    0  0.28144679929E+02  0.28975735741E+02 -0.46313157996E+01  0.50528863806E+02  0.30000012024E+02 0.  0.
        -12    1    1    2    0    0 -0.28144679929E+02 -0.28975735741E+02  0.46313157996E+01  0.40659136194E+02  0.00000000000E+00 0.  1.
         11    1    3    3    0    0  0.16128527413E+02  0.12724753408E+02  0.88696642462E+01  0.22376766744E+02  0.51100000000E-03 0.  1.
        -11    1    3    3    0    0  0.11414174469E+02  0.15699603986E+02 -0.55901721725E+01  0.20199281406E+02  0.51100000000E-03 0. -1.
        -12    1    3    3    0    0  0.60197804667E+00  0.55137834698E+00 -0.79108078733E+01  0.79528156560E+01  0.00000000000E+00 0.  1.
</event>
<event>
 7    1  0.5855569E-013  0.5052885E+02  0.7816164E-02  0.1300439E+00
        -11   -1    0    0    0    0  0.00000000000E+00  0.00000000000E+00  0.45593999997E+02  0.45594000000E+02  0.51100000000E-03 0.  1.
         11   -1    0    0    0    0 -0.00000000000E+00 -0.00000000000E+00 -0.45593999997E+02  0.45594000000E+02  0.51100000000E-03 0. -1.
    9900012    2    1    2    0    0  0.40176566781E+02  0.58946352893E+01  0.20647384917E+01  0.50528851109E+02  0.29999973431E+02 0.  0.
        -12    1    1    2    0    0 -0.40176566781E+02 -0.58946352893E+01 -0.20647384917E+01  0.40659148891E+02  0.00000000000E+00 0.  1.
         11    1    3    3    0    0  0.28129684060E+02 -0.47988715103E+01 -0.46418205681E+01  0.28911153411E+02  0.51100000000E-03 0. -1.
        -11    1    3    3    0    0  0.64472285574E+01 -0.19387373749E+01  0.21007030775E+01  0.70525465161E+01  0.51100000000E-03 0.  1.
         12    1    3    3    0    0  0.55996541636E+01  0.12632244174E+02  0.46058559823E+01  0.14565151182E+02  0.00000000000E+00 0. -1.
</event>
<event>
 7    1  0.5855569E-013  0.5052885E+02  0.7816164E-02  0.1300439E+00
        -11   -1    0    0    0    0  0.00000000000E+00  0.00000000000E+00  0.45593999997E+02  0.45594000000E+02  0.51100000000E-03 0. -1.
         11   -1    0    0    0    0 -0.00000000000E+00 -0.00000000000E+00 -0.45593999997E+02  0.45594000000E+02  0.51100000000E-03 0.  1.
    9900012    2    1    2    0    0  0.36658067029E+02  0.15229716157E+02  0.87981965624E+01  0.50528851026E+02  0.29999973180E+02 0.  0.
        -12    1    1    2    0    0 -0.36658067029E+02 -0.15229716157E+02 -0.87981965624E+01  0.40659148974E+02  0.00000000000E+00 0.  1.
         11    1    3    3    0    0 -0.20855131389E+01  0.67345664855E+00 -0.31822671172E+01  0.38639012897E+01  0.51100000000E-03 0. -1.
        -11    1    3    3    0    0  0.62344464432E+00  0.17689577954E+01 -0.31817397639E+01  0.36934215970E+01  0.51100000000E-03 0.  1.
         12    1    3    3    0    0  0.38120135523E+02  0.12787301713E+02  0.15162203444E+02  0.42971528140E+02  0.00000000000E+00 0. -1.
</event>
<event>
 7    1  0.5855569E-013  0.5052885E+02  0.7816164E-02  0.1300439E+00
        -11   -1    0    0    0    0  0.00000000000E+00  0.00000000000E+00  0.45593999997E+02  0.45594000000E+02  0.51100000000E-03 0.  1.
         11   -1    0    0    0    0 -0.00000000000E+00 -0.00000000000E+00 -0.45593999997E+02  0.45594000000E+02  0.51100000000E-03 0. -1.
    9900012    2    1    2    0    0 -0.36906150723E+01  0.33846118739E+02 -0.22225792153E+02  0.50528853057E+02  0.29999979353E+02 0.  0.
        -12    1    1    2    0    0  0.36906150723E+01 -0.33846118739E+02  0.22225792153E+02  0.40659146943E+02  0.00000000000E+00 0.  1.
         11    1    3    3    0    0 -0.19180694291E+01  0.17935337436E+02  0.17318740803E+01  0.18120560350E+02  0.51100000000E-03 0. -1.
        -11    1    3    3    0    0 -0.18609434965E+01  0.71931971558E+01 -0.57379776764E+00  0.74521433265E+01  0.51100000000E-03 0.  1.
        -12    1    3    3    0    0  0.88397853266E-01  0.87175841467E+01 -0.23383868465E+02  0.24956149381E+02  0.00000000000E+00 0.  1.
</event>
<event>
 7    1  0.5855569E-013  0.5052883E+02  0.7816164E-02  0.1300439E+00
        -11   -1    0    0    0    0  0.00000000000E+00  0.00000000000E+00  0.45593999997E+02  0.45594000000E+02  0.51100000000E-03 0.  1.
         11   -1    0    0    0    0 -0.00000000000E+00 -0.00000000000E+00 -0.45593999997E+02  0.45594000000E+02  0.51100000000E-03 0. -1.
    9900012    2    1    2    0    0  0.23264976902E+02 -0.68444684529E+01 -0.32635292843E+02  0.50528828370E+02  0.29999904314E+02 0.  0.
        -12    1    1    2    0    0 -0.23264976902E+02  0.68444684529E+01  0.32635292843E+02  0.40659171630E+02  0.00000000000E+00 0.  1.
         11    1    3    3    0    0  0.15376296391E+02  0.39046671506E+01 -0.20489366093E+02  0.25913144144E+02  0.51100000000E-03 0. -1.
        -11    1    3    3    0    0 -0.40454190777E+01  0.31917591860E+00  0.38207830088E+00  0.40759382809E+01  0.51100000000E-03 0.  1.
        -12    1    3    3    0    0  0.11934099589E+02 -0.11068311522E+02 -0.12528005051E+02  0.20539745946E+02  0.00000000000E+00 0.  1.
</event>
<event>
 7    1  0.5855569E-013  0.5052890E+02  0.7816164E-02  0.1300439E+00
        -11   -1    0    0    0    0  0.00000000000E+00  0.00000000000E+00  0.45593999997E+02  0.45594000000E+02  0.51100000000E-03 0. -1.
         11   -1    0    0    0    0 -0.00000000000E+00 -0.00000000000E+00 -0.45593999997E+02  0.45594000000E+02  0.51100000000E-03 0.  1.
    9900012    2    1    2    0    0 -0.30675146332E+02 -0.10513538443E+02  0.24528823372E+02  0.50528901768E+02  0.30000127413E+02 0.  0.
        -12    1    1    2    0    0  0.30675146332E+02  0.10513538443E+02 -0.24528823372E+02  0.40659098232E+02  0.00000000000E+00 0.  1.
         11    1    3    3    0    0 -0.15115919300E+02 -0.12274477673E+01  0.20524065304E+01  0.15303921626E+02  0.51100000000E-03 0. -1.
        -11    1    3    3    0    0  0.57480280752E+00 -0.10480901487E+02  0.58081507343E+01  0.11996429030E+02  0.51100000000E-03 0.  1.
         12    1    3    3    0    0 -0.16134029839E+02  0.11948108121E+01  0.16668266107E+02  0.23228551112E+02  0.00000000000E+00 0. -1.
</event>
<event>
 7    1  0.5855569E-013  0.5052885E+02  0.7816164E-02  0.1300439E+00
        -11   -1    0    0    0    0  0.00000000000E+00  0.00000000000E+00  0.45593999997E+02  0.45594000000E+02  0.51100000000E-03 0.  1.
         11   -1    0    0    0    0 -0.00000000000E+00 -0.00000000000E+00 -0.45593999997E+02  0.45594000000E+02  0.51100000000E-03 0. -1.
    9900012    2    1    2    0    0 -0.30731043295E+02 -0.10833287904E+02 -0.24318901090E+02  0.50528854669E+02  0.29999984253E+02 0.  0.
        -12    1    1    2    0    0  0.30731043295E+02  0.10833287904E+02  0.24318901090E+02  0.40659145331E+02  0.00000000000E+00 0.  1.
         11    1    3    3    0    0  0.18659443429E+01  0.61345418384E+00 -0.60275979414E+01  0.63395592537E+01  0.51100000000E-03 0. -1.
        -11    1    3    3    0    0 -0.10190909805E+02 -0.53773334428E+01  0.38110202977E+01  0.12136483575E+02  0.51100000000E-03 0.  1.
         12    1    3    3    0    0 -0.22406077833E+02 -0.60694086447E+01 -0.22102323447E+02  0.32052811840E+02  0.00000000000E+00 0. -1.
</event>
<event>
 7    1  0.5855569E-013  0.5052883E+02  0.7816164E-02  0.1300439E+00
        -11   -1    0    0    0    0  0.00000000000E+00  0.00000000000E+00  0.45593999997E+02  0.45594000000E+02  0.51100000000E-03 0.  1.
         11   -1    0    0    0    0 -0.00000000000E+00 -0.00000000000E+00 -0.45593999997E+02  0.45594000000E+02  0.51100000000E-03 0. -1.
    9900012    2    1    2    0    0  0.37901425063E+02  0.14599833635E+02 -0.18694600641E+01  0.50528830740E+02  0.29999911518E+02 0.  0.
        -12    1    1    2    0    0 -0.37901425063E+02 -0.14599833635E+02  0.18694600641E+01  0.40659169260E+02  0.00000000000E+00 0.  1.
         11    1    3    3    0    0  0.17871872630E+01 -0.23681510013E+01 -0.57348223292E+01  0.64568076390E+01  0.51100000000E-03 0. -1.
        -11    1    3    3    0    0  0.17703744045E+01  0.65190925432E+01 -0.32166058351E+01  0.74819346749E+01  0.51100000000E-03 0.  1.
         12    1    3    3    0    0  0.34343863395E+02  0.10448892093E+02  0.70819681003E+01  0.36590088426E+02  0.00000000000E+00 0. -1.
</event>
<event>
 7    1  0.5855569E-013  0.5052888E+02  0.7816164E-02  0.1300439E+00
        -11   -1    0    0    0    0  0.00000000000E+00  0.00000000000E+00  0.45593999997E+02  0.45594000000E+02  0.51100000000E-03 0.  1.
         11   -1    0    0    0    0 -0.00000000000E+00 -0.00000000000E+00 -0.45593999997E+02  0.45594000000E+02  0.51100000000E-03 0. -1.
    9900012    2    1    2    0    0 -0.38487287390E+02 -0.49580862474E+01 -0.12137127606E+02  0.50528883231E+02  0.30000071070E+02 0.  0.
        -12    1    1    2    0    0  0.38487287390E+02  0.49580862474E+01  0.12137127606E+02  0.40659116769E+02  0.00000000000E+00 0.  1.
         11    1    3    3    0    0 -0.53061899009E+01 -0.63772608500E+01 -0.70893244523E+01  0.10912544555E+02  0.51100000000E-03 0.  1.
        -11    1    3    3    0    0 -0.22104997489E+01  0.46242989492E+01  0.47368104691E+01  0.69790990531E+01  0.51100000000E-03 0. -1.
         12    1    3    3    0    0 -0.30970597740E+02 -0.32051243466E+01 -0.97846136227E+01  0.32637239623E+02  0.00000000000E+00 0. -1.
</event>
<event>
 7    1  0.5855569E-013  0.5052886E+02  0.7816164E-02  0.1300439E+00
        -11   -1    0    0    0    0  0.00000000000E+00  0.00000000000E+00  0.45593999997E+02  0.45594000000E+02  0.51100000000E-03 0.  1.
         11   -1    0    0    0    0 -0.00000000000E+00 -0.00000000000E+00 -0.45593999997E+02  0.45594000000E+02  0.51100000000E-03 0. -1.
    9900012    2    1    2    0    0  0.26602157636E+02 -0.29763326448E+02  0.77223793908E+01  0.50528861598E+02  0.30000005314E+02 0.  0.
        -12    1    1    2    0    0 -0.26602157636E+02  0.29763326448E+02 -0.77223793908E+01  0.40659138402E+02  0.00000000000E+00 0.  1.
         11    1    3    3    0    0  0.44459027878E+01 -0.20405864199E+02  0.21036475010E+01  0.20990251985E+02  0.51100000000E-03 0. -1.
        -11    1    3    3    0    0  0.64017026045E+01 -0.96143338298E+01  0.73442307018E+01  0.13687765928E+02  0.51100000000E-03 0.  1.
         12    1    3    3    0    0  0.15754552243E+02  0.25687158115E+00 -0.17254988120E+01  0.15850843686E+02  0.00000000000E+00 0. -1.
</event>
<event>
 7    1  0.5855569E-013  0.5052886E+02  0.7816164E-02  0.1300439E+00
        -11   -1    0    0    0    0  0.00000000000E+00  0.00000000000E+00  0.45593999997E+02  0.45594000000E+02  0.51100000000E-03 0.  1.
         11   -1    0    0    0    0 -0.00000000000E+00 -0.00000000000E+00 -0.45593999997E+02  0.45594000000E+02  0.51100000000E-03 0. -1.
    9900012    2    1    2    0    0  0.31149783882E+02  0.25387653576E+02 -0.61906384172E+01  0.50528855961E+02  0.29999988178E+02 0.  0.
        -12    1    1    2    0    0 -0.31149783882E+02 -0.25387653576E+02  0.61906384172E+01  0.40659144039E+02  0.00000000000E+00 0.  1.
         11    1    3    3    0    0  0.98336768367E+00  0.22432553057E+01 -0.10831831948E+02  0.11105304587E+02  0.51100000000E-03 0. -1.
        -11    1    3    3    0    0  0.20172332724E+01  0.72122050418E-01  0.21391202514E+01  0.29411336890E+01  0.51100000000E-03 0.  1.
         12    1    3    3    0    0  0.28149182926E+02  0.23072276220E+02  0.25020732794E+01  0.36482417684E+02  0.00000000000E+00 0. -1.
</event>
<event>
 7    1  0.5855569E-013  0.5052885E+02  0.7816164E-02  0.1300439E+00
        -11   -1    0    0    0    0  0.00000000000E+00  0.00000000000E+00  0.45593999997E+02  0.45594000000E+02  0.51100000000E-03 0. -1.
         11   -1    0    0    0    0 -0.00000000000E+00 -0.00000000000E+00 -0.45593999997E+02  0.45594000000E+02  0.51100000000E-03 0.  1.
    9900012    2    1    2    0    0  0.21780972038E+02 -0.34311054000E+02  0.12276001801E+01  0.50528853776E+02  0.29999981537E+02 0.  0.
        -12    1    1    2    0    0 -0.21780972038E+02  0.34311054000E+02 -0.12276001801E+01  0.40659146224E+02  0.00000000000E+00 0.  1.
         11    1    3    3    0    0  0.18535803891E+02 -0.16507355857E+02  0.31667953089E+01  0.25021938695E+02  0.51100000000E-03 0. -1.
        -11    1    3    3    0    0  0.66513734650E+01 -0.17573233869E+02 -0.64354842293E+01  0.19861389053E+02  0.51100000000E-03 0.  1.
         12    1    3    3    0    0 -0.34062053188E+01 -0.23046427402E+00  0.44962891004E+01  0.56455260278E+01  0.00000000000E+00 0. -1.
</event>
<event>
 7    1  0.5855569E-013  0.5052886E+02  0.7816164E-02  0.1300439E+00
        -11   -1    0    0    0    0  0.00000000000E+00  0.00000000000E+00  0.45593999997E+02  0.45594000000E+02  0.51100000000E-03 0.  1.
         11   -1    0    0    0    0 -0.00000000000E+00 -0.00000000000E+00 -0.45593999997E+02  0.45594000000E+02  0.51100000000E-03 0. -1.
    9900012    2    1    2    0    0  0.34576075672E+02  0.14923004229E+02 -0.15328553785E+02  0.50528860496E+02  0.30000001963E+02 0.  0.
        -12    1    1    2    0    0 -0.34576075672E+02 -0.14923004229E+02  0.15328553785E+02  0.40659139504E+02  0.00000000000E+00 0.  1.
         11    1    3    3    0    0  0.12842165735E+02  0.19424017974E+02 -0.64216397105E+01  0.24154733529E+02  0.51100000000E-03 0. -1.
        -11    1    3    3    0    0  0.14531708895E+02  0.17438931156E+01 -0.23975177924E+01  0.14831042392E+02  0.51100000000E-03 0.  1.
        -12    1    3    3    0    0  0.72022010425E+01 -0.62449068605E+01 -0.65093962818E+01  0.11543084575E+02  0.00000000000E+00 0.  1.
</event>
<event>
 7    1  0.5855569E-013  0.5052884E+02  0.7816164E-02  0.1300439E+00
        -11   -1    0    0    0    0  0.00000000000E+00  0.00000000000E+00  0.45593999997E+02  0.45594000000E+02  0.51100000000E-03 0.  1.
         11   -1    0    0    0    0 -0.00000000000E+00 -0.00000000000E+00 -0.45593999997E+02  0.45594000000E+02  0.51100000000E-03 0. -1.
    9900012    2    1    2    0    0 -0.43676804955E+01 -0.13238091882E+02 -0.38194808942E+02  0.50528841872E+02  0.29999945353E+02 0.  0.
        -12    1    1    2    0    0  0.43676804955E+01  0.13238091882E+02  0.38194808942E+02  0.40659158128E+02  0.00000000000E+00 0.  1.
         11    1    3    3    0    0 -0.61070632070E+01 -0.57835983549E+01 -0.19519340227E+01  0.86345977113E+01  0.51100000000E-03 0. -1.
        -11    1    3    3    0    0  0.33469729722E+01 -0.52401926733E+01 -0.71238300956E+00  0.62585411354E+01  0.51100000000E-03 0.  1.
         12    1    3    3    0    0 -0.16075902606E+01 -0.22143008538E+01 -0.35530491910E+02  0.35635703025E+02  0.00000000000E+00 0. -1.
</event>
<event>
 7    1  0.5855569E-013  0.5052886E+02  0.7816164E-02  0.1300439E+00
        -11   -1    0    0    0    0  0.00000000000E+00  0.00000000000E+00  0.45593999997E+02  0.45594000000E+02  0.51100000000E-03 0.  1.
         11   -1    0    0    0    0 -0.00000000000E+00 -0.00000000000E+00 -0.45593999997E+02  0.45594000000E+02  0.51100000000E-03 0. -1.
    9900012    2    1    2    0    0 -0.39424412295E+02  0.96345395756E+01  0.24610743767E+01  0.50528861732E+02  0.30000005720E+02 0.  0.
        -12    1    1    2    0    0  0.39424412295E+02 -0.96345395756E+01 -0.24610743767E+01  0.40659138268E+02  0.00000000000E+00 0.  1.
         11    1    3    3    0    0 -0.35158475821E+01  0.21839517755E+01 -0.59041920352E+01  0.72104308768E+01  0.51100000000E-03 0. -1.
        -11    1    3    3    0    0 -0.26379657922E+00  0.29221494970E+01 -0.43126871572E+01  0.52161113001E+01  0.51100000000E-03 0.  1.
         12    1    3    3    0    0 -0.35644768134E+02  0.45284383031E+01  0.12677953569E+02  0.38102319555E+02  0.00000000000E+00 0. -1.
</event>
<event>
 7    1  0.5855569E-013  0.5052886E+02  0.7816164E-02  0.1300439E+00
        -11   -1    0    0    0    0  0.00000000000E+00  0.00000000000E+00  0.45593999997E+02  0.45594000000E+02  0.51100000000E-03 0.  1.
         11   -1    0    0    0    0 -0.00000000000E+00 -0.00000000000E+00 -0.45593999997E+02  0.45594000000E+02  0.51100000000E-03 0. -1.
    9900012    2    1    2    0    0  0.28278879236E+02 -0.52009232791E+01 -0.28747536854E+02  0.50528862171E+02  0.30000007056E+02 0.  0.
        -12    1    1    2    0    0 -0.28278879236E+02  0.52009232791E+01  0.28747536854E+02  0.40659137829E+02  0.00000000000E+00 0.  1.
         11    1    3    3    0    0  0.64602333051E+01  0.13256051192E+01 -0.31248536744E+01  0.72977088210E+01  0.51100000000E-03 0. -1.
        -11    1    3    3    0    0  0.34222268790E+01  0.97022021672E+01 -0.75847984657E+01  0.12781765595E+02  0.51100000000E-03 0.  1.
         12    1    3    3    0    0  0.18396419052E+02 -0.16228730565E+02 -0.18037884714E+02  0.30449387755E+02  0.00000000000E+00 0. -1.
</event>
<event>
 7    1  0.5855569E-013  0.5052884E+02  0.7816164E-02  0.1300439E+00
        -11   -1    0    0    0    0  0.00000000000E+00  0.00000000000E+00  0.45593999997E+02  0.45594000000E+02  0.51100000000E-03 0. -1.
         11   -1    0    0    0    0 -0.00000000000E+00 -0.00000000000E+00 -0.45593999997E+02  0.45594000000E+02  0.51100000000E-03 0.  1.
    9900012    2    1    2    0    0 -0.21571099670E+02 -0.18730077638E+02  0.28931629300E+02  0.50528839614E+02  0.29999938490E+02 0.  0.
        -12    1    1    2    0    0  0.21571099670E+02  0.18730077638E+02 -0.28931629300E+02  0.40659160386E+02  0.00000000000E+00 0.  1.
         11    1    3    3    0    0 -0.99109219785E+01 -0.12046817649E+02  0.20128934723E+02  0.25466177634E+02  0.51100000000E-03 0. -1.
        -11    1    3    3    0    0 -0.14585583915E+02 -0.60274702450E+01  0.12621085974E+02  0.20207955540E+02  0.51100000000E-03 0.  1.
         12    1    3    3    0    0  0.29254062232E+01 -0.65578974398E+00 -0.38183913964E+01  0.48547064396E+01  0.00000000000E+00 0. -1.
</event>
<event>
 7    1  0.5855569E-013  0.5052887E+02  0.7816164E-02  0.1300439E+00
        -11   -1    0    0    0    0  0.00000000000E+00  0.00000000000E+00  0.45593999997E+02  0.45594000000E+02  0.51100000000E-03 0.  1.
         11   -1    0    0    0    0 -0.00000000000E+00 -0.00000000000E+00 -0.45593999997E+02  0.45594000000E+02  0.51100000000E-03 0. -1.
    9900012    2    1    2    0    0 -0.19968919833E+02  0.28406894543E+02 -0.21153146791E+02  0.50528867741E+02  0.30000023986E+02 0.  0.
        -12    1    1    2    0    0  0.19968919833E+02 -0.28406894543E+02  0.21153146791E+02  0.40659132259E+02  0.00000000000E+00 0.  1.
         11    1    3    3    0    0 -0.76643443393E+01  0.59644516297E+01  0.85867547050E+00  0.97495733865E+01  0.51100000000E-03 0. -1.
        -11    1    3    3    0    0  0.17483122161E+01  0.17782110249E+02 -0.57108444039E+01  0.18758299086E+02  0.51100000000E-03 0.  1.
         12    1    3    3    0    0 -0.14052887710E+02  0.46603326639E+01 -0.16300977858E+02  0.22020995269E+02  0.00000000000E+00 0. -1.
</event>
<event>
 7    1  0.5855569E-013  0.5052886E+02  0.7816164E-02  0.1300439E+00
        -11   -1    0    0    0    0  0.00000000000E+00  0.00000000000E+00  0.45593999997E+02  0.45594000000E+02  0.51100000000E-03 0.  1.
         11   -1    0    0    0    0 -0.00000000000E+00 -0.00000000000E+00 -0.45593999997E+02  0.45594000000E+02  0.51100000000E-03 0. -1.
    9900012    2    1    2    0    0 -0.30809056281E+02  0.10635775645E+02 -0.24307356817E+02  0.50528864890E+02  0.30000015319E+02 0.  0.
        -12    1    1    2    0    0  0.30809056281E+02 -0.10635775645E+02  0.24307356817E+02  0.40659135110E+02  0.00000000000E+00 0.  1.
         11    1    3    3    0    0 -0.14400866903E+02  0.11149391447E+02 -0.17487364164E+02  0.25248798048E+02  0.51100000000E-03 0. -1.
        -11    1    3    3    0    0 -0.13869923949E+01  0.72862276422E+01 -0.20379910469E+01  0.76919613186E+01  0.51100000000E-03 0.  1.
         12    1    3    3    0    0 -0.15021196983E+02 -0.77998434436E+01 -0.47820016061E+01  0.17588105524E+02  0.00000000000E+00 0. -1.
</event>
<event>
 7    1  0.5855569E-013  0.5052886E+02  0.7816164E-02  0.1300439E+00
        -11   -1    0    0    0    0  0.00000000000E+00  0.00000000000E+00  0.45593999997E+02  0.45594000000E+02  0.51100000000E-03 0.  1.
         11   -1    0    0    0    0 -0.00000000000E+00 -0.00000000000E+00 -0.45593999997E+02  0.45594000000E+02  0.51100000000E-03 0. -1.
    9900012    2    1    2    0    0 -0.28061232458E+02 -0.95383566477E+01 -0.27834376939E+02  0.50528861369E+02  0.30000004618E+02 0.  0.
        -12    1    1    2    0    0  0.28061232458E+02  0.95383566477E+01  0.27834376939E+02  0.40659138631E+02  0.00000000000E+00 0.  1.
         11    1    3    3    0    0 -0.10038187536E+02 -0.66203952259E+01  0.73898082982E-01  0.12024986617E+02  0.51100000000E-03 0. -1.
        -11    1    3    3    0    0  0.65984944965E+00  0.57281454144E+01 -0.80367960671E+01  0.98912659691E+01  0.51100000000E-03 0.  1.
         12    1    3    3    0    0 -0.18682894371E+02 -0.86461068362E+01 -0.19871478955E+02  0.28612608783E+02  0.00000000000E+00 0. -1.
</event>
<event>
 7    1  0.5855569E-013  0.5052886E+02  0.7816164E-02  0.1300439E+00
        -11   -1    0    0    0    0  0.00000000000E+00  0.00000000000E+00  0.45593999997E+02  0.45594000000E+02  0.51100000000E-03 0.  1.
         11   -1    0    0    0    0 -0.00000000000E+00 -0.00000000000E+00 -0.45593999997E+02  0.45594000000E+02  0.51100000000E-03 0. -1.
    9900012    2    1    2    0    0 -0.12054538792E+02 -0.34940804961E+02 -0.16940903220E+02  0.50528856394E+02  0.29999989497E+02 0.  0.
        -12    1    1    2    0    0  0.12054538792E+02  0.34940804961E+02  0.16940903220E+02  0.40659143606E+02  0.00000000000E+00 0.  1.
         11    1    3    3    0    0 -0.59756644655E+01 -0.48633256054E+01 -0.55944867204E+01  0.95214906225E+01  0.51100000000E-03 0. -1.
        -11    1    3    3    0    0 -0.60675268312E+01 -0.58127232336E+01 -0.14277189354E+02  0.16566253932E+02  0.51100000000E-03 0.  1.
         12    1    3    3    0    0 -0.11347495396E-01 -0.24264756122E+02  0.29307728543E+01  0.24441111839E+02  0.00000000000E+00 0. -1.
</event>
<event>
 7    1  0.5855569E-013  0.5052886E+02  0.7816164E-02  0.1300439E+00
        -11   -1    0    0    0    0  0.00000000000E+00  0.00000000000E+00  0.45593999997E+02  0.45594000000E+02  0.51100000000E-03 0. -1.
         11   -1    0    0    0    0 -0.00000000000E+00 -0.00000000000E+00 -0.45593999997E+02  0.45594000000E+02  0.51100000000E-03 0.  1.
    9900012    2    1    2    0    0 -0.37593095248E+02 -0.14178635379E+02  0.62362680812E+01  0.50528861407E+02  0.30000004734E+02 0.  0.
        -12    1    1    2    0    0  0.37593095248E+02  0.14178635379E+02 -0.62362680812E+01  0.40659138593E+02  0.00000000000E+00 0.  1.
         11    1    3    3    0    0 -0.89284457753E+01 -0.29434517592E+00 -0.79495204293E+01  0.11958204646E+02  0.51100000000E-03 0. -1.
        -11    1    3    3    0    0 -0.24504640011E+00  0.28654796867E+01  0.10032186915E+01  0.30458938880E+01  0.51100000000E-03 0.  1.
         12    1    3    3    0    0 -0.28419603072E+02 -0.16749769890E+02  0.13182569819E+02  0.35524762873E+02  0.00000000000E+00 0. -1.
</event>
<event>
 7    1  0.5855569E-013  0.5052886E+02  0.7816164E-02  0.1300439E+00
        -11   -1    0    0    0    0  0.00000000000E+00  0.00000000000E+00  0.45593999997E+02  0.45594000000E+02  0.51100000000E-03 0. -1.
         11   -1    0    0    0    0 -0.00000000000E+00 -0.00000000000E+00 -0.45593999997E+02  0.45594000000E+02  0.51100000000E-03 0.  1.
    9900012    2    1    2    0    0 -0.40119969600E+01  0.73866494134E+01  0.39780731998E+02  0.50528863911E+02  0.30000012345E+02 0.  0.
        -12    1    1    2    0    0  0.40119969600E+01 -0.73866494134E+01 -0.39780731998E+02  0.40659136089E+02  0.00000000000E+00 0.  1.
         11    1    3    3    0    0  0.37302985114E+01  0.65478964271E+01  0.17230591380E+02  0.18806471071E+02  0.51100000000E-03 0. -1.
        -11    1    3    3    0    0  0.29147489053E+01  0.72559066266E+01  0.15655258097E+02  0.17499458520E+02  0.51100000000E-03 0.  1.
        -12    1    3    3    0    0 -0.10657044377E+02 -0.64171536403E+01  0.68948825221E+01  0.14222934320E+02  0.00000000000E+00 0.  1.
</event>
<event>
 7    1  0.5855569E-013  0.5052886E+02  0.7816164E-02  0.1300439E+00
        -11   -1    0    0    0    0  0.00000000000E+00  0.00000000000E+00  0.45593999997E+02  0.45594000000E+02  0.51100000000E-03 0. -1.
         11   -1    0    0    0    0 -0.00000000000E+00 -0.00000000000E+00 -0.45593999997E+02  0.45594000000E+02  0.51100000000E-03 0.  1.
    9900012    2    1    2    0    0  0.70219640767E-01  0.21274208363E+02  0.34649227266E+02  0.50528858071E+02  0.29999994593E+02 0.  0.
        -12    1    1    2    0    0 -0.70219640767E-01 -0.21274208363E+02 -0.34649227266E+02  0.40659141929E+02  0.00000000000E+00 0.  1.
         11    1    3    3    0    0 -0.47156841127E+01  0.24662439081E+01  0.30787476088E+01  0.61480665876E+01  0.51100000000E-03 0. -1.
        -11    1    3    3    0    0 -0.58372568780E+01  0.70430360243E+01  0.10505838027E+00  0.91481671292E+01  0.51100000000E-03 0.  1.
         12    1    3    3    0    0  0.10623160632E+02  0.11764928430E+02  0.31465421277E+02  0.35232624354E+02  0.00000000000E+00 0. -1.
</event>
<event>
 7    1  0.5855569E-013  0.5052887E+02  0.7816164E-02  0.1300439E+00
        -11   -1    0    0    0    0  0.00000000000E+00  0.00000000000E+00  0.45593999997E+02  0.45594000000E+02  0.51100000000E-03 0.  1.
         11   -1    0    0    0    0 -0.00000000000E+00 -0.00000000000E+00 -0.45593999997E+02  0.45594000000E+02  0.51100000000E-03 0. -1.
    9900012    2    1    2    0    0 -0.38904845810E+02 -0.10217385760E+02  0.59315191987E+01  0.50528869178E+02  0.30000028352E+02 0.  0.
        -12    1    1    2    0    0  0.38904845810E+02  0.10217385760E+02 -0.59315191987E+01  0.40659130822E+02  0.00000000000E+00 0.  1.
         11    1    3    3    0    0 -0.55495410909E+01 -0.48639574344E+01 -0.95406393655E+01  0.12061479512E+02  0.51100000000E-03 0.  1.
        -11    1    3    3    0    0 -0.12069834157E+02  0.95804488691E+00  0.14158610240E+01  0.12190299803E+02  0.51100000000E-03 0. -1.
        -12    1    3    3    0    0 -0.21285470562E+02 -0.63114732124E+01  0.14056297540E+02  0.26277089863E+02  0.00000000000E+00 0.  1.
</event>
<event>
 7    1  0.5855569E-013  0.5052885E+02  0.7816164E-02  0.1300439E+00
        -11   -1    0    0    0    0  0.00000000000E+00  0.00000000000E+00  0.45593999997E+02  0.45594000000E+02  0.51100000000E-03 0. -1.
         11   -1    0    0    0    0 -0.00000000000E+00 -0.00000000000E+00 -0.45593999997E+02  0.45594000000E+02  0.51100000000E-03 0.  1.
    9900012    2    1    2    0    0  0.97013295365E+00  0.31026404248E+02  0.26259994542E+02  0.50528853036E+02  0.29999979288E+02 0.  0.
        -12    1    1    2    0    0 -0.97013295365E+00 -0.31026404248E+02 -0.26259994542E+02  0.40659146964E+02  0.00000000000E+00 0.  1.
         11    1    3    3    0    0  0.18174241081E+01  0.41887966527E+01  0.12406638270E+02  0.13220201255E+02  0.51100000000E-03 0. -1.
        -11    1    3    3    0    0  0.13159581871E+01 -0.30335916677E+01  0.51500721378E+01  0.61202669584E+01  0.51100000000E-03 0.  1.
         12    1    3    3    0    0 -0.21632493416E+01  0.29871199263E+02  0.87032841340E+01  0.31188384822E+02  0.00000000000E+00 0. -1.
</event>
<event>
 7    1  0.5855569E-013  0.5052886E+02  0.7816164E-02  0.1300439E+00
        -11   -1    0    0    0    0  0.00000000000E+00  0.00000000000E+00  0.45593999997E+02  0.45594000000E+02  0.51100000000E-03 0.  1.
         11   -1    0    0    0    0 -0.00000000000E+00 -0.00000000000E+00 -0.45593999997E+02  0.45594000000E+02  0.51100000000E-03 0. -1.
    9900012    2    1    2    0    0  0.89017378023E+01  0.23464310766E+02 -0.31989856856E+02  0.50528858872E+02  0.29999997028E+02 0.  0.
        -12    1    1    2    0    0 -0.89017378023E+01 -0.23464310766E+02  0.31989856856E+02  0.40659141128E+02  0.00000000000E+00 0.  1.
         11    1    3    3    0    0 -0.10221792637E+01  0.20251240911E+01  0.88644776674E+00  0.24355221074E+01  0.51100000000E-03 0. -1.
        -11    1    3    3    0    0 -0.62120029642E+00  0.10095685722E+02  0.16536091459E+01  0.10249057687E+02  0.51100000000E-03 0.  1.
         12    1    3    3    0    0  0.10545117362E+02  0.11343500952E+02 -0.34529913768E+02  0.37844279077E+02  0.00000000000E+00 0. -1.
</event>
<event>
 7    1  0.5855569E-013  0.5052886E+02  0.7816164E-02  0.1300439E+00
        -11   -1    0    0    0    0  0.00000000000E+00  0.00000000000E+00  0.45593999997E+02  0.45594000000E+02  0.51100000000E-03 0. -1.
         11   -1    0    0    0    0 -0.00000000000E+00 -0.00000000000E+00 -0.45593999997E+02  0.45594000000E+02  0.51100000000E-03 0.  1.
    9900012    2    1    2    0    0  0.31728410841E+02  0.18547567184E+02  0.17391424627E+02  0.50528856459E+02  0.29999989692E+02 0.  0.
        -12    1    1    2    0    0 -0.31728410841E+02 -0.18547567184E+02 -0.17391424627E+02  0.40659143541E+02  0.00000000000E+00 0.  1.
         11    1    3    3    0    0  0.12330195730E+00 -0.27956126175E+01 -0.20048167240E+01  0.34423747091E+01  0.51100000000E-03 0. -1.
        -11    1    3    3    0    0  0.74524089804E+01  0.44776688667E+01 -0.39008619566E+01  0.95291469899E+01  0.51100000000E-03 0.  1.
         12    1    3    3    0    0  0.24152699903E+02  0.16865510935E+02  0.23297103308E+02  0.37557334760E+02  0.00000000000E+00 0. -1.
</event>
<event>
 7    1  0.5855569E-013  0.5052885E+02  0.7816164E-02  0.1300439E+00
        -11   -1    0    0    0    0  0.00000000000E+00  0.00000000000E+00  0.45593999997E+02  0.45594000000E+02  0.51100000000E-03 0.  1.
         11   -1    0    0    0    0 -0.00000000000E+00 -0.00000000000E+00 -0.45593999997E+02  0.45594000000E+02  0.51100000000E-03 0. -1.
    9900012    2    1    2    0    0 -0.27313480371E+02  0.29235649093E+02  0.72399684529E+01  0.50528849356E+02  0.29999968103E+02 0.  0.
        -12    1    1    2    0    0  0.27313480371E+02 -0.29235649093E+02 -0.72399684529E+01  0.40659150644E+02  0.00000000000E+00 0.  1.
         11    1    3    3    0    0 -0.67820992197E+01  0.19978669655E+02 -0.48966693798E+01  0.21659212412E+02  0.51100000000E-03 0. -1.
        -11    1    3    3    0    0  0.97253403544E+00  0.16116048538E+01  0.43760153521E+01  0.47636753960E+01  0.51100000000E-03 0.  1.
         12    1    3    3    0    0 -0.21503915187E+02  0.76453745839E+01  0.77606224806E+01  0.24105961549E+02  0.00000000000E+00 0. -1.
</event>
<event>
 7    1  0.5855569E-013  0.5052891E+02  0.7816164E-02  0.1300439E+00
        -11   -1    0    0    0    0  0.00000000000E+00  0.00000000000E+00  0.45593999997E+02  0.45594000000E+02  0.51100000000E-03 0. -1.
         11   -1    0    0    0    0 -0.00000000000E+00 -0.00000000000E+00 -0.45593999997E+02  0.45594000000E+02  0.51100000000E-03 0.  1.
    9900012    2    1    2    0    0 -0.30029731672E+02 -0.23811482742E+02  0.13579038831E+02  0.50528907655E+02  0.30000145309E+02 0.  0.
        -12    1    1    2    0    0  0.30029731672E+02  0.23811482742E+02 -0.13579038831E+02  0.40659092345E+02  0.00000000000E+00 0.  1.
         11    1    3    3    0    0  0.10116691256E+01 -0.78174976956E+01 -0.14503451163E+01  0.80150013012E+01  0.51100000000E-03 0.  1.
        -11    1    3    3    0    0 -0.24433797703E+02 -0.46153720120E+01  0.36785834914E+01  0.25136509419E+02  0.51100000000E-03 0. -1.
         12    1    3    3    0    0 -0.66076030947E+01 -0.11378613035E+02  0.11350800456E+02  0.17377396935E+02  0.00000000000E+00 0. -1.
</event>
<event>
 7    1  0.5855569E-013  0.5052885E+02  0.7816164E-02  0.1300439E+00
        -11   -1    0    0    0    0  0.00000000000E+00  0.00000000000E+00  0.45593999997E+02  0.45594000000E+02  0.51100000000E-03 0.  1.
         11   -1    0    0    0    0 -0.00000000000E+00 -0.00000000000E+00 -0.45593999997E+02  0.45594000000E+02  0.51100000000E-03 0. -1.
    9900012    2    1    2    0    0  0.37110653344E+02 -0.26920776912E+01 -0.16392645115E+02  0.50528847429E+02  0.29999962244E+02 0.  0.
        -12    1    1    2    0    0 -0.37110653344E+02  0.26920776912E+01  0.16392645115E+02  0.40659152571E+02  0.00000000000E+00 0.  1.
         11    1    3    3    0    0 -0.57707508006E+00 -0.43032098010E+01 -0.35868840119E+00  0.43565224514E+01  0.51100000000E-03 0. -1.
        -11    1    3    3    0    0  0.16962686491E+02 -0.97224111356E+01 -0.55136689196E+01  0.20313999028E+02  0.51100000000E-03 0.  1.
         12    1    3    3    0    0  0.20725041933E+02  0.11333543245E+02 -0.10520287794E+02  0.25858325950E+02  0.00000000000E+00 0. -1.
</event>
<event>
 7    1  0.5855569E-013  0.5052886E+02  0.7816164E-02  0.1300439E+00
        -11   -1    0    0    0    0  0.00000000000E+00  0.00000000000E+00  0.45593999997E+02  0.45594000000E+02  0.51100000000E-03 0. -1.
         11   -1    0    0    0    0 -0.00000000000E+00 -0.00000000000E+00 -0.45593999997E+02  0.45594000000E+02  0.51100000000E-03 0.  1.
    9900012    2    1    2    0    0 -0.28974186365E+02 -0.81888315750E+01  0.27324072210E+02  0.50528863755E+02  0.30000011871E+02 0.  0.
        -12    1    1    2    0    0  0.28974186365E+02  0.81888315750E+01 -0.27324072210E+02  0.40659136245E+02  0.00000000000E+00 0.  1.
         11    1    3    3    0    0 -0.13345770484E+02 -0.88475652285E+01  0.90411428320E+01  0.18388345881E+02  0.51100000000E-03 0.  1.
        -11    1    3    3    0    0  0.31723136761E+01  0.46716656922E+01  0.93942050307E+01  0.10960799370E+02  0.51100000000E-03 0. -1.
         12    1    3    3    0    0 -0.18800729557E+02 -0.40129320387E+01  0.88887243470E+01  0.21179718504E+02  0.00000000000E+00 0. -1.
</event>
<event>
 7    1  0.5855569E-013  0.5052885E+02  0.7816164E-02  0.1300439E+00
        -11   -1    0    0    0    0  0.00000000000E+00  0.00000000000E+00  0.45593999997E+02  0.45594000000E+02  0.51100000000E-03 0. -1.
         11   -1    0    0    0    0 -0.00000000000E+00 -0.00000000000E+00 -0.45593999997E+02  0.45594000000E+02  0.51100000000E-03 0.  1.
    9900012    2    1    2    0    0  0.27294053110E+01 -0.36803911521E+02  0.17064251235E+02  0.50528853098E+02  0.29999979476E+02 0.  0.
        -12    1    1    2    0    0 -0.27294053110E+01  0.36803911521E+02 -0.17064251235E+02  0.40659146902E+02  0.00000000000E+00 0.  1.
         11    1    3    3    0    0 -0.90637972694E+00 -0.30985855147E+01  0.37625898367E+01  0.49578058596E+01  0.51100000000E-03 0. -1.
        -11    1    3    3    0    0 -0.59393409608E+01 -0.15763861385E+01 -0.44962483473E+01  0.76142638362E+01  0.51100000000E-03 0.  1.
        -12    1    3    3    0    0  0.95751259988E+01 -0.32128939868E+02  0.17797909746E+02  0.37956783402E+02  0.00000000000E+00 0.  1.
</event>
<event>
 7    1  0.5855569E-013  0.5052886E+02  0.7816164E-02  0.1300439E+00
        -11   -1    0    0    0    0  0.00000000000E+00  0.00000000000E+00  0.45593999997E+02  0.45594000000E+02  0.51100000000E-03 0. -1.
         11   -1    0    0    0    0 -0.00000000000E+00 -0.00000000000E+00 -0.45593999997E+02  0.45594000000E+02  0.51100000000E-03 0.  1.
    9900012    2    1    2    0    0  0.36401780185E+02  0.24689384646E+01  0.17943817963E+02  0.50528857598E+02  0.29999993156E+02 0.  0.
        -12    1    1    2    0    0 -0.36401780185E+02 -0.24689384646E+01 -0.17943817963E+02  0.40659142402E+02  0.00000000000E+00 0.  1.
         11    1    3    3    0    0  0.28502592632E+02 -0.76329669629E+01  0.18817295053E+02  0.34996436458E+02  0.51100000000E-03 0. -1.
        -11    1    3    3    0    0 -0.85437443556E+00  0.45555101074E+01  0.15551027522E+01  0.48888621218E+01  0.51100000000E-03 0.  1.
        -12    1    3    3    0    0  0.87535619879E+01  0.55463953201E+01 -0.24285798423E+01  0.10643559018E+02  0.00000000000E+00 0.  1.
</event>
<event>
 7    1  0.5855569E-013  0.5052884E+02  0.7816164E-02  0.1300439E+00
        -11   -1    0    0    0    0  0.00000000000E+00  0.00000000000E+00  0.45593999997E+02  0.45594000000E+02  0.51100000000E-03 0. -1.
         11   -1    0    0    0    0 -0.00000000000E+00 -0.00000000000E+00 -0.45593999997E+02  0.45594000000E+02  0.51100000000E-03 0.  1.
    9900012    2    1    2    0    0 -0.35000959829E+02 -0.20348785930E+02 -0.37452118420E+01  0.50528844948E+02  0.29999954705E+02 0.  0.
        -12    1    1    2    0    0  0.35000959829E+02  0.20348785930E+02  0.37452118420E+01  0.40659155052E+02  0.00000000000E+00 0.  1.
         11    1    3    3    0    0 -0.19053528275E+02 -0.95775585416E+01  0.13267343229E+01  0.21366487581E+02  0.51100000000E-03 0. -1.
        -11    1    3    3    0    0  0.16832322535E+01 -0.16996432169E+01  0.59954698783E+01  0.64550536177E+01  0.51100000000E-03 0.  1.
         12    1    3    3    0    0 -0.17630663808E+02 -0.90715841715E+01 -0.11067416043E+02  0.22707303749E+02  0.00000000000E+00 0. -1.
</event>
<event>
 7    1  0.5855569E-013  0.5052886E+02  0.7816164E-02  0.1300439E+00
        -11   -1    0    0    0    0  0.00000000000E+00  0.00000000000E+00  0.45593999997E+02  0.45594000000E+02  0.51100000000E-03 0.  1.
         11   -1    0    0    0    0 -0.00000000000E+00 -0.00000000000E+00 -0.45593999997E+02  0.45594000000E+02  0.51100000000E-03 0. -1.
    9900012    2    1    2    0    0  0.93825846671E+01 -0.35944338996E+02 -0.16526857115E+02  0.50528863179E+02  0.30000010119E+02 0.  0.
        -12    1    1    2    0    0 -0.93825846671E+01  0.35944338996E+02  0.16526857115E+02  0.40659136821E+02  0.00000000000E+00 0.  1.
         11    1    3    3    0    0  0.37812935894E+01 -0.10393359829E+02 -0.57219017008E+01  0.12452319827E+02  0.51100000000E-03 0. -1.
        -11    1    3    3    0    0 -0.22946450451E+01 -0.18716066376E+02 -0.17455578439E+02  0.25695403390E+02  0.51100000000E-03 0.  1.
        -12    1    3    3    0    0  0.78959361228E+01 -0.68349127913E+01  0.66506230253E+01  0.12381139961E+02  0.00000000000E+00 0.  1.
</event>
<event>
 7    1  0.5855569E-013  0.5052886E+02  0.7816164E-02  0.1300439E+00
        -11   -1    0    0    0    0  0.00000000000E+00  0.00000000000E+00  0.45593999997E+02  0.45594000000E+02  0.51100000000E-03 0.  1.
         11   -1    0    0    0    0 -0.00000000000E+00 -0.00000000000E+00 -0.45593999997E+02  0.45594000000E+02  0.51100000000E-03 0. -1.
    9900012    2    1    2    0    0 -0.26063088782E+01  0.40332782830E+02  0.44316798470E+01  0.50528855850E+02  0.29999987842E+02 0.  0.
        -12    1    1    2    0    0  0.26063088782E+01 -0.40332782830E+02 -0.44316798470E+01  0.40659144150E+02  0.00000000000E+00 0.  1.
         11    1    3    3    0    0 -0.60207314668E+01  0.18867626412E+02 -0.55800989072E+01  0.20576054964E+02  0.51100000000E-03 0. -1.
        -11    1    3    3    0    0 -0.64346947923E+01  0.79562513817E+01  0.82460106624E+01  0.13141686544E+02  0.51100000000E-03 0.  1.
         12    1    3    3    0    0  0.98491173809E+01  0.13508905036E+02  0.17657680918E+01  0.16811114342E+02  0.00000000000E+00 0. -1.
</event>
<event>
 7    1  0.5855569E-013  0.5052885E+02  0.7816164E-02  0.1300439E+00
        -11   -1    0    0    0    0  0.00000000000E+00  0.00000000000E+00  0.45593999997E+02  0.45594000000E+02  0.51100000000E-03 0. -1.
         11   -1    0    0    0    0 -0.00000000000E+00 -0.00000000000E+00 -0.45593999997E+02  0.45594000000E+02  0.51100000000E-03 0.  1.
    9900012    2    1    2    0    0 -0.32410467540E+02  0.13265315123E+02  0.20658152392E+02  0.50528852791E+02  0.29999978545E+02 0.  0.
        -12    1    1    2    0    0  0.32410467540E+02 -0.13265315123E+02 -0.20658152392E+02  0.40659147209E+02  0.00000000000E+00 0.  1.
         11    1    3    3    0    0 -0.95833408384E+01  0.13890125316E+02  0.13241812086E+02  0.21450444996E+02  0.51100000000E-03 0. -1.
        -11    1    3    3    0    0 -0.20614103273E+01  0.53919535564E+01 -0.10365231602E+01  0.58648918332E+01  0.51100000000E-03 0.  1.
        -12    1    3    3    0    0 -0.20765716375E+02 -0.60167637498E+01  0.84528634653E+01  0.23213515962E+02  0.00000000000E+00 0.  1.
</event>
<event>
 7    1  0.5855569E-013  0.5052884E+02  0.7816164E-02  0.1300439E+00
        -11   -1    0    0    0    0  0.00000000000E+00  0.00000000000E+00  0.45593999997E+02  0.45594000000E+02  0.51100000000E-03 0. -1.
         11   -1    0    0    0    0 -0.00000000000E+00 -0.00000000000E+00 -0.45593999997E+02  0.45594000000E+02  0.51100000000E-03 0.  1.
    9900012    2    1    2    0    0  0.15150551997E+02 -0.99245279559E+01  0.36402359497E+02  0.50528840418E+02  0.29999940935E+02 0.  0.
        -12    1    1    2    0    0 -0.15150551997E+02  0.99245279559E+01 -0.36402359497E+02  0.40659159582E+02  0.00000000000E+00 0.  1.
         11    1    3    3    0    0  0.15060884916E+02 -0.58090605117E+01  0.29649071636E+02  0.33758597240E+02  0.51100000000E-03 0. -1.
        -11    1    3    3    0    0  0.35467708016E+01 -0.86677869152E+01  0.26477880867E+01  0.97324660359E+01  0.51100000000E-03 0.  1.
         12    1    3    3    0    0 -0.34571037214E+01  0.45523194711E+01  0.41054997747E+01  0.70377771425E+01  0.00000000000E+00 0. -1.
</event>
<event>
 7    1  0.5855569E-013  0.5052885E+02  0.7816164E-02  0.1300439E+00
        -11   -1    0    0    0    0  0.00000000000E+00  0.00000000000E+00  0.45593999997E+02  0.45594000000E+02  0.51100000000E-03 0.  1.
         11   -1    0    0    0    0 -0.00000000000E+00 -0.00000000000E+00 -0.45593999997E+02  0.45594000000E+02  0.51100000000E-03 0. -1.
    9900012    2    1    2    0    0  0.33541266494E+02  0.33284315475E+01  0.22739208201E+02  0.50528848457E+02  0.29999965371E+02 0.  0.
        -12    1    1    2    0    0 -0.33541266494E+02 -0.33284315475E+01 -0.22739208201E+02  0.40659151543E+02  0.00000000000E+00 0.  1.
         11    1    3    3    0    0  0.59782936509E+01  0.25078854157E+01 -0.34407382777E+01  0.73394934697E+01  0.51100000000E-03 0. -1.
        -11    1    3    3    0    0  0.11132072548E+02  0.74270210504E+01  0.24902086556E+01  0.13611936685E+02  0.51100000000E-03 0.  1.
        -12    1    3    3    0    0  0.16430900294E+02 -0.66064749185E+01  0.23689737823E+02  0.29577418303E+02  0.00000000000E+00 0.  1.
</event>
<event>
 7    1  0.5855569E-013  0.5052890E+02  0.7816164E-02  0.1300439E+00
        -11   -1    0    0    0    0  0.00000000000E+00  0.00000000000E+00  0.45593999997E+02  0.45594000000E+02  0.51100000000E-03 0.  1.
         11   -1    0    0    0    0 -0.00000000000E+00 -0.00000000000E+00 -0.45593999997E+02  0.45594000000E+02  0.51100000000E-03 0. -1.
    9900012    2    1    2    0    0  0.30510545438E+02  0.12936127262E+02  0.23556861626E+02  0.50528898914E+02  0.30000118738E+02 0.  0.
        -12    1    1    2    0    0 -0.30510545438E+02 -0.12936127262E+02 -0.23556861626E+02  0.40659101086E+02  0.00000000000E+00 0.  1.
         11    1    3    3    0    0  0.19218404773E+01  0.21721949890E+01  0.20717723559E+01  0.35642871442E+01  0.51100000000E-03 0. -1.
        -11    1    3    3    0    0  0.11405309884E+02  0.75435309359E+01  0.25582992277E+02  0.29008196198E+02  0.51100000000E-03 0.  1.
         12    1    3    3    0    0  0.17183395077E+02  0.32204013371E+01 -0.40979030068E+01  0.17956415572E+02  0.00000000000E+00 0. -1.
</event>
<event>
 7    1  0.5855569E-013  0.5052887E+02  0.7816164E-02  0.1300439E+00
        -11   -1    0    0    0    0  0.00000000000E+00  0.00000000000E+00  0.45593999997E+02  0.45594000000E+02  0.51100000000E-03 0.  1.
         11   -1    0    0    0    0 -0.00000000000E+00 -0.00000000000E+00 -0.45593999997E+02  0.45594000000E+02  0.51100000000E-03 0. -1.
    9900012    2    1    2    0    0  0.28076352744E+02 -0.34306920699E+01 -0.29208114590E+02  0.50528865855E+02  0.30000018253E+02 0.  0.
        -12    1    1    2    0    0 -0.28076352744E+02  0.34306920699E+01  0.29208114590E+02  0.40659134145E+02  0.00000000000E+00 0.  1.
         11    1    3    3    0    0  0.11737725852E+02  0.93424265031E+00  0.76651519938E+00  0.11799769629E+02  0.51100000000E-03 0. -1.
        -11    1    3    3    0    0  0.90237641302E+01  0.43356901846E+01 -0.47903280875E+01  0.11098367984E+02  0.51100000000E-03 0.  1.
        -12    1    3    3    0    0  0.73148627625E+01 -0.87006249049E+01 -0.25184301702E+02  0.27630728242E+02  0.00000000000E+00 0.  1.
</event>
<event>
 7    1  0.5855569E-013  0.5052886E+02  0.7816164E-02  0.1300439E+00
        -11   -1    0    0    0    0  0.00000000000E+00  0.00000000000E+00  0.45593999997E+02  0.45594000000E+02  0.51100000000E-03 0. -1.
         11   -1    0    0    0    0 -0.00000000000E+00 -0.00000000000E+00 -0.45593999997E+02  0.45594000000E+02  0.51100000000E-03 0.  1.
    9900012    2    1    2    0    0 -0.15526848035E+02  0.32034097348E+02  0.19644318833E+02  0.50528860004E+02  0.30000000468E+02 0.  0.
        -12    1    1    2    0    0  0.15526848035E+02 -0.32034097348E+02 -0.19644318833E+02  0.40659139996E+02  0.00000000000E+00 0.  1.
         11    1    3    3    0    0 -0.29862453434E+01  0.16462844159E+02 -0.66505007431E+00  0.16744706355E+02  0.51100000000E-03 0. -1.
        -11    1    3    3    0    0 -0.24866407982E+01  0.80242924542E+01 -0.15739343240E+01  0.85469246731E+01  0.51100000000E-03 0.  1.
         12    1    3    3    0    0 -0.10053961893E+02  0.75469607350E+01  0.21883303231E+02  0.25237228976E+02  0.00000000000E+00 0. -1.
</event>
<event>
 7    1  0.5855569E-013  0.5052886E+02  0.7816164E-02  0.1300439E+00
        -11   -1    0    0    0    0  0.00000000000E+00  0.00000000000E+00  0.45593999997E+02  0.45594000000E+02  0.51100000000E-03 0.  1.
         11   -1    0    0    0    0 -0.00000000000E+00 -0.00000000000E+00 -0.45593999997E+02  0.45594000000E+02  0.51100000000E-03 0. -1.
    9900012    2    1    2    0    0  0.39652030241E+02  0.89778872301E+01 -0.52864845307E+00  0.50528862890E+02  0.30000009241E+02 0.  0.
        -12    1    1    2    0    0 -0.39652030241E+02 -0.89778872301E+01  0.52864845307E+00  0.40659137110E+02  0.00000000000E+00 0.  1.
         11    1    3    3    0    0  0.23269183718E+02  0.40623923059E+00 -0.11683505548E+02  0.26040818792E+02  0.51100000000E-03 0. -1.
        -11    1    3    3    0    0  0.78104780014E+01  0.88003820033E+00 -0.78462139899E+00  0.78989660618E+01  0.51100000000E-03 0.  1.
        -12    1    3    3    0    0  0.85723685219E+01  0.76916097992E+01  0.11939478494E+02  0.16589078036E+02  0.00000000000E+00 0.  1.
</event>
<event>
 7    1  0.5855569E-013  0.5052886E+02  0.7816164E-02  0.1300439E+00
        -11   -1    0    0    0    0  0.00000000000E+00  0.00000000000E+00  0.45593999997E+02  0.45594000000E+02  0.51100000000E-03 0. -1.
         11   -1    0    0    0    0 -0.00000000000E+00 -0.00000000000E+00 -0.45593999997E+02  0.45594000000E+02  0.51100000000E-03 0.  1.
    9900012    2    1    2    0    0 -0.62988670614E+01  0.25998157453E+01  0.40084048740E+02  0.50528859188E+02  0.29999997987E+02 0.  0.
        -12    1    1    2    0    0  0.62988670614E+01 -0.25998157453E+01 -0.40084048740E+02  0.40659140812E+02  0.00000000000E+00 0.  1.
         11    1    3    3    0    0 -0.25955882999E+01  0.84316833860E+01  0.54138504253E+01  0.10350852140E+02  0.51100000000E-03 0. -1.
        -11    1    3    3    0    0 -0.53418054006E+01 -0.45775768407E+01  0.18245508852E+01  0.72676048919E+01  0.51100000000E-03 0.  1.
         12    1    3    3    0    0  0.16385266391E+01 -0.12542908000E+01  0.32845647430E+02  0.32910402156E+02  0.00000000000E+00 0. -1.
</event>
<event>
 7    1  0.5855569E-013  0.5052886E+02  0.7816164E-02  0.1300439E+00
        -11   -1    0    0    0    0  0.00000000000E+00  0.00000000000E+00  0.45593999997E+02  0.45594000000E+02  0.51100000000E-03 0. -1.
         11   -1    0    0    0    0 -0.00000000000E+00 -0.00000000000E+00 -0.45593999997E+02  0.45594000000E+02  0.51100000000E-03 0.  1.
    9900012    2    1    2    0    0  0.15779108316E+02  0.30040278415E+02  0.22400166726E+02  0.50528855200E+02  0.29999985867E+02 0.  0.
        -12    1    1    2    0    0 -0.15779108316E+02 -0.30040278415E+02 -0.22400166726E+02  0.40659144800E+02  0.00000000000E+00 0.  1.
         11    1    3    3    0    0  0.15404231319E+01 -0.16794442083E+01  0.23568681286E+01  0.32784545003E+01  0.51100000000E-03 0.  1.
        -11    1    3    3    0    0  0.82984527853E+01 -0.12160560528E+01  0.82541575260E+01  0.11767507284E+02  0.51100000000E-03 0. -1.
        -12    1    3    3    0    0  0.59402323984E+01  0.32935778677E+02  0.11789141071E+02  0.35482893416E+02  0.00000000000E+00 0.  1.
</event>
<event>
 7    1  0.5855569E-013  0.5052889E+02  0.7816164E-02  0.1300439E+00
        -11   -1    0    0    0    0  0.00000000000E+00  0.00000000000E+00  0.45593999997E+02  0.45594000000E+02  0.51100000000E-03 0.  1.
         11   -1    0    0    0    0 -0.00000000000E+00 -0.00000000000E+00 -0.45593999997E+02  0.45594000000E+02  0.51100000000E-03 0. -1.
    9900012    2    1    2    0    0 -0.55816779055E+00  0.79387664721E+01 -0.39872647408E+02  0.50528885699E+02  0.30000078571E+02 0.  0.
        -12    1    1    2    0    0  0.55816779055E+00 -0.79387664721E+01  0.39872647408E+02  0.40659114301E+02  0.00000000000E+00 0.  1.
         11    1    3    3    0    0  0.24298602536E+01 -0.27985195799E+01 -0.76909681904E+01  0.85373839469E+01  0.51100000000E-03 0. -1.
        -11    1    3    3    0    0  0.69489535283E+01  0.13730422277E+01 -0.54824896829E-01  0.70835165086E+01  0.51100000000E-03 0.  1.
         12    1    3    3    0    0 -0.99369815725E+01  0.93642438244E+01 -0.32126854321E+02  0.34907985243E+02  0.00000000000E+00 0. -1.
</event>
<event>
 7    1  0.5855569E-013  0.5052886E+02  0.7816164E-02  0.1300439E+00
        -11   -1    0    0    0    0  0.00000000000E+00  0.00000000000E+00  0.45593999997E+02  0.45594000000E+02  0.51100000000E-03 0. -1.
         11   -1    0    0    0    0 -0.00000000000E+00 -0.00000000000E+00 -0.45593999997E+02  0.45594000000E+02  0.51100000000E-03 0.  1.
    9900012    2    1    2    0    0 -0.41425358611E+01 -0.57787968711E+01  0.40032617162E+02  0.50528861624E+02  0.30000005394E+02 0.  0.
        -12    1    1    2    0    0  0.41425358611E+01  0.57787968711E+01 -0.40032617162E+02  0.40659138376E+02  0.00000000000E+00 0.  1.
         11    1    3    3    0    0 -0.80728818743E+01  0.35116429017E+01  0.70136021403E+01  0.11255828396E+02  0.51100000000E-03 0.  1.
        -11    1    3    3    0    0 -0.20189932425E+01  0.95865404105E+00  0.24683398147E+02  0.24784380073E+02  0.51100000000E-03 0. -1.
         12    1    3    3    0    0  0.59493392558E+01 -0.10249093814E+02  0.83356168746E+01  0.14488653156E+02  0.00000000000E+00 0. -1.
</event>
<event>
 7    1  0.5855569E-013  0.5052886E+02  0.7816164E-02  0.1300439E+00
        -11   -1    0    0    0    0  0.00000000000E+00  0.00000000000E+00  0.45593999997E+02  0.45594000000E+02  0.51100000000E-03 0.  1.
         11   -1    0    0    0    0 -0.00000000000E+00 -0.00000000000E+00 -0.45593999997E+02  0.45594000000E+02  0.51100000000E-03 0. -1.
    9900012    2    1    2    0    0 -0.42429706215E+01  0.32992250886E+01 -0.40302329250E+02  0.50528862911E+02  0.30000009304E+02 0.  0.
        -12    1    1    2    0    0  0.42429706215E+01 -0.32992250886E+01  0.40302329250E+02  0.40659137089E+02  0.00000000000E+00 0.  1.
         11    1    3    3    0    0 -0.49839110162E+01  0.11745955413E+02 -0.37158069491E+02  0.39287771203E+02  0.51100000000E-03 0. -1.
        -11    1    3    3    0    0 -0.27658551479E+01 -0.39492156826E+01 -0.20658577432E+00  0.48258612859E+01  0.51100000000E-03 0.  1.
        -12    1    3    3    0    0  0.35067955426E+01 -0.44975146415E+01 -0.29376739844E+01  0.64152304220E+01  0.00000000000E+00 0.  1.
</event>
<event>
 7    1  0.5855569E-013  0.5052886E+02  0.7816164E-02  0.1300439E+00
        -11   -1    0    0    0    0  0.00000000000E+00  0.00000000000E+00  0.45593999997E+02  0.45594000000E+02  0.51100000000E-03 0.  1.
         11   -1    0    0    0    0 -0.00000000000E+00 -0.00000000000E+00 -0.45593999997E+02  0.45594000000E+02  0.51100000000E-03 0. -1.
    9900012    2    1    2    0    0  0.24953018733E+02 -0.23843816656E+02 -0.21493828017E+02  0.50528863518E+02  0.30000011149E+02 0.  0.
        -12    1    1    2    0    0 -0.24953018733E+02  0.23843816656E+02  0.21493828017E+02  0.40659136482E+02  0.00000000000E+00 0.  1.
         11    1    3    3    0    0  0.17931174450E+02 -0.15547113817E+02 -0.13053250431E+02  0.27085551726E+02  0.51100000000E-03 0. -1.
        -11    1    3    3    0    0 -0.32398567709E+01  0.34889118560E+01 -0.59477634493E+01  0.76187314000E+01  0.51100000000E-03 0.  1.
         12    1    3    3    0    0  0.10261701054E+02 -0.11785614695E+02 -0.24928141364E+01  0.15824580392E+02  0.00000000000E+00 0. -1.
</event>
<event>
 7    1  0.5855569E-013  0.5052876E+02  0.7816164E-02  0.1300439E+00
        -11   -1    0    0    0    0  0.00000000000E+00  0.00000000000E+00  0.45593999997E+02  0.45594000000E+02  0.51100000000E-03 0.  1.
         11   -1    0    0    0    0 -0.00000000000E+00 -0.00000000000E+00 -0.45593999997E+02  0.45594000000E+02  0.51100000000E-03 0. -1.
    9900012    2    1    2    0    0  0.19917721590E+02  0.30879614476E+02 -0.17404245084E+02  0.50528757871E+02  0.29999690023E+02 0.  0.
        -12    1    1    2    0    0 -0.19917721590E+02 -0.30879614476E+02  0.17404245084E+02  0.40659242129E+02  0.00000000000E+00 0.  1.
         11    1    3    3    0    0  0.10412591974E+02  0.22271559228E+02 -0.47755301026E+01  0.25044961770E+02  0.51100000000E-03 0. -1.
        -11    1    3    3    0    0  0.30575242660E+01  0.91734422098E+01  0.16475119048E+01  0.98089139231E+01  0.51100000000E-03 0.  1.
        -12    1    3    3    0    0  0.64476053503E+01 -0.56538696136E+00 -0.14276226886E+02  0.15674882178E+02  0.00000000000E+00 0.  1.
</event>
<event>
 7    1  0.5855569E-013  0.5052886E+02  0.7816164E-02  0.1300439E+00
        -11   -1    0    0    0    0  0.00000000000E+00  0.00000000000E+00  0.45593999997E+02  0.45594000000E+02  0.51100000000E-03 0.  1.
         11   -1    0    0    0    0 -0.00000000000E+00 -0.00000000000E+00 -0.45593999997E+02  0.45594000000E+02  0.51100000000E-03 0. -1.
    9900012    2    1    2    0    0 -0.27235767368E+02  0.30090097821E+02 -0.24422375704E+01  0.50528861601E+02  0.30000005321E+02 0.  0.
        -12    1    1    2    0    0  0.27235767368E+02 -0.30090097821E+02  0.24422375704E+01  0.40659138399E+02  0.00000000000E+00 0.  1.
         11    1    3    3    0    0 -0.13547570024E+02  0.14510527956E+01  0.47544552124E+01  0.14430767561E+02  0.51100000000E-03 0. -1.
        -11    1    3    3    0    0 -0.57055565395E+01  0.15930230682E+02  0.39833183010E+01  0.17383683440E+02  0.51100000000E-03 0.  1.
         12    1    3    3    0    0 -0.79826408045E+01  0.12708814344E+02 -0.11180011084E+02  0.18714410599E+02  0.00000000000E+00 0. -1.
</event>
<event>
 7    1  0.5855569E-013  0.5052885E+02  0.7816164E-02  0.1300439E+00
        -11   -1    0    0    0    0  0.00000000000E+00  0.00000000000E+00  0.45593999997E+02  0.45594000000E+02  0.51100000000E-03 0.  1.
         11   -1    0    0    0    0 -0.00000000000E+00 -0.00000000000E+00 -0.45593999997E+02  0.45594000000E+02  0.51100000000E-03 0. -1.
    9900012    2    1    2    0    0 -0.78085614796E+01 -0.14802009581E+02 -0.37055278858E+02  0.50528845910E+02  0.29999957630E+02 0.  0.
        -12    1    1    2    0    0  0.78085614796E+01  0.14802009581E+02  0.37055278858E+02  0.40659154090E+02  0.00000000000E+00 0.  1.
         11    1    3    3    0    0 -0.26807464176E+01 -0.69527542588E+01 -0.14564693147E+02  0.16360240825E+02  0.51100000000E-03 0. -1.
        -11    1    3    3    0    0  0.79271631354E+01 -0.60088950245E+01 -0.25588602043E+01  0.10271051582E+02  0.51100000000E-03 0.  1.
         12    1    3    3    0    0 -0.13054978197E+02 -0.18403602976E+01 -0.19931725507E+02  0.23897553504E+02  0.00000000000E+00 0. -1.
</event>
<event>
 7    1  0.5855569E-013  0.5052886E+02  0.7816164E-02  0.1300439E+00
        -11   -1    0    0    0    0  0.00000000000E+00  0.00000000000E+00  0.45593999997E+02  0.45594000000E+02  0.51100000000E-03 0. -1.
         11   -1    0    0    0    0 -0.00000000000E+00 -0.00000000000E+00 -0.45593999997E+02  0.45594000000E+02  0.51100000000E-03 0.  1.
    9900012    2    1    2    0    0 -0.18415313013E+02  0.36021622713E+02 -0.40601424253E+01  0.50528858189E+02  0.29999994953E+02 0.  0.
        -12    1    1    2    0    0  0.18415313013E+02 -0.36021622713E+02  0.40601424253E+01  0.40659141811E+02  0.00000000000E+00 0.  1.
         11    1    3    3    0    0 -0.25592758422E+01  0.53745109765E+01  0.32319204750E+01  0.67735198598E+01  0.51100000000E-03 0. -1.
        -11    1    3    3    0    0 -0.19413693315E+02  0.32953652572E+02 -0.41365837997E+01  0.38470066698E+02  0.51100000000E-03 0.  1.
        -12    1    3    3    0    0  0.35576561443E+01 -0.23065408353E+01 -0.31554791006E+01  0.52852716316E+01  0.00000000000E+00 0.  1.
</event>
<event>
 7    1  0.5855569E-013  0.5052886E+02  0.7816164E-02  0.1300439E+00
        -11   -1    0    0    0    0  0.00000000000E+00  0.00000000000E+00  0.45593999997E+02  0.45594000000E+02  0.51100000000E-03 0.  1.
         11   -1    0    0    0    0 -0.00000000000E+00 -0.00000000000E+00 -0.45593999997E+02  0.45594000000E+02  0.51100000000E-03 0. -1.
    9900012    2    1    2    0    0 -0.12829865735E+02  0.17200166723E+02 -0.34535701607E+02  0.50528857417E+02  0.29999992605E+02 0.  0.
        -12    1    1    2    0    0  0.12829865735E+02 -0.17200166723E+02  0.34535701607E+02  0.40659142583E+02  0.00000000000E+00 0.  1.
         11    1    3    3    0    0 -0.25138948436E+01  0.66802046222E+01 -0.15897841396E+01  0.73124698256E+01  0.51100000000E-03 0. -1.
        -11    1    3    3    0    0  0.58917299433E+01  0.92183426546E+01 -0.84884911108E+01  0.13847194829E+02  0.51100000000E-03 0.  1.
        -12    1    3    3    0    0 -0.16207700835E+02  0.13016194462E+01 -0.24457426357E+02  0.29369192763E+02  0.00000000000E+00 0.  1.
</event>
<event>
 7    1  0.5855569E-013  0.5052886E+02  0.7816164E-02  0.1300439E+00
        -11   -1    0    0    0    0  0.00000000000E+00  0.00000000000E+00  0.45593999997E+02  0.45594000000E+02  0.51100000000E-03 0. -1.
         11   -1    0    0    0    0 -0.00000000000E+00 -0.00000000000E+00 -0.45593999997E+02  0.45594000000E+02  0.51100000000E-03 0.  1.
    9900012    2    1    2    0    0  0.30124210387E+01  0.39670445093E+02  0.83873149656E+01  0.50528856542E+02  0.29999989945E+02 0.  0.
        -12    1    1    2    0    0 -0.30124210387E+01 -0.39670445093E+02 -0.83873149656E+01  0.40659143458E+02  0.00000000000E+00 0.  1.
         11    1    3    3    0    0  0.33146162777E+01  0.11099911906E+02  0.45295247227E+01  0.12438300521E+02  0.51100000000E-03 0.  1.
        -11    1    3    3    0    0  0.18701527586E+01  0.32679197349E+02  0.12393994460E+01  0.32756121901E+02  0.51100000000E-03 0. -1.
        -12    1    3    3    0    0 -0.21723479976E+01 -0.41086641615E+01  0.26183907968E+01  0.53344341199E+01  0.00000000000E+00 0.  1.
</event>
<event>
 7    1  0.5855569E-013  0.5052886E+02  0.7816164E-02  0.1300439E+00
        -11   -1    0    0    0    0  0.00000000000E+00  0.00000000000E+00  0.45593999997E+02  0.45594000000E+02  0.51100000000E-03 0. -1.
         11   -1    0    0    0    0 -0.00000000000E+00 -0.00000000000E+00 -0.45593999997E+02  0.45594000000E+02  0.51100000000E-03 0.  1.
    9900012    2    1    2    0    0  0.21690547984E+01 -0.25513800999E+02  0.31583325312E+02  0.50528864767E+02  0.30000014947E+02 0.  0.
        -12    1    1    2    0    0 -0.21690547984E+01  0.25513800999E+02 -0.31583325312E+02  0.40659135233E+02  0.00000000000E+00 0.  1.
         11    1    3    3    0    0  0.39544083698E+01 -0.15458371728E+02  0.44273276592E+01  0.16558980418E+02  0.51100000000E-03 0. -1.
        -11    1    3    3    0    0 -0.16137644047E+00 -0.12023570658E+02  0.75497115874E+01  0.14198254788E+02  0.51100000000E-03 0.  1.
        -12    1    3    3    0    0 -0.16239771310E+01  0.19681413862E+01  0.19606286065E+02  0.19771629561E+02  0.00000000000E+00 0.  1.
</event>
<event>
 7    1  0.5855569E-013  0.5052883E+02  0.7816164E-02  0.1300439E+00
        -11   -1    0    0    0    0  0.00000000000E+00  0.00000000000E+00  0.45593999997E+02  0.45594000000E+02  0.51100000000E-03 0.  1.
         11   -1    0    0    0    0 -0.00000000000E+00 -0.00000000000E+00 -0.45593999997E+02  0.45594000000E+02  0.51100000000E-03 0. -1.
    9900012    2    1    2    0    0  0.21095954232E+02  0.23560704037E+02 -0.25554297892E+02  0.50528828827E+02  0.29999905703E+02 0.  0.
        -12    1    1    2    0    0 -0.21095954232E+02 -0.23560704037E+02  0.25554297892E+02  0.40659171173E+02  0.00000000000E+00 0.  1.
         11    1    3    3    0    0  0.48135185860E+01  0.11037954125E+02 -0.75369410365E+00  0.12065423635E+02  0.51100000000E-03 0. -1.
        -11    1    3    3    0    0 -0.24305356355E+01  0.10178691078E+02 -0.75445849068E+01  0.12900930866E+02  0.51100000000E-03 0.  1.
         12    1    3    3    0    0  0.18712971282E+02  0.23440588342E+01 -0.17256018882E+02  0.25562474326E+02  0.00000000000E+00 0. -1.
</event>
<event>
 7    1  0.5855569E-013  0.5052887E+02  0.7816164E-02  0.1300439E+00
        -11   -1    0    0    0    0  0.00000000000E+00  0.00000000000E+00  0.45593999997E+02  0.45594000000E+02  0.51100000000E-03 0. -1.
         11   -1    0    0    0    0 -0.00000000000E+00 -0.00000000000E+00 -0.45593999997E+02  0.45594000000E+02  0.51100000000E-03 0.  1.
    9900012    2    1    2    0    0  0.67192073279E+01 -0.39617651581E+02 -0.62015216629E+01  0.50528868986E+02  0.30000027769E+02 0.  0.
        -12    1    1    2    0    0 -0.67192073279E+01  0.39617651581E+02  0.62015216629E+01  0.40659131014E+02  0.00000000000E+00 0.  1.
         11    1    3    3    0    0  0.51219432678E+01 -0.22407467716E+02  0.76825869121E+01  0.24235326575E+02  0.51100000000E-03 0. -1.
        -11    1    3    3    0    0  0.93364743713E+00 -0.18892933547E+02 -0.87340018003E+01  0.20835004758E+02  0.51100000000E-03 0.  1.
        -12    1    3    3    0    0  0.66361662290E+00  0.16827496823E+01 -0.51501067747E+01  0.54585376527E+01  0.00000000000E+00 0.  1.
</event>
<event>
 7    1  0.5855569E-013  0.5052887E+02  0.7816164E-02  0.1300439E+00
        -11   -1    0    0    0    0  0.00000000000E+00  0.00000000000E+00  0.45593999997E+02  0.45594000000E+02  0.51100000000E-03 0. -1.
         11   -1    0    0    0    0 -0.00000000000E+00 -0.00000000000E+00 -0.45593999997E+02  0.45594000000E+02  0.51100000000E-03 0.  1.
    9900012    2    1    2    0    0  0.89347724464E+01 -0.37637642680E+02 -0.12519691515E+02  0.50528868420E+02  0.30000026051E+02 0.  0.
        -12    1    1    2    0    0 -0.89347724464E+01  0.37637642680E+02  0.12519691515E+02  0.40659131580E+02  0.00000000000E+00 0.  1.
         11    1    3    3    0    0  0.52812560627E+01 -0.68974444396E+01 -0.12534648472E+02  0.15250698934E+02  0.51100000000E-03 0. -1.
        -11    1    3    3    0    0 -0.53422078006E+01 -0.32211835593E+01 -0.94972744063E+00  0.63100863846E+01  0.51100000000E-03 0.  1.
         12    1    3    3    0    0  0.89957241843E+01 -0.27519014681E+02  0.96468439754E+00  0.28968083102E+02  0.00000000000E+00 0. -1.
</event>
<event>
 7    1  0.5855569E-013  0.5052885E+02  0.7816164E-02  0.1300439E+00
        -11   -1    0    0    0    0  0.00000000000E+00  0.00000000000E+00  0.45593999997E+02  0.45594000000E+02  0.51100000000E-03 0. -1.
         11   -1    0    0    0    0 -0.00000000000E+00 -0.00000000000E+00 -0.45593999997E+02  0.45594000000E+02  0.51100000000E-03 0.  1.
    9900012    2    1    2    0    0 -0.39165306067E+02 -0.90618954292E+01  0.60931944717E+01  0.50528853834E+02  0.29999981713E+02 0.  0.
        -12    1    1    2    0    0  0.39165306067E+02  0.90618954292E+01 -0.60931944717E+01  0.40659146166E+02  0.00000000000E+00 0.  1.
         11    1    3    3    0    0 -0.11210195761E+02 -0.39501787807E+01 -0.56411129390E+01  0.13156540459E+02  0.51100000000E-03 0.  1.
        -11    1    3    3    0    0 -0.20503974862E+02 -0.80202999140E+01 -0.13266500912E+01  0.22056704118E+02  0.51100000000E-03 0. -1.
        -12    1    3    3    0    0 -0.74511354448E+01  0.29085832654E+01  0.13060957502E+02  0.15315609256E+02  0.00000000000E+00 0.  1.
</event>
<event>
 7    1  0.5855569E-013  0.5052883E+02  0.7816164E-02  0.1300439E+00
        -11   -1    0    0    0    0  0.00000000000E+00  0.00000000000E+00  0.45593999997E+02  0.45594000000E+02  0.51100000000E-03 0. -1.
         11   -1    0    0    0    0 -0.00000000000E+00 -0.00000000000E+00 -0.45593999997E+02  0.45594000000E+02  0.51100000000E-03 0.  1.
    9900012    2    1    2    0    0  0.28298680824E+02  0.26376599450E+02 -0.12515092337E+02  0.50528832878E+02  0.29999918015E+02 0.  0.
        -12    1    1    2    0    0 -0.28298680824E+02 -0.26376599450E+02  0.12515092337E+02  0.40659167122E+02  0.00000000000E+00 0.  1.
         11    1    3    3    0    0  0.78299068927E+01  0.38745360634E+00 -0.63328045676E+01  0.10077796197E+02  0.51100000000E-03 0. -1.
        -11    1    3    3    0    0  0.19048497043E+02  0.65609348595E+01 -0.47581658983E+00  0.20152357369E+02  0.51100000000E-03 0.  1.
        -12    1    3    3    0    0  0.14202768880E+01  0.19428210984E+02 -0.57064711796E+01  0.20298679311E+02  0.00000000000E+00 0.  1.
</event>
<event>
 7    1  0.5855569E-013  0.5052887E+02  0.7816164E-02  0.1300439E+00
        -11   -1    0    0    0    0  0.00000000000E+00  0.00000000000E+00  0.45593999997E+02  0.45594000000E+02  0.51100000000E-03 0.  1.
         11   -1    0    0    0    0 -0.00000000000E+00 -0.00000000000E+00 -0.45593999997E+02  0.45594000000E+02  0.51100000000E-03 0. -1.
    9900012    2    1    2    0    0 -0.34105879577E+02  0.90937190300E+01 -0.20180646507E+02  0.50528865222E+02  0.30000016328E+02 0.  0.
        -12    1    1    2    0    0  0.34105879577E+02 -0.90937190300E+01  0.20180646507E+02  0.40659134778E+02  0.00000000000E+00 0.  1.
         11    1    3    3    0    0 -0.69488977867E+01 -0.30757038888E+01 -0.16829481901E+02  0.18465605762E+02  0.51100000000E-03 0.  1.
        -11    1    3    3    0    0 -0.41845851952E+01 -0.10837358885E+01 -0.34678061961E+01  0.55417431199E+01  0.51100000000E-03 0. -1.
        -12    1    3    3    0    0 -0.22972396595E+02  0.13253158807E+02  0.11664159042E+00  0.26521516339E+02  0.00000000000E+00 0.  1.
</event>
<event>
 7    1  0.5855569E-013  0.5052885E+02  0.7816164E-02  0.1300439E+00
        -11   -1    0    0    0    0  0.00000000000E+00  0.00000000000E+00  0.45593999997E+02  0.45594000000E+02  0.51100000000E-03 0.  1.
         11   -1    0    0    0    0 -0.00000000000E+00 -0.00000000000E+00 -0.45593999997E+02  0.45594000000E+02  0.51100000000E-03 0. -1.
    9900012    2    1    2    0    0  0.23511491969E+02  0.27238640363E+02 -0.18932320787E+02  0.50528849076E+02  0.29999967252E+02 0.  0.
        -12    1    1    2    0    0 -0.23511491969E+02 -0.27238640363E+02  0.18932320787E+02  0.40659150924E+02  0.00000000000E+00 0.  1.
         11    1    3    3    0    0 -0.76404443950E+00 -0.30942755502E+01 -0.40303365201E+01  0.51382796549E+01  0.51100000000E-03 0. -1.
        -11    1    3    3    0    0 -0.22845698034E+01  0.36252195011E+00  0.69398993557E+00  0.24150162820E+01  0.51100000000E-03 0.  1.
         12    1    3    3    0    0  0.26560106212E+02  0.29970393963E+02 -0.15595974203E+02  0.42975553139E+02  0.00000000000E+00 0. -1.
</event>
<event>
 7    1  0.5855569E-013  0.5052888E+02  0.7816164E-02  0.1300439E+00
        -11   -1    0    0    0    0  0.00000000000E+00  0.00000000000E+00  0.45593999997E+02  0.45594000000E+02  0.51100000000E-03 0. -1.
         11   -1    0    0    0    0 -0.00000000000E+00 -0.00000000000E+00 -0.45593999997E+02  0.45594000000E+02  0.51100000000E-03 0.  1.
    9900012    2    1    2    0    0  0.14563770129E+02 -0.36327066817E+02  0.11018389251E+02  0.50528879429E+02  0.30000059513E+02 0.  0.
        -12    1    1    2    0    0 -0.14563770129E+02  0.36327066817E+02 -0.11018389251E+02  0.40659120571E+02  0.00000000000E+00 0.  1.
         11    1    3    3    0    0 -0.51748249140E+00  0.24607877046E+01  0.32155199908E+01  0.40820133915E+01  0.51100000000E-03 0.  1.
        -11    1    3    3    0    0  0.15576925410E+02 -0.26792734457E+02 -0.18429307862E+01  0.31046539567E+02  0.51100000000E-03 0. -1.
         12    1    3    3    0    0 -0.49567278920E+00 -0.11995120064E+02  0.96458000468E+01  0.15400326471E+02  0.00000000000E+00 0. -1.
</event>
<event>
 7    1  0.5855569E-013  0.5052886E+02  0.7816164E-02  0.1300439E+00
        -11   -1    0    0    0    0  0.00000000000E+00  0.00000000000E+00  0.45593999997E+02  0.45594000000E+02  0.51100000000E-03 0. -1.
         11   -1    0    0    0    0 -0.00000000000E+00 -0.00000000000E+00 -0.45593999997E+02  0.45594000000E+02  0.51100000000E-03 0.  1.
    9900012    2    1    2    0    0 -0.29767004423E+01  0.36580711299E+02  0.17497337935E+02  0.50528855648E+02  0.29999987226E+02 0.  0.
        -12    1    1    2    0    0  0.29767004423E+01 -0.36580711299E+02 -0.17497337935E+02  0.40659144352E+02  0.00000000000E+00 0.  1.
         11    1    3    3    0    0 -0.60350176322E+01  0.20458280026E+01  0.64955965085E+01  0.90994298887E+01  0.51100000000E-03 0. -1.
        -11    1    3    3    0    0  0.55515768510E-01 -0.25928508448E+01  0.13326095847E-01  0.25934793907E+01  0.51100000000E-03 0.  1.
        -12    1    3    3    0    0  0.30028014214E+01  0.37127734141E+02  0.10988415331E+02  0.38835946368E+02  0.00000000000E+00 0.  1.
</event>
<event>
 7    1  0.5855569E-013  0.5052886E+02  0.7816164E-02  0.1300439E+00
        -11   -1    0    0    0    0  0.00000000000E+00  0.00000000000E+00  0.45593999997E+02  0.45594000000E+02  0.51100000000E-03 0. -1.
         11   -1    0    0    0    0 -0.00000000000E+00 -0.00000000000E+00 -0.45593999997E+02  0.45594000000E+02  0.51100000000E-03 0.  1.
    9900012    2    1    2    0    0  0.10649639698E+02  0.32187919572E+02  0.22443014507E+02  0.50528857212E+02  0.29999991981E+02 0.  0.
        -12    1    1    2    0    0 -0.10649639698E+02 -0.32187919572E+02 -0.22443014507E+02  0.40659142788E+02  0.00000000000E+00 0.  1.
         11    1    3    3    0    0 -0.23209231517E+01  0.82071614537E+01  0.12710335111E+02  0.15306756753E+02  0.51100000000E-03 0. -1.
        -11    1    3    3    0    0 -0.70443341574E+00  0.47140902201E+01  0.10555009547E+02  0.11581325478E+02  0.51100000000E-03 0.  1.
        -12    1    3    3    0    0  0.13674996266E+02  0.19266667899E+02 -0.82233015063E+00  0.23640774980E+02  0.00000000000E+00 0.  1.
</event>
<event>
 7    1  0.5855569E-013  0.5052886E+02  0.7816164E-02  0.1300439E+00
        -11   -1    0    0    0    0  0.00000000000E+00  0.00000000000E+00  0.45593999997E+02  0.45594000000E+02  0.51100000000E-03 0.  1.
         11   -1    0    0    0    0 -0.00000000000E+00 -0.00000000000E+00 -0.45593999997E+02  0.45594000000E+02  0.51100000000E-03 0. -1.
    9900012    2    1    2    0    0  0.60730925740E+01  0.30716164977E+02 -0.25938395758E+02  0.50528860575E+02  0.30000002202E+02 0.  0.
        -12    1    1    2    0    0 -0.60730925740E+01 -0.30716164977E+02  0.25938395758E+02  0.40659139425E+02  0.00000000000E+00 0.  1.
         11    1    3    3    0    0  0.58264431968E+01 -0.41129785527E+01 -0.32784037455E+01  0.78493289063E+01  0.51100000000E-03 0. -1.
        -11    1    3    3    0    0  0.22024879714E+01  0.48012032218E+01 -0.49407664869E+00  0.53053385978E+01  0.51100000000E-03 0.  1.
         12    1    3    3    0    0 -0.19558385941E+01  0.30027940308E+02 -0.22165915364E+02  0.37374193070E+02  0.00000000000E+00 0. -1.
</event>
<event>
 7    1  0.5855569E-013  0.5052887E+02  0.7816164E-02  0.1300439E+00
        -11   -1    0    0    0    0  0.00000000000E+00  0.00000000000E+00  0.45593999997E+02  0.45594000000E+02  0.51100000000E-03 0. -1.
         11   -1    0    0    0    0 -0.00000000000E+00 -0.00000000000E+00 -0.45593999997E+02  0.45594000000E+02  0.51100000000E-03 0.  1.
    9900012    2    1    2    0    0  0.22903930581E+02  0.32568374436E+02  0.82386905763E+01  0.50528867300E+02  0.30000022646E+02 0.  0.
        -12    1    1    2    0    0 -0.22903930581E+02 -0.32568374436E+02 -0.82386905763E+01  0.40659132700E+02  0.00000000000E+00 0.  1.
         11    1    3    3    0    0 -0.56272155192E+01  0.25967354295E+01  0.12009998976E+01  0.63127640860E+01  0.51100000000E-03 0.  1.
        -11    1    3    3    0    0  0.23028145910E+01  0.78777789385E+01 -0.25725920316E+01  0.86011967811E+01  0.51100000000E-03 0. -1.
         12    1    3    3    0    0  0.26228331509E+02  0.22093860068E+02  0.96102827103E+01  0.35614906433E+02  0.00000000000E+00 0. -1.
</event>
<event>
 7    1  0.5855569E-013  0.5052886E+02  0.7816164E-02  0.1300439E+00
        -11   -1    0    0    0    0  0.00000000000E+00  0.00000000000E+00  0.45593999997E+02  0.45594000000E+02  0.51100000000E-03 0.  1.
         11   -1    0    0    0    0 -0.00000000000E+00 -0.00000000000E+00 -0.45593999997E+02  0.45594000000E+02  0.51100000000E-03 0. -1.
    9900012    2    1    2    0    0  0.21224563729E+02 -0.27544381571E+02 -0.21071087629E+02  0.50528858401E+02  0.29999995597E+02 0.  0.
        -12    1    1    2    0    0 -0.21224563729E+02  0.27544381571E+02  0.21071087629E+02  0.40659141599E+02  0.00000000000E+00 0.  1.
         11    1    3    3    0    0  0.12511427409E+02 -0.91337563810E+01 -0.42432781034E+01  0.16061342745E+02  0.51100000000E-03 0. -1.
        -11    1    3    3    0    0  0.54741868295E+01 -0.13673886252E+02  0.19270298895E+01  0.14854471755E+02  0.51100000000E-03 0.  1.
         12    1    3    3    0    0  0.32389494907E+01 -0.47367389383E+01 -0.18754839415E+02  0.19613043901E+02  0.00000000000E+00 0. -1.
</event>
<event>
 7    1  0.5855569E-013  0.5052886E+02  0.7816164E-02  0.1300439E+00
        -11   -1    0    0    0    0  0.00000000000E+00  0.00000000000E+00  0.45593999997E+02  0.45594000000E+02  0.51100000000E-03 0. -1.
         11   -1    0    0    0    0 -0.00000000000E+00 -0.00000000000E+00 -0.45593999997E+02  0.45594000000E+02  0.51100000000E-03 0.  1.
    9900012    2    1    2    0    0 -0.12773662651E+02 -0.30503517715E+02  0.23654489424E+02  0.50528856866E+02  0.29999990930E+02 0.  0.
        -12    1    1    2    0    0  0.12773662651E+02  0.30503517715E+02 -0.23654489424E+02  0.40659143134E+02  0.00000000000E+00 0.  1.
         11    1    3    3    0    0  0.60024242937E+00 -0.14503153659E+02  0.12622357833E+02  0.19236051429E+02  0.51100000000E-03 0. -1.
        -11    1    3    3    0    0 -0.87267754023E+01 -0.20272579894E+02  0.11637647450E+02  0.24951331486E+02  0.51100000000E-03 0.  1.
         12    1    3    3    0    0 -0.46471296778E+01  0.42722158388E+01 -0.60551585965E+00  0.63414739510E+01  0.00000000000E+00 0. -1.
</event>
<event>
 7    1  0.6484276E-013  0.5052885E+02  0.7816164E-02  0.1300439E+00
        -11   -1    0    0    0    0  0.00000000000E+00  0.00000000000E+00  0.45593999997E+02  0.45594000000E+02  0.51100000000E-03 0. -1.
         11   -1    0    0    0    0 -0.00000000000E+00 -0.00000000000E+00 -0.45593999997E+02  0.45594000000E+02  0.51100000000E-03 0.  1.
    9900012    2    1    2    0    0 -0.62335295502E+01  0.36777854033E+02  0.16177121242E+02  0.50528847407E+02  0.29999962179E+02 0.  0.
        -12    1    1    2    0    0  0.62335295502E+01 -0.36777854033E+02 -0.16177121242E+02  0.40659152593E+02  0.00000000000E+00 0.  1.
         11    1    3    3    0    0 -0.40113996700E+01 -0.56358899583E+00  0.59858912354E+01  0.72277143006E+01  0.51100000000E-03 0. -1.
        -11    1    3    3    0    0  0.38873495003E+01  0.26381878072E+00 -0.11270317752E+01  0.40560186599E+01  0.51100000000E-03 0.  1.
         12    1    3    3    0    0 -0.61094793805E+01  0.37077624248E+02  0.11318261782E+02  0.39245114447E+02  0.00000000000E+00 0. -1.
</event>
<event>
 7    1  0.5855569E-013  0.5052888E+02  0.7816164E-02  0.1300439E+00
        -11   -1    0    0    0    0  0.00000000000E+00  0.00000000000E+00  0.45593999997E+02  0.45594000000E+02  0.51100000000E-03 0.  1.
         11   -1    0    0    0    0 -0.00000000000E+00 -0.00000000000E+00 -0.45593999997E+02  0.45594000000E+02  0.51100000000E-03 0. -1.
    9900012    2    1    2    0    0  0.25623905786E+02 -0.26177334822E+02 -0.17644448083E+02  0.50528881044E+02  0.30000064421E+02 0.  0.
        -12    1    1    2    0    0 -0.25623905786E+02  0.26177334822E+02  0.17644448083E+02  0.40659118956E+02  0.00000000000E+00 0.  1.
         11    1    3    3    0    0  0.13281323543E+02  0.31712909533E+01 -0.97332998224E+01  0.16768654301E+02  0.51100000000E-03 0. -1.
        -11    1    3    3    0    0  0.11837233323E+02 -0.19092661174E+02 -0.65644634687E+01  0.23403888232E+02  0.51100000000E-03 0.  1.
        -12    1    3    3    0    0  0.50534891999E+00 -0.10255964601E+02 -0.13466847915E+01  0.10356338511E+02  0.00000000000E+00 0.  1.
</event>
<event>
 7    1  0.5855569E-013  0.5052886E+02  0.7816164E-02  0.1300439E+00
        -11   -1    0    0    0    0  0.00000000000E+00  0.00000000000E+00  0.45593999997E+02  0.45594000000E+02  0.51100000000E-03 0. -1.
         11   -1    0    0    0    0 -0.00000000000E+00 -0.00000000000E+00 -0.45593999997E+02  0.45594000000E+02  0.51100000000E-03 0.  1.
    9900012    2    1    2    0    0 -0.32717652098E+02  0.22611829849E+02  0.84514032522E+01  0.50528858041E+02  0.29999994500E+02 0.  0.
        -12    1    1    2    0    0  0.32717652098E+02 -0.22611829849E+02 -0.84514032522E+01  0.40659141959E+02  0.00000000000E+00 0.  1.
         11    1    3    3    0    0  0.14683909324E+01  0.12426271138E+01  0.45303982250E+00  0.19762437643E+01  0.51100000000E-03 0. -1.
        -11    1    3    3    0    0 -0.11327398576E+02  0.17706088487E+02 -0.55361108226E+01  0.21736238205E+02  0.51100000000E-03 0.  1.
         12    1    3    3    0    0 -0.22858644455E+02  0.36631142486E+01  0.13534474252E+02  0.26816376071E+02  0.00000000000E+00 0. -1.
</event>
<event>
 7    1  0.5855569E-013  0.5052886E+02  0.7816164E-02  0.1300439E+00
        -11   -1    0    0    0    0  0.00000000000E+00  0.00000000000E+00  0.45593999997E+02  0.45594000000E+02  0.51100000000E-03 0.  1.
         11   -1    0    0    0    0 -0.00000000000E+00 -0.00000000000E+00 -0.45593999997E+02  0.45594000000E+02  0.51100000000E-03 0. -1.
    9900012    2    1    2    0    0  0.34847821297E+02 -0.20797751683E+02 -0.24997157313E+01  0.50528859540E+02  0.29999999058E+02 0.  0.
        -12    1    1    2    0    0 -0.34847821297E+02  0.20797751683E+02  0.24997157313E+01  0.40659140460E+02  0.00000000000E+00 0.  1.
         11    1    3    3    0    0 -0.14321695250E+01 -0.41736937301E+01  0.75750800963E+01  0.87665653267E+01  0.51100000000E-03 0.  1.
        -11    1    3    3    0    0  0.15508867284E+02 -0.62179932751E+01 -0.77359655338E+01  0.18412864193E+02  0.51100000000E-03 0. -1.
        -12    1    3    3    0    0  0.20771123538E+02 -0.10406064678E+02 -0.23388302937E+01  0.23349430020E+02  0.00000000000E+00 0.  1.
</event>
<event>
 7    1  0.5855569E-013  0.5052885E+02  0.7816164E-02  0.1300439E+00
        -11   -1    0    0    0    0  0.00000000000E+00  0.00000000000E+00  0.45593999997E+02  0.45594000000E+02  0.51100000000E-03 0.  1.
         11   -1    0    0    0    0 -0.00000000000E+00 -0.00000000000E+00 -0.45593999997E+02  0.45594000000E+02  0.51100000000E-03 0. -1.
    9900012    2    1    2    0    0  0.39149281800E+02 -0.70582318150E+01  0.84072381202E+01  0.50528849067E+02  0.29999967224E+02 0.  0.
        -12    1    1    2    0    0 -0.39149281800E+02  0.70582318150E+01 -0.84072381202E+01  0.40659150933E+02  0.00000000000E+00 0.  1.
         11    1    3    3    0    0  0.15567762577E+02  0.42143673884E+01  0.77528168932E+01  0.17894756052E+02  0.51100000000E-03 0. -1.
        -11    1    3    3    0    0  0.16785897354E+02  0.22444153868E+01  0.33588604498E+01  0.17265158389E+02  0.51100000000E-03 0.  1.
        -12    1    3    3    0    0  0.67956218688E+01 -0.13517014590E+02 -0.27044392228E+01  0.15368934626E+02  0.00000000000E+00 0.  1.
</event>
<event>
 7    1  0.5855569E-013  0.5052883E+02  0.7816164E-02  0.1300439E+00
        -11   -1    0    0    0    0  0.00000000000E+00  0.00000000000E+00  0.45593999997E+02  0.45594000000E+02  0.51100000000E-03 0.  1.
         11   -1    0    0    0    0 -0.00000000000E+00 -0.00000000000E+00 -0.45593999997E+02  0.45594000000E+02  0.51100000000E-03 0. -1.
    9900012    2    1    2    0    0  0.14529231677E+02 -0.15133320159E+02 -0.34828892860E+02  0.50528834613E+02  0.29999923289E+02 0.  0.
        -12    1    1    2    0    0 -0.14529231677E+02  0.15133320159E+02  0.34828892860E+02  0.40659165387E+02  0.00000000000E+00 0.  1.
         11    1    3    3    0    0  0.45691330843E+01 -0.93983294448E+01 -0.11168799759E+02  0.15295347718E+02  0.51100000000E-03 0. -1.
        -11    1    3    3    0    0  0.91379792249E+01 -0.12684614984E+02 -0.23510544879E+02  0.28233806729E+02  0.51100000000E-03 0.  1.
        -12    1    3    3    0    0  0.82211936774E+00  0.69496242702E+01 -0.14954822117E+00  0.69996801657E+01  0.00000000000E+00 0.  1.
</event>
<event>
 7    1  0.5855569E-013  0.5052892E+02  0.7816164E-02  0.1300439E+00
        -11   -1    0    0    0    0  0.00000000000E+00  0.00000000000E+00  0.45593999997E+02  0.45594000000E+02  0.51100000000E-03 0.  1.
         11   -1    0    0    0    0 -0.00000000000E+00 -0.00000000000E+00 -0.45593999997E+02  0.45594000000E+02  0.51100000000E-03 0. -1.
    9900012    2    1    2    0    0 -0.10876776294E+02  0.14703249353E+02 -0.36313510972E+02  0.50528918810E+02  0.30000179215E+02 0.  0.
        -12    1    1    2    0    0  0.10876776294E+02 -0.14703249353E+02  0.36313510972E+02  0.40659081190E+02  0.00000000000E+00 0.  1.
         11    1    3    3    0    0 -0.24279271345E+01  0.71006550440E+00 -0.15807143497E+02  0.16008273141E+02  0.51100000000E-03 0. -1.
        -11    1    3    3    0    0 -0.96078756460E+01 -0.26904651053E+01 -0.12457916853E+02  0.15960876213E+02  0.51100000000E-03 0.  1.
         12    1    3    3    0    0  0.11590264866E+01  0.16683648954E+02 -0.80484506224E+01  0.18559769456E+02  0.00000000000E+00 0. -1.
</event>
<event>
 7    1  0.5855569E-013  0.5052885E+02  0.7816164E-02  0.1300439E+00
        -11   -1    0    0    0    0  0.00000000000E+00  0.00000000000E+00  0.45593999997E+02  0.45594000000E+02  0.51100000000E-03 0.  1.
         11   -1    0    0    0    0 -0.00000000000E+00 -0.00000000000E+00 -0.45593999997E+02  0.45594000000E+02  0.51100000000E-03 0. -1.
    9900012    2    1    2    0    0 -0.28875603104E+02  0.27327368956E+02 -0.85194537057E+01  0.50528848015E+02  0.29999964028E+02 0.  0.
        -12    1    1    2    0    0  0.28875603104E+02 -0.27327368956E+02  0.85194537057E+01  0.40659151985E+02  0.00000000000E+00 0.  1.
         11    1    3    3    0    0 -0.19659615659E+02  0.12675657456E+02  0.39188016367E+01  0.23717710394E+02  0.51100000000E-03 0. -1.
        -11    1    3    3    0    0 -0.47845545234E+00 -0.23602369971E+01  0.17679067117E+01  0.29874960593E+01  0.51100000000E-03 0.  1.
         12    1    3    3    0    0 -0.87375319928E+01  0.17011948497E+02 -0.14206162054E+02  0.23823641562E+02  0.00000000000E+00 0. -1.
</event>
<event>
 7    1  0.5855569E-013  0.5052887E+02  0.7816164E-02  0.1300439E+00
        -11   -1    0    0    0    0  0.00000000000E+00  0.00000000000E+00  0.45593999997E+02  0.45594000000E+02  0.51100000000E-03 0.  1.
         11   -1    0    0    0    0 -0.00000000000E+00 -0.00000000000E+00 -0.45593999997E+02  0.45594000000E+02  0.51100000000E-03 0. -1.
    9900012    2    1    2    0    0 -0.21101779475E+02  0.43626495591E+01 -0.34479663973E+02  0.50528867743E+02  0.30000023993E+02 0.  0.
        -12    1    1    2    0    0  0.21101779475E+02 -0.43626495591E+01  0.34479663973E+02  0.40659132257E+02  0.00000000000E+00 0.  1.
         11    1    3    3    0    0 -0.10368721401E+02  0.63734029740E+01 -0.26063649226E+02  0.28765334349E+02  0.51100000000E-03 0.  1.
        -11    1    3    3    0    0 -0.56839541995E+01 -0.11781974239E+01 -0.13410500123E+02  0.14612905198E+02  0.51100000000E-03 0. -1.
        -12    1    3    3    0    0 -0.50491038745E+01 -0.83255599098E+00  0.49944853772E+01  0.71506281959E+01  0.00000000000E+00 0.  1.
</event>
<event>
 7    1  0.5855569E-013  0.5052886E+02  0.7816164E-02  0.1300439E+00
        -11   -1    0    0    0    0  0.00000000000E+00  0.00000000000E+00  0.45593999997E+02  0.45594000000E+02  0.51100000000E-03 0.  1.
         11   -1    0    0    0    0 -0.00000000000E+00 -0.00000000000E+00 -0.45593999997E+02  0.45594000000E+02  0.51100000000E-03 0. -1.
    9900012    2    1    2    0    0  0.39314246005E+02 -0.10142378829E+02 -0.21651757045E+01  0.50528858677E+02  0.29999996435E+02 0.  0.
        -12    1    1    2    0    0 -0.39314246005E+02  0.10142378829E+02  0.21651757045E+01  0.40659141323E+02  0.00000000000E+00 0.  1.
         11    1    3    3    0    0  0.10219781953E+02 -0.92859804797E+01  0.48047020312E+01  0.14620483525E+02  0.51100000000E-03 0. -1.
        -11    1    3    3    0    0  0.27686793185E+01 -0.74647090992E+01 -0.28424986254E+01  0.84538314273E+01  0.51100000000E-03 0.  1.
         12    1    3    3    0    0  0.26325784734E+02  0.66083107501E+01 -0.41273791102E+01  0.27454543725E+02  0.00000000000E+00 0. -1.
</event>
<event>
 7    1  0.5855569E-013  0.5052887E+02  0.7816164E-02  0.1300439E+00
        -11   -1    0    0    0    0  0.00000000000E+00  0.00000000000E+00  0.45593999997E+02  0.45594000000E+02  0.51100000000E-03 0.  1.
         11   -1    0    0    0    0 -0.00000000000E+00 -0.00000000000E+00 -0.45593999997E+02  0.45594000000E+02  0.51100000000E-03 0. -1.
    9900012    2    1    2    0    0 -0.11570234304E+02 -0.14300811809E+02 -0.36259918434E+02  0.50528865417E+02  0.30000016921E+02 0.  0.
        -12    1    1    2    0    0  0.11570234304E+02  0.14300811809E+02  0.36259918434E+02  0.40659134583E+02  0.00000000000E+00 0.  1.
         11    1    3    3    0    0 -0.10458644267E+01  0.25419701720E+01 -0.40926792769E+01  0.49300576750E+01  0.51100000000E-03 0. -1.
        -11    1    3    3    0    0 -0.13610465088E+02 -0.16749179537E+01 -0.55204911317E+01  0.14782622658E+02  0.51100000000E-03 0.  1.
         12    1    3    3    0    0  0.30860952110E+01 -0.15167864027E+02 -0.26646748025E+02  0.30816185084E+02  0.00000000000E+00 0. -1.
</event>
<event>
 7    1  0.5855569E-013  0.5052887E+02  0.7816164E-02  0.1300439E+00
        -11   -1    0    0    0    0  0.00000000000E+00  0.00000000000E+00  0.45593999997E+02  0.45594000000E+02  0.51100000000E-03 0.  1.
         11   -1    0    0    0    0 -0.00000000000E+00 -0.00000000000E+00 -0.45593999997E+02  0.45594000000E+02  0.51100000000E-03 0. -1.
    9900012    2    1    2    0    0 -0.36978530384E+01  0.34775140247E+02 -0.20740782538E+02  0.50528873637E+02  0.30000041908E+02 0.  0.
        -12    1    1    2    0    0  0.36978530384E+01 -0.34775140247E+02  0.20740782538E+02  0.40659126363E+02  0.00000000000E+00 0.  1.
         11    1    3    3    0    0 -0.28528416990E+01  0.34675827239E+01 -0.73449581242E+00  0.45499802270E+01  0.51100000000E-03 0. -1.
        -11    1    3    3    0    0 -0.75775954735E+01  0.18290326777E+01  0.26083394037E+01  0.82200211924E+01  0.51100000000E-03 0.  1.
         12    1    3    3    0    0  0.67325841341E+01  0.29478524845E+02 -0.22614626130E+02  0.37758872218E+02  0.00000000000E+00 0. -1.
</event>
<event>
 7    1  0.5855569E-013  0.5052886E+02  0.7816164E-02  0.1300439E+00
        -11   -1    0    0    0    0  0.00000000000E+00  0.00000000000E+00  0.45593999997E+02  0.45594000000E+02  0.51100000000E-03 0. -1.
         11   -1    0    0    0    0 -0.00000000000E+00 -0.00000000000E+00 -0.45593999997E+02  0.45594000000E+02  0.51100000000E-03 0.  1.
    9900012    2    1    2    0    0 -0.35154125073E+02  0.91347208796E+01  0.18273214499E+02  0.50528855846E+02  0.29999987829E+02 0.  0.
        -12    1    1    2    0    0  0.35154125073E+02 -0.91347208796E+01 -0.18273214499E+02  0.40659144154E+02  0.00000000000E+00 0.  1.
         11    1    3    3    0    0 -0.20247799183E+02  0.12172997829E+02  0.70979687535E+01  0.24668530734E+02  0.51100000000E-03 0. -1.
        -11    1    3    3    0    0 -0.79046161655E+01  0.33506899687E+01 -0.27501382390E+01  0.90151727984E+01  0.51100000000E-03 0.  1.
         12    1    3    3    0    0 -0.70017097250E+01 -0.63889669178E+01  0.13925383984E+02  0.16845152313E+02  0.00000000000E+00 0. -1.
</event>
<event>
 7    1  0.5855569E-013  0.5052886E+02  0.7816164E-02  0.1300439E+00
        -11   -1    0    0    0    0  0.00000000000E+00  0.00000000000E+00  0.45593999997E+02  0.45594000000E+02  0.51100000000E-03 0.  1.
         11   -1    0    0    0    0 -0.00000000000E+00 -0.00000000000E+00 -0.45593999997E+02  0.45594000000E+02  0.51100000000E-03 0. -1.
    9900012    2    1    2    0    0 -0.84085311477E+01  0.26141391478E+02 -0.29984833819E+02  0.50528855842E+02  0.29999987818E+02 0.  0.
        -12    1    1    2    0    0  0.84085311477E+01 -0.26141391478E+02  0.29984833819E+02  0.40659144158E+02  0.00000000000E+00 0.  1.
         11    1    3    3    0    0 -0.10626299473E+01 -0.11283476862E+01 -0.83744468280E+00  0.17617221017E+01  0.51100000000E-03 0. -1.
        -11    1    3    3    0    0  0.13872265531E+01 -0.40297956507E+01  0.10693017207E+01  0.43939796229E+01  0.51100000000E-03 0.  1.
         12    1    3    3    0    0 -0.87331277535E+01  0.31299534815E+02 -0.30216690857E+02  0.44373154118E+02  0.00000000000E+00 0. -1.
</event>
<event>
 7    1  0.5855569E-013  0.5052887E+02  0.7816164E-02  0.1300439E+00
        -11   -1    0    0    0    0  0.00000000000E+00  0.00000000000E+00  0.45593999997E+02  0.45594000000E+02  0.51100000000E-03 0.  1.
         11   -1    0    0    0    0 -0.00000000000E+00 -0.00000000000E+00 -0.45593999997E+02  0.45594000000E+02  0.51100000000E-03 0. -1.
    9900012    2    1    2    0    0  0.12624461283E+02  0.12417608382E+02 -0.36600420015E+02  0.50528871064E+02  0.30000034085E+02 0.  0.
        -12    1    1    2    0    0 -0.12624461283E+02 -0.12417608382E+02  0.36600420015E+02  0.40659128936E+02  0.00000000000E+00 0.  1.
         11    1    3    3    0    0  0.12520375372E+01 -0.33322779831E+01 -0.12951457830E+02  0.13431750993E+02  0.51100000000E-03 0. -1.
        -11    1    3    3    0    0  0.69979773583E+01  0.12524789054E+02 -0.27096956977E+02  0.30660839937E+02  0.51100000000E-03 0.  1.
        -12    1    3    3    0    0  0.43744463876E+01  0.32250973109E+01  0.34479947930E+01  0.64362801334E+01  0.00000000000E+00 0.  1.
</event>
<event>
 7    1  0.5855569E-013  0.5052886E+02  0.7816164E-02  0.1300439E+00
        -11   -1    0    0    0    0  0.00000000000E+00  0.00000000000E+00  0.45593999997E+02  0.45594000000E+02  0.51100000000E-03 0.  1.
         11   -1    0    0    0    0 -0.00000000000E+00 -0.00000000000E+00 -0.45593999997E+02  0.45594000000E+02  0.51100000000E-03 0. -1.
    9900012    2    1    2    0    0  0.32453247528E+02 -0.37912883793E+01 -0.24198728991E+02  0.50528860469E+02  0.30000001880E+02 0.  0.
        -12    1    1    2    0    0 -0.32453247528E+02  0.37912883793E+01  0.24198728991E+02  0.40659139531E+02  0.00000000000E+00 0.  1.
         11    1    3    3    0    0  0.28051655115E+02 -0.70448745465E+01 -0.20761101438E+02  0.35602653626E+02  0.51100000000E-03 0. -1.
        -11    1    3    3    0    0  0.63078938790E+01 -0.36668820145E+01 -0.11111748239E+01  0.73803969167E+01  0.51100000000E-03 0.  1.
        -12    1    3    3    0    0 -0.19063014660E+01  0.69204681817E+01 -0.23264527284E+01  0.75458099255E+01  0.00000000000E+00 0.  1.
</event>
<event>
 7    1  0.5855569E-013  0.5052885E+02  0.7816164E-02  0.1300439E+00
        -11   -1    0    0    0    0  0.00000000000E+00  0.00000000000E+00  0.45593999997E+02  0.45594000000E+02  0.51100000000E-03 0. -1.
         11   -1    0    0    0    0 -0.00000000000E+00 -0.00000000000E+00 -0.45593999997E+02  0.45594000000E+02  0.51100000000E-03 0.  1.
    9900012    2    1    2    0    0 -0.21691292304E+02 -0.32168635745E+02  0.12158652712E+02  0.50528854371E+02  0.29999983347E+02 0.  0.
        -12    1    1    2    0    0  0.21691292304E+02  0.32168635745E+02 -0.12158652712E+02  0.40659145629E+02  0.00000000000E+00 0.  1.
         11    1    3    3    0    0  0.46665984177E+01 -0.18438384005E+01 -0.19046909047E+01  0.53670036838E+01  0.51100000000E-03 0. -1.
        -11    1    3    3    0    0  0.91448394864E+00 -0.68817869252E+01  0.19044254509E+01  0.71987574438E+01  0.51100000000E-03 0.  1.
         12    1    3    3    0    0 -0.27272374670E+02 -0.23443010419E+02  0.12158918166E+02  0.37963093244E+02  0.00000000000E+00 0. -1.
</event>
<event>
 7    1  0.5855569E-013  0.5052886E+02  0.7816164E-02  0.1300439E+00
        -11   -1    0    0    0    0  0.00000000000E+00  0.00000000000E+00  0.45593999997E+02  0.45594000000E+02  0.51100000000E-03 0.  1.
         11   -1    0    0    0    0 -0.00000000000E+00 -0.00000000000E+00 -0.45593999997E+02  0.45594000000E+02  0.51100000000E-03 0. -1.
    9900012    2    1    2    0    0  0.21010208755E+02  0.10460113623E+02 -0.33201251600E+02  0.50528856419E+02  0.29999989570E+02 0.  0.
        -12    1    1    2    0    0 -0.21010208755E+02 -0.10460113623E+02  0.33201251600E+02  0.40659143581E+02  0.00000000000E+00 0.  1.
         11    1    3    3    0    0  0.69954824780E+01  0.89839409378E+01 -0.39249924610E+01  0.12043817333E+02  0.51100000000E-03 0. -1.
        -11    1    3    3    0    0 -0.30180312685E+01  0.21078090607E+01  0.93434788856E+00  0.37979439190E+01  0.51100000000E-03 0.  1.
         12    1    3    3    0    0  0.17032757546E+02 -0.63163637504E+00 -0.30210607027E+02  0.34687095167E+02  0.00000000000E+00 0. -1.
</event>
<event>
 7    1  0.5855569E-013  0.5052886E+02  0.7816164E-02  0.1300439E+00
        -11   -1    0    0    0    0  0.00000000000E+00  0.00000000000E+00  0.45593999997E+02  0.45594000000E+02  0.51100000000E-03 0.  1.
         11   -1    0    0    0    0 -0.00000000000E+00 -0.00000000000E+00 -0.45593999997E+02  0.45594000000E+02  0.51100000000E-03 0. -1.
    9900012    2    1    2    0    0  0.51169591201E+01 -0.70700931855E+01 -0.39711408632E+02  0.50528862481E+02  0.30000007996E+02 0.  0.
        -12    1    1    2    0    0 -0.51169591201E+01  0.70700931855E+01  0.39711408632E+02  0.40659137519E+02  0.00000000000E+00 0.  1.
         11    1    3    3    0    0  0.62175028350E+01 -0.71705907051E+01 -0.21129048153E+02  0.23162715486E+02  0.51100000000E-03 0. -1.
        -11    1    3    3    0    0  0.15952727909E+01 -0.96024018761E+01 -0.68399323320E+01  0.11896877390E+02  0.51100000000E-03 0.  1.
         12    1    3    3    0    0 -0.26958165059E+01  0.97028993957E+01 -0.11742428147E+02  0.15469269605E+02  0.00000000000E+00 0. -1.
</event>
<event>
 7    1  0.5855569E-013  0.5052886E+02  0.7816164E-02  0.1300439E+00
        -11   -1    0    0    0    0  0.00000000000E+00  0.00000000000E+00  0.45593999997E+02  0.45594000000E+02  0.51100000000E-03 0.  1.
         11   -1    0    0    0    0 -0.00000000000E+00 -0.00000000000E+00 -0.45593999997E+02  0.45594000000E+02  0.51100000000E-03 0. -1.
    9900012    2    1    2    0    0  0.19334801733E+02 -0.81982856948E+01 -0.34815504032E+02  0.50528858748E+02  0.29999996650E+02 0.  0.
        -12    1    1    2    0    0 -0.19334801733E+02  0.81982856948E+01  0.34815504032E+02  0.40659141252E+02  0.00000000000E+00 0.  1.
         11    1    3    3    0    0  0.50110269611E+00  0.18510625229E+01  0.19697848269E+01  0.27491069280E+01  0.51100000000E-03 0. -1.
        -11    1    3    3    0    0  0.13551183437E+02 -0.14318302988E+02 -0.14472354502E+02  0.24456030301E+02  0.51100000000E-03 0.  1.
         12    1    3    3    0    0  0.52825155997E+01  0.42689547699E+01 -0.22312934356E+02  0.23323721519E+02  0.00000000000E+00 0. -1.
</event>
<event>
 7    1  0.5855569E-013  0.5052887E+02  0.7816164E-02  0.1300439E+00
        -11   -1    0    0    0    0  0.00000000000E+00  0.00000000000E+00  0.45593999997E+02  0.45594000000E+02  0.51100000000E-03 0. -1.
         11   -1    0    0    0    0 -0.00000000000E+00 -0.00000000000E+00 -0.45593999997E+02  0.45594000000E+02  0.51100000000E-03 0.  1.
    9900012    2    1    2    0    0 -0.39223190694E+02 -0.65107285587E+01  0.85039289227E+01  0.50528867180E+02  0.30000022279E+02 0.  0.
        -12    1    1    2    0    0  0.39223190694E+02  0.65107285587E+01 -0.85039289227E+01  0.40659132820E+02  0.00000000000E+00 0.  1.
         11    1    3    3    0    0 -0.28101929845E+01 -0.36391372686E+01  0.13939058655E+01  0.48045268750E+01  0.51100000000E-03 0. -1.
        -11    1    3    3    0    0 -0.23147486863E+02 -0.14482116602E+02  0.65862699662E+01  0.28087662802E+02  0.51100000000E-03 0.  1.
         12    1    3    3    0    0 -0.13265510847E+02  0.11610525312E+02  0.52375309090E+00  0.17636677503E+02  0.00000000000E+00 0. -1.
</event>
<event>
 7    1  0.5855569E-013  0.5052886E+02  0.7816164E-02  0.1300439E+00
        -11   -1    0    0    0    0  0.00000000000E+00  0.00000000000E+00  0.45593999997E+02  0.45594000000E+02  0.51100000000E-03 0. -1.
         11   -1    0    0    0    0 -0.00000000000E+00 -0.00000000000E+00 -0.45593999997E+02  0.45594000000E+02  0.51100000000E-03 0.  1.
    9900012    2    1    2    0    0 -0.25994638291E+02 -0.18278808076E+02  0.25363942260E+02  0.50528860664E+02  0.30000002475E+02 0.  0.
        -12    1    1    2    0    0  0.25994638291E+02  0.18278808076E+02 -0.25363942260E+02  0.40659139336E+02  0.00000000000E+00 0.  1.
         11    1    3    3    0    0 -0.12216763018E+02  0.16245614301E+01  0.80068096567E+01  0.14696853392E+02  0.51100000000E-03 0.  1.
        -11    1    3    3    0    0 -0.54521018529E+01 -0.10439526542E+02  0.19756677478E+02  0.23000770297E+02  0.51100000000E-03 0. -1.
         12    1    3    3    0    0 -0.83257734197E+01 -0.94638429645E+01 -0.23995448749E+01  0.12831236975E+02  0.00000000000E+00 0. -1.
</event>
<event>
 7    1  0.5855569E-013  0.5052885E+02  0.7816164E-02  0.1300439E+00
        -11   -1    0    0    0    0  0.00000000000E+00  0.00000000000E+00  0.45593999997E+02  0.45594000000E+02  0.51100000000E-03 0.  1.
         11   -1    0    0    0    0 -0.00000000000E+00 -0.00000000000E+00 -0.45593999997E+02  0.45594000000E+02  0.51100000000E-03 0. -1.
    9900012    2    1    2    0    0  0.17854720043E+02  0.25060199580E+02 -0.26577469615E+02  0.50528849469E+02  0.29999968447E+02 0.  0.
        -12    1    1    2    0    0 -0.17854720043E+02 -0.25060199580E+02  0.26577469615E+02  0.40659150531E+02  0.00000000000E+00 0.  1.
         11    1    3    3    0    0  0.37581641550E+01 -0.91690982413E-01 -0.24856948290E+01  0.45067598224E+01  0.51100000000E-03 0. -1.
        -11    1    3    3    0    0  0.30841134071E+01 -0.37209994574E+00  0.49349628957E+01  0.58313011345E+01  0.51100000000E-03 0.  1.
         12    1    3    3    0    0  0.11012442480E+02  0.25523990508E+02 -0.29026737681E+02  0.40190788512E+02  0.00000000000E+00 0. -1.
</event>
<event>
 7    1  0.5855569E-013  0.5052885E+02  0.7816164E-02  0.1300439E+00
        -11   -1    0    0    0    0  0.00000000000E+00  0.00000000000E+00  0.45593999997E+02  0.45594000000E+02  0.51100000000E-03 0.  1.
         11   -1    0    0    0    0 -0.00000000000E+00 -0.00000000000E+00 -0.45593999997E+02  0.45594000000E+02  0.51100000000E-03 0. -1.
    9900012    2    1    2    0    0 -0.21994140411E+02 -0.31714503861E+02 -0.12791177603E+02  0.50528853525E+02  0.29999980775E+02 0.  0.
        -12    1    1    2    0    0  0.21994140411E+02  0.31714503861E+02  0.12791177603E+02  0.40659146475E+02  0.00000000000E+00 0.  1.
         11    1    3    3    0    0 -0.27760822953E+01 -0.21400961235E+02 -0.85934354307E+01  0.23228321236E+02  0.51100000000E-03 0. -1.
        -11    1    3    3    0    0 -0.17100476647E+01 -0.66658564576E+01 -0.62537465289E+01  0.92987768678E+01  0.51100000000E-03 0.  1.
        -12    1    3    3    0    0 -0.17508010451E+02 -0.36476861690E+01  0.20560043567E+01  0.18001755422E+02  0.00000000000E+00 0.  1.
</event>
<event>
 7    1  0.5855569E-013  0.5052886E+02  0.7816164E-02  0.1300439E+00
        -11   -1    0    0    0    0  0.00000000000E+00  0.00000000000E+00  0.45593999997E+02  0.45594000000E+02  0.51100000000E-03 0.  1.
         11   -1    0    0    0    0 -0.00000000000E+00 -0.00000000000E+00 -0.45593999997E+02  0.45594000000E+02  0.51100000000E-03 0. -1.
    9900012    2    1    2    0    0  0.17039431905E+02  0.92241036112E+01 -0.35745481599E+02  0.50528858571E+02  0.29999996111E+02 0.  0.
        -12    1    1    2    0    0 -0.17039431905E+02 -0.92241036112E+01  0.35745481599E+02  0.40659141429E+02  0.00000000000E+00 0.  1.
         11    1    3    3    0    0 -0.36382664603E+01  0.90845672321E-01 -0.22046886124E+01  0.42551013984E+01  0.51100000000E-03 0. -1.
        -11    1    3    3    0    0  0.11193264841E+02 -0.54662796217E+01 -0.22321574022E+02  0.25562121543E+02  0.51100000000E-03 0.  1.
         12    1    3    3    0    0  0.94844335243E+01  0.14599537561E+02 -0.11219218964E+02  0.20711635629E+02  0.00000000000E+00 0. -1.
</event>
<event>
 7    1  0.5855569E-013  0.5052884E+02  0.7816164E-02  0.1300439E+00
        -11   -1    0    0    0    0  0.00000000000E+00  0.00000000000E+00  0.45593999997E+02  0.45594000000E+02  0.51100000000E-03 0.  1.
         11   -1    0    0    0    0 -0.00000000000E+00 -0.00000000000E+00 -0.45593999997E+02  0.45594000000E+02  0.51100000000E-03 0. -1.
    9900012    2    1    2    0    0  0.63904673301E+01 -0.32112582262E+02 -0.24106242872E+02  0.50528844110E+02  0.29999952158E+02 0.  0.
        -12    1    1    2    0    0 -0.63904673301E+01  0.32112582262E+02  0.24106242872E+02  0.40659155890E+02  0.00000000000E+00 0.  1.
         11    1    3    3    0    0  0.68340055290E+01 -0.40764552322E+01 -0.91001500367E+01  0.12088583448E+02  0.51100000000E-03 0. -1.
        -11    1    3    3    0    0  0.61891863639E+01 -0.16055018322E+02 -0.17475654077E+02  0.24524847131E+02  0.51100000000E-03 0.  1.
        -12    1    3    3    0    0 -0.66327245628E+01 -0.11981108709E+02  0.24695612414E+01  0.13915413531E+02  0.00000000000E+00 0.  1.
</event>
<event>
 7    1  0.5855569E-013  0.5052886E+02  0.7816164E-02  0.1300439E+00
        -11   -1    0    0    0    0  0.00000000000E+00  0.00000000000E+00  0.45593999997E+02  0.45594000000E+02  0.51100000000E-03 0. -1.
         11   -1    0    0    0    0 -0.00000000000E+00 -0.00000000000E+00 -0.45593999997E+02  0.45594000000E+02  0.51100000000E-03 0.  1.
    9900012    2    1    2    0    0 -0.10046672172E+02  0.17353763564E+02  0.35370568543E+02  0.50528857724E+02  0.29999993536E+02 0.  0.
        -12    1    1    2    0    0  0.10046672172E+02 -0.17353763564E+02 -0.35370568543E+02  0.40659142276E+02  0.00000000000E+00 0.  1.
         11    1    3    3    0    0 -0.30745698574E+01  0.97360872763E+01  0.38667220940E+01  0.10917688184E+02  0.51100000000E-03 0. -1.
        -11    1    3    3    0    0 -0.82733262931E+01  0.56015435025E+00  0.10917700928E+01  0.83638306443E+01  0.51100000000E-03 0.  1.
         12    1    3    3    0    0  0.13012239787E+01  0.70575219377E+01  0.30412076357E+02  0.31247338896E+02  0.00000000000E+00 0. -1.
</event>
<event>
 7    1  0.5855569E-013  0.5052886E+02  0.7816164E-02  0.1300439E+00
        -11   -1    0    0    0    0  0.00000000000E+00  0.00000000000E+00  0.45593999997E+02  0.45594000000E+02  0.51100000000E-03 0. -1.
         11   -1    0    0    0    0 -0.00000000000E+00 -0.00000000000E+00 -0.45593999997E+02  0.45594000000E+02  0.51100000000E-03 0.  1.
    9900012    2    1    2    0    0 -0.19514032688E+01 -0.13218682902E+02  0.38400831195E+02  0.50528863403E+02  0.30000010799E+02 0.  0.
        -12    1    1    2    0    0  0.19514032688E+01  0.13218682902E+02 -0.38400831195E+02  0.40659136597E+02  0.00000000000E+00 0.  1.
         11    1    3    3    0    0 -0.53365545114E+01 -0.25305743989E+01 -0.57634094539E+00  0.59342050848E+01  0.51100000000E-03 0.  1.
        -11    1    3    3    0    0  0.10949276273E+02 -0.43520577730E+01  0.20319366195E+02  0.23488373733E+02  0.51100000000E-03 0. -1.
         12    1    3    3    0    0 -0.75641250298E+01 -0.63360507300E+01  0.18657805945E+02  0.21106284585E+02  0.00000000000E+00 0. -1.
</event>
<event>
 7    1  0.5855569E-013  0.5052886E+02  0.7816164E-02  0.1300439E+00
        -11   -1    0    0    0    0  0.00000000000E+00  0.00000000000E+00  0.45593999997E+02  0.45594000000E+02  0.51100000000E-03 0. -1.
         11   -1    0    0    0    0 -0.00000000000E+00 -0.00000000000E+00 -0.45593999997E+02  0.45594000000E+02  0.51100000000E-03 0.  1.
    9900012    2    1    2    0    0  0.42109805871E+01  0.11704112957E+02  0.38709781112E+02  0.50528858699E+02  0.29999996501E+02 0.  0.
        -12    1    1    2    0    0 -0.42109805871E+01 -0.11704112957E+02 -0.38709781112E+02  0.40659141301E+02  0.00000000000E+00 0.  1.
         11    1    3    3    0    0  0.19399261139E+01  0.52553487368E+01 -0.48103576424E+00  0.56225794206E+01  0.51100000000E-03 0. -1.
        -11    1    3    3    0    0  0.44846198011E+01  0.11547742465E+02  0.12337262637E+02  0.17483427022E+02  0.51100000000E-03 0.  1.
        -12    1    3    3    0    0 -0.22135653278E+01 -0.50989782447E+01  0.26853554239E+02  0.27422852256E+02  0.00000000000E+00 0.  1.
</event>
<event>
 7    1  0.5855569E-013  0.5052885E+02  0.7816164E-02  0.1300439E+00
        -11   -1    0    0    0    0  0.00000000000E+00  0.00000000000E+00  0.45593999997E+02  0.45594000000E+02  0.51100000000E-03 0. -1.
         11   -1    0    0    0    0 -0.00000000000E+00 -0.00000000000E+00 -0.45593999997E+02  0.45594000000E+02  0.51100000000E-03 0.  1.
    9900012    2    1    2    0    0 -0.38144324074E+02 -0.11841352240E+02  0.76130990321E+01  0.50528851475E+02  0.29999974542E+02 0.  0.
        -12    1    1    2    0    0  0.38144324074E+02  0.11841352240E+02 -0.76130990321E+01  0.40659148525E+02  0.00000000000E+00 0.  1.
         11    1    3    3    0    0 -0.55846600877E+01  0.25426664018E+01 -0.76087972902E+01  0.97748338702E+01  0.51100000000E-03 0. -1.
        -11    1    3    3    0    0  0.42891683864E+00  0.71127038563E+00 -0.74660399169E+00  0.11168227243E+01  0.51100000000E-03 0.  1.
         12    1    3    3    0    0 -0.32988580825E+02 -0.15095289028E+02  0.15968500314E+02  0.39637194880E+02  0.00000000000E+00 0. -1.
</event>
<event>
 7    1  0.5855569E-013  0.5052883E+02  0.7816164E-02  0.1300439E+00
        -11   -1    0    0    0    0  0.00000000000E+00  0.00000000000E+00  0.45593999997E+02  0.45594000000E+02  0.51100000000E-03 0.  1.
         11   -1    0    0    0    0 -0.00000000000E+00 -0.00000000000E+00 -0.45593999997E+02  0.45594000000E+02  0.51100000000E-03 0. -1.
    9900012    2    1    2    0    0 -0.66399857832E+01  0.24919825104E+02 -0.31433762132E+02  0.50528825191E+02  0.29999894650E+02 0.  0.
        -12    1    1    2    0    0  0.66399857832E+01 -0.24919825104E+02  0.31433762132E+02  0.40659174809E+02  0.00000000000E+00 0.  1.
         11    1    3    3    0    0  0.23346782498E+01  0.89675451542E+01 -0.24785884855E+02  0.26461437545E+02  0.51100000000E-03 0. -1.
        -11    1    3    3    0    0  0.15960644538E+01 -0.17046731756E+01 -0.17365192415E+01  0.29101257213E+01  0.51100000000E-03 0.  1.
        -12    1    3    3    0    0 -0.10570728487E+02  0.17656953125E+02 -0.49113580355E+01  0.21157261925E+02  0.00000000000E+00 0.  1.
</event>
<event>
 7    1  0.5855569E-013  0.5052887E+02  0.7816164E-02  0.1300439E+00
        -11   -1    0    0    0    0  0.00000000000E+00  0.00000000000E+00  0.45593999997E+02  0.45594000000E+02  0.51100000000E-03 0.  1.
         11   -1    0    0    0    0 -0.00000000000E+00 -0.00000000000E+00 -0.45593999997E+02  0.45594000000E+02  0.51100000000E-03 0. -1.
    9900012    2    1    2    0    0 -0.10585518795E+02 -0.21088424917E+02 -0.33111783503E+02  0.50528867196E+02  0.30000022328E+02 0.  0.
        -12    1    1    2    0    0  0.10585518795E+02  0.21088424917E+02  0.33111783503E+02  0.40659132804E+02  0.00000000000E+00 0.  1.
         11    1    3    3    0    0  0.27313235449E+01 -0.17571865617E+02 -0.72914034937E+01  0.19219655427E+02  0.51100000000E-03 0. -1.
        -11    1    3    3    0    0 -0.82702248228E+01 -0.75506714734E+01 -0.17471343504E+02  0.20752279451E+02  0.51100000000E-03 0.  1.
        -12    1    3    3    0    0 -0.50466175171E+01  0.40341121731E+01 -0.83490365054E+01  0.10556932318E+02  0.00000000000E+00 0.  1.
</event>
<event>
 7    1  0.5855569E-013  0.5052886E+02  0.7816164E-02  0.1300439E+00
        -11   -1    0    0    0    0  0.00000000000E+00  0.00000000000E+00  0.45593999997E+02  0.45594000000E+02  0.51100000000E-03 0.  1.
         11   -1    0    0    0    0 -0.00000000000E+00 -0.00000000000E+00 -0.45593999997E+02  0.45594000000E+02  0.51100000000E-03 0. -1.
    9900012    2    1    2    0    0  0.28181327838E+02  0.25275494767E+02 -0.14836708590E+02  0.50528858393E+02  0.29999995572E+02 0.  0.
        -12    1    1    2    0    0 -0.28181327838E+02 -0.25275494767E+02  0.14836708590E+02  0.40659141607E+02  0.00000000000E+00 0.  1.
         11    1    3    3    0    0  0.20655805389E+02  0.16279512315E+02 -0.11112848880E+02  0.28551361229E+02  0.51100000000E-03 0. -1.
        -11    1    3    3    0    0  0.73028262092E+01  0.14438140844E+02 -0.33101714212E+01  0.16515096632E+02  0.51100000000E-03 0.  1.
        -12    1    3    3    0    0  0.22269623898E+00 -0.54421583919E+01 -0.41368828810E+00  0.54624005325E+01  0.00000000000E+00 0.  1.
</event>
<event>
 7    1  0.5855569E-013  0.5052886E+02  0.7816164E-02  0.1300439E+00
        -11   -1    0    0    0    0  0.00000000000E+00  0.00000000000E+00  0.45593999997E+02  0.45594000000E+02  0.51100000000E-03 0.  1.
         11   -1    0    0    0    0 -0.00000000000E+00 -0.00000000000E+00 -0.45593999997E+02  0.45594000000E+02  0.51100000000E-03 0. -1.
    9900012    2    1    2    0    0 -0.26464050115E+02 -0.15490522493E+02 -0.26699508593E+02  0.50528855952E+02  0.29999988153E+02 0.  0.
        -12    1    1    2    0    0  0.26464050115E+02  0.15490522493E+02  0.26699508593E+02  0.40659144048E+02  0.00000000000E+00 0.  1.
         11    1    3    3    0    0  0.17257622439E+01 -0.79685948734E+01 -0.95970448614E+01  0.12592856305E+02  0.51100000000E-03 0. -1.
        -11    1    3    3    0    0 -0.23000407144E+01 -0.73182703439E+01 -0.18661885372E+01  0.78949305274E+01  0.51100000000E-03 0.  1.
         12    1    3    3    0    0 -0.25889771645E+02 -0.20365727584E+00 -0.15236275194E+02  0.30041069120E+02  0.00000000000E+00 0. -1.
</event>
<event>
 7    1  0.5855569E-013  0.5052886E+02  0.7816164E-02  0.1300439E+00
        -11   -1    0    0    0    0  0.00000000000E+00  0.00000000000E+00  0.45593999997E+02  0.45594000000E+02  0.51100000000E-03 0. -1.
         11   -1    0    0    0    0 -0.00000000000E+00 -0.00000000000E+00 -0.45593999997E+02  0.45594000000E+02  0.51100000000E-03 0.  1.
    9900012    2    1    2    0    0  0.14713312114E+02  0.25658426957E+02  0.27898555998E+02  0.50528857682E+02  0.29999993411E+02 0.  0.
        -12    1    1    2    0    0 -0.14713312114E+02 -0.25658426957E+02 -0.27898555998E+02  0.40659142318E+02  0.00000000000E+00 0.  1.
         11    1    3    3    0    0  0.12308570614E+02  0.12070706099E+02  0.19295840811E+02  0.25875322784E+02  0.51100000000E-03 0. -1.
        -11    1    3    3    0    0  0.27144635376E+01  0.14761220758E+00  0.10706510788E+02  0.11046242582E+02  0.51100000000E-03 0.  1.
        -12    1    3    3    0    0 -0.30972203784E+00  0.13440108650E+02 -0.21037956013E+01  0.13607292317E+02  0.00000000000E+00 0.  1.
</event>
<event>
 7    1  0.5855569E-013  0.5052888E+02  0.7816164E-02  0.1300439E+00
        -11   -1    0    0    0    0  0.00000000000E+00  0.00000000000E+00  0.45593999997E+02  0.45594000000E+02  0.51100000000E-03 0.  1.
         11   -1    0    0    0    0 -0.00000000000E+00 -0.00000000000E+00 -0.45593999997E+02  0.45594000000E+02  0.51100000000E-03 0. -1.
    9900012    2    1    2    0    0  0.19132502529E+02 -0.16481682620E+02 -0.31866369970E+02  0.50528879866E+02  0.30000060841E+02 0.  0.
        -12    1    1    2    0    0 -0.19132502529E+02  0.16481682620E+02  0.31866369970E+02  0.40659120134E+02  0.00000000000E+00 0.  1.
         11    1    3    3    0    0  0.99473969649E+01  0.51810104514E+01 -0.13537031728E+02  0.17579670189E+02  0.51100000000E-03 0. -1.
        -11    1    3    3    0    0  0.95927203763E+01 -0.65409275963E+01 -0.11534120484E+02  0.16365816620E+02  0.51100000000E-03 0.  1.
         12    1    3    3    0    0 -0.40761481261E+00 -0.15121765476E+02 -0.67952177579E+01  0.16583393058E+02  0.00000000000E+00 0. -1.
</event>
<event>
 7    1  0.5855569E-013  0.5052886E+02  0.7816164E-02  0.1300439E+00
        -11   -1    0    0    0    0  0.00000000000E+00  0.00000000000E+00  0.45593999997E+02  0.45594000000E+02  0.51100000000E-03 0.  1.
         11   -1    0    0    0    0 -0.00000000000E+00 -0.00000000000E+00 -0.45593999997E+02  0.45594000000E+02  0.51100000000E-03 0. -1.
    9900012    2    1    2    0    0  0.39700174335E+00  0.49365536529E+01 -0.40356389921E+02  0.50528863514E+02  0.30000011137E+02 0.  0.
        -12    1    1    2    0    0 -0.39700174335E+00 -0.49365536529E+01  0.40356389921E+02  0.40659136486E+02  0.00000000000E+00 0.  1.
         11    1    3    3    0    0 -0.44869913220E+01 -0.52683907297E+01 -0.33629748446E+02  0.34334370721E+02  0.51100000000E-03 0. -1.
        -11    1    3    3    0    0  0.61580367973E+00  0.13710921500E+01  0.23758103490E+01  0.28113311671E+01  0.51100000000E-03 0.  1.
        -12    1    3    3    0    0  0.42681893856E+01  0.88338522327E+01 -0.91024518240E+01  0.13383161626E+02  0.00000000000E+00 0.  1.
</event>
<event>
 7    1  0.5855569E-013  0.5052886E+02  0.7816164E-02  0.1300439E+00
        -11   -1    0    0    0    0  0.00000000000E+00  0.00000000000E+00  0.45593999997E+02  0.45594000000E+02  0.51100000000E-03 0. -1.
         11   -1    0    0    0    0 -0.00000000000E+00 -0.00000000000E+00 -0.45593999997E+02  0.45594000000E+02  0.51100000000E-03 0.  1.
    9900012    2    1    2    0    0  0.35533551156E+02  0.19651916700E+02  0.20820034433E+01  0.50528858026E+02  0.29999994456E+02 0.  0.
        -12    1    1    2    0    0 -0.35533551156E+02 -0.19651916700E+02 -0.20820034433E+01  0.40659141974E+02  0.00000000000E+00 0.  1.
         11    1    3    3    0    0  0.18872794625E+02  0.23356104363E+01 -0.31655026747E+01  0.19278429928E+02  0.51100000000E-03 0. -1.
        -11    1    3    3    0    0  0.93902025575E+01  0.10944796477E+02 -0.66834989718E+01  0.15894452893E+02  0.51100000000E-03 0.  1.
        -12    1    3    3    0    0  0.72705539735E+01  0.63715097870E+01  0.11931005090E+02  0.15355975205E+02  0.00000000000E+00 0.  1.
</event>
<event>
 7    1  0.5855569E-013  0.5052886E+02  0.7816164E-02  0.1300439E+00
        -11   -1    0    0    0    0  0.00000000000E+00  0.00000000000E+00  0.45593999997E+02  0.45594000000E+02  0.51100000000E-03 0.  1.
         11   -1    0    0    0    0 -0.00000000000E+00 -0.00000000000E+00 -0.45593999997E+02  0.45594000000E+02  0.51100000000E-03 0. -1.
    9900012    2    1    2    0    0 -0.34157901272E+02 -0.20490510305E+02 -0.81573578257E+01  0.50528859348E+02  0.29999998475E+02 0.  0.
        -12    1    1    2    0    0  0.34157901272E+02  0.20490510305E+02  0.81573578257E+01  0.40659140652E+02  0.00000000000E+00 0.  1.
         11    1    3    3    0    0  0.63905991722E+00 -0.59392008509E+01  0.28785477862E+00  0.59804151160E+01  0.51100000000E-03 0. -1.
        -11    1    3    3    0    0 -0.41475917926E+01 -0.11981978977E+02 -0.10154224225E+00  0.12679930953E+02  0.51100000000E-03 0.  1.
        -12    1    3    3    0    0 -0.30649369396E+02 -0.25693304767E+01 -0.83436703621E+01  0.31868513279E+02  0.00000000000E+00 0.  1.
</event>
<event>
 7    1  0.5855569E-013  0.5052885E+02  0.7816164E-02  0.1300439E+00
        -11   -1    0    0    0    0  0.00000000000E+00  0.00000000000E+00  0.45593999997E+02  0.45594000000E+02  0.51100000000E-03 0.  1.
         11   -1    0    0    0    0 -0.00000000000E+00 -0.00000000000E+00 -0.45593999997E+02  0.45594000000E+02  0.51100000000E-03 0. -1.
    9900012    2    1    2    0    0 -0.33547420747E+02  0.12382753176E+02 -0.19349528821E+02  0.50528852437E+02  0.29999977466E+02 0.  0.
        -12    1    1    2    0    0  0.33547420747E+02 -0.12382753176E+02  0.19349528821E+02  0.40659147563E+02  0.00000000000E+00 0.  1.
         11    1    3    3    0    0 -0.18576784201E+02  0.73440895126E+01 -0.43075550755E+01  0.20434960069E+02  0.51100000000E-03 0. -1.
        -11    1    3    3    0    0 -0.40068182949E+01 -0.92371078147E-01  0.51655641876E+01  0.65380562021E+01  0.51100000000E-03 0.  1.
         12    1    3    3    0    0 -0.10963818251E+02  0.51310347420E+01 -0.20207537933E+02  0.23555836165E+02  0.00000000000E+00 0. -1.
</event>
<event>
 7    1  0.5855569E-013  0.5052887E+02  0.7816164E-02  0.1300439E+00
        -11   -1    0    0    0    0  0.00000000000E+00  0.00000000000E+00  0.45593999997E+02  0.45594000000E+02  0.51100000000E-03 0.  1.
         11   -1    0    0    0    0 -0.00000000000E+00 -0.00000000000E+00 -0.45593999997E+02  0.45594000000E+02  0.51100000000E-03 0. -1.
    9900012    2    1    2    0    0  0.13909287744E+02  0.93225652542E+00 -0.38194604251E+02  0.50528865951E+02  0.30000018543E+02 0.  0.
        -12    1    1    2    0    0 -0.13909287744E+02 -0.93225652542E+00  0.38194604251E+02  0.40659134049E+02  0.00000000000E+00 0.  1.
         11    1    3    3    0    0  0.28532935424E+01  0.12876699292E+01 -0.13519227286E+02  0.13876919131E+02  0.51100000000E-03 0. -1.
        -11    1    3    3    0    0 -0.69278952157E+01 -0.23774373089E+01 -0.13565689102E+02  0.15416739647E+02  0.51100000000E-03 0.  1.
        -12    1    3    3    0    0  0.17983889417E+02  0.20220239051E+01 -0.11109687862E+02  0.21235207172E+02  0.00000000000E+00 0.  1.
</event>
<event>
 7    1  0.5855569E-013  0.5052886E+02  0.7816164E-02  0.1300439E+00
        -11   -1    0    0    0    0  0.00000000000E+00  0.00000000000E+00  0.45593999997E+02  0.45594000000E+02  0.51100000000E-03 0.  1.
         11   -1    0    0    0    0 -0.00000000000E+00 -0.00000000000E+00 -0.45593999997E+02  0.45594000000E+02  0.51100000000E-03 0. -1.
    9900012    2    1    2    0    0  0.32581771692E+02  0.22871141883E+02 -0.82767578800E+01  0.50528859593E+02  0.29999999219E+02 0.  0.
        -12    1    1    2    0    0 -0.32581771692E+02 -0.22871141883E+02  0.82767578800E+01  0.40659140407E+02  0.00000000000E+00 0.  1.
         11    1    3    3    0    0  0.67491009351E+01  0.24985591297E+01 -0.32181063706E+01  0.78834871745E+01  0.51100000000E-03 0. -1.
        -11    1    3    3    0    0  0.21513251431E+02  0.54140494475E-01 -0.36934424088E+01  0.21828065315E+02  0.51100000000E-03 0.  1.
        -12    1    3    3    0    0  0.43194193260E+01  0.20318442259E+02 -0.13652091006E+01  0.20817307104E+02  0.00000000000E+00 0.  1.
</event>
<event>
 7    1  0.5855569E-013  0.5052886E+02  0.7816164E-02  0.1300439E+00
        -11   -1    0    0    0    0  0.00000000000E+00  0.00000000000E+00  0.45593999997E+02  0.45594000000E+02  0.51100000000E-03 0.  1.
         11   -1    0    0    0    0 -0.00000000000E+00 -0.00000000000E+00 -0.45593999997E+02  0.45594000000E+02  0.51100000000E-03 0. -1.
    9900012    2    1    2    0    0  0.12167967904E+02 -0.47636386706E+01 -0.38502127037E+02  0.50528862249E+02  0.30000007292E+02 0.  0.
        -12    1    1    2    0    0 -0.12167967904E+02  0.47636386706E+01  0.38502127037E+02  0.40659137751E+02  0.00000000000E+00 0.  1.
         11    1    3    3    0    0  0.91742294744E+01 -0.76503991167E+01 -0.21443238031E+02  0.24546029223E+02  0.51100000000E-03 0. -1.
        -11    1    3    3    0    0  0.82384160247E+01  0.17701511177E+00 -0.18192421010E+02  0.19971655300E+02  0.51100000000E-03 0.  1.
        -12    1    3    3    0    0 -0.52446775950E+01  0.27097453344E+01  0.11335320046E+01  0.60111777263E+01  0.00000000000E+00 0.  1.
</event>
<event>
 7    1  0.5855569E-013  0.5052885E+02  0.7816164E-02  0.1300439E+00
        -11   -1    0    0    0    0  0.00000000000E+00  0.00000000000E+00  0.45593999997E+02  0.45594000000E+02  0.51100000000E-03 0.  1.
         11   -1    0    0    0    0 -0.00000000000E+00 -0.00000000000E+00 -0.45593999997E+02  0.45594000000E+02  0.51100000000E-03 0. -1.
    9900012    2    1    2    0    0  0.60391594931E+01 -0.17306594904E+02 -0.36292931867E+02  0.50528848779E+02  0.29999966348E+02 0.  0.
        -12    1    1    2    0    0 -0.60391594931E+01  0.17306594904E+02  0.36292931867E+02  0.40659151221E+02  0.00000000000E+00 0.  1.
         11    1    3    3    0    0 -0.36161913705E+01 -0.26661397959E+01 -0.24256546950E+02  0.24669114529E+02  0.51100000000E-03 0. -1.
        -11    1    3    3    0    0  0.92566196476E+01 -0.98098091046E+01 -0.15004933510E+02  0.20175861614E+02  0.51100000000E-03 0.  1.
        -12    1    3    3    0    0  0.39873121603E+00 -0.48306460031E+01  0.29685485933E+01  0.56838726359E+01  0.00000000000E+00 0.  1.
</event>
<event>
 7    1  0.5855569E-013  0.5052885E+02  0.7816164E-02  0.1300439E+00
        -11   -1    0    0    0    0  0.00000000000E+00  0.00000000000E+00  0.45593999997E+02  0.45594000000E+02  0.51100000000E-03 0.  1.
         11   -1    0    0    0    0 -0.00000000000E+00 -0.00000000000E+00 -0.45593999997E+02  0.45594000000E+02  0.51100000000E-03 0. -1.
    9900012    2    1    2    0    0  0.87360254157E+01  0.65859540491E+01 -0.39159587233E+02  0.50528853390E+02  0.29999980364E+02 0.  0.
        -12    1    1    2    0    0 -0.87360254157E+01 -0.65859540491E+01  0.39159587233E+02  0.40659146610E+02  0.00000000000E+00 0.  1.
         11    1    3    3    0    0  0.13912657622E+02  0.23398496945E+01 -0.14204321456E+02  0.20019982192E+02  0.51100000000E-03 0. -1.
        -11    1    3    3    0    0  0.51536965605E+01  0.40328733822E+01 -0.57993083765E+01  0.87439484137E+01  0.51100000000E-03 0.  1.
        -12    1    3    3    0    0 -0.10330328767E+02  0.21323097239E+00 -0.19155957400E+02  0.21764922784E+02  0.00000000000E+00 0.  1.
</event>
<event>
 7    1  0.5855569E-013  0.5052886E+02  0.7816164E-02  0.1300439E+00
        -11   -1    0    0    0    0  0.00000000000E+00  0.00000000000E+00  0.45593999997E+02  0.45594000000E+02  0.51100000000E-03 0.  1.
         11   -1    0    0    0    0 -0.00000000000E+00 -0.00000000000E+00 -0.45593999997E+02  0.45594000000E+02  0.51100000000E-03 0. -1.
    9900012    2    1    2    0    0  0.15450747591E+02 -0.92591642888E-01 -0.37608933502E+02  0.50528855229E+02  0.29999985953E+02 0.  0.
        -12    1    1    2    0    0 -0.15450747591E+02  0.92591642888E-01  0.37608933502E+02  0.40659144771E+02  0.00000000000E+00 0.  1.
         11    1    3    3    0    0 -0.21474096712E+01 -0.40416162565E+01 -0.52452392022E+01  0.69612186297E+01  0.51100000000E-03 0. -1.
        -11    1    3    3    0    0 -0.39914809600E+01  0.40317882091E+01 -0.14415451130E+02  0.15491690287E+02  0.51100000000E-03 0.  1.
        -12    1    3    3    0    0  0.21589638223E+02 -0.82763595536E-01 -0.17948243171E+02  0.28075946312E+02  0.00000000000E+00 0.  1.
</event>
<event>
 7    1  0.5983039E-013  0.5052886E+02  0.7816164E-02  0.1300439E+00
        -11   -1    0    0    0    0  0.00000000000E+00  0.00000000000E+00  0.45593999997E+02  0.45594000000E+02  0.51100000000E-03 0. -1.
         11   -1    0    0    0    0 -0.00000000000E+00 -0.00000000000E+00 -0.45593999997E+02  0.45594000000E+02  0.51100000000E-03 0.  1.
    9900012    2    1    2    0    0  0.18715594190E+02 -0.13495263901E+02  0.33477897863E+02  0.50528865000E+02  0.30000015654E+02 0.  0.
        -12    1    1    2    0    0 -0.18715594190E+02  0.13495263901E+02 -0.33477897863E+02  0.40659135000E+02  0.00000000000E+00 0.  1.
         11    1    3    3    0    0  0.79186805075E+01  0.43076934292E+01  0.36400744160E+01  0.97217213329E+01  0.51100000000E-03 0. -1.
        -11    1    3    3    0    0 -0.14472323026E+01 -0.47922880233E+01 -0.10588419636E+01  0.51168009929E+01  0.51100000000E-03 0.  1.
         12    1    3    3    0    0  0.12244145985E+02 -0.13010669307E+02  0.30896665410E+02  0.35690342674E+02  0.00000000000E+00 0. -1.
</event>
<event>
 7    1  0.5855569E-013  0.5052886E+02  0.7816164E-02  0.1300439E+00
        -11   -1    0    0    0    0  0.00000000000E+00  0.00000000000E+00  0.45593999997E+02  0.45594000000E+02  0.51100000000E-03 0.  1.
         11   -1    0    0    0    0 -0.00000000000E+00 -0.00000000000E+00 -0.45593999997E+02  0.45594000000E+02  0.51100000000E-03 0. -1.
    9900012    2    1    2    0    0 -0.11448730820E+01  0.39307070219E+02  0.10334856323E+02  0.50528858853E+02  0.29999996970E+02 0.  0.
        -12    1    1    2    0    0  0.11448730820E+01 -0.39307070219E+02 -0.10334856323E+02  0.40659141147E+02  0.00000000000E+00 0.  1.
         11    1    3    3    0    0  0.50331765879E-01  0.13090218511E+02  0.11832385477E+02  0.17645444179E+02  0.51100000000E-03 0. -1.
        -11    1    3    3    0    0 -0.26922438904E+01 -0.83309340106E+00  0.43357666127E+01  0.51711791848E+01  0.51100000000E-03 0.  1.
         12    1    3    3    0    0  0.14970390425E+01  0.27049945110E+02 -0.58332957667E+01  0.27712235490E+02  0.00000000000E+00 0. -1.
</event>
<event>
 7    1  0.5855569E-013  0.5052886E+02  0.7816164E-02  0.1300439E+00
        -11   -1    0    0    0    0  0.00000000000E+00  0.00000000000E+00  0.45593999997E+02  0.45594000000E+02  0.51100000000E-03 0. -1.
         11   -1    0    0    0    0 -0.00000000000E+00 -0.00000000000E+00 -0.45593999997E+02  0.45594000000E+02  0.51100000000E-03 0.  1.
    9900012    2    1    2    0    0  0.32685173307E+02 -0.22973208853E+02  0.75549190855E+01  0.50528859803E+02  0.29999999858E+02 0.  0.
        -12    1    1    2    0    0 -0.32685173307E+02  0.22973208853E+02 -0.75549190855E+01  0.40659140197E+02  0.00000000000E+00 0.  1.
         11    1    3    3    0    0  0.54641698020E+00 -0.52274229858E+01 -0.27877907820E+01  0.59494789935E+01  0.51100000000E-03 0. -1.
        -11    1    3    3    0    0  0.22693177400E+02 -0.92692107103E+01 -0.46351204550E+01  0.24947603284E+02  0.51100000000E-03 0.  1.
         12    1    3    3    0    0  0.94455789270E+01 -0.84765751572E+01  0.14977830322E+02  0.19631777526E+02  0.00000000000E+00 0. -1.
</event>
<event>
 7    1  0.5855569E-013  0.5052885E+02  0.7816164E-02  0.1300439E+00
        -11   -1    0    0    0    0  0.00000000000E+00  0.00000000000E+00  0.45593999997E+02  0.45594000000E+02  0.51100000000E-03 0.  1.
         11   -1    0    0    0    0 -0.00000000000E+00 -0.00000000000E+00 -0.45593999997E+02  0.45594000000E+02  0.51100000000E-03 0. -1.
    9900012    2    1    2    0    0 -0.15500390313E+00 -0.35676120228E+02 -0.19502734189E+02  0.50528853163E+02  0.29999979673E+02 0.  0.
        -12    1    1    2    0    0  0.15500390313E+00  0.35676120228E+02  0.19502734189E+02  0.40659146837E+02  0.00000000000E+00 0.  1.
         11    1    3    3    0    0  0.50819891716E+01 -0.17336294877E+01 -0.64737528954E+01  0.84108003158E+01  0.51100000000E-03 0. -1.
        -11    1    3    3    0    0 -0.33345062919E+01 -0.27495028452E+01  0.45390936092E+01  0.62675409182E+01  0.51100000000E-03 0.  1.
         12    1    3    3    0    0 -0.19024867828E+01 -0.31192987895E+02 -0.17568074903E+02  0.35850511929E+02  0.00000000000E+00 0. -1.
</event>
<event>
 7    1  0.5855569E-013  0.5052886E+02  0.7816164E-02  0.1300439E+00
        -11   -1    0    0    0    0  0.00000000000E+00  0.00000000000E+00  0.45593999997E+02  0.45594000000E+02  0.51100000000E-03 0. -1.
         11   -1    0    0    0    0 -0.00000000000E+00 -0.00000000000E+00 -0.45593999997E+02  0.45594000000E+02  0.51100000000E-03 0.  1.
    9900012    2    1    2    0    0 -0.25329498540E+02  0.96492635128E+01  0.30306336202E+02  0.50528858388E+02  0.29999995558E+02 0.  0.
        -12    1    1    2    0    0  0.25329498540E+02 -0.96492635128E+01 -0.30306336202E+02  0.40659141612E+02  0.00000000000E+00 0.  1.
         11    1    3    3    0    0 -0.86610501584E+01 -0.32646354600E+00  0.36090070149E+01  0.93885728515E+01  0.51100000000E-03 0. -1.
        -11    1    3    3    0    0 -0.17516336556E+02 -0.33027072133E+01  0.13141349073E+02  0.22145540792E+02  0.51100000000E-03 0.  1.
        -12    1    3    3    0    0  0.84788817403E+00  0.13278434272E+02  0.13555980114E+02  0.18994744745E+02  0.00000000000E+00 0.  1.
</event>
<event>
 7    1  0.5855569E-013  0.5052886E+02  0.7816164E-02  0.1300439E+00
        -11   -1    0    0    0    0  0.00000000000E+00  0.00000000000E+00  0.45593999997E+02  0.45594000000E+02  0.51100000000E-03 0.  1.
         11   -1    0    0    0    0 -0.00000000000E+00 -0.00000000000E+00 -0.45593999997E+02  0.45594000000E+02  0.51100000000E-03 0. -1.
    9900012    2    1    2    0    0  0.39850527831E+02 -0.54336843884E+01 -0.59645930685E+01  0.50528857548E+02  0.29999993002E+02 0.  0.
        -12    1    1    2    0    0 -0.39850527831E+02  0.54336843884E+01  0.59645930685E+01  0.40659142452E+02  0.00000000000E+00 0.  1.
         11    1    3    3    0    0  0.59896512452E+01 -0.38575493385E+01  0.15317436723E+01  0.72871700870E+01  0.51100000000E-03 0. -1.
        -11    1    3    3    0    0  0.51026774826E+01  0.34849953872E+01  0.80600988173E+01  0.10156165790E+02  0.51100000000E-03 0.  1.
         12    1    3    3    0    0  0.28758199104E+02 -0.50611304371E+01 -0.15556435558E+02  0.33085521671E+02  0.00000000000E+00 0. -1.
</event>
<event>
 7    1  0.5855569E-013  0.5052886E+02  0.7816164E-02  0.1300439E+00
        -11   -1    0    0    0    0  0.00000000000E+00  0.00000000000E+00  0.45593999997E+02  0.45594000000E+02  0.51100000000E-03 0. -1.
         11   -1    0    0    0    0 -0.00000000000E+00 -0.00000000000E+00 -0.45593999997E+02  0.45594000000E+02  0.51100000000E-03 0.  1.
    9900012    2    1    2    0    0  0.16343191906E+02 -0.37191198754E+02 -0.16971678098E+01  0.50528861236E+02  0.30000004214E+02 0.  0.
        -12    1    1    2    0    0 -0.16343191906E+02  0.37191198754E+02  0.16971678098E+01  0.40659138764E+02  0.00000000000E+00 0.  1.
         11    1    3    3    0    0  0.14187140977E+02 -0.21096303337E+02  0.94872225092E+01  0.27135518694E+02  0.51100000000E-03 0.  1.
        -11    1    3    3    0    0  0.39767300263E+01 -0.37503214751E+01  0.14298440851E+01  0.56501103740E+01  0.51100000000E-03 0. -1.
         12    1    3    3    0    0 -0.18206790975E+01 -0.12344573942E+02 -0.12614234404E+02  0.17743232169E+02  0.00000000000E+00 0. -1.
</event>
<event>
 7    1  0.5855569E-013  0.5052882E+02  0.7816164E-02  0.1300439E+00
        -11   -1    0    0    0    0  0.00000000000E+00  0.00000000000E+00  0.45593999997E+02  0.45594000000E+02  0.51100000000E-03 0.  1.
         11   -1    0    0    0    0 -0.00000000000E+00 -0.00000000000E+00 -0.45593999997E+02  0.45594000000E+02  0.51100000000E-03 0. -1.
    9900012    2    1    2    0    0  0.32102917146E+01  0.18102847550E+01 -0.40491800187E+02  0.50528819165E+02  0.29999876335E+02 0.  0.
        -12    1    1    2    0    0 -0.32102917146E+01 -0.18102847550E+01  0.40491800187E+02  0.40659180835E+02  0.00000000000E+00 0.  1.
         11    1    3    3    0    0  0.16640446767E+01 -0.51745080200E+01 -0.40770667236E+02  0.41131397801E+02  0.51100000000E-03 0. -1.
        -11    1    3    3    0    0 -0.87640662656E-01 -0.26937989312E+00 -0.16833176577E+01  0.17069871149E+01  0.51100000000E-03 0.  1.
        -12    1    3    3    0    0  0.16338877005E+01  0.72541726681E+01  0.19621847072E+01  0.76904342492E+01  0.00000000000E+00 0.  1.
</event>
<event>
 7    1  0.5855569E-013  0.5052886E+02  0.7816164E-02  0.1300439E+00
        -11   -1    0    0    0    0  0.00000000000E+00  0.00000000000E+00  0.45593999997E+02  0.45594000000E+02  0.51100000000E-03 0. -1.
         11   -1    0    0    0    0 -0.00000000000E+00 -0.00000000000E+00 -0.45593999997E+02  0.45594000000E+02  0.51100000000E-03 0.  1.
    9900012    2    1    2    0    0 -0.30597151655E+02  0.26732111977E+02 -0.15407759378E+01  0.50528862150E+02  0.30000006992E+02 0.  0.
        -12    1    1    2    0    0  0.30597151655E+02 -0.26732111977E+02  0.15407759378E+01  0.40659137850E+02  0.00000000000E+00 0.  1.
         11    1    3    3    0    0 -0.17766639179E+02  0.44963986169E+01 -0.70334932620E+01  0.19630106876E+02  0.51100000000E-03 0. -1.
        -11    1    3    3    0    0 -0.68996318175E+01 -0.44585422409E+00  0.19873812050E+01  0.71939828691E+01  0.51100000000E-03 0.  1.
         12    1    3    3    0    0 -0.59308806593E+01  0.22681567584E+02  0.35053361192E+01  0.23704772405E+02  0.00000000000E+00 0. -1.
</event>
<event>
 7    1  0.5855569E-013  0.5052884E+02  0.7816164E-02  0.1300439E+00
        -11   -1    0    0    0    0  0.00000000000E+00  0.00000000000E+00  0.45593999997E+02  0.45594000000E+02  0.51100000000E-03 0.  1.
         11   -1    0    0    0    0 -0.00000000000E+00 -0.00000000000E+00 -0.45593999997E+02  0.45594000000E+02  0.51100000000E-03 0. -1.
    9900012    2    1    2    0    0  0.13333443760E+02 -0.16301953069E+02 -0.34779773115E+02  0.50528843414E+02  0.29999950041E+02 0.  0.
        -12    1    1    2    0    0 -0.13333443760E+02  0.16301953069E+02  0.34779773115E+02  0.40659156586E+02  0.00000000000E+00 0.  1.
         11    1    3    3    0    0  0.10385608777E+02  0.69172764225E+01 -0.10954725433E+02  0.16604685855E+02  0.51100000000E-03 0. -1.
        -11    1    3    3    0    0 -0.16056768212E+00 -0.78185197943E+01 -0.11724350512E+02  0.14093098629E+02  0.51100000000E-03 0.  1.
        -12    1    3    3    0    0  0.31084026650E+01 -0.15400709698E+02 -0.12100697170E+02  0.19831058930E+02  0.00000000000E+00 0.  1.
</event>
<event>
 7    1  0.5855569E-013  0.5052887E+02  0.7816164E-02  0.1300439E+00
        -11   -1    0    0    0    0  0.00000000000E+00  0.00000000000E+00  0.45593999997E+02  0.45594000000E+02  0.51100000000E-03 0.  1.
         11   -1    0    0    0    0 -0.00000000000E+00 -0.00000000000E+00 -0.45593999997E+02  0.45594000000E+02  0.51100000000E-03 0. -1.
    9900012    2    1    2    0    0  0.16252283736E+02 -0.17373692253E+02 -0.32972461075E+02  0.50528866974E+02  0.30000021653E+02 0.  0.
        -12    1    1    2    0    0 -0.16252283736E+02  0.17373692253E+02  0.32972461075E+02  0.40659133026E+02  0.00000000000E+00 0.  1.
         11    1    3    3    0    0 -0.45827917260E+01 -0.72750241827E+01 -0.13163180127E+02  0.15722508330E+02  0.51100000000E-03 0. -1.
        -11    1    3    3    0    0  0.10606537503E+02 -0.11175836210E+02 -0.39534070525E+01  0.15906834392E+02  0.51100000000E-03 0.  1.
        -12    1    3    3    0    0  0.10228537958E+02  0.10771681389E+01 -0.15855873895E+02  0.18899524252E+02  0.00000000000E+00 0.  1.
</event>
<event>
 7    1  0.5855569E-013  0.5052900E+02  0.7816164E-02  0.1300438E+00
        -11   -1    0    0    0    0  0.00000000000E+00  0.00000000000E+00  0.45593999997E+02  0.45594000000E+02  0.51100000000E-03 0.  1.
         11   -1    0    0    0    0 -0.00000000000E+00 -0.00000000000E+00 -0.45593999997E+02  0.45594000000E+02  0.51100000000E-03 0. -1.
    9900012    2    1    2    0    0  0.25704453552E+02  0.29080423671E+02 -0.12114644153E+02  0.50528996369E+02  0.30000414961E+02 0.  0.
        -12    1    1    2    0    0 -0.25704453552E+02 -0.29080423671E+02  0.12114644153E+02  0.40659003631E+02  0.00000000000E+00 0.  1.
         11    1    3    3    0    0  0.75432873538E+01  0.53569975998E+01 -0.99979831641E+01  0.13621977646E+02  0.51100000000E-03 0. -1.
        -11    1    3    3    0    0  0.12354750553E+02  0.39059879962E+01 -0.82547847279E+01  0.15363530669E+02  0.51100000000E-03 0.  1.
         12    1    3    3    0    0  0.58064156451E+01  0.19817438075E+02  0.61381237387E+01  0.21543488054E+02  0.00000000000E+00 0. -1.
</event>
<event>
 7    1  0.5855569E-013  0.5052885E+02  0.7816164E-02  0.1300439E+00
        -11   -1    0    0    0    0  0.00000000000E+00  0.00000000000E+00  0.45593999997E+02  0.45594000000E+02  0.51100000000E-03 0.  1.
         11   -1    0    0    0    0 -0.00000000000E+00 -0.00000000000E+00 -0.45593999997E+02  0.45594000000E+02  0.51100000000E-03 0. -1.
    9900012    2    1    2    0    0  0.20920113351E+02  0.27794542525E+02 -0.21047058578E+02  0.50528850826E+02  0.29999972571E+02 0.  0.
        -12    1    1    2    0    0 -0.20920113351E+02 -0.27794542525E+02  0.21047058578E+02  0.40659149174E+02  0.00000000000E+00 0.  1.
         11    1    3    3    0    0  0.42340364125E+01  0.27192007076E+01 -0.80323240856E+01  0.94783620583E+01  0.51100000000E-03 0. -1.
        -11    1    3    3    0    0  0.59568260045E+01  0.10398836150E+02 -0.18516340612E+02  0.22056165561E+02  0.51100000000E-03 0.  1.
        -12    1    3    3    0    0  0.10729250934E+02  0.14676505667E+02  0.55016061196E+01  0.18994323207E+02  0.00000000000E+00 0.  1.
</event>
<event>
 7    1  0.5855569E-013  0.5052885E+02  0.7816164E-02  0.1300439E+00
        -11   -1    0    0    0    0  0.00000000000E+00  0.00000000000E+00  0.45593999997E+02  0.45594000000E+02  0.51100000000E-03 0.  1.
         11   -1    0    0    0    0 -0.00000000000E+00 -0.00000000000E+00 -0.45593999997E+02  0.45594000000E+02  0.51100000000E-03 0. -1.
    9900012    2    1    2    0    0  0.34714047922E+02 -0.52253943126E+00 -0.21161957216E+02  0.50528848462E+02  0.29999965384E+02 0.  0.
        -12    1    1    2    0    0 -0.34714047922E+02  0.52253943126E+00  0.21161957216E+02  0.40659151538E+02  0.00000000000E+00 0.  1.
         11    1    3    3    0    0  0.97110516510E+01  0.62657369452E+01 -0.89310521115E+01  0.14605741190E+02  0.51100000000E-03 0. -1.
        -11    1    3    3    0    0  0.17912524243E+02  0.35604504970E+01 -0.14317287381E+02  0.23206034790E+02  0.51100000000E-03 0.  1.
        -12    1    3    3    0    0  0.70904720282E+01 -0.10348726873E+02  0.20863822758E+01  0.12717072481E+02  0.00000000000E+00 0.  1.
</event>
<event>
 7    1  0.5855569E-013  0.5052886E+02  0.7816164E-02  0.1300439E+00
        -11   -1    0    0    0    0  0.00000000000E+00  0.00000000000E+00  0.45593999997E+02  0.45594000000E+02  0.51100000000E-03 0. -1.
         11   -1    0    0    0    0 -0.00000000000E+00 -0.00000000000E+00 -0.45593999997E+02  0.45594000000E+02  0.51100000000E-03 0.  1.
    9900012    2    1    2    0    0 -0.22677409909E+02  0.15939121344E+02  0.29746346398E+02  0.50528860395E+02  0.30000001656E+02 0.  0.
        -12    1    1    2    0    0  0.22677409909E+02 -0.15939121344E+02 -0.29746346398E+02  0.40659139605E+02  0.00000000000E+00 0.  1.
         11    1    3    3    0    0 -0.69929627553E+01  0.10107168908E+01  0.36084599262E+01  0.79337292637E+01  0.51100000000E-03 0. -1.
        -11    1    3    3    0    0 -0.72497604975E+01 -0.57924337198E+01  0.16475192797E+01  0.94247353123E+01  0.51100000000E-03 0.  1.
         12    1    3    3    0    0 -0.84346866562E+01  0.20720838173E+02  0.24490367192E+02  0.33170395819E+02  0.00000000000E+00 0. -1.
</event>
<event>
 7    1  0.5855569E-013  0.5052886E+02  0.7816164E-02  0.1300439E+00
        -11   -1    0    0    0    0  0.00000000000E+00  0.00000000000E+00  0.45593999997E+02  0.45594000000E+02  0.51100000000E-03 0.  1.
         11   -1    0    0    0    0 -0.00000000000E+00 -0.00000000000E+00 -0.45593999997E+02  0.45594000000E+02  0.51100000000E-03 0. -1.
    9900012    2    1    2    0    0 -0.36115166525E+02  0.15959767676E+02 -0.97028844248E+01  0.50528863221E+02  0.30000010248E+02 0.  0.
        -12    1    1    2    0    0  0.36115166525E+02 -0.15959767676E+02  0.97028844248E+01  0.40659136779E+02  0.00000000000E+00 0.  1.
         11    1    3    3    0    0 -0.30462604261E+02  0.73648662845E+01 -0.51275364585E+01  0.31756938520E+02  0.51100000000E-03 0. -1.
        -11    1    3    3    0    0 -0.10716875183E+02  0.66230387545E+01 -0.43656328656E+01  0.13333221914E+02  0.51100000000E-03 0.  1.
        -12    1    3    3    0    0  0.50643129183E+01  0.19718626366E+01 -0.20971510075E+00  0.54387027880E+01  0.00000000000E+00 0.  1.
</event>
<event>
 7    1  0.5855569E-013  0.5052887E+02  0.7816164E-02  0.1300439E+00
        -11   -1    0    0    0    0  0.00000000000E+00  0.00000000000E+00  0.45593999997E+02  0.45594000000E+02  0.51100000000E-03 0.  1.
         11   -1    0    0    0    0 -0.00000000000E+00 -0.00000000000E+00 -0.45593999997E+02  0.45594000000E+02  0.51100000000E-03 0. -1.
    9900012    2    1    2    0    0  0.22712387836E+02  0.23252243192E+02 -0.24426327971E+02  0.50528869748E+02  0.30000030087E+02 0.  0.
        -12    1    1    2    0    0 -0.22712387836E+02 -0.23252243192E+02  0.24426327971E+02  0.40659130252E+02  0.00000000000E+00 0.  1.
         11    1    3    3    0    0  0.22091261958E+01  0.74635156158E+01  0.17935013284E+01  0.79875497602E+01  0.51100000000E-03 0. -1.
        -11    1    3    3    0    0  0.76919576836E+01  0.11726126825E+02 -0.11185576846E+01  0.14068384231E+02  0.51100000000E-03 0.  1.
        -12    1    3    3    0    0  0.12811303956E+02  0.40626007509E+01 -0.25101271615E+02  0.28472935757E+02  0.00000000000E+00 0.  1.
</event>
<event>
 7    1  0.5855569E-013  0.5052886E+02  0.7816164E-02  0.1300439E+00
        -11   -1    0    0    0    0  0.00000000000E+00  0.00000000000E+00  0.45593999997E+02  0.45594000000E+02  0.51100000000E-03 0. -1.
         11   -1    0    0    0    0 -0.00000000000E+00 -0.00000000000E+00 -0.45593999997E+02  0.45594000000E+02  0.51100000000E-03 0.  1.
    9900012    2    1    2    0    0  0.74966746133E+01  0.23740324897E+01  0.39891470082E+02  0.50528861472E+02  0.30000004929E+02 0.  0.
        -12    1    1    2    0    0 -0.74966746133E+01 -0.23740324897E+01 -0.39891470082E+02  0.40659138528E+02  0.00000000000E+00 0.  1.
         11    1    3    3    0    0 -0.27229597704E+00 -0.52895308020E+01  0.78854095194E+01  0.94991033658E+01  0.51100000000E-03 0. -1.
        -11    1    3    3    0    0  0.11682747827E+02 -0.47563477217E+01  0.16837851632E+02  0.21038599960E+02  0.51100000000E-03 0.  1.
         12    1    3    3    0    0 -0.39137772365E+01  0.12419911013E+02  0.15168208931E+02  0.19991158146E+02  0.00000000000E+00 0. -1.
</event>
<event>
 7    1  0.5855569E-013  0.5052889E+02  0.7816164E-02  0.1300439E+00
        -11   -1    0    0    0    0  0.00000000000E+00  0.00000000000E+00  0.45593999997E+02  0.45594000000E+02  0.51100000000E-03 0.  1.
         11   -1    0    0    0    0 -0.00000000000E+00 -0.00000000000E+00 -0.45593999997E+02  0.45594000000E+02  0.51100000000E-03 0. -1.
    9900012    2    1    2    0    0 -0.22212475092E+02  0.33777507352E+02  0.43415733970E+01  0.50528888940E+02  0.30000088422E+02 0.  0.
        -12    1    1    2    0    0  0.22212475092E+02 -0.33777507352E+02 -0.43415733970E+01  0.40659111060E+02  0.00000000000E+00 0.  1.
         11    1    3    3    0    0  0.47025403143E+01  0.11328783587E+02 -0.33777470313E+01  0.12722594006E+02  0.51100000000E-03 0. -1.
        -11    1    3    3    0    0 -0.14585750518E+02  0.83443131820E+01 -0.16052299110E+01  0.16880415990E+02  0.51100000000E-03 0.  1.
        -12    1    3    3    0    0 -0.12329264888E+02  0.14104410583E+02  0.93245503394E+01  0.20925878945E+02  0.00000000000E+00 0.  1.
</event>
<event>
 7    1  0.5855569E-013  0.5052886E+02  0.7816164E-02  0.1300439E+00
        -11   -1    0    0    0    0  0.00000000000E+00  0.00000000000E+00  0.45593999997E+02  0.45594000000E+02  0.51100000000E-03 0.  1.
         11   -1    0    0    0    0 -0.00000000000E+00 -0.00000000000E+00 -0.45593999997E+02  0.45594000000E+02  0.51100000000E-03 0. -1.
    9900012    2    1    2    0    0  0.38840297769E+02  0.90189427261E+01 -0.79533474083E+01  0.50528858424E+02  0.29999995667E+02 0.  0.
        -12    1    1    2    0    0 -0.38840297769E+02 -0.90189427261E+01  0.79533474083E+01  0.40659141576E+02  0.00000000000E+00 0.  1.
         11    1    3    3    0    0  0.13775882970E+02 -0.78747443133E+01 -0.75748255040E+01  0.17583075137E+02  0.51100000000E-03 0. -1.
        -11    1    3    3    0    0 -0.15142779787E+01  0.18143854106E+01  0.28392790841E+00  0.23802620724E+01  0.51100000000E-03 0.  1.
         12    1    3    3    0    0  0.26578692777E+02  0.15079301629E+02 -0.66244981262E+00  0.30565521215E+02  0.00000000000E+00 0. -1.
</event>
<event>
 7    1  0.5855569E-013  0.5052885E+02  0.7816164E-02  0.1300439E+00
        -11   -1    0    0    0    0  0.00000000000E+00  0.00000000000E+00  0.45593999997E+02  0.45594000000E+02  0.51100000000E-03 0.  1.
         11   -1    0    0    0    0 -0.00000000000E+00 -0.00000000000E+00 -0.45593999997E+02  0.45594000000E+02  0.51100000000E-03 0. -1.
    9900012    2    1    2    0    0 -0.32410269946E+02 -0.11890616073E+02 -0.21479153436E+02  0.50528851203E+02  0.29999973718E+02 0.  0.
        -12    1    1    2    0    0  0.32410269946E+02  0.11890616073E+02  0.21479153436E+02  0.40659148797E+02  0.00000000000E+00 0.  1.
         11    1    3    3    0    0 -0.97335194107E+01 -0.15935477405E+02 -0.74871897137E+01  0.20118122435E+02  0.51100000000E-03 0. -1.
        -11    1    3    3    0    0  0.78480923619E+00 -0.12661060453E+01  0.12403292538E+01  0.19383928843E+01  0.51100000000E-03 0.  1.
        -12    1    3    3    0    0 -0.23461559771E+02  0.53109673776E+01 -0.15232292976E+02  0.28472335884E+02  0.00000000000E+00 0.  1.
</event>
<event>
 7    1  0.5855569E-013  0.5052886E+02  0.7816164E-02  0.1300439E+00
        -11   -1    0    0    0    0  0.00000000000E+00  0.00000000000E+00  0.45593999997E+02  0.45594000000E+02  0.51100000000E-03 0.  1.
         11   -1    0    0    0    0 -0.00000000000E+00 -0.00000000000E+00 -0.45593999997E+02  0.45594000000E+02  0.51100000000E-03 0. -1.
    9900012    2    1    2    0    0  0.66860996006E+01 -0.39915872901E+02  0.38967287904E+01  0.50528864094E+02  0.30000012901E+02 0.  0.
        -12    1    1    2    0    0 -0.66860996006E+01  0.39915872901E+02 -0.38967287904E+01  0.40659135906E+02  0.00000000000E+00 0.  1.
         11    1    3    3    0    0  0.88186020070E+01 -0.48940676862E+01 -0.19176409034E+01  0.10266303462E+02  0.51100000000E-03 0. -1.
        -11    1    3    3    0    0 -0.82368002481E-02  0.19582185148E+01  0.23514325282E+01  0.30600527434E+01  0.51100000000E-03 0.  1.
         12    1    3    3    0    0 -0.21242656061E+01 -0.36980023730E+02  0.34629371655E+01  0.37202507889E+02  0.00000000000E+00 0. -1.
</event>
<event>
 7    1  0.5855569E-013  0.5052886E+02  0.7816164E-02  0.1300439E+00
        -11   -1    0    0    0    0  0.00000000000E+00  0.00000000000E+00  0.45593999997E+02  0.45594000000E+02  0.51100000000E-03 0.  1.
         11   -1    0    0    0    0 -0.00000000000E+00 -0.00000000000E+00 -0.45593999997E+02  0.45594000000E+02  0.51100000000E-03 0. -1.
    9900012    2    1    2    0    0  0.28256479282E+01 -0.38323954972E+02 -0.13283672970E+02  0.50528858611E+02  0.29999996234E+02 0.  0.
        -12    1    1    2    0    0 -0.28256479282E+01  0.38323954972E+02  0.13283672970E+02  0.40659141389E+02  0.00000000000E+00 0.  1.
         11    1    3    3    0    0  0.87157758285E+01 -0.21801139972E+02 -0.27730224529E+01  0.23641998776E+02  0.51100000000E-03 0. -1.
        -11    1    3    3    0    0 -0.13782692277E+01 -0.15755033937E+02 -0.43581702551E+00  0.15821209093E+02  0.51100000000E-03 0.  1.
        -12    1    3    3    0    0 -0.45118586726E+01 -0.76778106291E+00 -0.10074833492E+02  0.11065650741E+02  0.00000000000E+00 0.  1.
</event>
<event>
 7    1  0.5855569E-013  0.5052886E+02  0.7816164E-02  0.1300439E+00
        -11   -1    0    0    0    0  0.00000000000E+00  0.00000000000E+00  0.45593999997E+02  0.45594000000E+02  0.51100000000E-03 0.  1.
         11   -1    0    0    0    0 -0.00000000000E+00 -0.00000000000E+00 -0.45593999997E+02  0.45594000000E+02  0.51100000000E-03 0. -1.
    9900012    2    1    2    0    0 -0.23738001483E+02  0.23304423032E+01 -0.32927826240E+02  0.50528863061E+02  0.30000009761E+02 0.  0.
        -12    1    1    2    0    0  0.23738001483E+02 -0.23304423032E+01  0.32927826240E+02  0.40659136939E+02  0.00000000000E+00 0.  1.
         11    1    3    3    0    0 -0.90338914142E+01 -0.28137800529E+01 -0.20810948984E+02  0.22860974391E+02  0.51100000000E-03 0. -1.
        -11    1    3    3    0    0 -0.15820042001E+02 -0.34615637805E+01 -0.80282960975E+01  0.18075112481E+02  0.51100000000E-03 0.  1.
         12    1    3    3    0    0  0.11159319328E+01  0.86057861366E+01 -0.40885811588E+01  0.95927761883E+01  0.00000000000E+00 0. -1.
</event>
<event>
 7    1  0.5855569E-013  0.5052885E+02  0.7816164E-02  0.1300439E+00
        -11   -1    0    0    0    0  0.00000000000E+00  0.00000000000E+00  0.45593999997E+02  0.45594000000E+02  0.51100000000E-03 0.  1.
         11   -1    0    0    0    0 -0.00000000000E+00 -0.00000000000E+00 -0.45593999997E+02  0.45594000000E+02  0.51100000000E-03 0. -1.
    9900012    2    1    2    0    0 -0.25078413258E+02 -0.30969926231E+02 -0.80686481900E+01  0.50528853108E+02  0.29999979508E+02 0.  0.
        -12    1    1    2    0    0  0.25078413258E+02  0.30969926231E+02  0.80686481900E+01  0.40659146892E+02  0.00000000000E+00 0.  1.
         11    1    3    3    0    0 -0.19076119574E+02 -0.12276256634E+02 -0.21659424148E+01  0.22788069724E+02  0.51100000000E-03 0. -1.
        -11    1    3    3    0    0 -0.11394709979E+02 -0.13455774394E+02  0.82614667139E+00  0.17651623116E+02  0.51100000000E-03 0.  1.
        -12    1    3    3    0    0  0.53924162952E+01 -0.52378952030E+01 -0.67288524466E+01  0.10089160268E+02  0.00000000000E+00 0.  1.
</event>
<event>
 7    1  0.5855569E-013  0.5052883E+02  0.7816164E-02  0.1300439E+00
        -11   -1    0    0    0    0  0.00000000000E+00  0.00000000000E+00  0.45593999997E+02  0.45594000000E+02  0.51100000000E-03 0. -1.
         11   -1    0    0    0    0 -0.00000000000E+00 -0.00000000000E+00 -0.45593999997E+02  0.45594000000E+02  0.51100000000E-03 0.  1.
    9900012    2    1    2    0    0  0.34074906254E+02  0.13026267680E+01  0.22144343279E+02  0.50528831146E+02  0.29999912750E+02 0.  0.
        -12    1    1    2    0    0 -0.34074906254E+02 -0.13026267680E+01 -0.22144343279E+02  0.40659168854E+02  0.00000000000E+00 0.  1.
         11    1    3    3    0    0  0.15688700988E+02  0.29258669703E+01  0.19440566041E+02  0.25152169777E+02  0.51100000000E-03 0. -1.
        -11    1    3    3    0    0 -0.15126235940E+01  0.10816324291E+01  0.48367262188E+01  0.51818799316E+01  0.51100000000E-03 0.  1.
         12    1    3    3    0    0  0.19898828860E+02 -0.27048726314E+01 -0.21329489817E+01  0.20194781437E+02  0.00000000000E+00 0. -1.
</event>
<event>
 7    1  0.5855569E-013  0.5052888E+02  0.7816164E-02  0.1300439E+00
        -11   -1    0    0    0    0  0.00000000000E+00  0.00000000000E+00  0.45593999997E+02  0.45594000000E+02  0.51100000000E-03 0.  1.
         11   -1    0    0    0    0 -0.00000000000E+00 -0.00000000000E+00 -0.45593999997E+02  0.45594000000E+02  0.51100000000E-03 0. -1.
    9900012    2    1    2    0    0 -0.37562569952E+02 -0.63822246545E+01 -0.14194526952E+02  0.50528879888E+02  0.30000060906E+02 0.  0.
        -12    1    1    2    0    0  0.37562569952E+02  0.63822246545E+01  0.14194526952E+02  0.40659120112E+02  0.00000000000E+00 0.  1.
         11    1    3    3    0    0 -0.11291991047E+02 -0.72017942651E+01 -0.43202993037E+01  0.14072664594E+02  0.51100000000E-03 0. -1.
        -11    1    3    3    0    0 -0.43589172292E+00 -0.74089649183E+01  0.46969915675E+00  0.74366242552E+01  0.51100000000E-03 0.  1.
        -12    1    3    3    0    0 -0.25834687181E+02  0.82285345289E+01 -0.10343926805E+02  0.29019591038E+02  0.00000000000E+00 0.  1.
</event>
<event>
 7    1  0.5855569E-013  0.5052886E+02  0.7816164E-02  0.1300439E+00
        -11   -1    0    0    0    0  0.00000000000E+00  0.00000000000E+00  0.45593999997E+02  0.45594000000E+02  0.51100000000E-03 0. -1.
         11   -1    0    0    0    0 -0.00000000000E+00 -0.00000000000E+00 -0.45593999997E+02  0.45594000000E+02  0.51100000000E-03 0.  1.
    9900012    2    1    2    0    0 -0.83404706704E+00  0.38735212684E+02  0.12330987480E+02  0.50528860949E+02  0.30000003339E+02 0.  0.
        -12    1    1    2    0    0  0.83404706704E+00 -0.38735212684E+02 -0.12330987480E+02  0.40659139051E+02  0.00000000000E+00 0.  1.
         11    1    3    3    0    0 -0.29950342540E+00  0.10351007140E+02 -0.70695240893E+01  0.12538389937E+02  0.51100000000E-03 0. -1.
        -11    1    3    3    0    0 -0.49145770851E+01  0.13139292786E+02  0.15543593680E+01  0.14114181384E+02  0.51100000000E-03 0.  1.
         12    1    3    3    0    0  0.43800334434E+01  0.15244912758E+02  0.17846152201E+02  0.23876289627E+02  0.00000000000E+00 0. -1.
</event>
<event>
 7    1  0.5855569E-013  0.5052886E+02  0.7816164E-02  0.1300439E+00
        -11   -1    0    0    0    0  0.00000000000E+00  0.00000000000E+00  0.45593999997E+02  0.45594000000E+02  0.51100000000E-03 0.  1.
         11   -1    0    0    0    0 -0.00000000000E+00 -0.00000000000E+00 -0.45593999997E+02  0.45594000000E+02  0.51100000000E-03 0. -1.
    9900012    2    1    2    0    0 -0.33060878600E+02  0.22713036193E+02 -0.66529509489E+01  0.50528862488E+02  0.30000008018E+02 0.  0.
        -12    1    1    2    0    0  0.33060878600E+02 -0.22713036193E+02  0.66529509489E+01  0.40659137512E+02  0.00000000000E+00 0.  1.
         11    1    3    3    0    0 -0.27189138430E+00  0.54535014640E+01 -0.13169506829E+01  0.56168463131E+01  0.51100000000E-03 0. -1.
        -11    1    3    3    0    0 -0.54063341667E+01  0.90533744479E+00 -0.11212308695E+02  0.12480542918E+02  0.51100000000E-03 0.  1.
         12    1    3    3    0    0 -0.27382653049E+02  0.16354197284E+02  0.58763084287E+01  0.32431473256E+02  0.00000000000E+00 0. -1.
</event>
<event>
 7    1  0.5855569E-013  0.5052874E+02  0.7816164E-02  0.1300439E+00
        -11   -1    0    0    0    0  0.00000000000E+00  0.00000000000E+00  0.45593999997E+02  0.45594000000E+02  0.51100000000E-03 0. -1.
         11   -1    0    0    0    0 -0.00000000000E+00 -0.00000000000E+00 -0.45593999997E+02  0.45594000000E+02  0.51100000000E-03 0.  1.
    9900012    2    1    2    0    0 -0.28699287624E+02 -0.24467551594E+02  0.15194239579E+02  0.50528743889E+02  0.29999647524E+02 0.  0.
        -12    1    1    2    0    0  0.28699287624E+02  0.24467551594E+02 -0.15194239579E+02  0.40659256111E+02  0.00000000000E+00 0.  1.
         11    1    3    3    0    0 -0.78636917992E+01 -0.19390050553E+02  0.11415738109E+02  0.23835494247E+02  0.51100000000E-03 0.  1.
        -11    1    3    3    0    0 -0.13771075928E+02  0.66581195786E+00  0.87405465037E+01  0.16324306761E+02  0.51100000000E-03 0. -1.
        -12    1    3    3    0    0 -0.70645198961E+01 -0.57433129986E+01 -0.49620450333E+01  0.10368942881E+02  0.00000000000E+00 0.  1.
</event>
<event>
 7    1  0.5855569E-013  0.5052886E+02  0.7816164E-02  0.1300439E+00
        -11   -1    0    0    0    0  0.00000000000E+00  0.00000000000E+00  0.45593999997E+02  0.45594000000E+02  0.51100000000E-03 0. -1.
         11   -1    0    0    0    0 -0.00000000000E+00 -0.00000000000E+00 -0.45593999997E+02  0.45594000000E+02  0.51100000000E-03 0.  1.
    9900012    2    1    2    0    0  0.20346955491E+02  0.12667626604E+02  0.32843542325E+02  0.50528860388E+02  0.30000001635E+02 0.  0.
        -12    1    1    2    0    0 -0.20346955491E+02 -0.12667626604E+02 -0.32843542325E+02  0.40659139612E+02  0.00000000000E+00 0.  1.
         11    1    3    3    0    0  0.98296199515E+01 -0.22139001437E+01  0.21315255808E+01  0.10298843809E+02  0.51100000000E-03 0.  1.
        -11    1    3    3    0    0  0.95395624396E+01  0.33145124130E+01  0.35726694391E+01  0.10712292530E+02  0.51100000000E-03 0. -1.
         12    1    3    3    0    0  0.97777309955E+00  0.11567014335E+02  0.27139347305E+02  0.29517724049E+02  0.00000000000E+00 0. -1.
</event>
<event>
 7    1  0.5855569E-013  0.5052886E+02  0.7816164E-02  0.1300439E+00
        -11   -1    0    0    0    0  0.00000000000E+00  0.00000000000E+00  0.45593999997E+02  0.45594000000E+02  0.51100000000E-03 0.  1.
         11   -1    0    0    0    0 -0.00000000000E+00 -0.00000000000E+00 -0.45593999997E+02  0.45594000000E+02  0.51100000000E-03 0. -1.
    9900012    2    1    2    0    0  0.21389121235E+02 -0.50629675968E+01 -0.34205812368E+02  0.50528858988E+02  0.29999997380E+02 0.  0.
        -12    1    1    2    0    0 -0.21389121235E+02  0.50629675968E+01  0.34205812368E+02  0.40659141012E+02  0.00000000000E+00 0.  1.
         11    1    3    3    0    0  0.22288317342E+02 -0.73092489117E+01 -0.15011868056E+02  0.27848705399E+02  0.51100000000E-03 0. -1.
        -11    1    3    3    0    0  0.50057317376E+01  0.78196475098E+00 -0.44991764727E+01  0.67757957684E+01  0.51100000000E-03 0.  1.
         12    1    3    3    0    0 -0.59049278447E+01  0.14643165640E+01 -0.14694767839E+02  0.15904357821E+02  0.00000000000E+00 0. -1.
</event>
<event>
 7    1  0.5855569E-013  0.5052886E+02  0.7816164E-02  0.1300439E+00
        -11   -1    0    0    0    0  0.00000000000E+00  0.00000000000E+00  0.45593999997E+02  0.45594000000E+02  0.51100000000E-03 0.  1.
         11   -1    0    0    0    0 -0.00000000000E+00 -0.00000000000E+00 -0.45593999997E+02  0.45594000000E+02  0.51100000000E-03 0. -1.
    9900012    2    1    2    0    0  0.13995723092E+02 -0.38166508459E+02  0.77659371699E+00  0.50528859200E+02  0.29999998024E+02 0.  0.
        -12    1    1    2    0    0 -0.13995723092E+02  0.38166508459E+02 -0.77659371699E+00  0.40659140800E+02  0.00000000000E+00 0.  1.
         11    1    3    3    0    0  0.10701245745E+02 -0.14000870133E+02  0.11587779027E+02  0.21090700510E+02  0.51100000000E-03 0. -1.
        -11    1    3    3    0    0 -0.40383327995E+01 -0.60974573696E+01 -0.37861745785E+00  0.73232827075E+01  0.51100000000E-03 0.  1.
         12    1    3    3    0    0  0.73328101469E+01 -0.18068180956E+02 -0.10432567852E+02  0.22114875982E+02  0.00000000000E+00 0. -1.
</event>
<event>
 7    1  0.5855569E-013  0.5052886E+02  0.7816164E-02  0.1300439E+00
        -11   -1    0    0    0    0  0.00000000000E+00  0.00000000000E+00  0.45593999997E+02  0.45594000000E+02  0.51100000000E-03 0.  1.
         11   -1    0    0    0    0 -0.00000000000E+00 -0.00000000000E+00 -0.45593999997E+02  0.45594000000E+02  0.51100000000E-03 0. -1.
    9900012    2    1    2    0    0  0.15413897274E+02  0.11349343340E+02 -0.35871578277E+02  0.50528856483E+02  0.29999989767E+02 0.  0.
        -12    1    1    2    0    0 -0.15413897274E+02 -0.11349343340E+02  0.35871578277E+02  0.40659143517E+02  0.00000000000E+00 0.  1.
         11    1    3    3    0    0  0.23378773330E+00 -0.17157790669E+00  0.13583853250E+00  0.32023124510E+00  0.51100000000E-03 0.  1.
        -11    1    3    3    0    0  0.14926414142E+02  0.16299354128E+02 -0.10888350874E+02  0.24637836129E+02  0.51100000000E-03 0. -1.
         12    1    3    3    0    0  0.25369539842E+00 -0.47784328814E+01 -0.25119065936E+02  0.25570789109E+02  0.00000000000E+00 0. -1.
</event>
<event>
 7    1  0.5855569E-013  0.5052887E+02  0.7816164E-02  0.1300439E+00
        -11   -1    0    0    0    0  0.00000000000E+00  0.00000000000E+00  0.45593999997E+02  0.45594000000E+02  0.51100000000E-03 0.  1.
         11   -1    0    0    0    0 -0.00000000000E+00 -0.00000000000E+00 -0.45593999997E+02  0.45594000000E+02  0.51100000000E-03 0. -1.
    9900012    2    1    2    0    0 -0.13326720219E+02 -0.36068011270E+01 -0.38243352273E+02  0.50528874588E+02  0.30000044799E+02 0.  0.
        -12    1    1    2    0    0  0.13326720219E+02  0.36068011270E+01  0.38243352273E+02  0.40659125412E+02  0.00000000000E+00 0.  1.
         11    1    3    3    0    0 -0.11532942806E+02  0.13672774827E+01 -0.27804242731E+02  0.30132277239E+02  0.51100000000E-03 0.  1.
        -11    1    3    3    0    0 -0.42109753973E+01  0.20153170915E+01 -0.11966559366E+02  0.12844935193E+02  0.51100000000E-03 0. -1.
        -12    1    3    3    0    0  0.24171979842E+01 -0.69893957013E+01  0.15274498247E+01  0.75516621568E+01  0.00000000000E+00 0.  1.
</event>
<event>
 7    1  0.5855569E-013  0.5052886E+02  0.7816164E-02  0.1300439E+00
        -11   -1    0    0    0    0  0.00000000000E+00  0.00000000000E+00  0.45593999997E+02  0.45594000000E+02  0.51100000000E-03 0.  1.
         11   -1    0    0    0    0 -0.00000000000E+00 -0.00000000000E+00 -0.45593999997E+02  0.45594000000E+02  0.51100000000E-03 0. -1.
    9900012    2    1    2    0    0  0.19374045801E+01 -0.31332955109E+02 -0.25839077601E+02  0.50528861499E+02  0.30000005014E+02 0.  0.
        -12    1    1    2    0    0 -0.19374045801E+01  0.31332955109E+02  0.25839077601E+02  0.40659138501E+02  0.00000000000E+00 0.  1.
         11    1    3    3    0    0 -0.51537959405E+01 -0.10024574191E+02 -0.12043284218E+02  0.16495284033E+02  0.51100000000E-03 0. -1.
        -11    1    3    3    0    0 -0.34652344753E+01  0.13322059533E+01 -0.73504674313E+01  0.82348038465E+01  0.51100000000E-03 0.  1.
         12    1    3    3    0    0  0.10556434996E+02 -0.22640586871E+02 -0.64453259515E+01  0.25798773620E+02  0.00000000000E+00 0. -1.
</event>
<event>
 7    1  0.5855569E-013  0.5052886E+02  0.7816164E-02  0.1300439E+00
        -11   -1    0    0    0    0  0.00000000000E+00  0.00000000000E+00  0.45593999997E+02  0.45594000000E+02  0.51100000000E-03 0.  1.
         11   -1    0    0    0    0 -0.00000000000E+00 -0.00000000000E+00 -0.45593999997E+02  0.45594000000E+02  0.51100000000E-03 0. -1.
    9900012    2    1    2    0    0  0.88510217521E+01  0.14592978463E+02 -0.36903522993E+02  0.50528860612E+02  0.30000002318E+02 0.  0.
        -12    1    1    2    0    0 -0.88510217521E+01 -0.14592978463E+02  0.36903522993E+02  0.40659139388E+02  0.00000000000E+00 0.  1.
         11    1    3    3    0    0  0.48169098253E+01 -0.77282971164E+01 -0.79050890343E+01  0.12059006157E+02  0.51100000000E-03 0. -1.
        -11    1    3    3    0    0  0.16342167119E+01  0.15620697424E+01 -0.99168012766E+01  0.10171217919E+02  0.51100000000E-03 0.  1.
         12    1    3    3    0    0  0.23998952148E+01  0.20759205837E+02 -0.19081632682E+02  0.28298636537E+02  0.00000000000E+00 0. -1.
</event>
<event>
 7    1  0.5855569E-013  0.5052887E+02  0.7816164E-02  0.1300439E+00
        -11   -1    0    0    0    0  0.00000000000E+00  0.00000000000E+00  0.45593999997E+02  0.45594000000E+02  0.51100000000E-03 0. -1.
         11   -1    0    0    0    0 -0.00000000000E+00 -0.00000000000E+00 -0.45593999997E+02  0.45594000000E+02  0.51100000000E-03 0.  1.
    9900012    2    1    2    0    0  0.33324547305E+02 -0.17821094355E+01 -0.23226353620E+02  0.50528869788E+02  0.30000030207E+02 0.  0.
        -12    1    1    2    0    0 -0.33324547305E+02  0.17821094355E+01  0.23226353620E+02  0.40659130212E+02  0.00000000000E+00 0.  1.
         11    1    3    3    0    0  0.18261650887E+02  0.63460087668E+00 -0.11237801609E+01  0.18307197861E+02  0.51100000000E-03 0. -1.
        -11    1    3    3    0    0  0.74545402224E+01  0.77462005059E+01 -0.10094342086E+02  0.14746848294E+02  0.51100000000E-03 0.  1.
         12    1    3    3    0    0  0.76083561955E+01 -0.10162910818E+02 -0.12008231373E+02  0.17474823633E+02  0.00000000000E+00 0. -1.
</event>
<event>
 7    1  0.5855569E-013  0.5052886E+02  0.7816164E-02  0.1300439E+00
        -11   -1    0    0    0    0  0.00000000000E+00  0.00000000000E+00  0.45593999997E+02  0.45594000000E+02  0.51100000000E-03 0.  1.
         11   -1    0    0    0    0 -0.00000000000E+00 -0.00000000000E+00 -0.45593999997E+02  0.45594000000E+02  0.51100000000E-03 0. -1.
    9900012    2    1    2    0    0  0.11805026406E+01 -0.36986389215E+02 -0.16845750406E+02  0.50528857358E+02  0.29999992426E+02 0.  0.
        -12    1    1    2    0    0 -0.11805026406E+01  0.36986389215E+02  0.16845750406E+02  0.40659142642E+02  0.00000000000E+00 0.  1.
         11    1    3    3    0    0 -0.45825094735E+01 -0.74326252958E+01 -0.28689317662E+00  0.87364535035E+01  0.51100000000E-03 0. -1.
        -11    1    3    3    0    0  0.55676513401E+01  0.12313993425E+01  0.17611938946E+01  0.59679887719E+01  0.51100000000E-03 0.  1.
        -12    1    3    3    0    0  0.19536077399E+00 -0.30785163261E+02 -0.18320051124E+02  0.35824415083E+02  0.00000000000E+00 0.  1.
</event>
<event>
 7    1  0.5855569E-013  0.5052883E+02  0.7816164E-02  0.1300439E+00
        -11   -1    0    0    0    0  0.00000000000E+00  0.00000000000E+00  0.45593999997E+02  0.45594000000E+02  0.51100000000E-03 0.  1.
         11   -1    0    0    0    0 -0.00000000000E+00 -0.00000000000E+00 -0.45593999997E+02  0.45594000000E+02  0.51100000000E-03 0. -1.
    9900012    2    1    2    0    0  0.37047577195E+02  0.16400036721E+02  0.34181687774E+01  0.50528830576E+02  0.29999911020E+02 0.  0.
        -12    1    1    2    0    0 -0.37047577195E+02 -0.16400036721E+02 -0.34181687774E+01  0.40659169424E+02  0.00000000000E+00 0.  1.
         11    1    3    3    0    0  0.21650868511E+02  0.32564575390E+01  0.38915855150E+01  0.22237559693E+02  0.51100000000E-03 0. -1.
        -11    1    3    3    0    0  0.17763218982E+02  0.12784059722E+02  0.48838558819E+01  0.22423563056E+02  0.51100000000E-03 0.  1.
        -12    1    3    3    0    0 -0.23665102989E+01  0.35951946004E+00 -0.53572726195E+01  0.58677078282E+01  0.00000000000E+00 0.  1.
</event>
<event>
 7    1  0.5855569E-013  0.5052886E+02  0.7816164E-02  0.1300439E+00
        -11   -1    0    0    0    0  0.00000000000E+00  0.00000000000E+00  0.45593999997E+02  0.45594000000E+02  0.51100000000E-03 0.  1.
         11   -1    0    0    0    0 -0.00000000000E+00 -0.00000000000E+00 -0.45593999997E+02  0.45594000000E+02  0.51100000000E-03 0. -1.
    9900012    2    1    2    0    0 -0.24680396767E+02 -0.31447518608E+02  0.74227633960E+01  0.50528858007E+02  0.29999994399E+02 0.  0.
        -12    1    1    2    0    0  0.24680396767E+02  0.31447518608E+02 -0.74227633960E+01  0.40659141993E+02  0.00000000000E+00 0.  1.
         11    1    3    3    0    0 -0.84516149490E+01 -0.17061140018E+02  0.12567859983E+01  0.19081189829E+02  0.51100000000E-03 0. -1.
        -11    1    3    3    0    0 -0.19533366694E+02 -0.15916109979E+02  0.11156401439E+01  0.25221412024E+02  0.51100000000E-03 0.  1.
         12    1    3    3    0    0  0.33045848757E+01  0.15297313905E+01  0.50503372538E+01  0.62262561548E+01  0.00000000000E+00 0. -1.
</event>
<event>
 7    1  0.5855569E-013  0.5052885E+02  0.7816164E-02  0.1300439E+00
        -11   -1    0    0    0    0  0.00000000000E+00  0.00000000000E+00  0.45593999997E+02  0.45594000000E+02  0.51100000000E-03 0.  1.
         11   -1    0    0    0    0 -0.00000000000E+00 -0.00000000000E+00 -0.45593999997E+02  0.45594000000E+02  0.51100000000E-03 0. -1.
    9900012    2    1    2    0    0  0.52758345617E+01  0.16889872856E+02 -0.36606885046E+02  0.50528852589E+02  0.29999977929E+02 0.  0.
        -12    1    1    2    0    0 -0.52758345617E+01 -0.16889872856E+02  0.36606885046E+02  0.40659147411E+02  0.00000000000E+00 0.  1.
         11    1    3    3    0    0  0.15431344405E+01  0.55678049032E+01 -0.17064607598E+02  0.18016174624E+02  0.51100000000E-03 0. -1.
        -11    1    3    3    0    0 -0.47887361209E+01  0.64281266455E+01 -0.21092594837E+02  0.22564360461E+02  0.51100000000E-03 0.  1.
        -12    1    3    3    0    0  0.85214362421E+01  0.48939413077E+01  0.15503173890E+01  0.99483175039E+01  0.00000000000E+00 0.  1.
</event>
<event>
 7    1  0.5855569E-013  0.5052886E+02  0.7816164E-02  0.1300439E+00
        -11   -1    0    0    0    0  0.00000000000E+00  0.00000000000E+00  0.45593999997E+02  0.45594000000E+02  0.51100000000E-03 0.  1.
         11   -1    0    0    0    0 -0.00000000000E+00 -0.00000000000E+00 -0.45593999997E+02  0.45594000000E+02  0.51100000000E-03 0. -1.
    9900012    2    1    2    0    0  0.16661343900E+02 -0.72446580496E+01 -0.36374173632E+02  0.50528856401E+02  0.29999989517E+02 0.  0.
        -12    1    1    2    0    0 -0.16661343900E+02  0.72446580496E+01  0.36374173632E+02  0.40659143599E+02  0.00000000000E+00 0.  1.
         11    1    3    3    0    0 -0.21028291312E+01  0.65430466682E+00 -0.12693775596E+01  0.25419135709E+01  0.51100000000E-03 0. -1.
        -11    1    3    3    0    0 -0.59629138238E+01 -0.50427288521E+01 -0.77496364637E+01  0.11001923519E+02  0.51100000000E-03 0.  1.
        -12    1    3    3    0    0  0.24727086855E+02 -0.28562338643E+01 -0.27355159608E+02  0.36985019311E+02  0.00000000000E+00 0.  1.
</event>
<event>
 7    1  0.5855569E-013  0.5052886E+02  0.7816164E-02  0.1300439E+00
        -11   -1    0    0    0    0  0.00000000000E+00  0.00000000000E+00  0.45593999997E+02  0.45594000000E+02  0.51100000000E-03 0. -1.
         11   -1    0    0    0    0 -0.00000000000E+00 -0.00000000000E+00 -0.45593999997E+02  0.45594000000E+02  0.51100000000E-03 0.  1.
    9900012    2    1    2    0    0 -0.11300053237E+02 -0.37659491760E+02  0.10355553881E+02  0.50528855654E+02  0.29999987245E+02 0.  0.
        -12    1    1    2    0    0  0.11300053237E+02  0.37659491760E+02 -0.10355553881E+02  0.40659144346E+02  0.00000000000E+00 0.  1.
         11    1    3    3    0    0 -0.12566568737E+01 -0.41896445834E+01 -0.43619359754E+01  0.61772804654E+01  0.51100000000E-03 0. -1.
        -11    1    3    3    0    0  0.22811750489E+01 -0.63011295158E+01 -0.51984515584E+01  0.84812671014E+01  0.51100000000E-03 0.  1.
         12    1    3    3    0    0 -0.12324571412E+02 -0.27168717661E+02  0.19915941415E+02  0.35870308087E+02  0.00000000000E+00 0. -1.
</event>
<event>
 7    1  0.5855569E-013  0.5052886E+02  0.7816164E-02  0.1300439E+00
        -11   -1    0    0    0    0  0.00000000000E+00  0.00000000000E+00  0.45593999997E+02  0.45594000000E+02  0.51100000000E-03 0. -1.
         11   -1    0    0    0    0 -0.00000000000E+00 -0.00000000000E+00 -0.45593999997E+02  0.45594000000E+02  0.51100000000E-03 0.  1.
    9900012    2    1    2    0    0  0.10826211274E+02 -0.12935662574E+02  0.36994960080E+02  0.50528864641E+02  0.30000014564E+02 0.  0.
        -12    1    1    2    0    0 -0.10826211274E+02  0.12935662574E+02 -0.36994960080E+02  0.40659135359E+02  0.00000000000E+00 0.  1.
         11    1    3    3    0    0 -0.66137568761E+00  0.43676033764E+01  0.90670931765E+01  0.10085908783E+02  0.51100000000E-03 0. -1.
        -11    1    3    3    0    0  0.78770483787E+01  0.30881134508E+01  0.67556722922E+01  0.10826977613E+02  0.51100000000E-03 0.  1.
         12    1    3    3    0    0  0.36105385833E+01 -0.20391379402E+02  0.21172194611E+02  0.29615978245E+02  0.00000000000E+00 0. -1.
</event>
<event>
 7    1  0.5855569E-013  0.5052887E+02  0.7816164E-02  0.1300439E+00
        -11   -1    0    0    0    0  0.00000000000E+00  0.00000000000E+00  0.45593999997E+02  0.45594000000E+02  0.51100000000E-03 0. -1.
         11   -1    0    0    0    0 -0.00000000000E+00 -0.00000000000E+00 -0.45593999997E+02  0.45594000000E+02  0.51100000000E-03 0.  1.
    9900012    2    1    2    0    0 -0.20522528469E+01 -0.99669075024E+01  0.39365138114E+02  0.50528867131E+02  0.30000022132E+02 0.  0.
        -12    1    1    2    0    0  0.20522528469E+01  0.99669075024E+01 -0.39365138114E+02  0.40659132869E+02  0.00000000000E+00 0.  1.
         11    1    3    3    0    0  0.68809630866E+01 -0.34325248148E+01  0.70259566467E+01  0.10416042755E+02  0.51100000000E-03 0. -1.
        -11    1    3    3    0    0  0.34109532901E+01 -0.31638916067E+01  0.24859448079E+02  0.25291045283E+02  0.51100000000E-03 0.  1.
        -12    1    3    3    0    0 -0.12344169224E+02 -0.33704910809E+01  0.74797333884E+01  0.14821779094E+02  0.00000000000E+00 0.  1.
</event>
<event>
 7    1  0.5855569E-013  0.5052886E+02  0.7816164E-02  0.1300439E+00
        -11   -1    0    0    0    0  0.00000000000E+00  0.00000000000E+00  0.45593999997E+02  0.45594000000E+02  0.51100000000E-03 0. -1.
         11   -1    0    0    0    0 -0.00000000000E+00 -0.00000000000E+00 -0.45593999997E+02  0.45594000000E+02  0.51100000000E-03 0.  1.
    9900012    2    1    2    0    0 -0.15278176032E+02  0.37446945665E+02 -0.41796370174E+01  0.50528858739E+02  0.29999996623E+02 0.  0.
        -12    1    1    2    0    0  0.15278176032E+02 -0.37446945665E+02  0.41796370174E+01  0.40659141261E+02  0.00000000000E+00 0.  1.
         11    1    3    3    0    0 -0.19605949076E+01  0.14019023374E+02  0.25553452662E+01  0.14384253141E+02  0.51100000000E-03 0. -1.
        -11    1    3    3    0    0  0.33654400084E+01  0.17455587648E+02 -0.38930038637E+01  0.18198329757E+02  0.51100000000E-03 0.  1.
        -12    1    3    3    0    0 -0.16683021133E+02  0.59723346425E+01 -0.28419784199E+01  0.17946275841E+02  0.00000000000E+00 0.  1.
</event>
<event>
 7    1  0.5855569E-013  0.5052886E+02  0.7816164E-02  0.1300439E+00
        -11   -1    0    0    0    0  0.00000000000E+00  0.00000000000E+00  0.45593999997E+02  0.45594000000E+02  0.51100000000E-03 0. -1.
         11   -1    0    0    0    0 -0.00000000000E+00 -0.00000000000E+00 -0.45593999997E+02  0.45594000000E+02  0.51100000000E-03 0.  1.
    9900012    2    1    2    0    0  0.51348085903E+01 -0.40251255465E+02  0.25760501317E+01  0.50528857608E+02  0.29999993185E+02 0.  0.
        -12    1    1    2    0    0 -0.51348085903E+01  0.40251255465E+02 -0.25760501317E+01  0.40659142392E+02  0.00000000000E+00 0.  1.
         11    1    3    3    0    0 -0.54583333720E+01 -0.25691574670E+02 -0.58564728249E+01  0.26910010897E+02  0.51100000000E-03 0. -1.
        -11    1    3    3    0    0  0.29179180893E+01 -0.12107789196E+02  0.73584179242E+00  0.12476147987E+02  0.51100000000E-03 0.  1.
         12    1    3    3    0    0  0.76752238729E+01 -0.24518915982E+01  0.76966811641E+01  0.11142698724E+02  0.00000000000E+00 0. -1.
</event>
<event>
 7    1  0.5855569E-013  0.5052884E+02  0.7816164E-02  0.1300439E+00
        -11   -1    0    0    0    0  0.00000000000E+00  0.00000000000E+00  0.45593999997E+02  0.45594000000E+02  0.51100000000E-03 0.  1.
         11   -1    0    0    0    0 -0.00000000000E+00 -0.00000000000E+00 -0.45593999997E+02  0.45594000000E+02  0.51100000000E-03 0. -1.
    9900012    2    1    2    0    0 -0.10438098093E+02  0.10852122607E+01 -0.39281497033E+02  0.50528836376E+02  0.29999928649E+02 0.  0.
        -12    1    1    2    0    0  0.10438098093E+02 -0.10852122607E+01  0.39281497033E+02  0.40659163624E+02  0.00000000000E+00 0.  1.
         11    1    3    3    0    0  0.31357461248E+01  0.16916893002E+01 -0.28480301964E+02  0.28702305076E+02  0.51100000000E-03 0. -1.
        -11    1    3    3    0    0 -0.71349630339E+01 -0.64526057494E+01 -0.84829922072E+01  0.12825949302E+02  0.51100000000E-03 0.  1.
        -12    1    3    3    0    0 -0.64388811843E+01  0.58461287099E+01 -0.23182028615E+01  0.90005819981E+01  0.00000000000E+00 0.  1.
</event>
<event>
 7    1  0.5855569E-013  0.5052886E+02  0.7816164E-02  0.1300439E+00
        -11   -1    0    0    0    0  0.00000000000E+00  0.00000000000E+00  0.45593999997E+02  0.45594000000E+02  0.51100000000E-03 0. -1.
         11   -1    0    0    0    0 -0.00000000000E+00 -0.00000000000E+00 -0.45593999997E+02  0.45594000000E+02  0.51100000000E-03 0.  1.
    9900012    2    1    2    0    0  0.36933926832E+02 -0.75066603005E+01 -0.15254535830E+02  0.50528858796E+02  0.29999996796E+02 0.  0.
        -12    1    1    2    0    0 -0.36933926832E+02  0.75066603005E+01  0.15254535830E+02  0.40659141204E+02  0.00000000000E+00 0.  1.
         11    1    3    3    0    0  0.31476743025E+01 -0.47259344462E+01  0.51881905123E+01  0.76915298190E+01  0.51100000000E-03 0.  1.
        -11    1    3    3    0    0  0.16166552135E+02  0.62268554334E+01 -0.59816593176E+01  0.18327885448E+02  0.51100000000E-03 0. -1.
         12    1    3    3    0    0  0.17619700394E+02 -0.90075812877E+01 -0.14461067024E+02  0.24509443529E+02  0.00000000000E+00 0. -1.
</event>
<event>
 7    1  0.5855569E-013  0.5052885E+02  0.7816164E-02  0.1300439E+00
        -11   -1    0    0    0    0  0.00000000000E+00  0.00000000000E+00  0.45593999997E+02  0.45594000000E+02  0.51100000000E-03 0.  1.
         11   -1    0    0    0    0 -0.00000000000E+00 -0.00000000000E+00 -0.45593999997E+02  0.45594000000E+02  0.51100000000E-03 0. -1.
    9900012    2    1    2    0    0 -0.15608878127E+02  0.14167933222E+01 -0.37516953693E+02  0.50528853500E+02  0.29999980699E+02 0.  0.
        -12    1    1    2    0    0  0.15608878127E+02 -0.14167933222E+01  0.37516953693E+02  0.40659146500E+02  0.00000000000E+00 0.  1.
         11    1    3    3    0    0 -0.18476444458E+01 -0.45907160968E+01  0.32232485222E+01  0.59057425931E+01  0.51100000000E-03 0.  1.
        -11    1    3    3    0    0 -0.11408501241E+02 -0.30875781482E+00 -0.23937140926E+02  0.26518596266E+02  0.51100000000E-03 0. -1.
        -12    1    3    3    0    0 -0.23527324400E+01  0.63162672338E+01 -0.16803061289E+02  0.18104514641E+02  0.00000000000E+00 0.  1.
</event>
<event>
 7    1  0.5855569E-013  0.5052886E+02  0.7816164E-02  0.1300439E+00
        -11   -1    0    0    0    0  0.00000000000E+00  0.00000000000E+00  0.45593999997E+02  0.45594000000E+02  0.51100000000E-03 0.  1.
         11   -1    0    0    0    0 -0.00000000000E+00 -0.00000000000E+00 -0.45593999997E+02  0.45594000000E+02  0.51100000000E-03 0. -1.
    9900012    2    1    2    0    0 -0.29359293507E+02  0.27139730386E+02 -0.73913681696E+01  0.50528863216E+02  0.30000010230E+02 0.  0.
        -12    1    1    2    0    0  0.29359293507E+02 -0.27139730386E+02  0.73913681696E+01  0.40659136784E+02  0.00000000000E+00 0.  1.
         11    1    3    3    0    0 -0.11082959427E+02  0.15000297265E+02 -0.83206056461E-01  0.18650679109E+02  0.51100000000E-03 0. -1.
        -11    1    3    3    0    0 -0.10659917003E+02  0.11211534804E+02  0.59375642897E+01  0.16570667250E+02  0.51100000000E-03 0.  1.
         12    1    3    3    0    0 -0.76164170765E+01  0.92789831699E+00 -0.13245726403E+02  0.15307516856E+02  0.00000000000E+00 0. -1.
</event>
<event>
 7    1  0.5855569E-013  0.5052887E+02  0.7816164E-02  0.1300439E+00
        -11   -1    0    0    0    0  0.00000000000E+00  0.00000000000E+00  0.45593999997E+02  0.45594000000E+02  0.51100000000E-03 0.  1.
         11   -1    0    0    0    0 -0.00000000000E+00 -0.00000000000E+00 -0.45593999997E+02  0.45594000000E+02  0.51100000000E-03 0. -1.
    9900012    2    1    2    0    0  0.40533011306E+02 -0.16839675970E+01  0.27210855933E+01  0.50528867457E+02  0.30000023121E+02 0.  0.
        -12    1    1    2    0    0 -0.40533011306E+02  0.16839675970E+01 -0.27210855933E+01  0.40659132543E+02  0.00000000000E+00 0.  1.
         11    1    3    3    0    0 -0.13185095862E+01 -0.60939151330E+01  0.45250432894E+01  0.77039136943E+01  0.51100000000E-03 0.  1.
        -11    1    3    3    0    0  0.31786930746E+01 -0.10617054161E+01 -0.17198908898E+01  0.37668731048E+01  0.51100000000E-03 0. -1.
        -12    1    3    3    0    0  0.38672827817E+02  0.54716529521E+01 -0.84066806352E-01  0.39058080657E+02  0.00000000000E+00 0.  1.
</event>
<event>
 7    1  0.5855569E-013  0.5052886E+02  0.7816164E-02  0.1300439E+00
        -11   -1    0    0    0    0  0.00000000000E+00  0.00000000000E+00  0.45593999997E+02  0.45594000000E+02  0.51100000000E-03 0.  1.
         11   -1    0    0    0    0 -0.00000000000E+00 -0.00000000000E+00 -0.45593999997E+02  0.45594000000E+02  0.51100000000E-03 0. -1.
    9900012    2    1    2    0    0  0.28309781852E+02 -0.21605664543E+02 -0.19619296503E+02  0.50528864691E+02  0.30000014715E+02 0.  0.
        -12    1    1    2    0    0 -0.28309781852E+02  0.21605664543E+02  0.19619296503E+02  0.40659135309E+02  0.00000000000E+00 0.  1.
         11    1    3    3    0    0  0.10978675403E+02 -0.11502838999E+02 -0.12144605192E+02  0.20008449569E+02  0.51100000000E-03 0. -1.
        -11    1    3    3    0    0  0.61962500721E+01  0.26473943819E+01 -0.11308566889E+02  0.13163810136E+02  0.51100000000E-03 0.  1.
        -12    1    3    3    0    0  0.11134856376E+02 -0.12750219925E+02  0.38338755778E+01  0.17356604985E+02  0.00000000000E+00 0.  1.
</event>
<event>
 7    1  0.5855569E-013  0.5052889E+02  0.7816164E-02  0.1300439E+00
        -11   -1    0    0    0    0  0.00000000000E+00  0.00000000000E+00  0.45593999997E+02  0.45594000000E+02  0.51100000000E-03 0. -1.
         11   -1    0    0    0    0 -0.00000000000E+00 -0.00000000000E+00 -0.45593999997E+02  0.45594000000E+02  0.51100000000E-03 0.  1.
    9900012    2    1    2    0    0  0.21560794322E+02 -0.20356682227E+01  0.34411506751E+02  0.50528885477E+02  0.30000077896E+02 0.  0.
        -12    1    1    2    0    0 -0.21560794322E+02  0.20356682227E+01 -0.34411506751E+02  0.40659114523E+02  0.00000000000E+00 0.  1.
         11    1    3    3    0    0  0.45796168973E+01 -0.17400381002E+01  0.86343346070E+01  0.99273540222E+01  0.51100000000E-03 0. -1.
        -11    1    3    3    0    0  0.20721349165E+02  0.37675510898E+01  0.27661161759E+02  0.34766487061E+02  0.51100000000E-03 0.  1.
        -12    1    3    3    0    0 -0.37401717398E+01 -0.40631812123E+01 -0.18839896155E+01  0.58350443939E+01  0.00000000000E+00 0.  1.
</event>
<event>
 7    1  0.5855569E-013  0.5052885E+02  0.7816164E-02  0.1300439E+00
        -11   -1    0    0    0    0  0.00000000000E+00  0.00000000000E+00  0.45593999997E+02  0.45594000000E+02  0.51100000000E-03 0.  1.
         11   -1    0    0    0    0 -0.00000000000E+00 -0.00000000000E+00 -0.45593999997E+02  0.45594000000E+02  0.51100000000E-03 0. -1.
    9900012    2    1    2    0    0 -0.55131969816E+01 -0.40046147421E+02  0.43677046285E+01  0.50528854560E+02  0.29999983921E+02 0.  0.
        -12    1    1    2    0    0  0.55131969816E+01  0.40046147421E+02 -0.43677046285E+01  0.40659145440E+02  0.00000000000E+00 0.  1.
         11    1    3    3    0    0 -0.35279268172E+01  0.14597367270E+00 -0.39838465010E+01  0.53234020274E+01  0.51100000000E-03 0.  1.
        -11    1    3    3    0    0 -0.66097657066E+01 -0.12982475286E+02  0.98162214740E+01  0.17566783187E+02  0.51100000000E-03 0. -1.
         12    1    3    3    0    0  0.46244955423E+01 -0.27209645808E+02 -0.14646703445E+01  0.27638669346E+02  0.00000000000E+00 0. -1.
</event>
<event>
 7    1  0.5855569E-013  0.5052882E+02  0.7816164E-02  0.1300439E+00
        -11   -1    0    0    0    0  0.00000000000E+00  0.00000000000E+00  0.45593999997E+02  0.45594000000E+02  0.51100000000E-03 0.  1.
         11   -1    0    0    0    0 -0.00000000000E+00 -0.00000000000E+00 -0.45593999997E+02  0.45594000000E+02  0.51100000000E-03 0. -1.
    9900012    2    1    2    0    0  0.54847831861E+01  0.40274869117E+02 -0.10103081458E+01  0.50528823280E+02  0.29999888841E+02 0.  0.
        -12    1    1    2    0    0 -0.54847831861E+01 -0.40274869117E+02  0.10103081458E+01  0.40659176720E+02  0.00000000000E+00 0.  1.
         11    1    3    3    0    0  0.48073616888E+00  0.49199832140E+01  0.65055890375E+01  0.81706811880E+01  0.51100000000E-03 0. -1.
        -11    1    3    3    0    0  0.52217625774E+01 -0.16537777955E+00  0.19846221359E+01  0.55886384306E+01  0.51100000000E-03 0.  1.
         12    1    3    3    0    0 -0.21771556014E+00  0.35520263683E+02 -0.95005193192E+01  0.36769503661E+02  0.00000000000E+00 0. -1.
</event>
<event>
 7    1  0.5855569E-013  0.5052887E+02  0.7816164E-02  0.1300439E+00
        -11   -1    0    0    0    0  0.00000000000E+00  0.00000000000E+00  0.45593999997E+02  0.45594000000E+02  0.51100000000E-03 0. -1.
         11   -1    0    0    0    0 -0.00000000000E+00 -0.00000000000E+00 -0.45593999997E+02  0.45594000000E+02  0.51100000000E-03 0.  1.
    9900012    2    1    2    0    0 -0.81626651646E+01  0.51184610718E+01  0.39501102430E+02  0.50528870158E+02  0.30000031331E+02 0.  0.
        -12    1    1    2    0    0  0.81626651646E+01 -0.51184610718E+01 -0.39501102430E+02  0.40659129842E+02  0.00000000000E+00 0.  1.
         11    1    3    3    0    0 -0.95842973153E+01  0.53949564508E+01  0.78041440087E+01  0.13485880546E+02  0.51100000000E-03 0. -1.
        -11    1    3    3    0    0 -0.29901616377E+01 -0.76589172936E+01  0.66942595939E+01  0.10602508783E+02  0.51100000000E-03 0.  1.
        -12    1    3    3    0    0  0.44117937885E+01  0.73824219146E+01  0.25002698828E+02  0.26440480828E+02  0.00000000000E+00 0.  1.
</event>
<event>
 7    1  0.5855569E-013  0.5052887E+02  0.7816164E-02  0.1300439E+00
        -11   -1    0    0    0    0  0.00000000000E+00  0.00000000000E+00  0.45593999997E+02  0.45594000000E+02  0.51100000000E-03 0. -1.
         11   -1    0    0    0    0 -0.00000000000E+00 -0.00000000000E+00 -0.45593999997E+02  0.45594000000E+02  0.51100000000E-03 0.  1.
    9900012    2    1    2    0    0 -0.39021036005E+02 -0.94717906435E+01  0.63882005270E+01  0.50528866034E+02  0.30000018798E+02 0.  0.
        -12    1    1    2    0    0  0.39021036005E+02  0.94717906435E+01 -0.63882005270E+01  0.40659133966E+02  0.00000000000E+00 0.  1.
         11    1    3    3    0    0 -0.15470613198E+02  0.54820318662E+01  0.62345764642E+00  0.16425018898E+02  0.51100000000E-03 0. -1.
        -11    1    3    3    0    0 -0.11909231978E+02  0.27217999349E+01  0.40484921885E+01  0.12869665515E+02  0.51100000000E-03 0.  1.
        -12    1    3    3    0    0 -0.11641190828E+02 -0.17675622445E+02  0.17162506921E+01  0.21234181622E+02  0.00000000000E+00 0.  1.
</event>
<event>
 7    1  0.5855569E-013  0.5052887E+02  0.7816164E-02  0.1300439E+00
        -11   -1    0    0    0    0  0.00000000000E+00  0.00000000000E+00  0.45593999997E+02  0.45594000000E+02  0.51100000000E-03 0.  1.
         11   -1    0    0    0    0 -0.00000000000E+00 -0.00000000000E+00 -0.45593999997E+02  0.45594000000E+02  0.51100000000E-03 0. -1.
    9900012    2    1    2    0    0  0.21042532737E+02  0.32207911259E+02 -0.13153981613E+02  0.50528868628E+02  0.30000026681E+02 0.  0.
        -12    1    1    2    0    0 -0.21042532737E+02 -0.32207911259E+02  0.13153981613E+02  0.40659131372E+02  0.00000000000E+00 0.  1.
         11    1    3    3    0    0  0.34658125493E+01  0.22835255273E+00  0.39568905712E+01  0.52650721523E+01  0.51100000000E-03 0. -1.
        -11    1    3    3    0    0  0.90190222369E+01  0.24499928733E+00 -0.31993882131E+01  0.95728194362E+01  0.51100000000E-03 0.  1.
         12    1    3    3    0    0  0.85576979507E+01  0.31734559419E+02 -0.13911483972E+02  0.35690977039E+02  0.00000000000E+00 0. -1.
</event>
<event>
 7    1  0.5855569E-013  0.5052886E+02  0.7816164E-02  0.1300439E+00
        -11   -1    0    0    0    0  0.00000000000E+00  0.00000000000E+00  0.45593999997E+02  0.45594000000E+02  0.51100000000E-03 0. -1.
         11   -1    0    0    0    0 -0.00000000000E+00 -0.00000000000E+00 -0.45593999997E+02  0.45594000000E+02  0.51100000000E-03 0.  1.
    9900012    2    1    2    0    0 -0.91714236290E+01  0.30706909141E+02  0.25022714205E+02  0.50528861954E+02  0.30000006397E+02 0.  0.
        -12    1    1    2    0    0  0.91714236290E+01 -0.30706909141E+02 -0.25022714205E+02  0.40659138046E+02  0.00000000000E+00 0.  1.
         11    1    3    3    0    0  0.33926590484E+01  0.54085893695E+01 -0.41676785446E+01  0.76244684469E+01  0.51100000000E-03 0. -1.
        -11    1    3    3    0    0  0.16821104153E+00  0.75826377930E+01  0.16359631989E+01  0.77589346372E+01  0.51100000000E-03 0.  1.
         12    1    3    3    0    0 -0.12732293719E+02  0.17715681979E+02  0.27554429551E+02  0.35145458870E+02  0.00000000000E+00 0. -1.
</event>
<event>
 7    1  0.5855569E-013  0.5052886E+02  0.7816164E-02  0.1300439E+00
        -11   -1    0    0    0    0  0.00000000000E+00  0.00000000000E+00  0.45593999997E+02  0.45594000000E+02  0.51100000000E-03 0.  1.
         11   -1    0    0    0    0 -0.00000000000E+00 -0.00000000000E+00 -0.45593999997E+02  0.45594000000E+02  0.51100000000E-03 0. -1.
    9900012    2    1    2    0    0 -0.28847150662E+02  0.22075381366E+02 -0.18267046596E+02  0.50528861358E+02  0.30000004584E+02 0.  0.
        -12    1    1    2    0    0  0.28847150662E+02 -0.22075381366E+02  0.18267046596E+02  0.40659138642E+02  0.00000000000E+00 0.  1.
         11    1    3    3    0    0 -0.65919795322E+01  0.24854710875E+01 -0.29524287865E+01  0.76386253135E+01  0.51100000000E-03 0. -1.
        -11    1    3    3    0    0 -0.91795001798E+01 -0.43743778678E+01  0.22682838256E+01  0.10418422004E+02  0.51100000000E-03 0.  1.
         12    1    3    3    0    0 -0.13075670950E+02  0.23964288147E+02 -0.17582901635E+02  0.32471814040E+02  0.00000000000E+00 0. -1.
</event>
<event>
 7    1  0.5855569E-013  0.5052885E+02  0.7816164E-02  0.1300439E+00
        -11   -1    0    0    0    0  0.00000000000E+00  0.00000000000E+00  0.45593999997E+02  0.45594000000E+02  0.51100000000E-03 0.  1.
         11   -1    0    0    0    0 -0.00000000000E+00 -0.00000000000E+00 -0.45593999997E+02  0.45594000000E+02  0.51100000000E-03 0. -1.
    9900012    2    1    2    0    0  0.30151457655E+02 -0.22721772324E+02 -0.15092278510E+02  0.50528853343E+02  0.29999980221E+02 0.  0.
        -12    1    1    2    0    0 -0.30151457655E+02  0.22721772324E+02  0.15092278510E+02  0.40659146657E+02  0.00000000000E+00 0.  1.
         11    1    3    3    0    0 -0.22508193269E+01 -0.10223636997E+02 -0.58609453405E+01  0.11997483971E+02  0.51100000000E-03 0. -1.
        -11    1    3    3    0    0  0.13745373415E+02 -0.90698260723E+01 -0.10481856017E+02  0.19520920601E+02  0.51100000000E-03 0.  1.
        -12    1    3    3    0    0  0.18656903567E+02 -0.34283092546E+01  0.12505228476E+01  0.19010448771E+02  0.00000000000E+00 0.  1.
</event>
<event>
 7    1  0.5855569E-013  0.5052886E+02  0.7816164E-02  0.1300439E+00
        -11   -1    0    0    0    0  0.00000000000E+00  0.00000000000E+00  0.45593999997E+02  0.45594000000E+02  0.51100000000E-03 0. -1.
         11   -1    0    0    0    0 -0.00000000000E+00 -0.00000000000E+00 -0.45593999997E+02  0.45594000000E+02  0.51100000000E-03 0.  1.
    9900012    2    1    2    0    0  0.16589248645E+02 -0.26056345775E+02  0.26439163699E+02  0.50528859542E+02  0.29999999062E+02 0.  0.
        -12    1    1    2    0    0 -0.16589248645E+02  0.26056345775E+02 -0.26439163699E+02  0.40659140458E+02  0.00000000000E+00 0.  1.
         11    1    3    3    0    0  0.56189000194E+01  0.35753480876E+01  0.46741355558E+01  0.81365038457E+01  0.51100000000E-03 0. -1.
        -11    1    3    3    0    0 -0.27862086906E+01 -0.16294659357E+02  0.60217339566E+01  0.17593753509E+02  0.51100000000E-03 0.  1.
         12    1    3    3    0    0  0.13756557316E+02 -0.13337034505E+02  0.15743294187E+02  0.24798602187E+02  0.00000000000E+00 0. -1.
</event>
<event>
 7    1  0.5855569E-013  0.5052886E+02  0.7816164E-02  0.1300439E+00
        -11   -1    0    0    0    0  0.00000000000E+00  0.00000000000E+00  0.45593999997E+02  0.45594000000E+02  0.51100000000E-03 0. -1.
         11   -1    0    0    0    0 -0.00000000000E+00 -0.00000000000E+00 -0.45593999997E+02  0.45594000000E+02  0.51100000000E-03 0.  1.
    9900012    2    1    2    0    0  0.20766969141E+02  0.30649134074E+02  0.16808600829E+02  0.50528862176E+02  0.30000007070E+02 0.  0.
        -12    1    1    2    0    0 -0.20766969141E+02 -0.30649134074E+02 -0.16808600829E+02  0.40659137824E+02  0.00000000000E+00 0.  1.
         11    1    3    3    0    0  0.16647010076E+02  0.52767668733E+01  0.89941496245E+01  0.19643368877E+02  0.51100000000E-03 0. -1.
        -11    1    3    3    0    0 -0.12213125554E+00 -0.20765504343E+01  0.87674754939E+00  0.22573578087E+01  0.51100000000E-03 0.  1.
         12    1    3    3    0    0  0.42420903199E+01  0.27448917635E+02  0.69377036549E+01  0.28628135490E+02  0.00000000000E+00 0. -1.
</event>
<event>
 7    1  0.5855569E-013  0.5052885E+02  0.7816164E-02  0.1300439E+00
        -11   -1    0    0    0    0  0.00000000000E+00  0.00000000000E+00  0.45593999997E+02  0.45594000000E+02  0.51100000000E-03 0.  1.
         11   -1    0    0    0    0 -0.00000000000E+00 -0.00000000000E+00 -0.45593999997E+02  0.45594000000E+02  0.51100000000E-03 0. -1.
    9900012    2    1    2    0    0  0.81852147864E+01  0.41441618571E+00 -0.39824574441E+02  0.50528853288E+02  0.29999980056E+02 0.  0.
        -12    1    1    2    0    0 -0.81852147864E+01 -0.41441618571E+00  0.39824574441E+02  0.40659146712E+02  0.00000000000E+00 0.  1.
         11    1    3    3    0    0  0.56598532100E+01  0.50390329308E+01 -0.16187126170E+01  0.77489368325E+01  0.51100000000E-03 0. -1.
        -11    1    3    3    0    0 -0.15915949981E+00 -0.18728097629E+00 -0.37551843014E+02  0.37552647309E+02  0.51100000000E-03 0.  1.
         12    1    3    3    0    0  0.26845210761E+01 -0.44373357688E+01 -0.65401881081E+00  0.52272691473E+01  0.00000000000E+00 0. -1.
</event>
<event>
 7    1  0.5855569E-013  0.5052884E+02  0.7816164E-02  0.1300439E+00
        -11   -1    0    0    0    0  0.00000000000E+00  0.00000000000E+00  0.45593999997E+02  0.45594000000E+02  0.51100000000E-03 0.  1.
         11   -1    0    0    0    0 -0.00000000000E+00 -0.00000000000E+00 -0.45593999997E+02  0.45594000000E+02  0.51100000000E-03 0. -1.
    9900012    2    1    2    0    0 -0.23610129075E+02 -0.35460506881E-03 -0.33101804213E+02  0.50528835753E+02  0.29999926756E+02 0.  0.
        -12    1    1    2    0    0  0.23610129075E+02  0.35460506881E-03  0.33101804213E+02  0.40659164247E+02  0.00000000000E+00 0.  1.
         11    1    3    3    0    0 -0.70644431470E+01  0.13383457034E+01 -0.19234172083E+02  0.20534139918E+02  0.51100000000E-03 0. -1.
        -11    1    3    3    0    0 -0.80245915739E+01 -0.10571725774E+02 -0.10671347162E+02  0.17030358373E+02  0.51100000000E-03 0.  1.
        -12    1    3    3    0    0 -0.85210943544E+01  0.92330254659E+01 -0.31962849672E+01  0.12964337463E+02  0.00000000000E+00 0.  1.
</event>
<event>
 7    1  0.5855569E-013  0.5052886E+02  0.7816164E-02  0.1300439E+00
        -11   -1    0    0    0    0  0.00000000000E+00  0.00000000000E+00  0.45593999997E+02  0.45594000000E+02  0.51100000000E-03 0.  1.
         11   -1    0    0    0    0 -0.00000000000E+00 -0.00000000000E+00 -0.45593999997E+02  0.45594000000E+02  0.51100000000E-03 0. -1.
    9900012    2    1    2    0    0  0.26107534190E+02 -0.99046722293E+00 -0.31154155928E+02  0.50528858366E+02  0.29999995490E+02 0.  0.
        -12    1    1    2    0    0 -0.26107534190E+02  0.99046722293E+00  0.31154155928E+02  0.40659141634E+02  0.00000000000E+00 0.  1.
         11    1    3    3    0    0  0.63820882898E+00 -0.23319698895E+01  0.25350947164E+01  0.35031556570E+01  0.51100000000E-03 0. -1.
        -11    1    3    3    0    0  0.35541831422E+00  0.31065094829E+01  0.17277891169E+01  0.35723911934E+01  0.51100000000E-03 0.  1.
         12    1    3    3    0    0  0.25113907047E+02 -0.17650068163E+01 -0.35417039762E+02  0.43453311516E+02  0.00000000000E+00 0. -1.
</event>
<event>
 7    1  0.5855569E-013  0.5052887E+02  0.7816164E-02  0.1300439E+00
        -11   -1    0    0    0    0  0.00000000000E+00  0.00000000000E+00  0.45593999997E+02  0.45594000000E+02  0.51100000000E-03 0.  1.
         11   -1    0    0    0    0 -0.00000000000E+00 -0.00000000000E+00 -0.45593999997E+02  0.45594000000E+02  0.51100000000E-03 0. -1.
    9900012    2    1    2    0    0  0.28630917618E+02  0.21004860407E+02 -0.19804830756E+02  0.50528869099E+02  0.30000028112E+02 0.  0.
        -12    1    1    2    0    0 -0.28630917618E+02 -0.21004860407E+02  0.19804830756E+02  0.40659130901E+02  0.00000000000E+00 0.  1.
         11    1    3    3    0    0 -0.38337823323E+01  0.18105674057E+01 -0.19479532327E+01  0.46658936293E+01  0.51100000000E-03 0. -1.
        -11    1    3    3    0    0 -0.59195418090E-01 -0.17096289864E+00 -0.62757959620E+01  0.62784032705E+01  0.51100000000E-03 0.  1.
         12    1    3    3    0    0  0.32523895368E+02  0.19365255900E+02 -0.11581081562E+02  0.39584572199E+02  0.00000000000E+00 0. -1.
</event>
<event>
 7    1  0.5855569E-013  0.5052886E+02  0.7816164E-02  0.1300439E+00
        -11   -1    0    0    0    0  0.00000000000E+00  0.00000000000E+00  0.45593999997E+02  0.45594000000E+02  0.51100000000E-03 0.  1.
         11   -1    0    0    0    0 -0.00000000000E+00 -0.00000000000E+00 -0.45593999997E+02  0.45594000000E+02  0.51100000000E-03 0. -1.
    9900012    2    1    2    0    0 -0.18367427739E+02 -0.13160583553E+02 -0.33802400192E+02  0.50528860560E+02  0.30000002159E+02 0.  0.
        -12    1    1    2    0    0  0.18367427739E+02  0.13160583553E+02  0.33802400192E+02  0.40659139440E+02  0.00000000000E+00 0.  1.
         11    1    3    3    0    0 -0.15925683585E+02 -0.18837357068E+01 -0.15782152799E+02  0.22500049001E+02  0.51100000000E-03 0.  1.
        -11    1    3    3    0    0 -0.85327380225E+01 -0.35568655947E+01 -0.23662418053E+01  0.95424321617E+01  0.51100000000E-03 0. -1.
         12    1    3    3    0    0  0.60909938677E+01 -0.77199822512E+01 -0.15654005588E+02  0.18486379397E+02  0.00000000000E+00 0. -1.
</event>
<event>
 7    1  0.5855569E-013  0.5052886E+02  0.7816164E-02  0.1300439E+00
        -11   -1    0    0    0    0  0.00000000000E+00  0.00000000000E+00  0.45593999997E+02  0.45594000000E+02  0.51100000000E-03 0.  1.
         11   -1    0    0    0    0 -0.00000000000E+00 -0.00000000000E+00 -0.45593999997E+02  0.45594000000E+02  0.51100000000E-03 0. -1.
    9900012    2    1    2    0    0 -0.72495769352E+01  0.20643428434E+02 -0.34270368796E+02  0.50528859814E+02  0.29999999891E+02 0.  0.
        -12    1    1    2    0    0  0.72495769352E+01 -0.20643428434E+02  0.34270368796E+02  0.40659140186E+02  0.00000000000E+00 0.  1.
         11    1    3    3    0    0 -0.21237143003E+01  0.12982724642E+02 -0.56067769760E+01  0.14300253490E+02  0.51100000000E-03 0. -1.
        -11    1    3    3    0    0 -0.11209037810E+02  0.21617460005E+01 -0.78398096142E+01  0.13848403859E+02  0.51100000000E-03 0.  1.
         12    1    3    3    0    0  0.60831751751E+01  0.54989577913E+01 -0.20823782206E+02  0.22380202464E+02  0.00000000000E+00 0. -1.
</event>
<event>
 7    1  0.5855569E-013  0.5052886E+02  0.7816164E-02  0.1300439E+00
        -11   -1    0    0    0    0  0.00000000000E+00  0.00000000000E+00  0.45593999997E+02  0.45594000000E+02  0.51100000000E-03 0.  1.
         11   -1    0    0    0    0 -0.00000000000E+00 -0.00000000000E+00 -0.45593999997E+02  0.45594000000E+02  0.51100000000E-03 0. -1.
    9900012    2    1    2    0    0  0.48110488919E+01 -0.80591474084E+01 -0.39560959794E+02  0.50528860951E+02  0.30000003348E+02 0.  0.
        -12    1    1    2    0    0 -0.48110488919E+01  0.80591474084E+01  0.39560959794E+02  0.40659139049E+02  0.00000000000E+00 0.  1.
         11    1    3    3    0    0  0.70170822545E+01 -0.11267860294E+02 -0.21911719312E+02  0.25618890735E+02  0.51100000000E-03 0. -1.
        -11    1    3    3    0    0  0.71030240534E+01 -0.10346893698E+01 -0.90093671228E+01  0.11519211302E+02  0.51100000000E-03 0.  1.
        -12    1    3    3    0    0 -0.93090574160E+01  0.42434022559E+01 -0.86398733583E+01  0.13390758915E+02  0.00000000000E+00 0.  1.
</event>
<event>
 7    1  0.5855569E-013  0.5052885E+02  0.7816164E-02  0.1300439E+00
        -11   -1    0    0    0    0  0.00000000000E+00  0.00000000000E+00  0.45593999997E+02  0.45594000000E+02  0.51100000000E-03 0. -1.
         11   -1    0    0    0    0 -0.00000000000E+00 -0.00000000000E+00 -0.45593999997E+02  0.45594000000E+02  0.51100000000E-03 0.  1.
    9900012    2    1    2    0    0  0.24423471551E+02  0.71485232331E+01  0.31710546879E+02  0.50528854284E+02  0.29999983083E+02 0.  0.
        -12    1    1    2    0    0 -0.24423471551E+02 -0.71485232331E+01 -0.31710546879E+02  0.40659145716E+02  0.00000000000E+00 0.  1.
         11    1    3    3    0    0  0.98456450669E+01  0.72194022847E+01  0.14081062146E+02  0.18636866892E+02  0.51100000000E-03 0. -1.
        -11    1    3    3    0    0 -0.53153880503E+01  0.30727659701E+01  0.62422279696E+01  0.87556068390E+01  0.51100000000E-03 0.  1.
         12    1    3    3    0    0  0.19893214534E+02 -0.31436450217E+01  0.11387256762E+02  0.23136380553E+02  0.00000000000E+00 0. -1.
</event>
<event>
 7    1  0.5855569E-013  0.5052885E+02  0.7816164E-02  0.1300439E+00
        -11   -1    0    0    0    0  0.00000000000E+00  0.00000000000E+00  0.45593999997E+02  0.45594000000E+02  0.51100000000E-03 0. -1.
         11   -1    0    0    0    0 -0.00000000000E+00 -0.00000000000E+00 -0.45593999997E+02  0.45594000000E+02  0.51100000000E-03 0.  1.
    9900012    2    1    2    0    0  0.48007082571E+01 -0.40229882387E+02  0.34170470937E+01  0.50528850384E+02  0.29999971226E+02 0.  0.
        -12    1    1    2    0    0 -0.48007082571E+01  0.40229882387E+02 -0.34170470937E+01  0.40659149616E+02  0.00000000000E+00 0.  1.
         11    1    3    3    0    0 -0.17444951713E+01 -0.11489672246E+02  0.53379055204E+00  0.11633604958E+02  0.51100000000E-03 0. -1.
        -11    1    3    3    0    0 -0.59786349474E+01 -0.14402995801E+02  0.10051799541E+02  0.18553410418E+02  0.51100000000E-03 0.  1.
        -12    1    3    3    0    0  0.12523838376E+02 -0.14337214341E+02 -0.71685429994E+01  0.20341835007E+02  0.00000000000E+00 0.  1.
</event>
<event>
 7    1  0.5855569E-013  0.5052886E+02  0.7816164E-02  0.1300439E+00
        -11   -1    0    0    0    0  0.00000000000E+00  0.00000000000E+00  0.45593999997E+02  0.45594000000E+02  0.51100000000E-03 0. -1.
         11   -1    0    0    0    0 -0.00000000000E+00 -0.00000000000E+00 -0.45593999997E+02  0.45594000000E+02  0.51100000000E-03 0.  1.
    9900012    2    1    2    0    0  0.17490395125E+01 -0.31045374913E+02 -0.26197159868E+02  0.50528860464E+02  0.30000001866E+02 0.  0.
        -12    1    1    2    0    0 -0.17490395125E+01  0.31045374913E+02  0.26197159868E+02  0.40659139536E+02  0.00000000000E+00 0.  1.
         11    1    3    3    0    0  0.67010798675E+01 -0.21140796433E+02 -0.18794636405E+02  0.29070192690E+02  0.51100000000E-03 0. -1.
        -11    1    3    3    0    0  0.47190740320E+01  0.89380591988E+00  0.69704562695E+00  0.48532897718E+01  0.51100000000E-03 0.  1.
         12    1    3    3    0    0 -0.96711143870E+01 -0.10798384400E+02 -0.80995690899E+01  0.16605378002E+02  0.00000000000E+00 0. -1.
</event>
<event>
 7    1  0.5855569E-013  0.5052886E+02  0.7816164E-02  0.1300439E+00
        -11   -1    0    0    0    0  0.00000000000E+00  0.00000000000E+00  0.45593999997E+02  0.45594000000E+02  0.51100000000E-03 0.  1.
         11   -1    0    0    0    0 -0.00000000000E+00 -0.00000000000E+00 -0.45593999997E+02  0.45594000000E+02  0.51100000000E-03 0. -1.
    9900012    2    1    2    0    0  0.22242703524E+02 -0.28253284556E+02 -0.18978410310E+02  0.50528855811E+02  0.29999987724E+02 0.  0.
        -12    1    1    2    0    0 -0.22242703524E+02  0.28253284556E+02  0.18978410310E+02  0.40659144189E+02  0.00000000000E+00 0.  1.
         11    1    3    3    0    0  0.85419281089E+01 -0.27139985167E+02 -0.15673268428E+02  0.32483760161E+02  0.51100000000E-03 0. -1.
        -11    1    3    3    0    0  0.73220129790E+01 -0.50204068284E+01 -0.52528112331E+01  0.10315443999E+02  0.51100000000E-03 0.  1.
         12    1    3    3    0    0  0.63787624358E+01  0.39071074392E+01  0.19476693513E+01  0.77296516517E+01  0.00000000000E+00 0. -1.
</event>
<event>
 7    1  0.5855569E-013  0.5052886E+02  0.7816164E-02  0.1300439E+00
        -11   -1    0    0    0    0  0.00000000000E+00  0.00000000000E+00  0.45593999997E+02  0.45594000000E+02  0.51100000000E-03 0.  1.
         11   -1    0    0    0    0 -0.00000000000E+00 -0.00000000000E+00 -0.45593999997E+02  0.45594000000E+02  0.51100000000E-03 0. -1.
    9900012    2    1    2    0    0 -0.36565618188E+01  0.40489523985E+02 -0.62744372453E+00  0.50528859792E+02  0.29999999822E+02 0.  0.
        -12    1    1    2    0    0  0.36565618188E+01 -0.40489523985E+02  0.62744372453E+00  0.40659140208E+02  0.00000000000E+00 0.  1.
         11    1    3    3    0    0  0.10603264177E+01  0.23700484097E+02  0.40217774127E+01  0.24062666776E+02  0.51100000000E-03 0. -1.
        -11    1    3    3    0    0  0.52110727997E+01  0.62882743164E+01  0.45371199436E+01  0.93425441528E+01  0.51100000000E-03 0.  1.
        -12    1    3    3    0    0 -0.99279610362E+01  0.10500765571E+02 -0.91863410808E+01  0.17123648863E+02  0.00000000000E+00 0.  1.
</event>
<event>
 7    1  0.5855569E-013  0.5052886E+02  0.7816164E-02  0.1300439E+00
        -11   -1    0    0    0    0  0.00000000000E+00  0.00000000000E+00  0.45593999997E+02  0.45594000000E+02  0.51100000000E-03 0.  1.
         11   -1    0    0    0    0 -0.00000000000E+00 -0.00000000000E+00 -0.45593999997E+02  0.45594000000E+02  0.51100000000E-03 0. -1.
    9900012    2    1    2    0    0  0.14240965034E+02  0.32592152450E+02 -0.19700558232E+02  0.50528862268E+02  0.30000007351E+02 0.  0.
        -12    1    1    2    0    0 -0.14240965034E+02 -0.32592152450E+02  0.19700558232E+02  0.40659137732E+02  0.00000000000E+00 0.  1.
         11    1    3    3    0    0 -0.29607803690E+01  0.16833198636E+02 -0.14738890916E+01  0.17155032673E+02  0.51100000000E-03 0. -1.
        -11    1    3    3    0    0  0.72672175148E+00  0.52514702401E+01  0.15985640237E+01  0.55372801433E+01  0.51100000000E-03 0.  1.
         12    1    3    3    0    0  0.16475023651E+02  0.10507483574E+02 -0.19825233164E+02  0.27836549452E+02  0.00000000000E+00 0. -1.
</event>
<event>
 7    1  0.5855569E-013  0.5052885E+02  0.7816164E-02  0.1300439E+00
        -11   -1    0    0    0    0  0.00000000000E+00  0.00000000000E+00  0.45593999997E+02  0.45594000000E+02  0.51100000000E-03 0.  1.
         11   -1    0    0    0    0 -0.00000000000E+00 -0.00000000000E+00 -0.45593999997E+02  0.45594000000E+02  0.51100000000E-03 0. -1.
    9900012    2    1    2    0    0  0.37240523423E+02 -0.15441161984E+02  0.52801729496E+01  0.50528852264E+02  0.29999976941E+02 0.  0.
        -12    1    1    2    0    0 -0.37240523423E+02  0.15441161984E+02 -0.52801729496E+01  0.40659147736E+02  0.00000000000E+00 0.  1.
         11    1    3    3    0    0  0.19100112975E+02 -0.13534938004E+02  0.45568380457E+01  0.23848975568E+02  0.51100000000E-03 0. -1.
        -11    1    3    3    0    0  0.11642024125E+02 -0.10457988978E+02  0.23223051919E+01  0.15820852090E+02  0.51100000000E-03 0.  1.
        -12    1    3    3    0    0  0.64983863236E+01  0.85517649984E+01 -0.15989702880E+01  0.10859024605E+02  0.00000000000E+00 0.  1.
</event>
<event>
 7    1  0.5855569E-013  0.5052887E+02  0.7816164E-02  0.1300439E+00
        -11   -1    0    0    0    0  0.00000000000E+00  0.00000000000E+00  0.45593999997E+02  0.45594000000E+02  0.51100000000E-03 0. -1.
         11   -1    0    0    0    0 -0.00000000000E+00 -0.00000000000E+00 -0.45593999997E+02  0.45594000000E+02  0.51100000000E-03 0.  1.
    9900012    2    1    2    0    0 -0.86084737105E+01 -0.19946162701E+02  0.34368732292E+02  0.50528868363E+02  0.30000025877E+02 0.  0.
        -12    1    1    2    0    0  0.86084737105E+01  0.19946162701E+02 -0.34368732292E+02  0.40659131637E+02  0.00000000000E+00 0.  1.
         11    1    3    3    0    0  0.54385328205E+01 -0.95205318121E+01  0.25661931365E+02  0.27906144249E+02  0.51100000000E-03 0. -1.
        -11    1    3    3    0    0  0.15442664193E+01 -0.34360283643E+01  0.20203169006E+01  0.42746614291E+01  0.51100000000E-03 0.  1.
        -12    1    3    3    0    0 -0.15591272950E+02 -0.69896025243E+01  0.66864840263E+01  0.18348062685E+02  0.00000000000E+00 0.  1.
</event>
<event>
 7    1  0.5855569E-013  0.5052886E+02  0.7816164E-02  0.1300439E+00
        -11   -1    0    0    0    0  0.00000000000E+00  0.00000000000E+00  0.45593999997E+02  0.45594000000E+02  0.51100000000E-03 0.  1.
         11   -1    0    0    0    0 -0.00000000000E+00 -0.00000000000E+00 -0.45593999997E+02  0.45594000000E+02  0.51100000000E-03 0. -1.
    9900012    2    1    2    0    0 -0.99376510772E+01 -0.23132636615E+02 -0.31926313615E+02  0.50528864658E+02  0.30000014614E+02 0.  0.
        -12    1    1    2    0    0  0.99376510772E+01  0.23132636615E+02  0.31926313615E+02  0.40659135342E+02  0.00000000000E+00 0.  1.
         11    1    3    3    0    0 -0.27813172885E+01  0.38997233006E+01 -0.76992037773E+01  0.90675965253E+01  0.51100000000E-03 0. -1.
        -11    1    3    3    0    0 -0.10357866060E+02 -0.20741801937E+02 -0.25306367969E+02  0.34320839106E+02  0.51100000000E-03 0.  1.
        -12    1    3    3    0    0  0.32015322718E+01 -0.62905579783E+01  0.10792581307E+01  0.71404290262E+01  0.00000000000E+00 0.  1.
</event>
<event>
 7    1  0.5855569E-013  0.5052886E+02  0.7816164E-02  0.1300439E+00
        -11   -1    0    0    0    0  0.00000000000E+00  0.00000000000E+00  0.45593999997E+02  0.45594000000E+02  0.51100000000E-03 0. -1.
         11   -1    0    0    0    0 -0.00000000000E+00 -0.00000000000E+00 -0.45593999997E+02  0.45594000000E+02  0.51100000000E-03 0.  1.
    9900012    2    1    2    0    0 -0.10002641133E+02  0.39296036155E+02 -0.29890101411E+01  0.50528862420E+02  0.30000007811E+02 0.  0.
        -12    1    1    2    0    0  0.10002641133E+02 -0.39296036155E+02  0.29890101411E+01  0.40659137580E+02  0.00000000000E+00 0.  1.
         11    1    3    3    0    0 -0.10580580185E+01 -0.25750112006E+01  0.72490689073E-01  0.27848563006E+01  0.51100000000E-03 0. -1.
        -11    1    3    3    0    0 -0.50277190715E+01 -0.22902782385E+00 -0.20936667071E+01  0.54510414920E+01  0.51100000000E-03 0.  1.
         12    1    3    3    0    0 -0.39168640430E+01  0.42100075180E+02 -0.96783412302E+00  0.42292964627E+02  0.00000000000E+00 0. -1.
</event>
<event>
 7    1  0.5855569E-013  0.5052885E+02  0.7816164E-02  0.1300439E+00
        -11   -1    0    0    0    0  0.00000000000E+00  0.00000000000E+00  0.45593999997E+02  0.45594000000E+02  0.51100000000E-03 0.  1.
         11   -1    0    0    0    0 -0.00000000000E+00 -0.00000000000E+00 -0.45593999997E+02  0.45594000000E+02  0.51100000000E-03 0. -1.
    9900012    2    1    2    0    0 -0.10214011587E+02  0.78419082572E+01 -0.38566113913E+02  0.50528847277E+02  0.29999961784E+02 0.  0.
        -12    1    1    2    0    0  0.10214011587E+02 -0.78419082572E+01  0.38566113913E+02  0.40659152723E+02  0.00000000000E+00 0.  1.
         11    1    3    3    0    0  0.68702520361E+01  0.68687863961E+01 -0.21410025147E+02  0.23511056264E+02  0.51100000000E-03 0. -1.
        -11    1    3    3    0    0 -0.25359447644E+01  0.29394928729E+01  0.65416358751E+00  0.39369486228E+01  0.51100000000E-03 0.  1.
        -12    1    3    3    0    0 -0.14548318859E+02 -0.19663710119E+01 -0.17810252353E+02  0.23080842390E+02  0.00000000000E+00 0.  1.
</event>
<event>
 7    1  0.5855569E-013  0.5052886E+02  0.7816164E-02  0.1300439E+00
        -11   -1    0    0    0    0  0.00000000000E+00  0.00000000000E+00  0.45593999997E+02  0.45594000000E+02  0.51100000000E-03 0.  1.
         11   -1    0    0    0    0 -0.00000000000E+00 -0.00000000000E+00 -0.45593999997E+02  0.45594000000E+02  0.51100000000E-03 0. -1.
    9900012    2    1    2    0    0 -0.27077460894E+02  0.27361612424E+02  0.13088877424E+02  0.50528862833E+02  0.30000009068E+02 0.  0.
        -12    1    1    2    0    0  0.27077460894E+02 -0.27361612424E+02 -0.13088877424E+02  0.40659137167E+02  0.00000000000E+00 0.  1.
         11    1    3    3    0    0 -0.53721376939E-01  0.33781970481E+01  0.93496241862E+01  0.99413567467E+01  0.51100000000E-03 0. -1.
        -11    1    3    3    0    0 -0.38427688994E+01  0.40820433452E+01 -0.62953991346E+01  0.84298280653E+01  0.51100000000E-03 0.  1.
         12    1    3    3    0    0 -0.23180970618E+02  0.19901372030E+02  0.10034652372E+02  0.32157678021E+02  0.00000000000E+00 0. -1.
</event>
<event>
 7    1  0.5855569E-013  0.5052886E+02  0.7816164E-02  0.1300439E+00
        -11   -1    0    0    0    0  0.00000000000E+00  0.00000000000E+00  0.45593999997E+02  0.45594000000E+02  0.51100000000E-03 0.  1.
         11   -1    0    0    0    0 -0.00000000000E+00 -0.00000000000E+00 -0.45593999997E+02  0.45594000000E+02  0.51100000000E-03 0. -1.
    9900012    2    1    2    0    0  0.38985076012E+01  0.38668582479E+02 -0.11946054471E+02  0.50528857733E+02  0.29999993565E+02 0.  0.
        -12    1    1    2    0    0 -0.38985076012E+01 -0.38668582479E+02  0.11946054471E+02  0.40659142267E+02  0.00000000000E+00 0.  1.
         11    1    3    3    0    0  0.45272782925E+01 -0.33050722424E+01 -0.26525750779E+01  0.62012826149E+01  0.51100000000E-03 0. -1.
        -11    1    3    3    0    0 -0.12195602371E+01  0.76334574714E-01  0.46040420068E+00  0.13058048967E+01  0.51100000000E-03 0.  1.
         12    1    3    3    0    0  0.59078954581E+00  0.41897320147E+02 -0.97538835937E+01  0.43021770221E+02  0.00000000000E+00 0. -1.
</event>
<event>
 7    1  0.5855569E-013  0.5052886E+02  0.7816164E-02  0.1300439E+00
        -11   -1    0    0    0    0  0.00000000000E+00  0.00000000000E+00  0.45593999997E+02  0.45594000000E+02  0.51100000000E-03 0.  1.
         11   -1    0    0    0    0 -0.00000000000E+00 -0.00000000000E+00 -0.45593999997E+02  0.45594000000E+02  0.51100000000E-03 0. -1.
    9900012    2    1    2    0    0  0.33842642240E+02 -0.16815404328E+02 -0.15002776413E+02  0.50528861339E+02  0.30000004527E+02 0.  0.
        -12    1    1    2    0    0 -0.33842642240E+02  0.16815404328E+02  0.15002776413E+02  0.40659138661E+02  0.00000000000E+00 0.  1.
         11    1    3    3    0    0  0.22558984745E+02 -0.15507854870E+02 -0.11743297249E+02  0.29787688497E+02  0.51100000000E-03 0. -1.
        -11    1    3    3    0    0  0.15846408242E+02 -0.54048831694E+00 -0.24350075280E+01  0.16041510020E+02  0.51100000000E-03 0.  1.
        -12    1    3    3    0    0 -0.45627507470E+01 -0.76706114084E+00 -0.82447163546E+00  0.46996628231E+01  0.00000000000E+00 0.  1.
</event>
<event>
 7    1  0.5895656E-013  0.5052884E+02  0.7816164E-02  0.1300439E+00
        -11   -1    0    0    0    0  0.00000000000E+00  0.00000000000E+00  0.45593999997E+02  0.45594000000E+02  0.51100000000E-03 0.  1.
         11   -1    0    0    0    0 -0.00000000000E+00 -0.00000000000E+00 -0.45593999997E+02  0.45594000000E+02  0.51100000000E-03 0. -1.
    9900012    2    1    2    0    0 -0.38286827790E+02 -0.13366381707E+02  0.29370135750E+01  0.50528838782E+02  0.29999935963E+02 0.  0.
        -12    1    1    2    0    0  0.38286827790E+02  0.13366381707E+02 -0.29370135750E+01  0.40659161218E+02  0.00000000000E+00 0.  1.
         11    1    3    3    0    0 -0.10906969388E+02 -0.39899727237E+01 -0.95464470130E+01  0.15033845629E+02  0.51100000000E-03 0. -1.
        -11    1    3    3    0    0  0.19096990301E+01  0.15840413858E-01 -0.69475145533E+00  0.20322109020E+01  0.51100000000E-03 0.  1.
         12    1    3    3    0    0 -0.29289557433E+02 -0.93922493974E+01  0.13178212043E+02  0.33462782252E+02  0.00000000000E+00 0. -1.
</event>
<event>
 7    1  0.5855569E-013  0.5052886E+02  0.7816164E-02  0.1300439E+00
        -11   -1    0    0    0    0  0.00000000000E+00  0.00000000000E+00  0.45593999997E+02  0.45594000000E+02  0.51100000000E-03 0.  1.
         11   -1    0    0    0    0 -0.00000000000E+00 -0.00000000000E+00 -0.45593999997E+02  0.45594000000E+02  0.51100000000E-03 0. -1.
    9900012    2    1    2    0    0 -0.54068624036E+01  0.23185958785E+02 -0.32959714885E+02  0.50528860177E+02  0.30000000994E+02 0.  0.
        -12    1    1    2    0    0  0.54068624036E+01 -0.23185958785E+02  0.32959714885E+02  0.40659139823E+02  0.00000000000E+00 0.  1.
         11    1    3    3    0    0 -0.56496171113E+01 -0.69651104550E+00 -0.16545079669E+01  0.59279590092E+01  0.51100000000E-03 0. -1.
        -11    1    3    3    0    0 -0.79748001333E+00 -0.38927393691E+01 -0.38977073690E+01  0.55661043076E+01  0.51100000000E-03 0.  1.
         12    1    3    3    0    0  0.10402347211E+01  0.27775209200E+02 -0.27407499549E+02  0.39034796860E+02  0.00000000000E+00 0. -1.
</event>
<event>
 7    1  0.5855569E-013  0.5052886E+02  0.7816164E-02  0.1300439E+00
        -11   -1    0    0    0    0  0.00000000000E+00  0.00000000000E+00  0.45593999997E+02  0.45594000000E+02  0.51100000000E-03 0.  1.
         11   -1    0    0    0    0 -0.00000000000E+00 -0.00000000000E+00 -0.45593999997E+02  0.45594000000E+02  0.51100000000E-03 0. -1.
    9900012    2    1    2    0    0  0.36975084560E+02  0.14097017674E+02 -0.93425432816E+01  0.50528857111E+02  0.29999991673E+02 0.  0.
        -12    1    1    2    0    0 -0.36975084560E+02 -0.14097017674E+02  0.93425432816E+01  0.40659142889E+02  0.00000000000E+00 0.  1.
         11    1    3    3    0    0  0.10927570790E+02  0.11653174363E+02 -0.49934022237E+00  0.15983041545E+02  0.51100000000E-03 0. -1.
        -11    1    3    3    0    0  0.11205911775E+02 -0.65124916453E+01 -0.11100601037E+02  0.17064827857E+02  0.51100000000E-03 0.  1.
         12    1    3    3    0    0  0.14841601995E+02  0.89563349563E+01  0.22573979781E+01  0.17480987709E+02  0.00000000000E+00 0. -1.
</event>
<event>
 7    1  0.5855569E-013  0.5052885E+02  0.7816164E-02  0.1300439E+00
        -11   -1    0    0    0    0  0.00000000000E+00  0.00000000000E+00  0.45593999997E+02  0.45594000000E+02  0.51100000000E-03 0.  1.
         11   -1    0    0    0    0 -0.00000000000E+00 -0.00000000000E+00 -0.45593999997E+02  0.45594000000E+02  0.51100000000E-03 0. -1.
    9900012    2    1    2    0    0 -0.21367067796E+02  0.33226645663E+02  0.96231243421E+01  0.50528854776E+02  0.29999984578E+02 0.  0.
        -12    1    1    2    0    0  0.21367067796E+02 -0.33226645663E+02 -0.96231243421E+01  0.40659145224E+02  0.00000000000E+00 0.  1.
         11    1    3    3    0    0 -0.14904001022E+02  0.13054392335E+02  0.50970476677E+01  0.20457915360E+02  0.51100000000E-03 0. -1.
        -11    1    3    3    0    0 -0.84947251853E+01  0.58924182927E+01  0.10245134713E+02  0.14554852622E+02  0.51100000000E-03 0.  1.
         12    1    3    3    0    0  0.20316584111E+01  0.14279835036E+02 -0.57190580388E+01  0.15516086794E+02  0.00000000000E+00 0. -1.
</event>
<event>
 7    1  0.5855569E-013  0.5052886E+02  0.7816164E-02  0.1300439E+00
        -11   -1    0    0    0    0  0.00000000000E+00  0.00000000000E+00  0.45593999997E+02  0.45594000000E+02  0.51100000000E-03 0. -1.
         11   -1    0    0    0    0 -0.00000000000E+00 -0.00000000000E+00 -0.45593999997E+02  0.45594000000E+02  0.51100000000E-03 0.  1.
    9900012    2    1    2    0    0 -0.88088670323E+01  0.28500015406E+02  0.27628226836E+02  0.50528856691E+02  0.29999990398E+02 0.  0.
        -12    1    1    2    0    0  0.88088670323E+01 -0.28500015406E+02 -0.27628226836E+02  0.40659143309E+02  0.00000000000E+00 0.  1.
         11    1    3    3    0    0 -0.86471286225E-01 -0.48431510887E+00 -0.18156871666E+01  0.18811588333E+01  0.51100000000E-03 0. -1.
        -11    1    3    3    0    0 -0.42316283534E+01 -0.33790903394E+01  0.76496629449E+01  0.93724208973E+01  0.51100000000E-03 0.  1.
         12    1    3    3    0    0 -0.44907673926E+01  0.32363420854E+02  0.21794251058E+02  0.39275276960E+02  0.00000000000E+00 0. -1.
</event>
<event>
 7    1  0.5855569E-013  0.5052887E+02  0.7816164E-02  0.1300439E+00
        -11   -1    0    0    0    0  0.00000000000E+00  0.00000000000E+00  0.45593999997E+02  0.45594000000E+02  0.51100000000E-03 0.  1.
         11   -1    0    0    0    0 -0.00000000000E+00 -0.00000000000E+00 -0.45593999997E+02  0.45594000000E+02  0.51100000000E-03 0. -1.
    9900012    2    1    2    0    0  0.38406441711E+02 -0.12788999457E+02 -0.38146324638E+01  0.50528871962E+02  0.30000036815E+02 0.  0.
        -12    1    1    2    0    0 -0.38406441711E+02  0.12788999457E+02  0.38146324638E+01  0.40659128038E+02  0.00000000000E+00 0.  1.
         11    1    3    3    0    0  0.32961138819E+01  0.13493590652E+01  0.33351358064E+01  0.48793716519E+01  0.51100000000E-03 0.  1.
        -11    1    3    3    0    0  0.10873165241E+02 -0.43568154795E+01 -0.14364940112E+02  0.18535346454E+02  0.51100000000E-03 0. -1.
         12    1    3    3    0    0  0.24237162588E+02 -0.97815430429E+01  0.72151718420E+01  0.27114153856E+02  0.00000000000E+00 0. -1.
</event>
<event>
 7    1  0.5855569E-013  0.5052887E+02  0.7816164E-02  0.1300439E+00
        -11   -1    0    0    0    0  0.00000000000E+00  0.00000000000E+00  0.45593999997E+02  0.45594000000E+02  0.51100000000E-03 0. -1.
         11   -1    0    0    0    0 -0.00000000000E+00 -0.00000000000E+00 -0.45593999997E+02  0.45594000000E+02  0.51100000000E-03 0.  1.
    9900012    2    1    2    0    0 -0.23086772871E+02  0.29001221603E+02  0.16706133882E+02  0.50528870086E+02  0.30000031114E+02 0.  0.
        -12    1    1    2    0    0  0.23086772871E+02 -0.29001221603E+02 -0.16706133882E+02  0.40659129914E+02  0.00000000000E+00 0.  1.
         11    1    3    3    0    0 -0.20014693126E+02  0.20794004082E+02  0.85492867663E+01  0.30100977578E+02  0.51100000000E-03 0. -1.
        -11    1    3    3    0    0 -0.34106791958E+01  0.64946596223E+01  0.13194341921E+02  0.15096489498E+02  0.51100000000E-03 0.  1.
         12    1    3    3    0    0  0.33859945014E+00  0.17125578987E+01 -0.50374948050E+01  0.53314030099E+01  0.00000000000E+00 0. -1.
</event>
<event>
 7    1  0.5855569E-013  0.5052886E+02  0.7816164E-02  0.1300439E+00
        -11   -1    0    0    0    0  0.00000000000E+00  0.00000000000E+00  0.45593999997E+02  0.45594000000E+02  0.51100000000E-03 0.  1.
         11   -1    0    0    0    0 -0.00000000000E+00 -0.00000000000E+00 -0.45593999997E+02  0.45594000000E+02  0.51100000000E-03 0. -1.
    9900012    2    1    2    0    0 -0.20338435511E+02 -0.29821458318E+02  0.18713487072E+02  0.50528856703E+02  0.29999990434E+02 0.  0.
        -12    1    1    2    0    0  0.20338435511E+02  0.29821458318E+02 -0.18713487072E+02  0.40659143297E+02  0.00000000000E+00 0.  1.
         11    1    3    3    0    0 -0.18643108008E+02 -0.14049581737E+02  0.60778887481E+01  0.24122540394E+02  0.51100000000E-03 0. -1.
        -11    1    3    3    0    0 -0.55146651946E+01 -0.17125037433E+01  0.10077309069E+02  0.11614489210E+02  0.51100000000E-03 0.  1.
         12    1    3    3    0    0  0.38193376915E+01 -0.14059372838E+02  0.25582892545E+01  0.14791827099E+02  0.00000000000E+00 0. -1.
</event>
<event>
 7    1  0.5855569E-013  0.5052886E+02  0.7816164E-02  0.1300439E+00
        -11   -1    0    0    0    0  0.00000000000E+00  0.00000000000E+00  0.45593999997E+02  0.45594000000E+02  0.51100000000E-03 0.  1.
         11   -1    0    0    0    0 -0.00000000000E+00 -0.00000000000E+00 -0.45593999997E+02  0.45594000000E+02  0.51100000000E-03 0. -1.
    9900012    2    1    2    0    0  0.33645064447E+02 -0.31359348732E+01 -0.22612850196E+02  0.50528862734E+02  0.30000008767E+02 0.  0.
        -12    1    1    2    0    0 -0.33645064447E+02  0.31359348732E+01  0.22612850196E+02  0.40659137266E+02  0.00000000000E+00 0.  1.
         11    1    3    3    0    0  0.42811707717E+01  0.13744274483E+01  0.31858109490E+01  0.55106139087E+01  0.51100000000E-03 0.  1.
        -11    1    3    3    0    0  0.14280514379E+02 -0.13084969434E+02 -0.15779865237E+02  0.24983067529E+02  0.51100000000E-03 0. -1.
         12    1    3    3    0    0  0.15083379296E+02  0.85746071122E+01 -0.10018795909E+02  0.20035181296E+02  0.00000000000E+00 0. -1.
</event>
<event>
 7    1  0.5855569E-013  0.5052887E+02  0.7816164E-02  0.1300439E+00
        -11   -1    0    0    0    0  0.00000000000E+00  0.00000000000E+00  0.45593999997E+02  0.45594000000E+02  0.51100000000E-03 0. -1.
         11   -1    0    0    0    0 -0.00000000000E+00 -0.00000000000E+00 -0.45593999997E+02  0.45594000000E+02  0.51100000000E-03 0.  1.
    9900012    2    1    2    0    0  0.35153602697E+02 -0.91943129378E+01  0.18244271224E+02  0.50528873036E+02  0.30000040081E+02 0.  0.
        -12    1    1    2    0    0 -0.35153602697E+02  0.91943129378E+01 -0.18244271224E+02  0.40659126964E+02  0.00000000000E+00 0.  1.
         11    1    3    3    0    0  0.33786496400E+02 -0.11602845810E+01  0.12495035148E+02  0.36041635686E+02  0.51100000000E-03 0. -1.
        -11    1    3    3    0    0  0.40524369821E+01  0.73901867948E+00  0.16280231102E+01  0.44293175107E+01  0.51100000000E-03 0.  1.
        -12    1    3    3    0    0 -0.26853306852E+01 -0.87730470362E+01  0.41212129656E+01  0.10057919839E+02  0.00000000000E+00 0.  1.
</event>
<event>
 7    1  0.5855569E-013  0.5052885E+02  0.7816164E-02  0.1300439E+00
        -11   -1    0    0    0    0  0.00000000000E+00  0.00000000000E+00  0.45593999997E+02  0.45594000000E+02  0.51100000000E-03 0.  1.
         11   -1    0    0    0    0 -0.00000000000E+00 -0.00000000000E+00 -0.45593999997E+02  0.45594000000E+02  0.51100000000E-03 0. -1.
    9900012    2    1    2    0    0 -0.63555908842E+01 -0.39917672424E+02 -0.43991318429E+01  0.50528850130E+02  0.29999970454E+02 0.  0.
        -12    1    1    2    0    0  0.63555908842E+01  0.39917672424E+02  0.43991318429E+01  0.40659149870E+02  0.00000000000E+00 0.  1.
         11    1    3    3    0    0 -0.98688092148E+01 -0.17027509178E+02 -0.14141512565E+01  0.19731428944E+02  0.51100000000E-03 0. -1.
        -11    1    3    3    0    0  0.99814170979E+00 -0.20918868442E+02 -0.99112274343E+01  0.23169544089E+02  0.51100000000E-03 0.  1.
        -12    1    3    3    0    0  0.25150766209E+01 -0.19712948035E+01  0.69262468479E+01  0.76278770971E+01  0.00000000000E+00 0.  1.
</event>
<event>
 7    1  0.5855569E-013  0.5052888E+02  0.7816164E-02  0.1300439E+00
        -11   -1    0    0    0    0  0.00000000000E+00  0.00000000000E+00  0.45593999997E+02  0.45594000000E+02  0.51100000000E-03 0.  1.
         11   -1    0    0    0    0 -0.00000000000E+00 -0.00000000000E+00 -0.45593999997E+02  0.45594000000E+02  0.51100000000E-03 0. -1.
    9900012    2    1    2    0    0  0.39847958876E+02  0.59108929764E+01 -0.55105257285E+01  0.50528875856E+02  0.30000048652E+02 0.  0.
        -12    1    1    2    0    0 -0.39847958876E+02 -0.59108929764E+01  0.55105257285E+01  0.40659124144E+02  0.00000000000E+00 0.  1.
         11    1    3    3    0    0  0.13805904824E+02 -0.19564717408E+01 -0.18085276490E+01  0.14060638755E+02  0.51100000000E-03 0. -1.
        -11    1    3    3    0    0  0.16909005191E+02 -0.28824638727E+01 -0.11207718993E+02  0.20489900434E+02  0.51100000000E-03 0.  1.
        -12    1    3    3    0    0  0.91330488605E+01  0.10749828590E+02  0.75057209131E+01  0.15978336666E+02  0.00000000000E+00 0.  1.
</event>
<event>
 7    1  0.5855569E-013  0.5052886E+02  0.7816164E-02  0.1300439E+00
        -11   -1    0    0    0    0  0.00000000000E+00  0.00000000000E+00  0.45593999997E+02  0.45594000000E+02  0.51100000000E-03 0.  1.
         11   -1    0    0    0    0 -0.00000000000E+00 -0.00000000000E+00 -0.45593999997E+02  0.45594000000E+02  0.51100000000E-03 0. -1.
    9900012    2    1    2    0    0 -0.44555953398E+01  0.27504707918E+02 -0.29610883359E+02  0.50528859567E+02  0.29999999139E+02 0.  0.
        -12    1    1    2    0    0  0.44555953398E+01 -0.27504707918E+02  0.29610883359E+02  0.40659140433E+02  0.00000000000E+00 0.  1.
         11    1    3    3    0    0 -0.38522590806E+01  0.34101433702E+01 -0.15774929767E+01  0.53812138206E+01  0.51100000000E-03 0. -1.
        -11    1    3    3    0    0  0.88214380674E+01  0.23641216194E+02 -0.16090283057E+02  0.29926945749E+02  0.51100000000E-03 0.  1.
        -12    1    3    3    0    0 -0.94247743266E+01  0.45334835370E+00 -0.11943107325E+02  0.15220699997E+02  0.00000000000E+00 0.  1.
</event>
<event>
 7    1  0.5855569E-013  0.5052886E+02  0.7816164E-02  0.1300439E+00
        -11   -1    0    0    0    0  0.00000000000E+00  0.00000000000E+00  0.45593999997E+02  0.45594000000E+02  0.51100000000E-03 0.  1.
         11   -1    0    0    0    0 -0.00000000000E+00 -0.00000000000E+00 -0.45593999997E+02  0.45594000000E+02  0.51100000000E-03 0. -1.
    9900012    2    1    2    0    0 -0.83712676326E+01  0.30529214084E+01 -0.39670738656E+02  0.50528856423E+02  0.29999989583E+02 0.  0.
        -12    1    1    2    0    0  0.83712676326E+01 -0.30529214084E+01  0.39670738656E+02  0.40659143577E+02  0.00000000000E+00 0.  1.
         11    1    3    3    0    0  0.46454128227E+01  0.51741588978E+01 -0.64683951615E+01  0.94969424985E+01  0.51100000000E-03 0. -1.
        -11    1    3    3    0    0 -0.19946456618E+00  0.49303529266E+01 -0.20668927802E+00  0.49387130726E+01  0.51100000000E-03 0.  1.
         12    1    3    3    0    0 -0.12817215889E+02 -0.70515904161E+01 -0.32995654217E+02  0.36093200852E+02  0.00000000000E+00 0. -1.
</event>
<event>
 7    1  0.5855569E-013  0.5052884E+02  0.7816164E-02  0.1300439E+00
        -11   -1    0    0    0    0  0.00000000000E+00  0.00000000000E+00  0.45593999997E+02  0.45594000000E+02  0.51100000000E-03 0.  1.
         11   -1    0    0    0    0 -0.00000000000E+00 -0.00000000000E+00 -0.45593999997E+02  0.45594000000E+02  0.51100000000E-03 0. -1.
    9900012    2    1    2    0    0  0.31023201313E+02 -0.17866997471E+01 -0.26220911837E+02  0.50528837032E+02  0.29999930643E+02 0.  0.
        -12    1    1    2    0    0 -0.31023201313E+02  0.17866997471E+01  0.26220911837E+02  0.40659162968E+02  0.00000000000E+00 0.  1.
         11    1    3    3    0    0 -0.10224510883E+01  0.24352276387E+01 -0.70964031709E+01  0.75719665943E+01  0.51100000000E-03 0.  1.
        -11    1    3    3    0    0  0.25256358559E+02  0.62171565291E+01 -0.12733911564E+02  0.28960130990E+02  0.51100000000E-03 0. -1.
         12    1    3    3    0    0  0.67892938421E+01 -0.10439083915E+02 -0.63905971022E+01  0.13996739448E+02  0.00000000000E+00 0. -1.
</event>
<event>
 7    1  0.5855569E-013  0.5052884E+02  0.7816164E-02  0.1300439E+00
        -11   -1    0    0    0    0  0.00000000000E+00  0.00000000000E+00  0.45593999997E+02  0.45594000000E+02  0.51100000000E-03 0. -1.
         11   -1    0    0    0    0 -0.00000000000E+00 -0.00000000000E+00 -0.45593999997E+02  0.45594000000E+02  0.51100000000E-03 0.  1.
    9900012    2    1    2    0    0  0.33342117426E+02  0.23074926285E+02  0.30030077965E+01  0.50528842688E+02  0.29999947834E+02 0.  0.
        -12    1    1    2    0    0 -0.33342117426E+02 -0.23074926285E+02 -0.30030077965E+01  0.40659157312E+02  0.00000000000E+00 0.  1.
         11    1    3    3    0    0  0.15649055200E+02  0.62546780412E+01 -0.79237291493E+01  0.18622551113E+02  0.51100000000E-03 0. -1.
        -11    1    3    3    0    0 -0.21672923794E+01  0.40970732790E+01 -0.19562882384E+01  0.50309273146E+01  0.51100000000E-03 0.  1.
         12    1    3    3    0    0  0.19860354606E+02  0.12723174965E+02  0.12883025184E+02  0.26875364260E+02  0.00000000000E+00 0. -1.
</event>
<event>
 7    1  0.5855569E-013  0.5052885E+02  0.7816164E-02  0.1300439E+00
        -11   -1    0    0    0    0  0.00000000000E+00  0.00000000000E+00  0.45593999997E+02  0.45594000000E+02  0.51100000000E-03 0.  1.
         11   -1    0    0    0    0 -0.00000000000E+00 -0.00000000000E+00 -0.45593999997E+02  0.45594000000E+02  0.51100000000E-03 0. -1.
    9900012    2    1    2    0    0  0.13380832512E+02  0.19831625308E+01 -0.38343013251E+02  0.50528852474E+02  0.29999977581E+02 0.  0.
        -12    1    1    2    0    0 -0.13380832512E+02 -0.19831625308E+01  0.38343013251E+02  0.40659147526E+02  0.00000000000E+00 0.  1.
         11    1    3    3    0    0 -0.46005037623E+00  0.56440479151E+00 -0.23227914875E+02  0.23239325050E+02  0.51100000000E-03 0. -1.
        -11    1    3    3    0    0 -0.27131178047E+01 -0.12609228667E+01 -0.89265570604E+01  0.94145820890E+01  0.51100000000E-03 0.  1.
        -12    1    3    3    0    0  0.16554000693E+02  0.26796806060E+01 -0.61885413161E+01  0.17874945335E+02  0.00000000000E+00 0.  1.
</event>
<event>
 7    1  0.5855569E-013  0.5052886E+02  0.7816164E-02  0.1300439E+00
        -11   -1    0    0    0    0  0.00000000000E+00  0.00000000000E+00  0.45593999997E+02  0.45594000000E+02  0.51100000000E-03 0.  1.
         11   -1    0    0    0    0 -0.00000000000E+00 -0.00000000000E+00 -0.45593999997E+02  0.45594000000E+02  0.51100000000E-03 0. -1.
    9900012    2    1    2    0    0 -0.12070937422E+02  0.13733982291E+02 -0.36315780950E+02  0.50528859013E+02  0.29999997455E+02 0.  0.
        -12    1    1    2    0    0  0.12070937422E+02 -0.13733982291E+02  0.36315780950E+02  0.40659140987E+02  0.00000000000E+00 0.  1.
         11    1    3    3    0    0 -0.46163855436E+01  0.11747842621E+02 -0.16751752915E+02  0.20974843210E+02  0.51100000000E-03 0. -1.
        -11    1    3    3    0    0  0.17259716387E+01  0.98212713601E+01 -0.10326359238E+02  0.14355140006E+02  0.51100000000E-03 0.  1.
        -12    1    3    3    0    0 -0.91805235176E+01 -0.78351316898E+01 -0.92376687969E+01  0.15198875796E+02  0.00000000000E+00 0.  1.
</event>
<event>
 7    1  0.5855569E-013  0.5052876E+02  0.7816164E-02  0.1300439E+00
        -11   -1    0    0    0    0  0.00000000000E+00  0.00000000000E+00  0.45593999997E+02  0.45594000000E+02  0.51100000000E-03 0.  1.
         11   -1    0    0    0    0 -0.00000000000E+00 -0.00000000000E+00 -0.45593999997E+02  0.45594000000E+02  0.51100000000E-03 0. -1.
    9900012    2    1    2    0    0  0.35453844806E+02  0.22603012523E+01 -0.19775983566E+02  0.50528762436E+02  0.29999703898E+02 0.  0.
        -12    1    1    2    0    0 -0.35453844806E+02 -0.22603012523E+01  0.19775983566E+02  0.40659237564E+02  0.00000000000E+00 0.  1.
         11    1    3    3    0    0 -0.13282305397E+00 -0.27208178233E+01  0.10626931513E+01  0.29240055722E+01  0.51100000000E-03 0. -1.
        -11    1    3    3    0    0  0.17902126445E+02  0.98951578721E+01 -0.85737223975E+00  0.20472795803E+02  0.51100000000E-03 0.  1.
        -12    1    3    3    0    0  0.17684541415E+02 -0.49140387964E+01 -0.19981304478E+02  0.27131961060E+02  0.00000000000E+00 0.  1.
</event>
<event>
 7    1  0.5855569E-013  0.5052884E+02  0.7816164E-02  0.1300439E+00
        -11   -1    0    0    0    0  0.00000000000E+00  0.00000000000E+00  0.45593999997E+02  0.45594000000E+02  0.51100000000E-03 0. -1.
         11   -1    0    0    0    0 -0.00000000000E+00 -0.00000000000E+00 -0.45593999997E+02  0.45594000000E+02  0.51100000000E-03 0.  1.
    9900012    2    1    2    0    0 -0.22053170899E+02 -0.33772097554E+02  0.51254695241E+01  0.50528839190E+02  0.29999937203E+02 0.  0.
        -12    1    1    2    0    0  0.22053170899E+02  0.33772097554E+02 -0.51254695241E+01  0.40659160810E+02  0.00000000000E+00 0.  1.
         11    1    3    3    0    0 -0.43247677189E+01 -0.59855761168E+01  0.65097165424E+01  0.98441427760E+01  0.51100000000E-03 0. -1.
        -11    1    3    3    0    0 -0.14128114185E+02 -0.65776796581E+01  0.76400719405E+01  0.17356272054E+02  0.51100000000E-03 0.  1.
        -12    1    3    3    0    0 -0.36002889960E+01 -0.21208841779E+02 -0.90243189588E+01  0.23328424360E+02  0.00000000000E+00 0.  1.
</event>
<event>
 7    1  0.5855569E-013  0.5052886E+02  0.7816164E-02  0.1300439E+00
        -11   -1    0    0    0    0  0.00000000000E+00  0.00000000000E+00  0.45593999997E+02  0.45594000000E+02  0.51100000000E-03 0.  1.
         11   -1    0    0    0    0 -0.00000000000E+00 -0.00000000000E+00 -0.45593999997E+02  0.45594000000E+02  0.51100000000E-03 0. -1.
    9900012    2    1    2    0    0  0.19663191186E+02 -0.13599198733E+01 -0.35562273331E+02  0.50528858910E+02  0.29999997143E+02 0.  0.
        -12    1    1    2    0    0 -0.19663191186E+02  0.13599198733E+01  0.35562273331E+02  0.40659141090E+02  0.00000000000E+00 0.  1.
         11    1    3    3    0    0  0.73761584055E+01 -0.30100634322E+01 -0.18767399011E+02  0.20388316767E+02  0.51100000000E-03 0. -1.
        -11    1    3    3    0    0 -0.16034171487E+01 -0.17774417011E+01 -0.15601155474E+02  0.15783735234E+02  0.51100000000E-03 0.  1.
        -12    1    3    3    0    0  0.13890449929E+02  0.34275852600E+01 -0.11937188467E+01  0.14356806910E+02  0.00000000000E+00 0.  1.
</event>
<event>
 7    1  0.5855569E-013  0.5052885E+02  0.7816164E-02  0.1300439E+00
        -11   -1    0    0    0    0  0.00000000000E+00  0.00000000000E+00  0.45593999997E+02  0.45594000000E+02  0.51100000000E-03 0. -1.
         11   -1    0    0    0    0 -0.00000000000E+00 -0.00000000000E+00 -0.45593999997E+02  0.45594000000E+02  0.51100000000E-03 0.  1.
    9900012    2    1    2    0    0  0.23319729815E+02 -0.17208211725E+01  0.33262522109E+02  0.50528850953E+02  0.29999972958E+02 0.  0.
        -12    1    1    2    0    0 -0.23319729815E+02  0.17208211725E+01 -0.33262522109E+02  0.40659149047E+02  0.00000000000E+00 0.  1.
         11    1    3    3    0    0  0.14510329545E+02  0.11524255335E+01  0.55157244788E+01  0.15566019558E+02  0.51100000000E-03 0. -1.
        -11    1    3    3    0    0  0.13421190041E+02 -0.13267233609E+01  0.10641444880E+02  0.17179315655E+02  0.51100000000E-03 0.  1.
        -12    1    3    3    0    0 -0.46117897707E+01 -0.15465233451E+01  0.17105352750E+02  0.17783515740E+02  0.00000000000E+00 0.  1.
</event>
<event>
 7    1  0.5855569E-013  0.5052886E+02  0.7816164E-02  0.1300439E+00
        -11   -1    0    0    0    0  0.00000000000E+00  0.00000000000E+00  0.45593999997E+02  0.45594000000E+02  0.51100000000E-03 0.  1.
         11   -1    0    0    0    0 -0.00000000000E+00 -0.00000000000E+00 -0.45593999997E+02  0.45594000000E+02  0.51100000000E-03 0. -1.
    9900012    2    1    2    0    0 -0.32250884202E+02 -0.23808071385E+02  0.67986704224E+01  0.50528859399E+02  0.29999998631E+02 0.  0.
        -12    1    1    2    0    0  0.32250884202E+02  0.23808071385E+02 -0.67986704224E+01  0.40659140601E+02  0.00000000000E+00 0.  1.
         11    1    3    3    0    0 -0.13063408778E+02 -0.93710156402E+01  0.39326861146E+01  0.16550969862E+02  0.51100000000E-03 0. -1.
        -11    1    3    3    0    0 -0.23907421392E+02 -0.68551330263E+01  0.29601134024E+01  0.25046355384E+02  0.51100000000E-03 0.  1.
        -12    1    3    3    0    0  0.47199459680E+01 -0.75819227183E+01 -0.94129094592E-01  0.89315341534E+01  0.00000000000E+00 0.  1.
</event>
<event>
 7    1  0.5855569E-013  0.5052884E+02  0.7816164E-02  0.1300439E+00
        -11   -1    0    0    0    0  0.00000000000E+00  0.00000000000E+00  0.45593999997E+02  0.45594000000E+02  0.51100000000E-03 0. -1.
         11   -1    0    0    0    0 -0.00000000000E+00 -0.00000000000E+00 -0.45593999997E+02  0.45594000000E+02  0.51100000000E-03 0.  1.
    9900012    2    1    2    0    0 -0.37547826752E+02  0.14710814719E+02  0.51884792971E+01  0.50528835217E+02  0.29999925125E+02 0.  0.
        -12    1    1    2    0    0  0.37547826752E+02 -0.14710814719E+02 -0.51884792971E+01  0.40659164783E+02  0.00000000000E+00 0.  1.
         11    1    3    3    0    0  0.19891676861E+01  0.60638002239E-01 -0.32695106191E+01  0.38275533961E+01  0.51100000000E-03 0. -1.
        -11    1    3    3    0    0 -0.15849345908E+02  0.14082385087E+02 -0.91207036487E+00  0.21221385630E+02  0.51100000000E-03 0.  1.
         12    1    3    3    0    0 -0.23687648530E+02  0.56779162911E+00  0.93700602810E+01  0.25479896190E+02  0.00000000000E+00 0. -1.
</event>
<event>
 7    1  0.5855569E-013  0.5052886E+02  0.7816164E-02  0.1300439E+00
        -11   -1    0    0    0    0  0.00000000000E+00  0.00000000000E+00  0.45593999997E+02  0.45594000000E+02  0.51100000000E-03 0.  1.
         11   -1    0    0    0    0 -0.00000000000E+00 -0.00000000000E+00 -0.45593999997E+02  0.45594000000E+02  0.51100000000E-03 0. -1.
    9900012    2    1    2    0    0 -0.32820967725E+02  0.15415167273E+02  0.18393536756E+02  0.50528862049E+02  0.30000006685E+02 0.  0.
        -12    1    1    2    0    0  0.32820967725E+02 -0.15415167273E+02 -0.18393536756E+02  0.40659137951E+02  0.00000000000E+00 0.  1.
         11    1    3    3    0    0 -0.23777054675E+02  0.11332777287E+02  0.37377332712E+01  0.26603586606E+02  0.51100000000E-03 0. -1.
        -11    1    3    3    0    0 -0.70784173700E+01  0.89792352725E+01  0.41405523341E+01  0.12160379617E+02  0.51100000000E-03 0.  1.
        -12    1    3    3    0    0 -0.19654956803E+01 -0.48968452863E+01  0.10515251151E+02  0.11764895826E+02  0.00000000000E+00 0.  1.
</event>
<event>
 7    1  0.5855569E-013  0.5052886E+02  0.7816164E-02  0.1300439E+00
        -11   -1    0    0    0    0  0.00000000000E+00  0.00000000000E+00  0.45593999997E+02  0.45594000000E+02  0.51100000000E-03 0.  1.
         11   -1    0    0    0    0 -0.00000000000E+00 -0.00000000000E+00 -0.45593999997E+02  0.45594000000E+02  0.51100000000E-03 0. -1.
    9900012    2    1    2    0    0 -0.26886263624E+02 -0.30371447579E+02 -0.28053049797E+01  0.50528859136E+02  0.29999997831E+02 0.  0.
        -12    1    1    2    0    0  0.26886263624E+02  0.30371447579E+02  0.28053049797E+01  0.40659140864E+02  0.00000000000E+00 0.  1.
         11    1    3    3    0    0 -0.91756867638E+01 -0.13422271404E+02 -0.11377311720E+02  0.19844238949E+02  0.51100000000E-03 0. -1.
        -11    1    3    3    0    0 -0.14519850537E+02 -0.18639730427E+02  0.26867466710E+01  0.23779912067E+02  0.51100000000E-03 0.  1.
        -12    1    3    3    0    0 -0.31907263239E+01  0.16905542513E+01  0.58852600688E+01  0.69047081204E+01  0.00000000000E+00 0.  1.
</event>
<event>
 7    1  0.5855569E-013  0.5052886E+02  0.7816164E-02  0.1300439E+00
        -11   -1    0    0    0    0  0.00000000000E+00  0.00000000000E+00  0.45593999997E+02  0.45594000000E+02  0.51100000000E-03 0.  1.
         11   -1    0    0    0    0 -0.00000000000E+00 -0.00000000000E+00 -0.45593999997E+02  0.45594000000E+02  0.51100000000E-03 0. -1.
    9900012    2    1    2    0    0 -0.22119735248E+02  0.33158184564E+02 -0.80260664482E+01  0.50528860392E+02  0.30000001648E+02 0.  0.
        -12    1    1    2    0    0  0.22119735248E+02 -0.33158184564E+02  0.80260664482E+01  0.40659139608E+02  0.00000000000E+00 0.  1.
         11    1    3    3    0    0 -0.12487033208E+02  0.13697162321E+02 -0.42603092160E+01  0.19018109498E+02  0.51100000000E-03 0. -1.
        -11    1    3    3    0    0 -0.13211287727E+02  0.22558084561E+02 -0.13001342056E+01  0.26174331924E+02  0.51100000000E-03 0.  1.
        -12    1    3    3    0    0  0.35785856860E+01 -0.30970623185E+01 -0.24656230266E+01  0.53364189703E+01  0.00000000000E+00 0.  1.
</event>
<event>
 7    1  0.5855569E-013  0.5052887E+02  0.7816164E-02  0.1300439E+00
        -11   -1    0    0    0    0  0.00000000000E+00  0.00000000000E+00  0.45593999997E+02  0.45594000000E+02  0.51100000000E-03 0. -1.
         11   -1    0    0    0    0 -0.00000000000E+00 -0.00000000000E+00 -0.45593999997E+02  0.45594000000E+02  0.51100000000E-03 0.  1.
    9900012    2    1    2    0    0 -0.36539528815E+00  0.27212139192E+02  0.30208128430E+02  0.50528867492E+02  0.30000023228E+02 0.  0.
        -12    1    1    2    0    0  0.36539528815E+00 -0.27212139192E+02 -0.30208128430E+02  0.40659132508E+02  0.00000000000E+00 0.  1.
         11    1    3    3    0    0  0.16424787201E+01  0.15557967659E+02  0.21816827249E+02  0.26846266882E+02  0.51100000000E-03 0. -1.
        -11    1    3    3    0    0  0.10432534517E+01  0.15793122439E+02  0.94481751395E+01  0.18433098162E+02  0.51100000000E-03 0.  1.
        -12    1    3    3    0    0 -0.30511274600E+01 -0.41389509063E+01 -0.10568739585E+01  0.52495024474E+01  0.00000000000E+00 0.  1.
</event>
<event>
 7    1  0.5855569E-013  0.5052886E+02  0.7816164E-02  0.1300439E+00
        -11   -1    0    0    0    0  0.00000000000E+00  0.00000000000E+00  0.45593999997E+02  0.45594000000E+02  0.51100000000E-03 0.  1.
         11   -1    0    0    0    0 -0.00000000000E+00 -0.00000000000E+00 -0.45593999997E+02  0.45594000000E+02  0.51100000000E-03 0. -1.
    9900012    2    1    2    0    0 -0.34803711259E+02  0.20944278857E+02  0.17901817816E+01  0.50528857301E+02  0.29999992251E+02 0.  0.
        -12    1    1    2    0    0  0.34803711259E+02 -0.20944278857E+02 -0.17901817816E+01  0.40659142699E+02  0.00000000000E+00 0.  1.
         11    1    3    3    0    0 -0.12788334614E+02  0.18263408527E+01  0.68734213880E+01  0.14632872067E+02  0.51100000000E-03 0. -1.
        -11    1    3    3    0    0 -0.58323503635E+01  0.82115052455E+01  0.76032882035E+01  0.12619632361E+02  0.51100000000E-03 0.  1.
         12    1    3    3    0    0 -0.16183026282E+02  0.10906432759E+02 -0.12686527810E+02  0.23276352872E+02  0.00000000000E+00 0. -1.
</event>
<event>
 7    1  0.5855569E-013  0.5052887E+02  0.7816164E-02  0.1300439E+00
        -11   -1    0    0    0    0  0.00000000000E+00  0.00000000000E+00  0.45593999997E+02  0.45594000000E+02  0.51100000000E-03 0. -1.
         11   -1    0    0    0    0 -0.00000000000E+00 -0.00000000000E+00 -0.45593999997E+02  0.45594000000E+02  0.51100000000E-03 0.  1.
    9900012    2    1    2    0    0 -0.11687988710E+02  0.36914008697E+02  0.12406127988E+02  0.50528866588E+02  0.30000020482E+02 0.  0.
        -12    1    1    2    0    0  0.11687988710E+02 -0.36914008697E+02 -0.12406127988E+02  0.40659133412E+02  0.00000000000E+00 0.  1.
         11    1    3    3    0    0 -0.48292555095E+01  0.29712843109E+02  0.17883033784E+02  0.35013963671E+02  0.51100000000E-03 0. -1.
        -11    1    3    3    0    0  0.16916712308E+00  0.10419854721E+01  0.28244841203E+01  0.30153046358E+01  0.51100000000E-03 0.  1.
        -12    1    3    3    0    0 -0.70279003232E+01  0.61591801156E+01 -0.83013899163E+01  0.12499598281E+02  0.00000000000E+00 0.  1.
</event>
<event>
 7    1  0.5855569E-013  0.5052887E+02  0.7816164E-02  0.1300439E+00
        -11   -1    0    0    0    0  0.00000000000E+00  0.00000000000E+00  0.45593999997E+02  0.45594000000E+02  0.51100000000E-03 0.  1.
         11   -1    0    0    0    0 -0.00000000000E+00 -0.00000000000E+00 -0.45593999997E+02  0.45594000000E+02  0.51100000000E-03 0. -1.
    9900012    2    1    2    0    0 -0.29632598399E+02  0.71043162201E+01 -0.26918442946E+02  0.50528871044E+02  0.30000034026E+02 0.  0.
        -12    1    1    2    0    0  0.29632598399E+02 -0.71043162201E+01  0.26918442946E+02  0.40659128956E+02  0.00000000000E+00 0.  1.
         11    1    3    3    0    0 -0.65736335831E+01 -0.19567850634E+01 -0.11148792956E+02  0.13089585590E+02  0.51100000000E-03 0.  1.
        -11    1    3    3    0    0 -0.75153502155E+01  0.15068134351E+02 -0.10974980189E+02  0.20099237599E+02  0.51100000000E-03 0. -1.
         12    1    3    3    0    0 -0.15543614601E+02 -0.60070330672E+01 -0.47946698008E+01  0.17340047855E+02  0.00000000000E+00 0. -1.
</event>
<event>
 7    1  0.5855569E-013  0.5052886E+02  0.7816164E-02  0.1300439E+00
        -11   -1    0    0    0    0  0.00000000000E+00  0.00000000000E+00  0.45593999997E+02  0.45594000000E+02  0.51100000000E-03 0.  1.
         11   -1    0    0    0    0 -0.00000000000E+00 -0.00000000000E+00 -0.45593999997E+02  0.45594000000E+02  0.51100000000E-03 0. -1.
    9900012    2    1    2    0    0  0.35854187294E+02 -0.17228252602E+02 -0.84160662349E+01  0.50528860743E+02  0.30000002714E+02 0.  0.
        -12    1    1    2    0    0 -0.35854187294E+02  0.17228252602E+02  0.84160662349E+01  0.40659139257E+02  0.00000000000E+00 0.  1.
         11    1    3    3    0    0  0.25038019280E+02 -0.16641219042E+02 -0.23116594132E+01  0.30152551304E+02  0.51100000000E-03 0. -1.
        -11    1    3    3    0    0 -0.24731504835E+01 -0.18404139388E+01  0.29340155292E+01  0.42558247340E+01  0.51100000000E-03 0.  1.
         12    1    3    3    0    0  0.13289318498E+02  0.12533803782E+01 -0.90384223509E+01  0.16120484705E+02  0.00000000000E+00 0. -1.
</event>
<event>
 7    1  0.5855569E-013  0.5052885E+02  0.7816164E-02  0.1300439E+00
        -11   -1    0    0    0    0  0.00000000000E+00  0.00000000000E+00  0.45593999997E+02  0.45594000000E+02  0.51100000000E-03 0. -1.
         11   -1    0    0    0    0 -0.00000000000E+00 -0.00000000000E+00 -0.45593999997E+02  0.45594000000E+02  0.51100000000E-03 0.  1.
    9900012    2    1    2    0    0  0.33715346422E+02 -0.17780690350E+02  0.14152340228E+02  0.50528852597E+02  0.29999977952E+02 0.  0.
        -12    1    1    2    0    0 -0.33715346422E+02  0.17780690350E+02 -0.14152340228E+02  0.40659147403E+02  0.00000000000E+00 0.  1.
         11    1    3    3    0    0  0.18713638395E+02 -0.15877202644E+02  0.10313796770E+02  0.26620672979E+02  0.51100000000E-03 0.  1.
        -11    1    3    3    0    0  0.13955390665E+02 -0.73825026068E+01  0.72465609896E+01  0.17371439773E+02  0.51100000000E-03 0. -1.
        -12    1    3    3    0    0  0.10463173621E+01  0.54790149009E+01 -0.34080175314E+01  0.65367398450E+01  0.00000000000E+00 0.  1.
</event>
<event>
 7    1  0.5855569E-013  0.5052886E+02  0.7816164E-02  0.1300439E+00
        -11   -1    0    0    0    0  0.00000000000E+00  0.00000000000E+00  0.45593999997E+02  0.45594000000E+02  0.51100000000E-03 0. -1.
         11   -1    0    0    0    0 -0.00000000000E+00 -0.00000000000E+00 -0.45593999997E+02  0.45594000000E+02  0.51100000000E-03 0.  1.
    9900012    2    1    2    0    0  0.23780943791E+02  0.13610217143E+02  0.30039874709E+02  0.50528863624E+02  0.30000011472E+02 0.  0.
        -12    1    1    2    0    0 -0.23780943791E+02 -0.13610217143E+02 -0.30039874709E+02  0.40659136376E+02  0.00000000000E+00 0.  1.
         11    1    3    3    0    0 -0.29264565310E+01  0.30790131678E+01  0.23603913122E+01  0.48596211090E+01  0.51100000000E-03 0.  1.
        -11    1    3    3    0    0  0.13915105872E+02 -0.19271255595E+01  0.23422739812E+02  0.27312428030E+02  0.51100000000E-03 0. -1.
         12    1    3    3    0    0  0.12792294451E+02  0.12458329534E+02  0.42567435856E+01  0.18356814485E+02  0.00000000000E+00 0. -1.
</event>
<event>
 7    1  0.5855569E-013  0.5052888E+02  0.7816164E-02  0.1300439E+00
        -11   -1    0    0    0    0  0.00000000000E+00  0.00000000000E+00  0.45593999997E+02  0.45594000000E+02  0.51100000000E-03 0.  1.
         11   -1    0    0    0    0 -0.00000000000E+00 -0.00000000000E+00 -0.45593999997E+02  0.45594000000E+02  0.51100000000E-03 0. -1.
    9900012    2    1    2    0    0  0.36884848495E+02 -0.17046723496E+02  0.14427414138E+01  0.50528876384E+02  0.30000050257E+02 0.  0.
        -12    1    1    2    0    0 -0.36884848495E+02  0.17046723496E+02 -0.14427414138E+01  0.40659123616E+02  0.00000000000E+00 0.  1.
         11    1    3    3    0    0  0.33892280331E+02 -0.20369613909E+02  0.14031922319E+00  0.39542730389E+02  0.51100000000E-03 0. -1.
        -11    1    3    3    0    0  0.22524877054E+01 -0.28410409449E+01  0.28222747419E+01  0.45946109186E+01  0.51100000000E-03 0.  1.
        -12    1    3    3    0    0  0.74008045784E+00  0.61639313572E+01 -0.15198525513E+01  0.63915350768E+01  0.00000000000E+00 0.  1.
</event>
<event>
 7    1  0.5855569E-013  0.5052886E+02  0.7816164E-02  0.1300439E+00
        -11   -1    0    0    0    0  0.00000000000E+00  0.00000000000E+00  0.45593999997E+02  0.45594000000E+02  0.51100000000E-03 0. -1.
         11   -1    0    0    0    0 -0.00000000000E+00 -0.00000000000E+00 -0.45593999997E+02  0.45594000000E+02  0.51100000000E-03 0.  1.
    9900012    2    1    2    0    0 -0.13630066020E+02  0.16894383692E+02  0.34379746847E+02  0.50528857199E+02  0.29999991942E+02 0.  0.
        -12    1    1    2    0    0  0.13630066020E+02 -0.16894383692E+02 -0.34379746847E+02  0.40659142801E+02  0.00000000000E+00 0.  1.
         11    1    3    3    0    0 -0.13858235253E+02 -0.11020149883E+01  0.85977728411E+01  0.16345850221E+02  0.51100000000E-03 0. -1.
        -11    1    3    3    0    0  0.40603527862E+01  0.29385985503E+00  0.28917931425E+01  0.49935244270E+01  0.51100000000E-03 0.  1.
        -12    1    3    3    0    0 -0.38321835532E+01  0.17702538825E+02  0.22890180864E+02  0.29189482551E+02  0.00000000000E+00 0.  1.
</event>
<event>
 7    1  0.5855569E-013  0.5052878E+02  0.7816164E-02  0.1300439E+00
        -11   -1    0    0    0    0  0.00000000000E+00  0.00000000000E+00  0.45593999997E+02  0.45594000000E+02  0.51100000000E-03 0.  1.
         11   -1    0    0    0    0 -0.00000000000E+00 -0.00000000000E+00 -0.45593999997E+02  0.45594000000E+02  0.51100000000E-03 0. -1.
    9900012    2    1    2    0    0  0.17472637772E+01 -0.14626651109E+02 -0.37896965262E+02  0.50528784200E+02  0.29999770055E+02 0.  0.
        -12    1    1    2    0    0 -0.17472637772E+01  0.14626651109E+02  0.37896965262E+02  0.40659215800E+02  0.00000000000E+00 0.  1.
         11    1    3    3    0    0 -0.83830053556E+01 -0.22053651800E+01 -0.23693207518E+02  0.25229080386E+02  0.51100000000E-03 0. -1.
        -11    1    3    3    0    0 -0.52825158388E+00 -0.36856481098E+01 -0.10336117023E+02  0.10986280858E+02  0.51100000000E-03 0.  1.
        -12    1    3    3    0    0  0.10658520717E+02 -0.87356378192E+01 -0.38676407212E+01  0.14313422956E+02  0.00000000000E+00 0.  1.
</event>
<event>
 7    1  0.5855569E-013  0.5052887E+02  0.7816164E-02  0.1300439E+00
        -11   -1    0    0    0    0  0.00000000000E+00  0.00000000000E+00  0.45593999997E+02  0.45594000000E+02  0.51100000000E-03 0.  1.
         11   -1    0    0    0    0 -0.00000000000E+00 -0.00000000000E+00 -0.45593999997E+02  0.45594000000E+02  0.51100000000E-03 0. -1.
    9900012    2    1    2    0    0 -0.83770453724E+01 -0.23076600336E+02 -0.32410810133E+02  0.50528868360E+02  0.30000025866E+02 0.  0.
        -12    1    1    2    0    0  0.83770453724E+01  0.23076600336E+02  0.32410810133E+02  0.40659131640E+02  0.00000000000E+00 0.  1.
         11    1    3    3    0    0 -0.79919783215E+01 -0.78577076714E+01 -0.14632188877E+02  0.18431392756E+02  0.51100000000E-03 0. -1.
        -11    1    3    3    0    0 -0.68223952525E+01  0.12187280200E+01 -0.11372644655E+02  0.13317936089E+02  0.51100000000E-03 0.  1.
        -12    1    3    3    0    0  0.64373282016E+01 -0.16437620685E+02 -0.64059766014E+01  0.18779539514E+02  0.00000000000E+00 0.  1.
</event>
<event>
 7    1  0.5855569E-013  0.5052886E+02  0.7816164E-02  0.1300439E+00
        -11   -1    0    0    0    0  0.00000000000E+00  0.00000000000E+00  0.45593999997E+02  0.45594000000E+02  0.51100000000E-03 0. -1.
         11   -1    0    0    0    0 -0.00000000000E+00 -0.00000000000E+00 -0.45593999997E+02  0.45594000000E+02  0.51100000000E-03 0.  1.
    9900012    2    1    2    0    0 -0.30210685433E+02 -0.11665593425E+02  0.24584420966E+02  0.50528864021E+02  0.30000012678E+02 0.  0.
        -12    1    1    2    0    0  0.30210685433E+02  0.11665593425E+02 -0.24584420966E+02  0.40659135979E+02  0.00000000000E+00 0.  1.
         11    1    3    3    0    0 -0.91956222896E+01  0.16590191942E+01 -0.27820467847E+01  0.97494409355E+01  0.51100000000E-03 0.  1.
        -11    1    3    3    0    0 -0.17357252277E+01 -0.89419619338E+01  0.14717371077E+02  0.17308160994E+02  0.51100000000E-03 0. -1.
         12    1    3    3    0    0 -0.19279337916E+02 -0.43826506858E+01  0.12649096674E+02  0.23471262092E+02  0.00000000000E+00 0. -1.
</event>
<event>
 7    1  0.5855569E-013  0.5052890E+02  0.7816164E-02  0.1300439E+00
        -11   -1    0    0    0    0  0.00000000000E+00  0.00000000000E+00  0.45593999997E+02  0.45594000000E+02  0.51100000000E-03 0.  1.
         11   -1    0    0    0    0 -0.00000000000E+00 -0.00000000000E+00 -0.45593999997E+02  0.45594000000E+02  0.51100000000E-03 0. -1.
    9900012    2    1    2    0    0  0.32513315903E+01 -0.32866958523E+01 -0.40395406180E+02  0.50528900561E+02  0.30000123746E+02 0.  0.
        -12    1    1    2    0    0 -0.32513315903E+01  0.32866958523E+01  0.40395406180E+02  0.40659099439E+02  0.00000000000E+00 0.  1.
         11    1    3    3    0    0  0.97096824064E+01  0.41690318640E+01 -0.13522500604E+02  0.17161491251E+02  0.51100000000E-03 0. -1.
        -11    1    3    3    0    0  0.18805719553E+01 -0.17815232177E-01  0.17943747090E+01  0.25993555199E+01  0.51100000000E-03 0.  1.
        -12    1    3    3    0    0 -0.83389227715E+01 -0.74379124841E+01 -0.28667280285E+02  0.30768053790E+02  0.00000000000E+00 0.  1.
</event>
<event>
 7    1  0.5855569E-013  0.5052886E+02  0.7816164E-02  0.1300439E+00
        -11   -1    0    0    0    0  0.00000000000E+00  0.00000000000E+00  0.45593999997E+02  0.45594000000E+02  0.51100000000E-03 0. -1.
         11   -1    0    0    0    0 -0.00000000000E+00 -0.00000000000E+00 -0.45593999997E+02  0.45594000000E+02  0.51100000000E-03 0.  1.
    9900012    2    1    2    0    0 -0.17861599259E+02 -0.36460061670E+02  0.21892832675E+01  0.50528858515E+02  0.29999995942E+02 0.  0.
        -12    1    1    2    0    0  0.17861599259E+02  0.36460061670E+02 -0.21892832675E+01  0.40659141485E+02  0.00000000000E+00 0.  1.
         11    1    3    3    0    0 -0.62910260185E+01 -0.19311890809E+02  0.67190580623E+01  0.21393267083E+02  0.51100000000E-03 0. -1.
        -11    1    3    3    0    0 -0.84676813971E+01 -0.21131385629E+02 -0.66056556963E+00  0.22774403043E+02  0.51100000000E-03 0.  1.
        -12    1    3    3    0    0 -0.31028918436E+01  0.39832147681E+01 -0.38692092251E+01  0.63611883882E+01  0.00000000000E+00 0.  1.
</event>
<event>
 7    1  0.5855569E-013  0.5052886E+02  0.7816164E-02  0.1300439E+00
        -11   -1    0    0    0    0  0.00000000000E+00  0.00000000000E+00  0.45593999997E+02  0.45594000000E+02  0.51100000000E-03 0.  1.
         11   -1    0    0    0    0 -0.00000000000E+00 -0.00000000000E+00 -0.45593999997E+02  0.45594000000E+02  0.51100000000E-03 0. -1.
    9900012    2    1    2    0    0  0.38902581235E+01 -0.20276613806E+02 -0.35026993918E+02  0.50528862298E+02  0.30000007441E+02 0.  0.
        -12    1    1    2    0    0 -0.38902581235E+01  0.20276613806E+02  0.35026993918E+02  0.40659137702E+02  0.00000000000E+00 0.  1.
         11    1    3    3    0    0  0.33262284607E+01 -0.16589306089E+01 -0.13470643592E+02  0.13974050436E+02  0.51100000000E-03 0.  1.
        -11    1    3    3    0    0 -0.17073572107E+01 -0.57368106763E+01 -0.22651948382E+02  0.23429400998E+02  0.51100000000E-03 0. -1.
        -12    1    3    3    0    0  0.22713868735E+01 -0.12880872521E+02  0.10955980561E+01  0.13125410863E+02  0.00000000000E+00 0.  1.
</event>
<event>
 7    1  0.5855569E-013  0.5052886E+02  0.7816164E-02  0.1300439E+00
        -11   -1    0    0    0    0  0.00000000000E+00  0.00000000000E+00  0.45593999997E+02  0.45594000000E+02  0.51100000000E-03 0.  1.
         11   -1    0    0    0    0 -0.00000000000E+00 -0.00000000000E+00 -0.45593999997E+02  0.45594000000E+02  0.51100000000E-03 0. -1.
    9900012    2    1    2    0    0  0.20106526461E+01  0.24820875704E+02 -0.32141051674E+02  0.50528858377E+02  0.29999995524E+02 0.  0.
        -12    1    1    2    0    0 -0.20106526461E+01 -0.24820875704E+02  0.32141051674E+02  0.40659141623E+02  0.00000000000E+00 0.  1.
         11    1    3    3    0    0 -0.54781725184E+00  0.11958438026E+02 -0.96783148744E+01  0.15393963844E+02  0.51100000000E-03 0. -1.
        -11    1    3    3    0    0  0.40774733687E+01  0.17622116373E+02 -0.78976216644E+01  0.19736696855E+02  0.51100000000E-03 0.  1.
         12    1    3    3    0    0 -0.15190034708E+01 -0.47596786953E+01 -0.14565115135E+02  0.15398197678E+02  0.00000000000E+00 0. -1.
</event>
<event>
 7    1  0.5855569E-013  0.5052886E+02  0.7816164E-02  0.1300439E+00
        -11   -1    0    0    0    0  0.00000000000E+00  0.00000000000E+00  0.45593999997E+02  0.45594000000E+02  0.51100000000E-03 0.  1.
         11   -1    0    0    0    0 -0.00000000000E+00 -0.00000000000E+00 -0.45593999997E+02  0.45594000000E+02  0.51100000000E-03 0. -1.
    9900012    2    1    2    0    0 -0.30219818465E+01  0.33747461377E+02 -0.22475371906E+02  0.50528857535E+02  0.29999992965E+02 0.  0.
        -12    1    1    2    0    0  0.30219818465E+01 -0.33747461377E+02  0.22475371906E+02  0.40659142465E+02  0.00000000000E+00 0.  1.
         11    1    3    3    0    0  0.30333804787E+01 -0.37109751529E+01  0.85716794519E+00  0.48690318197E+01  0.51100000000E-03 0.  1.
        -11    1    3    3    0    0 -0.81138623923E+01  0.19013155161E+02 -0.11638605637E+02  0.23723236996E+02  0.51100000000E-03 0. -1.
        -12    1    3    3    0    0  0.20585000672E+01  0.18445281368E+02 -0.11693934213E+02  0.21936588720E+02  0.00000000000E+00 0.  1.
</event>
<event>
 7    1  0.5855569E-013  0.5052886E+02  0.7816164E-02  0.1300439E+00
        -11   -1    0    0    0    0  0.00000000000E+00  0.00000000000E+00  0.45593999997E+02  0.45594000000E+02  0.51100000000E-03 0.  1.
         11   -1    0    0    0    0 -0.00000000000E+00 -0.00000000000E+00 -0.45593999997E+02  0.45594000000E+02  0.51100000000E-03 0. -1.
    9900012    2    1    2    0    0  0.11975802003E+02  0.35837040695E+02 -0.15015083657E+02  0.50528855190E+02  0.29999985837E+02 0.  0.
        -12    1    1    2    0    0 -0.11975802003E+02 -0.35837040695E+02  0.15015083657E+02  0.40659144810E+02  0.00000000000E+00 0.  1.
         11    1    3    3    0    0 -0.85913599872E+01  0.33823454235E+01 -0.48550410347E+01  0.10431833526E+02  0.51100000000E-03 0.  1.
        -11    1    3    3    0    0  0.10800138328E+02  0.20043417671E+02 -0.81184815060E+01  0.24172118692E+02  0.51100000000E-03 0. -1.
        -12    1    3    3    0    0  0.97670236624E+01  0.12411277601E+02 -0.20415611165E+01  0.15924902973E+02  0.00000000000E+00 0.  1.
</event>
<event>
 7    1  0.5855569E-013  0.5052888E+02  0.7816164E-02  0.1300439E+00
        -11   -1    0    0    0    0  0.00000000000E+00  0.00000000000E+00  0.45593999997E+02  0.45594000000E+02  0.51100000000E-03 0.  1.
         11   -1    0    0    0    0 -0.00000000000E+00 -0.00000000000E+00 -0.45593999997E+02  0.45594000000E+02  0.51100000000E-03 0. -1.
    9900012    2    1    2    0    0 -0.14292507750E+02 -0.33442251082E+02 -0.18179781535E+02  0.50528875663E+02  0.30000048064E+02 0.  0.
        -12    1    1    2    0    0  0.14292507750E+02  0.33442251082E+02  0.18179781535E+02  0.40659124337E+02  0.00000000000E+00 0.  1.
         11    1    3    3    0    0 -0.62972033894E+01  0.22088440661E+01 -0.56623445394E+01  0.87519088535E+01  0.51100000000E-03 0. -1.
        -11    1    3    3    0    0 -0.20688665524E+01 -0.45453807978E+01 -0.84991152435E+01  0.98577713299E+01  0.51100000000E-03 0.  1.
        -12    1    3    3    0    0 -0.59264378084E+01 -0.31105714350E+02 -0.40183217522E+01  0.31919195479E+02  0.00000000000E+00 0.  1.
</event>
<event>
 7    1  0.5855569E-013  0.5052885E+02  0.7816164E-02  0.1300439E+00
        -11   -1    0    0    0    0  0.00000000000E+00  0.00000000000E+00  0.45593999997E+02  0.45594000000E+02  0.51100000000E-03 0. -1.
         11   -1    0    0    0    0 -0.00000000000E+00 -0.00000000000E+00 -0.45593999997E+02  0.45594000000E+02  0.51100000000E-03 0.  1.
    9900012    2    1    2    0    0 -0.38731004780E+02 -0.94788801878E+01  0.79515015014E+01  0.50528852480E+02  0.29999977599E+02 0.  0.
        -12    1    1    2    0    0  0.38731004780E+02  0.94788801878E+01 -0.79515015014E+01  0.40659147520E+02  0.00000000000E+00 0.  1.
         11    1    3    3    0    0 -0.30377055856E+02 -0.98222744472E+01  0.95855267785E+01  0.33333540492E+02  0.51100000000E-03 0. -1.
        -11    1    3    3    0    0 -0.74787797720E+01 -0.57363063864E+01 -0.44679399108E+01  0.10430716425E+02  0.51100000000E-03 0.  1.
        -12    1    3    3    0    0 -0.87516915169E+00  0.60797006458E+01  0.28339146337E+01  0.67645955635E+01  0.00000000000E+00 0.  1.
</event>
<event>
 7    1  0.5855569E-013  0.5052886E+02  0.7816164E-02  0.1300439E+00
        -11   -1    0    0    0    0  0.00000000000E+00  0.00000000000E+00  0.45593999997E+02  0.45594000000E+02  0.51100000000E-03 0. -1.
         11   -1    0    0    0    0 -0.00000000000E+00 -0.00000000000E+00 -0.45593999997E+02  0.45594000000E+02  0.51100000000E-03 0.  1.
    9900012    2    1    2    0    0  0.10541820317E+01 -0.26174290246E+02  0.31095994552E+02  0.50528860230E+02  0.30000001157E+02 0.  0.
        -12    1    1    2    0    0 -0.10541820317E+01  0.26174290246E+02 -0.31095994552E+02  0.40659139770E+02  0.00000000000E+00 0.  1.
         11    1    3    3    0    0 -0.11497896941E+01 -0.12586383703E+02  0.68704217523E+01  0.14385470669E+02  0.51100000000E-03 0. -1.
        -11    1    3    3    0    0  0.91287391072E+00 -0.18176335085E+02  0.25387882508E+02  0.31237110532E+02  0.51100000000E-03 0.  1.
        -12    1    3    3    0    0  0.12910978150E+01  0.45884285420E+01 -0.11623097085E+01  0.49062790291E+01  0.00000000000E+00 0.  1.
</event>
<event>
 7    1  0.5855569E-013  0.5052885E+02  0.7816164E-02  0.1300439E+00
        -11   -1    0    0    0    0  0.00000000000E+00  0.00000000000E+00  0.45593999997E+02  0.45594000000E+02  0.51100000000E-03 0. -1.
         11   -1    0    0    0    0 -0.00000000000E+00 -0.00000000000E+00 -0.45593999997E+02  0.45594000000E+02  0.51100000000E-03 0.  1.
    9900012    2    1    2    0    0 -0.14882143486E+02 -0.15074581291E+02  0.34705124091E+02  0.50528845630E+02  0.29999956778E+02 0.  0.
        -12    1    1    2    0    0  0.14882143486E+02  0.15074581291E+02 -0.34705124091E+02  0.40659154370E+02  0.00000000000E+00 0.  1.
         11    1    3    3    0    0 -0.37640876783E+01  0.61638662017E+01  0.12710379597E+02  0.14619006545E+02  0.51100000000E-03 0. -1.
        -11    1    3    3    0    0 -0.36129109591E+01  0.13235013022E+01  0.54325189277E+00  0.38858595156E+01  0.51100000000E-03 0.  1.
         12    1    3    3    0    0 -0.75051448489E+01 -0.22561948795E+02  0.21451492602E+02  0.32023979570E+02  0.00000000000E+00 0. -1.
</event>
<event>
 7    1  0.5855569E-013  0.5052889E+02  0.7816164E-02  0.1300439E+00
        -11   -1    0    0    0    0  0.00000000000E+00  0.00000000000E+00  0.45593999997E+02  0.45594000000E+02  0.51100000000E-03 0. -1.
         11   -1    0    0    0    0 -0.00000000000E+00 -0.00000000000E+00 -0.45593999997E+02  0.45594000000E+02  0.51100000000E-03 0.  1.
    9900012    2    1    2    0    0 -0.38886032584E+02 -0.26857719049E+01  0.11568331198E+02  0.50528890472E+02  0.30000093080E+02 0.  0.
        -12    1    1    2    0    0  0.38886032584E+02  0.26857719049E+01 -0.11568331198E+02  0.40659109528E+02  0.00000000000E+00 0.  1.
         11    1    3    3    0    0 -0.16936107967E+01  0.70392546577E+01 -0.34320114811E+01  0.80123733521E+01  0.51100000000E-03 0. -1.
        -11    1    3    3    0    0 -0.57578310849E+01 -0.15801471590E+01 -0.14069042740E+01  0.61342370140E+01  0.51100000000E-03 0.  1.
        -12    1    3    3    0    0 -0.31434590703E+02 -0.81448794035E+01  0.16407246953E+02  0.36382280106E+02  0.00000000000E+00 0.  1.
</event>
<event>
 7    1  0.5855569E-013  0.5052892E+02  0.7816164E-02  0.1300439E+00
        -11   -1    0    0    0    0  0.00000000000E+00  0.00000000000E+00  0.45593999997E+02  0.45594000000E+02  0.51100000000E-03 0. -1.
         11   -1    0    0    0    0 -0.00000000000E+00 -0.00000000000E+00 -0.45593999997E+02  0.45594000000E+02  0.51100000000E-03 0.  1.
    9900012    2    1    2    0    0  0.17308920822E+02  0.23643841891E+01  0.36714738410E+02  0.50528916524E+02  0.30000172264E+02 0.  0.
        -12    1    1    2    0    0 -0.17308920822E+02 -0.23643841891E+01 -0.36714738410E+02  0.40659083476E+02  0.00000000000E+00 0.  1.
         11    1    3    3    0    0  0.47455051080E+01  0.15564748265E+01  0.55895902227E+01  0.74957288995E+01  0.51100000000E-03 0. -1.
        -11    1    3    3    0    0  0.13367476674E+02 -0.80425727968E+01  0.30334803319E+02  0.34111181488E+02  0.51100000000E-03 0.  1.
        -12    1    3    3    0    0 -0.80406096065E+00  0.88504821593E+01  0.79034486837E+00  0.89220061360E+01  0.00000000000E+00 0.  1.
</event>
<event>
 7    1  0.5855569E-013  0.5052887E+02  0.7816164E-02  0.1300439E+00
        -11   -1    0    0    0    0  0.00000000000E+00  0.00000000000E+00  0.45593999997E+02  0.45594000000E+02  0.51100000000E-03 0. -1.
         11   -1    0    0    0    0 -0.00000000000E+00 -0.00000000000E+00 -0.45593999997E+02  0.45594000000E+02  0.51100000000E-03 0.  1.
    9900012    2    1    2    0    0  0.38252248326E+02  0.13526294598E+02  0.26400309334E+01  0.50528869280E+02  0.30000028664E+02 0.  0.
        -12    1    1    2    0    0 -0.38252248326E+02 -0.13526294598E+02 -0.26400309334E+01  0.40659130720E+02  0.00000000000E+00 0.  1.
         11    1    3    3    0    0  0.58061322497E+01  0.38546942758E+01 -0.23449360479E+01  0.73531330051E+01  0.51100000000E-03 0. -1.
        -11    1    3    3    0    0  0.16189877171E+02 -0.47039017633E+01 -0.71496380048E+01  0.18312731595E+02  0.51100000000E-03 0.  1.
         12    1    3    3    0    0  0.16256238906E+02  0.14375502085E+02  0.12134604986E+02  0.24863004680E+02  0.00000000000E+00 0. -1.
</event>
<event>
 7    1  0.5855569E-013  0.5052886E+02  0.7816164E-02  0.1300439E+00
        -11   -1    0    0    0    0  0.00000000000E+00  0.00000000000E+00  0.45593999997E+02  0.45594000000E+02  0.51100000000E-03 0.  1.
         11   -1    0    0    0    0 -0.00000000000E+00 -0.00000000000E+00 -0.45593999997E+02  0.45594000000E+02  0.51100000000E-03 0. -1.
    9900012    2    1    2    0    0 -0.82661364488E+01 -0.39804967836E+02  0.63319784925E+00  0.50528863072E+02  0.30000009792E+02 0.  0.
        -12    1    1    2    0    0  0.82661364488E+01  0.39804967836E+02 -0.63319784925E+00  0.40659136928E+02  0.00000000000E+00 0.  1.
         11    1    3    3    0    0 -0.55817097835E+01 -0.24938536319E+02 -0.36145500473E+01  0.25809902173E+02  0.51100000000E-03 0. -1.
        -11    1    3    3    0    0 -0.52981380565E+01 -0.18670695335E+02  0.17912274789E+01  0.19490347029E+02  0.51100000000E-03 0.  1.
        -12    1    3    3    0    0  0.26137113913E+01  0.38042638183E+01  0.24565204177E+01  0.52286138697E+01  0.00000000000E+00 0.  1.
</event>
<event>
 7    1  0.5855569E-013  0.5052886E+02  0.7816164E-02  0.1300439E+00
        -11   -1    0    0    0    0  0.00000000000E+00  0.00000000000E+00  0.45593999997E+02  0.45594000000E+02  0.51100000000E-03 0.  1.
         11   -1    0    0    0    0 -0.00000000000E+00 -0.00000000000E+00 -0.45593999997E+02  0.45594000000E+02  0.51100000000E-03 0. -1.
    9900012    2    1    2    0    0  0.11592060722E+02  0.26906110350E+02 -0.28193106917E+02  0.50528856827E+02  0.29999990810E+02 0.  0.
        -12    1    1    2    0    0 -0.11592060722E+02 -0.26906110350E+02  0.28193106917E+02  0.40659143173E+02  0.00000000000E+00 0.  1.
         11    1    3    3    0    0  0.15112767653E+02  0.16327248531E+02 -0.20167694638E+02  0.30028498098E+02  0.51100000000E-03 0.  1.
        -11    1    3    3    0    0 -0.20031004367E+01  0.13691065947E+02 -0.26224855694E+01  0.14083150533E+02  0.51100000000E-03 0. -1.
        -12    1    3    3    0    0 -0.15176064942E+01 -0.31122041273E+01 -0.54029267094E+01  0.64172081958E+01  0.00000000000E+00 0.  1.
</event>
<event>
 7    1  0.5855569E-013  0.5052888E+02  0.7816164E-02  0.1300439E+00
        -11   -1    0    0    0    0  0.00000000000E+00  0.00000000000E+00  0.45593999997E+02  0.45594000000E+02  0.51100000000E-03 0. -1.
         11   -1    0    0    0    0 -0.00000000000E+00 -0.00000000000E+00 -0.45593999997E+02  0.45594000000E+02  0.51100000000E-03 0.  1.
    9900012    2    1    2    0    0  0.14911339335E+02  0.21251889449E+02  0.31291742022E+02  0.50528880917E+02  0.30000064034E+02 0.  0.
        -12    1    1    2    0    0 -0.14911339335E+02 -0.21251889449E+02 -0.31291742022E+02  0.40659119083E+02  0.00000000000E+00 0.  1.
         11    1    3    3    0    0  0.12869510124E+01  0.97941984960E+01  0.96209086456E+01  0.13789287527E+02  0.51100000000E-03 0. -1.
        -11    1    3    3    0    0 -0.29270104417E+01  0.12459385993E+02  0.69370200216E+01  0.14557676205E+02  0.51100000000E-03 0.  1.
        -12    1    3    3    0    0  0.16551398764E+02 -0.10016950406E+01  0.14733813354E+02  0.22181917184E+02  0.00000000000E+00 0.  1.
</event>
<event>
 7    1  0.5855569E-013  0.5052886E+02  0.7816164E-02  0.1300439E+00
        -11   -1    0    0    0    0  0.00000000000E+00  0.00000000000E+00  0.45593999997E+02  0.45594000000E+02  0.51100000000E-03 0. -1.
         11   -1    0    0    0    0 -0.00000000000E+00 -0.00000000000E+00 -0.45593999997E+02  0.45594000000E+02  0.51100000000E-03 0.  1.
    9900012    2    1    2    0    0  0.25196311648E+02 -0.28770337901E+02  0.13805054407E+02  0.50528856000E+02  0.29999988299E+02 0.  0.
        -12    1    1    2    0    0 -0.25196311648E+02  0.28770337901E+02 -0.13805054407E+02  0.40659144000E+02  0.00000000000E+00 0.  1.
         11    1    3    3    0    0  0.10492297996E+02 -0.82123135578E+01  0.11299046518E+01  0.13371877055E+02  0.51100000000E-03 0.  1.
        -11    1    3    3    0    0  0.19695015359E+02 -0.18077997668E+02  0.15506662957E+02  0.30905731281E+02  0.51100000000E-03 0. -1.
         12    1    3    3    0    0 -0.49910017065E+01 -0.24800266752E+01 -0.28315132022E+01  0.62512476641E+01  0.00000000000E+00 0. -1.
</event>
<event>
 7    1  0.5855569E-013  0.5052884E+02  0.7816164E-02  0.1300439E+00
        -11   -1    0    0    0    0  0.00000000000E+00  0.00000000000E+00  0.45593999997E+02  0.45594000000E+02  0.51100000000E-03 0.  1.
         11   -1    0    0    0    0 -0.00000000000E+00 -0.00000000000E+00 -0.45593999997E+02  0.45594000000E+02  0.51100000000E-03 0. -1.
    9900012    2    1    2    0    0 -0.32660399377E+02 -0.43926852623E+01 -0.23815323065E+02  0.50528843787E+02  0.29999951175E+02 0.  0.
        -12    1    1    2    0    0  0.32660399377E+02  0.43926852623E+01  0.23815323065E+02  0.40659156213E+02  0.00000000000E+00 0.  1.
         11    1    3    3    0    0 -0.52644822154E+01  0.13233567611E+01 -0.64191885859E+00  0.54660869180E+01  0.51100000000E-03 0. -1.
        -11    1    3    3    0    0 -0.10144574615E+02  0.48889485634E+00  0.51005616306E+01  0.11365172305E+02  0.51100000000E-03 0.  1.
         12    1    3    3    0    0 -0.17251342546E+02 -0.62049368797E+01 -0.28273965837E+02  0.33697584564E+02  0.00000000000E+00 0. -1.
</event>
<event>
 7    1  0.5855569E-013  0.5052881E+02  0.7816164E-02  0.1300439E+00
        -11   -1    0    0    0    0  0.00000000000E+00  0.00000000000E+00  0.45593999997E+02  0.45594000000E+02  0.51100000000E-03 0.  1.
         11   -1    0    0    0    0 -0.00000000000E+00 -0.00000000000E+00 -0.45593999997E+02  0.45594000000E+02  0.51100000000E-03 0. -1.
    9900012    2    1    2    0    0  0.10061790027E+01 -0.38262161313E+02 -0.13717291930E+02  0.50528813062E+02  0.29999857783E+02 0.  0.
        -12    1    1    2    0    0 -0.10061790027E+01  0.38262161313E+02  0.13717291930E+02  0.40659186938E+02  0.00000000000E+00 0.  1.
         11    1    3    3    0    0 -0.11001496425E+01  0.59504533448E+00  0.89017588782E+00  0.15351943064E+01  0.51100000000E-03 0. -1.
        -11    1    3    3    0    0  0.45410743695E+01 -0.86369430074E+01  0.67875366192E+01  0.11886496311E+02  0.51100000000E-03 0.  1.
         12    1    3    3    0    0 -0.24347457243E+01 -0.30220263640E+02 -0.21395004437E+02  0.37107122444E+02  0.00000000000E+00 0. -1.
</event>
<event>
 7    1  0.5855569E-013  0.5052882E+02  0.7816164E-02  0.1300439E+00
        -11   -1    0    0    0    0  0.00000000000E+00  0.00000000000E+00  0.45593999997E+02  0.45594000000E+02  0.51100000000E-03 0.  1.
         11   -1    0    0    0    0 -0.00000000000E+00 -0.00000000000E+00 -0.45593999997E+02  0.45594000000E+02  0.51100000000E-03 0. -1.
    9900012    2    1    2    0    0  0.19476607684E+02 -0.12914883938E+02 -0.33272162452E+02  0.50528815697E+02  0.29999865791E+02 0.  0.
        -12    1    1    2    0    0 -0.19476607684E+02  0.12914883938E+02  0.33272162452E+02  0.40659184303E+02  0.00000000000E+00 0.  1.
         11    1    3    3    0    0  0.14106492925E+02 -0.17562259013E+02 -0.12687772061E+02  0.25853542203E+02  0.51100000000E-03 0. -1.
        -11    1    3    3    0    0  0.67177847830E+01 -0.15968601433E+01 -0.80405981147E+01  0.10598575990E+02  0.51100000000E-03 0.  1.
         12    1    3    3    0    0 -0.13476700239E+01  0.62442352190E+01 -0.12543792276E+02  0.14076697504E+02  0.00000000000E+00 0. -1.
</event>
<event>
 7    1  0.5855569E-013  0.5052877E+02  0.7816164E-02  0.1300439E+00
        -11   -1    0    0    0    0  0.00000000000E+00  0.00000000000E+00  0.45593999997E+02  0.45594000000E+02  0.51100000000E-03 0. -1.
         11   -1    0    0    0    0 -0.00000000000E+00 -0.00000000000E+00 -0.45593999997E+02  0.45594000000E+02  0.51100000000E-03 0.  1.
    9900012    2    1    2    0    0  0.33053659604E+02 -0.69059682608E+01  0.22648095688E+02  0.50528769202E+02  0.29999724464E+02 0.  0.
        -12    1    1    2    0    0 -0.33053659604E+02  0.69059682608E+01 -0.22648095688E+02  0.40659230798E+02  0.00000000000E+00 0.  1.
         11    1    3    3    0    0  0.15559956853E+02  0.27762866114E+01  0.78376355352E+01  0.17642237830E+02  0.51100000000E-03 0. -1.
        -11    1    3    3    0    0  0.90215798143E+01  0.64375660250E+01  0.67071276285E+01  0.12954409286E+02  0.51100000000E-03 0.  1.
         12    1    3    3    0    0  0.84721229365E+01 -0.16119820897E+02  0.81033325243E+01  0.19932122085E+02  0.00000000000E+00 0. -1.
</event>
<event>
 7    1  0.5855569E-013  0.5052886E+02  0.7816164E-02  0.1300439E+00
        -11   -1    0    0    0    0  0.00000000000E+00  0.00000000000E+00  0.45593999997E+02  0.45594000000E+02  0.51100000000E-03 0.  1.
         11   -1    0    0    0    0 -0.00000000000E+00 -0.00000000000E+00 -0.45593999997E+02  0.45594000000E+02  0.51100000000E-03 0. -1.
    9900012    2    1    2    0    0 -0.26675349155E+02  0.27888181815E+02 -0.12800019296E+02  0.50528862878E+02  0.30000009205E+02 0.  0.
        -12    1    1    2    0    0  0.26675349155E+02 -0.27888181815E+02  0.12800019296E+02  0.40659137122E+02  0.00000000000E+00 0.  1.
         11    1    3    3    0    0 -0.20776406113E+02  0.15175693709E+02 -0.88763524267E+01  0.27216729473E+02  0.51100000000E-03 0. -1.
        -11    1    3    3    0    0 -0.93336213886E+00  0.42247354755E+01  0.72405011851E+01  0.84347147191E+01  0.51100000000E-03 0.  1.
         12    1    3    3    0    0 -0.49655809027E+01  0.84877526301E+01 -0.11164168055E+02  0.14877418686E+02  0.00000000000E+00 0. -1.
</event>
<event>
 7    1  0.5855569E-013  0.5052886E+02  0.7816164E-02  0.1300439E+00
        -11   -1    0    0    0    0  0.00000000000E+00  0.00000000000E+00  0.45593999997E+02  0.45594000000E+02  0.51100000000E-03 0. -1.
         11   -1    0    0    0    0 -0.00000000000E+00 -0.00000000000E+00 -0.45593999997E+02  0.45594000000E+02  0.51100000000E-03 0.  1.
    9900012    2    1    2    0    0 -0.40460667060E+02 -0.30307864321E+01  0.26294768259E+01  0.50528863343E+02  0.30000010618E+02 0.  0.
        -12    1    1    2    0    0  0.40460667060E+02  0.30307864321E+01 -0.26294768259E+01  0.40659136657E+02  0.00000000000E+00 0.  1.
         11    1    3    3    0    0 -0.16452464121E+02  0.86246461270E+00 -0.57043136388E+01  0.17434638373E+02  0.51100000000E-03 0. -1.
        -11    1    3    3    0    0  0.24421291389E+01  0.32241485162E+01 -0.98211907924E+00  0.41621732944E+01  0.51100000000E-03 0.  1.
         12    1    3    3    0    0 -0.26450332078E+02 -0.71173995610E+01  0.93159095439E+01  0.28932051676E+02  0.00000000000E+00 0. -1.
</event>
<event>
 7    1  0.5855569E-013  0.5052884E+02  0.7816164E-02  0.1300439E+00
        -11   -1    0    0    0    0  0.00000000000E+00  0.00000000000E+00  0.45593999997E+02  0.45594000000E+02  0.51100000000E-03 0.  1.
         11   -1    0    0    0    0 -0.00000000000E+00 -0.00000000000E+00 -0.45593999997E+02  0.45594000000E+02  0.51100000000E-03 0. -1.
    9900012    2    1    2    0    0 -0.35059578803E+02 -0.64594953804E+01 -0.19551674321E+02  0.50528842173E+02  0.29999946269E+02 0.  0.
        -12    1    1    2    0    0  0.35059578803E+02  0.64594953804E+01  0.19551674321E+02  0.40659157827E+02  0.00000000000E+00 0.  1.
         11    1    3    3    0    0 -0.73132381971E+01  0.17127295906E+01 -0.11591223638E+02  0.13812073025E+02  0.51100000000E-03 0. -1.
        -11    1    3    3    0    0  0.16837978549E+01  0.34924394729E+01 -0.24413963627E+01  0.45817818749E+01  0.51100000000E-03 0.  1.
        -12    1    3    3    0    0 -0.29430138461E+02 -0.11664664444E+02 -0.55190543211E+01  0.32134987273E+02  0.00000000000E+00 0.  1.
</event>
<event>
 7    1  0.5855569E-013  0.5052892E+02  0.7816164E-02  0.1300439E+00
        -11   -1    0    0    0    0  0.00000000000E+00  0.00000000000E+00  0.45593999997E+02  0.45594000000E+02  0.51100000000E-03 0.  1.
         11   -1    0    0    0    0 -0.00000000000E+00 -0.00000000000E+00 -0.45593999997E+02  0.45594000000E+02  0.51100000000E-03 0. -1.
    9900012    2    1    2    0    0 -0.24725832564E+02  0.13400231967E+02 -0.29363720105E+02  0.50528916499E+02  0.30000172190E+02 0.  0.
        -12    1    1    2    0    0  0.24725832564E+02 -0.13400231967E+02  0.29363720105E+02  0.40659083501E+02  0.00000000000E+00 0.  1.
         11    1    3    3    0    0 -0.10511970646E+02 -0.46414040394E+01 -0.73403043829E+01  0.13635403442E+02  0.51100000000E-03 0. -1.
        -11    1    3    3    0    0 -0.14553507322E+02  0.42162480880E+01 -0.77488394027E+01  0.17018396977E+02  0.51100000000E-03 0.  1.
        -12    1    3    3    0    0  0.33964540485E+00  0.13825387919E+02 -0.14274576319E+02  0.19875116080E+02  0.00000000000E+00 0.  1.
</event>
<event>
 7    1  0.5855569E-013  0.5052886E+02  0.7816164E-02  0.1300439E+00
        -11   -1    0    0    0    0  0.00000000000E+00  0.00000000000E+00  0.45593999997E+02  0.45594000000E+02  0.51100000000E-03 0. -1.
         11   -1    0    0    0    0 -0.00000000000E+00 -0.00000000000E+00 -0.45593999997E+02  0.45594000000E+02  0.51100000000E-03 0.  1.
    9900012    2    1    2    0    0  0.66249860826E+01 -0.40114699916E+02  0.29407157195E+00  0.50528855051E+02  0.29999985413E+02 0.  0.
        -12    1    1    2    0    0 -0.66249860826E+01  0.40114699916E+02 -0.29407157195E+00  0.40659144949E+02  0.00000000000E+00 0.  1.
         11    1    3    3    0    0  0.19722235093E+01 -0.26494711230E+01  0.22572064266E+01  0.40005429526E+01  0.51100000000E-03 0. -1.
        -11    1    3    3    0    0  0.29052645085E+01 -0.40687464891E+02  0.23612884668E+01  0.40859344642E+02  0.51100000000E-03 0.  1.
        -12    1    3    3    0    0  0.17474980648E+01  0.32222360979E+01 -0.43244233215E+01  0.56689674563E+01  0.00000000000E+00 0.  1.
</event>
<event>
 7    1  0.5855569E-013  0.5052886E+02  0.7816164E-02  0.1300439E+00
        -11   -1    0    0    0    0  0.00000000000E+00  0.00000000000E+00  0.45593999997E+02  0.45594000000E+02  0.51100000000E-03 0.  1.
         11   -1    0    0    0    0 -0.00000000000E+00 -0.00000000000E+00 -0.45593999997E+02  0.45594000000E+02  0.51100000000E-03 0. -1.
    9900012    2    1    2    0    0  0.14353365272E+02  0.18926566658E+02 -0.32998959513E+02  0.50528863892E+02  0.30000012287E+02 0.  0.
        -12    1    1    2    0    0 -0.14353365272E+02 -0.18926566658E+02  0.32998959513E+02  0.40659136108E+02  0.00000000000E+00 0.  1.
         11    1    3    3    0    0  0.74868364582E+01  0.89817193296E+01 -0.12832054255E+01  0.11763104127E+02  0.51100000000E-03 0. -1.
        -11    1    3    3    0    0 -0.30843735773E+01 -0.21398273545E+01 -0.42543376157E+00  0.37779909500E+01  0.51100000000E-03 0.  1.
         12    1    3    3    0    0  0.99509023913E+01  0.12084674683E+02 -0.31290320326E+02  0.34987768816E+02  0.00000000000E+00 0. -1.
</event>
<event>
 7    1  0.5855569E-013  0.5052886E+02  0.7816164E-02  0.1300439E+00
        -11   -1    0    0    0    0  0.00000000000E+00  0.00000000000E+00  0.45593999997E+02  0.45594000000E+02  0.51100000000E-03 0. -1.
         11   -1    0    0    0    0 -0.00000000000E+00 -0.00000000000E+00 -0.45593999997E+02  0.45594000000E+02  0.51100000000E-03 0.  1.
    9900012    2    1    2    0    0  0.27893371191E+02  0.43986536375E+01 -0.29253673391E+02  0.50528859367E+02  0.29999998531E+02 0.  0.
        -12    1    1    2    0    0 -0.27893371191E+02 -0.43986536375E+01  0.29253673391E+02  0.40659140633E+02  0.00000000000E+00 0.  1.
         11    1    3    3    0    0  0.14378206670E+02 -0.93087840619E+01 -0.11151130322E+02  0.20438541912E+02  0.51100000000E-03 0. -1.
        -11    1    3    3    0    0  0.11101081332E+02  0.46340890068E+01 -0.31511782221E+01  0.12435381462E+02  0.51100000000E-03 0.  1.
        -12    1    3    3    0    0  0.24140831891E+01  0.90733486925E+01 -0.14951364847E+02  0.17654935993E+02  0.00000000000E+00 0.  1.
</event>
<event>
 7    1  0.5855569E-013  0.5052890E+02  0.7816164E-02  0.1300439E+00
        -11   -1    0    0    0    0  0.00000000000E+00  0.00000000000E+00  0.45593999997E+02  0.45594000000E+02  0.51100000000E-03 0. -1.
         11   -1    0    0    0    0 -0.00000000000E+00 -0.00000000000E+00 -0.45593999997E+02  0.45594000000E+02  0.51100000000E-03 0.  1.
    9900012    2    1    2    0    0 -0.10765314913E+01  0.40100500900E+02 -0.66297401771E+01  0.50528898346E+02  0.30000117013E+02 0.  0.
        -12    1    1    2    0    0  0.10765314913E+01 -0.40100500900E+02  0.66297401771E+01  0.40659101654E+02  0.00000000000E+00 0.  1.
         11    1    3    3    0    0 -0.37978120401E+01  0.54755717855E+01 -0.92572898781E+01  0.11406256126E+02  0.51100000000E-03 0. -1.
        -11    1    3    3    0    0  0.58835354982E+01  0.15985379897E+02 -0.63687929498E+01  0.18185430550E+02  0.51100000000E-03 0.  1.
         12    1    3    3    0    0 -0.31622549493E+01  0.18639549218E+02  0.89963426509E+01  0.20937211670E+02  0.00000000000E+00 0. -1.
</event>
<event>
 7    1  0.5855569E-013  0.5052886E+02  0.7816164E-02  0.1300439E+00
        -11   -1    0    0    0    0  0.00000000000E+00  0.00000000000E+00  0.45593999997E+02  0.45594000000E+02  0.51100000000E-03 0. -1.
         11   -1    0    0    0    0 -0.00000000000E+00 -0.00000000000E+00 -0.45593999997E+02  0.45594000000E+02  0.51100000000E-03 0.  1.
    9900012    2    1    2    0    0 -0.21050370894E+02 -0.16495206586E+02  0.30626061044E+02  0.50528861173E+02  0.30000004021E+02 0.  0.
        -12    1    1    2    0    0  0.21050370894E+02  0.16495206586E+02 -0.30626061044E+02  0.40659138827E+02  0.00000000000E+00 0.  1.
         11    1    3    3    0    0 -0.91317287422E+01  0.29064169245E+01  0.55547868309E+01  0.11076614382E+02  0.51100000000E-03 0. -1.
        -11    1    3    3    0    0 -0.17845897319E+01 -0.75073687209E+01 -0.21977282849E+01  0.80234254217E+01  0.51100000000E-03 0.  1.
         12    1    3    3    0    0 -0.10134052420E+02 -0.11894254789E+02  0.27269002498E+02  0.31428821370E+02  0.00000000000E+00 0. -1.
</event>
<event>
 7    1  0.5855569E-013  0.5052886E+02  0.7816164E-02  0.1300439E+00
        -11   -1    0    0    0    0  0.00000000000E+00  0.00000000000E+00  0.45593999997E+02  0.45594000000E+02  0.51100000000E-03 0.  1.
         11   -1    0    0    0    0 -0.00000000000E+00 -0.00000000000E+00 -0.45593999997E+02  0.45594000000E+02  0.51100000000E-03 0. -1.
    9900012    2    1    2    0    0  0.19067707530E+02  0.67266756222E+01 -0.35275205573E+02  0.50528858794E+02  0.29999996789E+02 0.  0.
        -12    1    1    2    0    0 -0.19067707530E+02 -0.67266756222E+01  0.35275205573E+02  0.40659141206E+02  0.00000000000E+00 0.  1.
         11    1    3    3    0    0  0.60754720479E+01 -0.65840329007E+01 -0.10400177522E+02  0.13726781946E+02  0.51100000000E-03 0. -1.
        -11    1    3    3    0    0  0.26351050944E+01  0.30156676423E+01 -0.21425864544E+02  0.21796919551E+02  0.51100000000E-03 0.  1.
        -12    1    3    3    0    0  0.10357130388E+02  0.10295040881E+02 -0.34491635077E+01  0.15005157297E+02  0.00000000000E+00 0.  1.
</event>
<event>
 7    1  0.5855569E-013  0.5052886E+02  0.7816164E-02  0.1300439E+00
        -11   -1    0    0    0    0  0.00000000000E+00  0.00000000000E+00  0.45593999997E+02  0.45594000000E+02  0.51100000000E-03 0.  1.
         11   -1    0    0    0    0 -0.00000000000E+00 -0.00000000000E+00 -0.45593999997E+02  0.45594000000E+02  0.51100000000E-03 0. -1.
    9900012    2    1    2    0    0  0.28511608580E+02 -0.24629075995E+02 -0.15286021145E+02  0.50528860183E+02  0.30000001012E+02 0.  0.
        -12    1    1    2    0    0 -0.28511608580E+02  0.24629075995E+02  0.15286021145E+02  0.40659139817E+02  0.00000000000E+00 0.  1.
         11    1    3    3    0    0 -0.11953802369E+00 -0.30002600520E+01 -0.14209449741E+01  0.33218872045E+01  0.51100000000E-03 0. -1.
        -11    1    3    3    0    0 -0.28869339896E+01 -0.36582572284E+01 -0.96058052452E+01  0.10676550402E+02  0.51100000000E-03 0.  1.
        -12    1    3    3    0    0  0.31518080594E+02 -0.17970558715E+02 -0.42592709253E+01  0.36530422577E+02  0.00000000000E+00 0.  1.
</event>
<event>
 7    1  0.5855569E-013  0.5052887E+02  0.7816164E-02  0.1300439E+00
        -11   -1    0    0    0    0  0.00000000000E+00  0.00000000000E+00  0.45593999997E+02  0.45594000000E+02  0.51100000000E-03 0.  1.
         11   -1    0    0    0    0 -0.00000000000E+00 -0.00000000000E+00 -0.45593999997E+02  0.45594000000E+02  0.51100000000E-03 0. -1.
    9900012    2    1    2    0    0  0.16364755011E+02 -0.13183541846E+02 -0.34807376984E+02  0.50528874645E+02  0.30000044970E+02 0.  0.
        -12    1    1    2    0    0 -0.16364755011E+02  0.13183541846E+02  0.34807376984E+02  0.40659125355E+02  0.00000000000E+00 0.  1.
         11    1    3    3    0    0  0.14554338948E+02  0.13371903319E+00 -0.95005891778E+01  0.17381250185E+02  0.51100000000E-03 0. -1.
        -11    1    3    3    0    0  0.50439898142E+01 -0.82269320050E+01 -0.30988252673E+01  0.10135431010E+02  0.51100000000E-03 0.  1.
        -12    1    3    3    0    0 -0.32335737520E+01 -0.50903288741E+01 -0.22207962539E+02  0.23012193450E+02  0.00000000000E+00 0.  1.
</event>
<event>
 7    1  0.5855569E-013  0.5052887E+02  0.7816164E-02  0.1300439E+00
        -11   -1    0    0    0    0  0.00000000000E+00  0.00000000000E+00  0.45593999997E+02  0.45594000000E+02  0.51100000000E-03 0.  1.
         11   -1    0    0    0    0 -0.00000000000E+00 -0.00000000000E+00 -0.45593999997E+02  0.45594000000E+02  0.51100000000E-03 0. -1.
    9900012    2    1    2    0    0  0.29117308985E+02  0.42648295093E+01 -0.28056347748E+02  0.50528866927E+02  0.30000021512E+02 0.  0.
        -12    1    1    2    0    0 -0.29117308985E+02 -0.42648295093E+01  0.28056347748E+02  0.40659133073E+02  0.00000000000E+00 0.  1.
         11    1    3    3    0    0  0.28881874968E+02  0.81355995898E+01 -0.22532241339E+02  0.37524026735E+02  0.51100000000E-03 0. -1.
        -11    1    3    3    0    0  0.49433515520E+01  0.68728222102E+00 -0.11364302622E+01  0.51186478117E+01  0.51100000000E-03 0.  1.
        -12    1    3    3    0    0 -0.47079175351E+01 -0.45580523015E+01 -0.43876761468E+01  0.78861923810E+01  0.00000000000E+00 0.  1.
</event>
<event>
 7    1  0.5855569E-013  0.5052887E+02  0.7816164E-02  0.1300439E+00
        -11   -1    0    0    0    0  0.00000000000E+00  0.00000000000E+00  0.45593999997E+02  0.45594000000E+02  0.51100000000E-03 0.  1.
         11   -1    0    0    0    0 -0.00000000000E+00 -0.00000000000E+00 -0.45593999997E+02  0.45594000000E+02  0.51100000000E-03 0. -1.
    9900012    2    1    2    0    0  0.15569735641E+02 -0.34227360160E+02  0.15467262426E+02  0.50528867466E+02  0.30000023149E+02 0.  0.
        -12    1    1    2    0    0 -0.15569735641E+02  0.34227360160E+02 -0.15467262426E+02  0.40659132534E+02  0.00000000000E+00 0.  1.
         11    1    3    3    0    0 -0.22369552466E+01  0.53037045326E+00 -0.37355914890E+01  0.43863316822E+01  0.51100000000E-03 0. -1.
        -11    1    3    3    0    0  0.18678608892E+01  0.23719445860E+00  0.46681217567E+01  0.50335401567E+01  0.51100000000E-03 0.  1.
         12    1    3    3    0    0  0.15938829998E+02 -0.34994925072E+02  0.14534732158E+02  0.41108995627E+02  0.00000000000E+00 0. -1.
</event>
<event>
 7    1  0.5855569E-013  0.5052886E+02  0.7816164E-02  0.1300439E+00
        -11   -1    0    0    0    0  0.00000000000E+00  0.00000000000E+00  0.45593999997E+02  0.45594000000E+02  0.51100000000E-03 0.  1.
         11   -1    0    0    0    0 -0.00000000000E+00 -0.00000000000E+00 -0.45593999997E+02  0.45594000000E+02  0.51100000000E-03 0. -1.
    9900012    2    1    2    0    0  0.20043269653E+02 -0.71908823238E+01 -0.34637033898E+02  0.50528861246E+02  0.30000004244E+02 0.  0.
        -12    1    1    2    0    0 -0.20043269653E+02  0.71908823238E+01  0.34637033898E+02  0.40659138754E+02  0.00000000000E+00 0.  1.
         11    1    3    3    0    0  0.16277938015E+02  0.24676875873E+00 -0.13942278712E+02  0.21434068600E+02  0.51100000000E-03 0. -1.
        -11    1    3    3    0    0  0.21366778891E+01 -0.11512906459E+02 -0.48856940434E+01  0.12687884539E+02  0.51100000000E-03 0.  1.
         12    1    3    3    0    0  0.16286537490E+01  0.40752553764E+01 -0.15809061143E+02  0.16406908107E+02  0.00000000000E+00 0. -1.
</event>
<event>
 7    1  0.5855569E-013  0.5052890E+02  0.7816164E-02  0.1300439E+00
        -11   -1    0    0    0    0  0.00000000000E+00  0.00000000000E+00  0.45593999997E+02  0.45594000000E+02  0.51100000000E-03 0. -1.
         11   -1    0    0    0    0 -0.00000000000E+00 -0.00000000000E+00 -0.45593999997E+02  0.45594000000E+02  0.51100000000E-03 0.  1.
    9900012    2    1    2    0    0  0.17943404874E+01  0.34209166370E+02  0.21901503736E+02  0.50528897853E+02  0.30000115513E+02 0.  0.
        -12    1    1    2    0    0 -0.17943404874E+01 -0.34209166370E+02 -0.21901503736E+02  0.40659102147E+02  0.00000000000E+00 0.  1.
         11    1    3    3    0    0  0.76082854578E+01  0.11216265018E+02  0.44178469311E+01  0.14255103659E+02  0.51100000000E-03 0. -1.
        -11    1    3    3    0    0  0.51877449759E+01  0.12603853699E+02  0.65919798016E+00  0.13645672143E+02  0.51100000000E-03 0.  1.
        -12    1    3    3    0    0 -0.11001689946E+02  0.10389047653E+02  0.16824458824E+02  0.22628122051E+02  0.00000000000E+00 0.  1.
</event>
<event>
 7    1  0.5855569E-013  0.5052886E+02  0.7816164E-02  0.1300439E+00
        -11   -1    0    0    0    0  0.00000000000E+00  0.00000000000E+00  0.45593999997E+02  0.45594000000E+02  0.51100000000E-03 0.  1.
         11   -1    0    0    0    0 -0.00000000000E+00 -0.00000000000E+00 -0.45593999997E+02  0.45594000000E+02  0.51100000000E-03 0. -1.
    9900012    2    1    2    0    0 -0.24765520736E+02 -0.33861088021E+01 -0.32068193306E+02  0.50528858690E+02  0.29999996473E+02 0.  0.
        -12    1    1    2    0    0  0.24765520736E+02  0.33861088021E+01  0.32068193306E+02  0.40659141310E+02  0.00000000000E+00 0.  1.
         11    1    3    3    0    0  0.98527521075E+00 -0.13154636167E+01 -0.14315747955E+01  0.21795913433E+01  0.51100000000E-03 0. -1.
        -11    1    3    3    0    0  0.46257517210E+01  0.39542594042E+00 -0.11401061412E+02  0.12310082950E+02  0.51100000000E-03 0.  1.
         12    1    3    3    0    0 -0.30376547668E+02 -0.24660711258E+01 -0.19235557099E+02  0.36039184396E+02  0.00000000000E+00 0. -1.
</event>
<event>
 7    1  0.5855569E-013  0.5052889E+02  0.7816164E-02  0.1300439E+00
        -11   -1    0    0    0    0  0.00000000000E+00  0.00000000000E+00  0.45593999997E+02  0.45594000000E+02  0.51100000000E-03 0.  1.
         11   -1    0    0    0    0 -0.00000000000E+00 -0.00000000000E+00 -0.45593999997E+02  0.45594000000E+02  0.51100000000E-03 0. -1.
    9900012    2    1    2    0    0 -0.32987349704E+02 -0.26655667113E+01 -0.23619753172E+02  0.50528889996E+02  0.30000091633E+02 0.  0.
        -12    1    1    2    0    0  0.32987349704E+02  0.26655667113E+01  0.23619753172E+02  0.40659110004E+02  0.00000000000E+00 0.  1.
         11    1    3    3    0    0 -0.12499672629E+01 -0.53421547679E+01 -0.11722346333E+02  0.12942736942E+02  0.51100000000E-03 0.  1.
        -11    1    3    3    0    0 -0.18980362078E+01 -0.45229667887E+01 -0.23579003000E+01  0.54423766962E+01  0.51100000000E-03 0. -1.
        -12    1    3    3    0    0 -0.29839346233E+02  0.71995548453E+01 -0.95395065393E+01  0.32143776359E+02  0.00000000000E+00 0.  1.
</event>
<event>
 7    1  0.5855569E-013  0.5052886E+02  0.7816164E-02  0.1300439E+00
        -11   -1    0    0    0    0  0.00000000000E+00  0.00000000000E+00  0.45593999997E+02  0.45594000000E+02  0.51100000000E-03 0. -1.
         11   -1    0    0    0    0 -0.00000000000E+00 -0.00000000000E+00 -0.45593999997E+02  0.45594000000E+02  0.51100000000E-03 0.  1.
    9900012    2    1    2    0    0 -0.19783444296E+02  0.33398633261E+02 -0.12095953251E+02  0.50528862565E+02  0.30000008253E+02 0.  0.
        -12    1    1    2    0    0  0.19783444296E+02 -0.33398633261E+02  0.12095953251E+02  0.40659137435E+02  0.00000000000E+00 0.  1.
         11    1    3    3    0    0 -0.22880086320E+01  0.42742507691E+01 -0.46044432214E+00  0.48699294012E+01  0.51100000000E-03 0. -1.
        -11    1    3    3    0    0 -0.11918558276E+02 -0.22620973148E+01 -0.48608040514E+01  0.13068914719E+02  0.51100000000E-03 0.  1.
        -12    1    3    3    0    0 -0.55768773874E+01  0.31386479807E+02 -0.67747048774E+01  0.32590018445E+02  0.00000000000E+00 0.  1.
</event>
<event>
 7    1  0.5855569E-013  0.5052885E+02  0.7816164E-02  0.1300439E+00
        -11   -1    0    0    0    0  0.00000000000E+00  0.00000000000E+00  0.45593999997E+02  0.45594000000E+02  0.51100000000E-03 0. -1.
         11   -1    0    0    0    0 -0.00000000000E+00 -0.00000000000E+00 -0.45593999997E+02  0.45594000000E+02  0.51100000000E-03 0.  1.
    9900012    2    1    2    0    0 -0.26674607843E+02 -0.29745649047E+02 -0.75384230483E+01  0.50528853884E+02  0.29999981865E+02 0.  0.
        -12    1    1    2    0    0  0.26674607843E+02  0.29745649047E+02  0.75384230483E+01  0.40659146116E+02  0.00000000000E+00 0.  1.
         11    1    3    3    0    0 -0.45261887155E+01 -0.69304415581E+01 -0.54782160313E+01  0.99261400164E+01  0.51100000000E-03 0. -1.
        -11    1    3    3    0    0 -0.40849110405E+01 -0.17851249564E+02 -0.92758846391E+01  0.20527923551E+02  0.51100000000E-03 0.  1.
        -12    1    3    3    0    0 -0.18063508087E+02 -0.49639579247E+01  0.72156776220E+01  0.20074790316E+02  0.00000000000E+00 0.  1.
</event>
<event>
 7    1  0.5855569E-013  0.5052885E+02  0.7816164E-02  0.1300439E+00
        -11   -1    0    0    0    0  0.00000000000E+00  0.00000000000E+00  0.45593999997E+02  0.45594000000E+02  0.51100000000E-03 0. -1.
         11   -1    0    0    0    0 -0.00000000000E+00 -0.00000000000E+00 -0.45593999997E+02  0.45594000000E+02  0.51100000000E-03 0.  1.
    9900012    2    1    2    0    0  0.34886265977E+01 -0.17877714378E+02  0.36350839874E+02  0.50528846708E+02  0.29999960053E+02 0.  0.
        -12    1    1    2    0    0 -0.34886265977E+01  0.17877714378E+02 -0.36350839874E+02  0.40659153292E+02  0.00000000000E+00 0.  1.
         11    1    3    3    0    0  0.12336984585E+02 -0.13051244837E+02  0.22244792655E+02  0.28589630655E+02  0.51100000000E-03 0. -1.
        -11    1    3    3    0    0 -0.57831672899E+01 -0.95085658401E+01  0.10360832483E+02  0.15205416740E+02  0.51100000000E-03 0.  1.
        -12    1    3    3    0    0 -0.30651906974E+01  0.46820962996E+01  0.37452147356E+01  0.67337993129E+01  0.00000000000E+00 0.  1.
</event>
<event>
 7    1  0.5855569E-013  0.5052886E+02  0.7816164E-02  0.1300439E+00
        -11   -1    0    0    0    0  0.00000000000E+00  0.00000000000E+00  0.45593999997E+02  0.45594000000E+02  0.51100000000E-03 0.  1.
         11   -1    0    0    0    0 -0.00000000000E+00 -0.00000000000E+00 -0.45593999997E+02  0.45594000000E+02  0.51100000000E-03 0. -1.
    9900012    2    1    2    0    0 -0.11075213348E+02 -0.11271486326E+02 -0.37462769730E+02  0.50528857479E+02  0.29999992794E+02 0.  0.
        -12    1    1    2    0    0  0.11075213348E+02  0.11271486326E+02  0.37462769730E+02  0.40659142521E+02  0.00000000000E+00 0.  1.
         11    1    3    3    0    0 -0.76683309845E+01  0.16807385365E+01 -0.22114943864E+02  0.23466975188E+02  0.51100000000E-03 0. -1.
        -11    1    3    3    0    0 -0.10609830641E+02 -0.70512630851E+01 -0.10790218049E+02  0.16694838218E+02  0.51100000000E-03 0.  1.
        -12    1    3    3    0    0  0.72029482780E+01 -0.59009617770E+01 -0.45576078168E+01  0.10367044073E+02  0.00000000000E+00 0.  1.
</event>
<event>
 7    1  0.5855569E-013  0.5052886E+02  0.7816164E-02  0.1300439E+00
        -11   -1    0    0    0    0  0.00000000000E+00  0.00000000000E+00  0.45593999997E+02  0.45594000000E+02  0.51100000000E-03 0.  1.
         11   -1    0    0    0    0 -0.00000000000E+00 -0.00000000000E+00 -0.45593999997E+02  0.45594000000E+02  0.51100000000E-03 0. -1.
    9900012    2    1    2    0    0 -0.38598408240E+02  0.97577278181E+01 -0.82531962545E+01  0.50528860569E+02  0.30000002186E+02 0.  0.
        -12    1    1    2    0    0  0.38598408240E+02 -0.97577278181E+01  0.82531962545E+01  0.40659139431E+02  0.00000000000E+00 0.  1.
         11    1    3    3    0    0 -0.72760034964E+01  0.11310389351E+02  0.41965520876E+01  0.14088157574E+02  0.51100000000E-03 0.  1.
        -11    1    3    3    0    0 -0.23548343255E+02 -0.52941122684E+01 -0.41906768802E+01  0.24497221633E+02  0.51100000000E-03 0. -1.
         12    1    3    3    0    0 -0.77740614886E+01  0.37414507357E+01 -0.82590714619E+01  0.11943481362E+02  0.00000000000E+00 0. -1.
</event>
<event>
 7    1  0.5855569E-013  0.5052886E+02  0.7816164E-02  0.1300439E+00
        -11   -1    0    0    0    0  0.00000000000E+00  0.00000000000E+00  0.45593999997E+02  0.45594000000E+02  0.51100000000E-03 0.  1.
         11   -1    0    0    0    0 -0.00000000000E+00 -0.00000000000E+00 -0.45593999997E+02  0.45594000000E+02  0.51100000000E-03 0. -1.
    9900012    2    1    2    0    0  0.36502512537E-01  0.14030285259E+02 -0.38161698338E+02  0.50528862566E+02  0.30000008254E+02 0.  0.
        -12    1    1    2    0    0 -0.36502512537E-01 -0.14030285259E+02  0.38161698338E+02  0.40659137434E+02  0.00000000000E+00 0.  1.
         11    1    3    3    0    0  0.73009124797E+01  0.15201618016E+01 -0.12854313774E+01  0.75674664866E+01  0.51100000000E-03 0. -1.
        -11    1    3    3    0    0  0.30764571037E+01  0.78030537016E+01 -0.67581724772E+01  0.10771496223E+02  0.51100000000E-03 0.  1.
         12    1    3    3    0    0 -0.10340867071E+02  0.47070697558E+01 -0.30118094483E+02  0.32189899856E+02  0.00000000000E+00 0. -1.
</event>
<event>
 7    1  0.5855569E-013  0.5052885E+02  0.7816164E-02  0.1300439E+00
        -11   -1    0    0    0    0  0.00000000000E+00  0.00000000000E+00  0.45593999997E+02  0.45594000000E+02  0.51100000000E-03 0.  1.
         11   -1    0    0    0    0 -0.00000000000E+00 -0.00000000000E+00 -0.45593999997E+02  0.45594000000E+02  0.51100000000E-03 0. -1.
    9900012    2    1    2    0    0 -0.73146510697E+01 -0.32086620507E+02 -0.23876994517E+02  0.50528853391E+02  0.29999980366E+02 0.  0.
        -12    1    1    2    0    0  0.73146510697E+01  0.32086620507E+02  0.23876994517E+02  0.40659146609E+02  0.00000000000E+00 0.  1.
         11    1    3    3    0    0  0.59695206047E+00 -0.57610106839E+01  0.19941598368E+01  0.61255423906E+01  0.51100000000E-03 0. -1.
        -11    1    3    3    0    0 -0.17019587619E+01 -0.31285542221E+01  0.44659427822E+01  0.57121940043E+01  0.51100000000E-03 0.  1.
         12    1    3    3    0    0 -0.62096443683E+01 -0.23197055601E+02 -0.30337097136E+02  0.38691116996E+02  0.00000000000E+00 0. -1.
</event>
<event>
 7    1  0.5855569E-013  0.5052886E+02  0.7816164E-02  0.1300439E+00
        -11   -1    0    0    0    0  0.00000000000E+00  0.00000000000E+00  0.45593999997E+02  0.45594000000E+02  0.51100000000E-03 0.  1.
         11   -1    0    0    0    0 -0.00000000000E+00 -0.00000000000E+00 -0.45593999997E+02  0.45594000000E+02  0.51100000000E-03 0. -1.
    9900012    2    1    2    0    0  0.10521469675E+02 -0.25224841026E+02 -0.30102685171E+02  0.50528861010E+02  0.30000003525E+02 0.  0.
        -12    1    1    2    0    0 -0.10521469675E+02  0.25224841026E+02  0.30102685171E+02  0.40659138990E+02  0.00000000000E+00 0.  1.
         11    1    3    3    0    0  0.36092659811E+01 -0.83382065564E+01 -0.56520655320E+00  0.91034031114E+01  0.51100000000E-03 0.  1.
        -11    1    3    3    0    0  0.12651221569E+01  0.54697386344E+01 -0.33695376616E+01  0.65476987648E+01  0.51100000000E-03 0. -1.
         12    1    3    3    0    0  0.56470815371E+01 -0.22356373104E+02 -0.26167940956E+02  0.34877759133E+02  0.00000000000E+00 0. -1.
</event>
<event>
 7    1  0.5855569E-013  0.5052886E+02  0.7816164E-02  0.1300439E+00
        -11   -1    0    0    0    0  0.00000000000E+00  0.00000000000E+00  0.45593999997E+02  0.45594000000E+02  0.51100000000E-03 0.  1.
         11   -1    0    0    0    0 -0.00000000000E+00 -0.00000000000E+00 -0.45593999997E+02  0.45594000000E+02  0.51100000000E-03 0. -1.
    9900012    2    1    2    0    0  0.38152102752E+02  0.13495084114E+02 -0.39325761488E+01  0.50528863330E+02  0.30000010577E+02 0.  0.
        -12    1    1    2    0    0 -0.38152102752E+02 -0.13495084114E+02  0.39325761488E+01  0.40659136670E+02  0.00000000000E+00 0.  1.
         11    1    3    3    0    0  0.15886873800E+01 -0.15475426923E+01  0.10849714045E+00  0.22204927081E+01  0.51100000000E-03 0. -1.
        -11    1    3    3    0    0 -0.11830931714E+01 -0.44868873993E+01  0.25596660996E+01  0.52994111738E+01  0.51100000000E-03 0.  1.
         12    1    3    3    0    0  0.37746508543E+02  0.19529514206E+02 -0.66007393889E+01  0.43008959448E+02  0.00000000000E+00 0. -1.
</event>
<event>
 7    1  0.5855569E-013  0.5052886E+02  0.7816164E-02  0.1300439E+00
        -11   -1    0    0    0    0  0.00000000000E+00  0.00000000000E+00  0.45593999997E+02  0.45594000000E+02  0.51100000000E-03 0.  1.
         11   -1    0    0    0    0 -0.00000000000E+00 -0.00000000000E+00 -0.45593999997E+02  0.45594000000E+02  0.51100000000E-03 0. -1.
    9900012    2    1    2    0    0 -0.53171790122E+01 -0.39414840525E+02 -0.84477140740E+01  0.50528856879E+02  0.29999990969E+02 0.  0.
        -12    1    1    2    0    0  0.53171790122E+01  0.39414840525E+02  0.84477140740E+01  0.40659143121E+02  0.00000000000E+00 0.  1.
         11    1    3    3    0    0 -0.54142797272E+01  0.31485750941E+01  0.20457685014E+00  0.62665622183E+01  0.51100000000E-03 0.  1.
        -11    1    3    3    0    0  0.33652889129E+01 -0.16587272793E+02 -0.59572861797E+01  0.17943022239E+02  0.51100000000E-03 0. -1.
        -12    1    3    3    0    0 -0.32681881979E+01 -0.25976142826E+02 -0.26950047444E+01  0.26319272421E+02  0.00000000000E+00 0.  1.
</event>
<event>
 7    1  0.5855569E-013  0.5052885E+02  0.7816164E-02  0.1300439E+00
        -11   -1    0    0    0    0  0.00000000000E+00  0.00000000000E+00  0.45593999997E+02  0.45594000000E+02  0.51100000000E-03 0.  1.
         11   -1    0    0    0    0 -0.00000000000E+00 -0.00000000000E+00 -0.45593999997E+02  0.45594000000E+02  0.51100000000E-03 0. -1.
    9900012    2    1    2    0    0  0.39525612372E+02  0.75366248057E+01 -0.58388035838E+01  0.50528851286E+02  0.29999973970E+02 0.  0.
        -12    1    1    2    0    0 -0.39525612372E+02 -0.75366248057E+01  0.58388035838E+01  0.40659148714E+02  0.00000000000E+00 0.  1.
         11    1    3    3    0    0  0.13597541724E+02  0.15715384528E+01 -0.88120864719E+01  0.16279304109E+02  0.51100000000E-03 0. -1.
        -11    1    3    3    0    0  0.24658453086E+01  0.80281929502E+01 -0.45149668865E+01  0.95350511996E+01  0.51100000000E-03 0.  1.
        -12    1    3    3    0    0  0.23462225340E+02 -0.20631065973E+01  0.74882497746E+01  0.24714495977E+02  0.00000000000E+00 0.  1.
</event>
<event>
 7    1  0.5855569E-013  0.5052886E+02  0.7816164E-02  0.1300439E+00
        -11   -1    0    0    0    0  0.00000000000E+00  0.00000000000E+00  0.45593999997E+02  0.45594000000E+02  0.51100000000E-03 0.  1.
         11   -1    0    0    0    0 -0.00000000000E+00 -0.00000000000E+00 -0.45593999997E+02  0.45594000000E+02  0.51100000000E-03 0. -1.
    9900012    2    1    2    0    0 -0.24345502282E+02 -0.13754187565E+02 -0.29517533558E+02  0.50528856572E+02  0.29999990036E+02 0.  0.
        -12    1    1    2    0    0  0.24345502282E+02  0.13754187565E+02  0.29517533558E+02  0.40659143428E+02  0.00000000000E+00 0.  1.
         11    1    3    3    0    0 -0.35396666948E+01 -0.17947075099E+01 -0.10018172959E+01  0.40931471403E+01  0.51100000000E-03 0. -1.
        -11    1    3    3    0    0 -0.54505503283E+01 -0.18910296572E+02 -0.17172790821E+02  0.26119199072E+02  0.51100000000E-03 0.  1.
         12    1    3    3    0    0 -0.15355285259E+02  0.69508165163E+01 -0.11342925441E+02  0.20316510359E+02  0.00000000000E+00 0. -1.
</event>
<event>
 7    1  0.5855569E-013  0.5052886E+02  0.7816164E-02  0.1300439E+00
        -11   -1    0    0    0    0  0.00000000000E+00  0.00000000000E+00  0.45593999997E+02  0.45594000000E+02  0.51100000000E-03 0. -1.
         11   -1    0    0    0    0 -0.00000000000E+00 -0.00000000000E+00 -0.45593999997E+02  0.45594000000E+02  0.51100000000E-03 0.  1.
    9900012    2    1    2    0    0 -0.54555268293E+01 -0.40025419208E+02 -0.46226519735E+01  0.50528857522E+02  0.29999992924E+02 0.  0.
        -12    1    1    2    0    0  0.54555268293E+01  0.40025419208E+02  0.46226519735E+01  0.40659142478E+02  0.00000000000E+00 0.  1.
         11    1    3    3    0    0 -0.12551163416E+02 -0.25705016328E+02 -0.32944152306E+01  0.28794665122E+02  0.51100000000E-03 0. -1.
        -11    1    3    3    0    0  0.77957597913E+00 -0.96777233183E+01  0.56550727817E+01  0.11235920779E+02  0.51100000000E-03 0.  1.
        -12    1    3    3    0    0  0.63160606073E+01 -0.46426795614E+01 -0.69833095245E+01  0.10498271621E+02  0.00000000000E+00 0.  1.
</event>
<event>
 7    1  0.5855569E-013  0.5052886E+02  0.7816164E-02  0.1300439E+00
        -11   -1    0    0    0    0  0.00000000000E+00  0.00000000000E+00  0.45593999997E+02  0.45594000000E+02  0.51100000000E-03 0.  1.
         11   -1    0    0    0    0 -0.00000000000E+00 -0.00000000000E+00 -0.45593999997E+02  0.45594000000E+02  0.51100000000E-03 0. -1.
    9900012    2    1    2    0    0 -0.21305656048E+02 -0.71005044421E+01 -0.33894207406E+02  0.50528862791E+02  0.30000008938E+02 0.  0.
        -12    1    1    2    0    0  0.21305656048E+02  0.71005044421E+01  0.33894207406E+02  0.40659137209E+02  0.00000000000E+00 0.  1.
         11    1    3    3    0    0 -0.17290991358E+02 -0.57453948305E+01 -0.27796477676E+02  0.33236006308E+02  0.51100000000E-03 0. -1.
        -11    1    3    3    0    0 -0.34523513593E+01 -0.43726478886E+01 -0.10523253818E+02  0.11907042061E+02  0.51100000000E-03 0.  1.
        -12    1    3    3    0    0 -0.56231333079E+00  0.30175382769E+01  0.44255240875E+01  0.53858144216E+01  0.00000000000E+00 0.  1.
</event>
<event>
 7    1  0.5855569E-013  0.5052883E+02  0.7816164E-02  0.1300439E+00
        -11   -1    0    0    0    0  0.00000000000E+00  0.00000000000E+00  0.45593999997E+02  0.45594000000E+02  0.51100000000E-03 0.  1.
         11   -1    0    0    0    0 -0.00000000000E+00 -0.00000000000E+00 -0.45593999997E+02  0.45594000000E+02  0.51100000000E-03 0. -1.
    9900012    2    1    2    0    0 -0.26215768672E+02  0.28398607160E+02 -0.12626202159E+02  0.50528826415E+02  0.29999898370E+02 0.  0.
        -12    1    1    2    0    0  0.26215768672E+02 -0.28398607160E+02  0.12626202159E+02  0.40659173585E+02  0.00000000000E+00 0.  1.
         11    1    3    3    0    0 -0.31047264206E+01  0.93549127947E+00 -0.23133126937E+01  0.39832004671E+01  0.51100000000E-03 0. -1.
        -11    1    3    3    0    0 -0.11389623860E+02  0.12944080412E+02  0.92033690694E+01  0.19544174371E+02  0.51100000000E-03 0.  1.
        -12    1    3    3    0    0 -0.11721418392E+02  0.14519035468E+02 -0.19516258534E+02  0.27001451576E+02  0.00000000000E+00 0.  1.
</event>
<event>
 7    1  0.5855569E-013  0.5052884E+02  0.7816164E-02  0.1300439E+00
        -11   -1    0    0    0    0  0.00000000000E+00  0.00000000000E+00  0.45593999997E+02  0.45594000000E+02  0.51100000000E-03 0. -1.
         11   -1    0    0    0    0 -0.00000000000E+00 -0.00000000000E+00 -0.45593999997E+02  0.45594000000E+02  0.51100000000E-03 0.  1.
    9900012    2    1    2    0    0 -0.16859625234E+02 -0.10051160444E+02  0.35607503379E+02  0.50528842530E+02  0.29999947353E+02 0.  0.
        -12    1    1    2    0    0  0.16859625234E+02  0.10051160444E+02 -0.35607503379E+02  0.40659157470E+02  0.00000000000E+00 0.  1.
         11    1    3    3    0    0 -0.11636207364E+02 -0.63958599901E+01  0.32238044630E+01  0.13663867033E+02  0.51100000000E-03 0. -1.
        -11    1    3    3    0    0  0.28025055559E+00 -0.55804024140E+01  0.20119731593E+01  0.59386419096E+01  0.51100000000E-03 0.  1.
        -12    1    3    3    0    0 -0.55036684255E+01  0.19251019596E+01  0.30371725757E+02  0.30926333587E+02  0.00000000000E+00 0.  1.
</event>
<event>
 7    1  0.5855569E-013  0.5052886E+02  0.7816164E-02  0.1300439E+00
        -11   -1    0    0    0    0  0.00000000000E+00  0.00000000000E+00  0.45593999997E+02  0.45594000000E+02  0.51100000000E-03 0.  1.
         11   -1    0    0    0    0 -0.00000000000E+00 -0.00000000000E+00 -0.45593999997E+02  0.45594000000E+02  0.51100000000E-03 0. -1.
    9900012    2    1    2    0    0 -0.11181549566E+02 -0.17859647460E+02 -0.34773143168E+02  0.50528861496E+02  0.30000005004E+02 0.  0.
        -12    1    1    2    0    0  0.11181549566E+02  0.17859647460E+02  0.34773143168E+02  0.40659138504E+02  0.00000000000E+00 0.  1.
         11    1    3    3    0    0  0.68367742329E+00 -0.15283118605E+02 -0.12052233229E+02  0.19475560459E+02  0.51100000000E-03 0. -1.
        -11    1    3    3    0    0  0.30105889952E+01 -0.26919180233E+00 -0.12493720697E+02  0.12854149814E+02  0.51100000000E-03 0.  1.
        -12    1    3    3    0    0 -0.14875815984E+02 -0.23073370528E+01 -0.10227189242E+02  0.18199151224E+02  0.00000000000E+00 0.  1.
</event>
<event>
 7    1  0.5855569E-013  0.5052886E+02  0.7816164E-02  0.1300439E+00
        -11   -1    0    0    0    0  0.00000000000E+00  0.00000000000E+00  0.45593999997E+02  0.45594000000E+02  0.51100000000E-03 0.  1.
         11   -1    0    0    0    0 -0.00000000000E+00 -0.00000000000E+00 -0.45593999997E+02  0.45594000000E+02  0.51100000000E-03 0. -1.
    9900012    2    1    2    0    0  0.28622961266E+02 -0.28773074020E+02 -0.24498241052E+01  0.50528864023E+02  0.30000012685E+02 0.  0.
        -12    1    1    2    0    0 -0.28622961266E+02  0.28773074020E+02  0.24498241052E+01  0.40659135977E+02  0.00000000000E+00 0.  1.
         11    1    3    3    0    0  0.18245207349E+02 -0.47094778586E+01 -0.80081581621E+01  0.20474310008E+02  0.51100000000E-03 0. -1.
        -11    1    3    3    0    0 -0.73502698988E+00  0.14348126839E+01 -0.27297088698E+00  0.16350735396E+01  0.51100000000E-03 0.  1.
        -12    1    3    3    0    0  0.11112780907E+02 -0.25498408845E+02  0.58313049438E+01  0.28419480475E+02  0.00000000000E+00 0.  1.
</event>
<event>
 7    1  0.5855569E-013  0.5052887E+02  0.7816164E-02  0.1300439E+00
        -11   -1    0    0    0    0  0.00000000000E+00  0.00000000000E+00  0.45593999997E+02  0.45594000000E+02  0.51100000000E-03 0. -1.
         11   -1    0    0    0    0 -0.00000000000E+00 -0.00000000000E+00 -0.45593999997E+02  0.45594000000E+02  0.51100000000E-03 0.  1.
    9900012    2    1    2    0    0 -0.63743859647E+01 -0.23201818720E+02  0.32775104055E+02  0.50528872683E+02  0.30000039007E+02 0.  0.
        -12    1    1    2    0    0  0.63743859647E+01  0.23201818720E+02 -0.32775104055E+02  0.40659127317E+02  0.00000000000E+00 0.  1.
         11    1    3    3    0    0  0.73609002446E+01 -0.20818171575E+02  0.15294412024E+02  0.26860717778E+02  0.51100000000E-03 0.  1.
        -11    1    3    3    0    0 -0.77936997429E+01 -0.48323065833E+01  0.12671136152E+02  0.15641311781E+02  0.51100000000E-03 0. -1.
        -12    1    3    3    0    0 -0.59415864665E+01  0.24486594378E+01  0.48095558799E+01  0.80268431243E+01  0.00000000000E+00 0.  1.
</event>
<event>
 7    1  0.5855569E-013  0.5052887E+02  0.7816164E-02  0.1300439E+00
        -11   -1    0    0    0    0  0.00000000000E+00  0.00000000000E+00  0.45593999997E+02  0.45594000000E+02  0.51100000000E-03 0.  1.
         11   -1    0    0    0    0 -0.00000000000E+00 -0.00000000000E+00 -0.45593999997E+02  0.45594000000E+02  0.51100000000E-03 0. -1.
    9900012    2    1    2    0    0 -0.17983635474E+02  0.22755892548E+02 -0.28494265964E+02  0.50528868389E+02  0.30000025956E+02 0.  0.
        -12    1    1    2    0    0  0.17983635474E+02 -0.22755892548E+02  0.28494265964E+02  0.40659131611E+02  0.00000000000E+00 0.  1.
         11    1    3    3    0    0 -0.20331215441E+01  0.21535044411E+02 -0.79275192750E+01  0.23037736067E+02  0.51100000000E-03 0. -1.
        -11    1    3    3    0    0 -0.80529251262E+01  0.40095408443E+01 -0.14809816035E+02  0.17327915977E+02  0.51100000000E-03 0.  1.
        -12    1    3    3    0    0 -0.78975888033E+01 -0.27886927065E+01 -0.57569306541E+01  0.10163216345E+02  0.00000000000E+00 0.  1.
</event>
<event>
 7    1  0.5855569E-013  0.5052888E+02  0.7816164E-02  0.1300439E+00
        -11   -1    0    0    0    0  0.00000000000E+00  0.00000000000E+00  0.45593999997E+02  0.45594000000E+02  0.51100000000E-03 0.  1.
         11   -1    0    0    0    0 -0.00000000000E+00 -0.00000000000E+00 -0.45593999997E+02  0.45594000000E+02  0.51100000000E-03 0. -1.
    9900012    2    1    2    0    0  0.64955574875E+01 -0.30365847743E+02 -0.26246651472E+02  0.50528884297E+02  0.30000074310E+02 0.  0.
        -12    1    1    2    0    0 -0.64955574875E+01  0.30365847743E+02  0.26246651472E+02  0.40659115703E+02  0.00000000000E+00 0.  1.
         11    1    3    3    0    0  0.28607392191E+01 -0.96757807549E+01 -0.24960932554E+01  0.10393990759E+02  0.51100000000E-03 0. -1.
        -11    1    3    3    0    0  0.76306318481E+01 -0.21790185830E+02 -0.89444794216E+01  0.24759694127E+02  0.51100000000E-03 0.  1.
        -12    1    3    3    0    0 -0.39958135798E+01  0.11001188419E+01 -0.14806078795E+02  0.15375199411E+02  0.00000000000E+00 0.  1.
</event>
<event>
 7    1  0.5855569E-013  0.5052886E+02  0.7816164E-02  0.1300439E+00
        -11   -1    0    0    0    0  0.00000000000E+00  0.00000000000E+00  0.45593999997E+02  0.45594000000E+02  0.51100000000E-03 0.  1.
         11   -1    0    0    0    0 -0.00000000000E+00 -0.00000000000E+00 -0.45593999997E+02  0.45594000000E+02  0.51100000000E-03 0. -1.
    9900012    2    1    2    0    0  0.25095249576E+02 -0.19502779184E+02 -0.25358149033E+02  0.50528859951E+02  0.30000000306E+02 0.  0.
        -12    1    1    2    0    0 -0.25095249576E+02  0.19502779184E+02  0.25358149033E+02  0.40659140049E+02  0.00000000000E+00 0.  1.
         11    1    3    3    0    0  0.10175692008E+02 -0.41555174703E+01 -0.24513025342E+01  0.11261523772E+02  0.51100000000E-03 0. -1.
        -11    1    3    3    0    0  0.16599974455E+00 -0.11688697293E+02  0.10269219809E+00  0.11690327039E+02  0.51100000000E-03 0.  1.
        -12    1    3    3    0    0  0.14753557824E+02 -0.36585644204E+01 -0.23009538697E+02  0.27577009140E+02  0.00000000000E+00 0.  1.
</event>
<event>
 7    1  0.5855569E-013  0.5052882E+02  0.7816164E-02  0.1300439E+00
        -11   -1    0    0    0    0  0.00000000000E+00  0.00000000000E+00  0.45593999997E+02  0.45594000000E+02  0.51100000000E-03 0. -1.
         11   -1    0    0    0    0 -0.00000000000E+00 -0.00000000000E+00 -0.45593999997E+02  0.45594000000E+02  0.51100000000E-03 0.  1.
    9900012    2    1    2    0    0  0.23668717429E+00 -0.39241897251E+01  0.40468678682E+02  0.50528816042E+02  0.29999866842E+02 0.  0.
        -12    1    1    2    0    0 -0.23668717429E+00  0.39241897251E+01 -0.40468678682E+02  0.40659183958E+02  0.00000000000E+00 0.  1.
         11    1    3    3    0    0 -0.10003059657E+02 -0.53476613749E+01  0.33530986287E+02  0.35397538421E+02  0.51100000000E-03 0. -1.
        -11    1    3    3    0    0 -0.44189320243E+00 -0.12958622589E+01  0.32197620608E+01  0.34987707250E+01  0.51100000000E-03 0.  1.
        -12    1    3    3    0    0  0.10681640034E+02  0.27193339087E+01  0.37179303346E+01  0.11632506896E+02  0.00000000000E+00 0.  1.
</event>
<event>
 7    1  0.5855569E-013  0.5052887E+02  0.7816164E-02  0.1300439E+00
        -11   -1    0    0    0    0  0.00000000000E+00  0.00000000000E+00  0.45593999997E+02  0.45594000000E+02  0.51100000000E-03 0.  1.
         11   -1    0    0    0    0 -0.00000000000E+00 -0.00000000000E+00 -0.45593999997E+02  0.45594000000E+02  0.51100000000E-03 0. -1.
    9900012    2    1    2    0    0  0.25930973229E+02  0.10091643143E+02 -0.29646383813E+02  0.50528871786E+02  0.30000036282E+02 0.  0.
        -12    1    1    2    0    0 -0.25930973229E+02 -0.10091643143E+02  0.29646383813E+02  0.40659128214E+02  0.00000000000E+00 0.  1.
         11    1    3    3    0    0  0.24070181078E+01 -0.16998094281E+01 -0.54765939288E+01  0.62190167700E+01  0.51100000000E-03 0. -1.
        -11    1    3    3    0    0  0.10950569660E+02 -0.62643292451E+01 -0.14770348808E+01  0.12701906513E+02  0.51100000000E-03 0.  1.
         12    1    3    3    0    0  0.12573385461E+02  0.18055781816E+02 -0.22692755004E+02  0.31607948503E+02  0.00000000000E+00 0. -1.
</event>
<event>
 7    1  0.5855569E-013  0.5052890E+02  0.7816164E-02  0.1300439E+00
        -11   -1    0    0    0    0  0.00000000000E+00  0.00000000000E+00  0.45593999997E+02  0.45594000000E+02  0.51100000000E-03 0.  1.
         11   -1    0    0    0    0 -0.00000000000E+00 -0.00000000000E+00 -0.45593999997E+02  0.45594000000E+02  0.51100000000E-03 0. -1.
    9900012    2    1    2    0    0  0.94583424905E+00 -0.36667785642E+02 -0.17542554236E+02  0.50528901197E+02  0.30000125679E+02 0.  0.
        -12    1    1    2    0    0 -0.94583424905E+00  0.36667785642E+02  0.17542554236E+02  0.40659098803E+02  0.00000000000E+00 0.  1.
         11    1    3    3    0    0 -0.11468338316E+01 -0.21537704107E+02 -0.19806393238E+02  0.29282778888E+02  0.51100000000E-03 0. -1.
        -11    1    3    3    0    0 -0.83193136443E+00  0.24355064575E+01 -0.15917257183E+01  0.30261183921E+01  0.51100000000E-03 0.  1.
        -12    1    3    3    0    0  0.29245994451E+01 -0.17565587992E+02  0.38555647204E+01  0.18220003917E+02  0.00000000000E+00 0.  1.
</event>
<event>
 7    1  0.5855569E-013  0.5052885E+02  0.7816164E-02  0.1300439E+00
        -11   -1    0    0    0    0  0.00000000000E+00  0.00000000000E+00  0.45593999997E+02  0.45594000000E+02  0.51100000000E-03 0.  1.
         11   -1    0    0    0    0 -0.00000000000E+00 -0.00000000000E+00 -0.45593999997E+02  0.45594000000E+02  0.51100000000E-03 0. -1.
    9900012    2    1    2    0    0 -0.26954073434E+01  0.31018905866E+02 -0.26148208383E+02  0.50528849203E+02  0.29999967638E+02 0.  0.
        -12    1    1    2    0    0  0.26954073434E+01 -0.31018905866E+02  0.26148208383E+02  0.40659150797E+02  0.00000000000E+00 0.  1.
         11    1    3    3    0    0 -0.69128005195E+01  0.70804964843E+01 -0.82566866805E+00  0.99298524912E+01  0.51100000000E-03 0. -1.
        -11    1    3    3    0    0  0.21416328997E+01 -0.21035089961E+01 -0.97130312055E+01  0.10166332526E+02  0.51100000000E-03 0.  1.
         12    1    3    3    0    0  0.20757602764E+01  0.26041918378E+02 -0.15609508510E+02  0.30432664186E+02  0.00000000000E+00 0. -1.
</event>
<event>
 7    1  0.5855569E-013  0.5052886E+02  0.7816164E-02  0.1300439E+00
        -11   -1    0    0    0    0  0.00000000000E+00  0.00000000000E+00  0.45593999997E+02  0.45594000000E+02  0.51100000000E-03 0.  1.
         11   -1    0    0    0    0 -0.00000000000E+00 -0.00000000000E+00 -0.45593999997E+02  0.45594000000E+02  0.51100000000E-03 0. -1.
    9900012    2    1    2    0    0  0.19951529788E+02  0.32578922117E+02  0.13918182113E+02  0.50528862030E+02  0.30000006626E+02 0.  0.
        -12    1    1    2    0    0 -0.19951529788E+02 -0.32578922117E+02 -0.13918182113E+02  0.40659137970E+02  0.00000000000E+00 0.  1.
         11    1    3    3    0    0  0.17044006761E+02  0.40380854732E+01  0.67305515803E+00  0.17528756496E+02  0.51100000000E-03 0.  1.
        -11    1    3    3    0    0  0.44128791453E+01  0.51526822298E+01  0.32187899389E+01  0.75089443628E+01  0.51100000000E-03 0. -1.
        -12    1    3    3    0    0 -0.15053561190E+01  0.23388154414E+02  0.10026337016E+02  0.25491161172E+02  0.00000000000E+00 0.  1.
</event>
<event>
 7    1  0.5855569E-013  0.5052886E+02  0.7816164E-02  0.1300439E+00
        -11   -1    0    0    0    0  0.00000000000E+00  0.00000000000E+00  0.45593999997E+02  0.45594000000E+02  0.51100000000E-03 0.  1.
         11   -1    0    0    0    0 -0.00000000000E+00 -0.00000000000E+00 -0.45593999997E+02  0.45594000000E+02  0.51100000000E-03 0. -1.
    9900012    2    1    2    0    0  0.13710102428E+02 -0.30772300930E+02 -0.22765415203E+02  0.50528861513E+02  0.30000005056E+02 0.  0.
        -12    1    1    2    0    0 -0.13710102428E+02  0.30772300930E+02  0.22765415203E+02  0.40659138487E+02  0.00000000000E+00 0.  1.
         11    1    3    3    0    0  0.60592365480E+01 -0.13902835796E+02  0.86191142398E+00  0.15190328577E+02  0.51100000000E-03 0. -1.
        -11    1    3    3    0    0 -0.18962967026E+01 -0.17368751785E+01  0.25559238233E+01  0.36256617908E+01  0.51100000000E-03 0.  1.
        -12    1    3    3    0    0  0.95471625821E+01 -0.15132589956E+02 -0.26183250450E+02  0.31712871145E+02  0.00000000000E+00 0.  1.
</event>
<event>
 7    1  0.5855569E-013  0.5052889E+02  0.7816164E-02  0.1300439E+00
        -11   -1    0    0    0    0  0.00000000000E+00  0.00000000000E+00  0.45593999997E+02  0.45594000000E+02  0.51100000000E-03 0.  1.
         11   -1    0    0    0    0 -0.00000000000E+00 -0.00000000000E+00 -0.45593999997E+02  0.45594000000E+02  0.51100000000E-03 0. -1.
    9900012    2    1    2    0    0  0.38916389538E+01  0.30884217661E+02 -0.26156901814E+02  0.50528889498E+02  0.30000090118E+02 0.  0.
        -12    1    1    2    0    0 -0.38916389538E+01 -0.30884217661E+02  0.26156901814E+02  0.40659110502E+02  0.00000000000E+00 0.  1.
         11    1    3    3    0    0 -0.47191339400E+01  0.90447622911E+01 -0.11609781708E+02  0.15455257410E+02  0.51100000000E-03 0. -1.
        -11    1    3    3    0    0 -0.40848346320E+01  0.49587870555E+01 -0.12243147188E+02  0.13826427462E+02  0.51100000000E-03 0.  1.
        -12    1    3    3    0    0  0.12695607526E+02  0.16880668315E+02 -0.23039729184E+01  0.21247204626E+02  0.00000000000E+00 0.  1.
</event>
<event>
 7    1  0.5855569E-013  0.5052886E+02  0.7816164E-02  0.1300439E+00
        -11   -1    0    0    0    0  0.00000000000E+00  0.00000000000E+00  0.45593999997E+02  0.45594000000E+02  0.51100000000E-03 0. -1.
         11   -1    0    0    0    0 -0.00000000000E+00 -0.00000000000E+00 -0.45593999997E+02  0.45594000000E+02  0.51100000000E-03 0.  1.
    9900012    2    1    2    0    0  0.25073154609E+02  0.18661148711E+02  0.26005085005E+02  0.50528855894E+02  0.29999987977E+02 0.  0.
        -12    1    1    2    0    0 -0.25073154609E+02 -0.18661148711E+02 -0.26005085005E+02  0.40659144106E+02  0.00000000000E+00 0.  1.
         11    1    3    3    0    0  0.28557007424E+01 -0.75400377537E+00  0.60892124712E+01  0.67677217144E+01  0.51100000000E-03 0. -1.
        -11    1    3    3    0    0  0.36308992360E+01 -0.24147909134E+01  0.13763564854E+02  0.14437810159E+02  0.51100000000E-03 0.  1.
        -12    1    3    3    0    0  0.18586554631E+02  0.21829943400E+02  0.61523076799E+01  0.29323324021E+02  0.00000000000E+00 0.  1.
</event>
<event>
 7    1  0.5855569E-013  0.5052886E+02  0.7816164E-02  0.1300439E+00
        -11   -1    0    0    0    0  0.00000000000E+00  0.00000000000E+00  0.45593999997E+02  0.45594000000E+02  0.51100000000E-03 0.  1.
         11   -1    0    0    0    0 -0.00000000000E+00 -0.00000000000E+00 -0.45593999997E+02  0.45594000000E+02  0.51100000000E-03 0. -1.
    9900012    2    1    2    0    0 -0.61554203768E+01  0.40087529584E+02 -0.28751034734E+01  0.50528862673E+02  0.30000008582E+02 0.  0.
        -12    1    1    2    0    0  0.61554203768E+01 -0.40087529584E+02  0.28751034734E+01  0.40659137327E+02  0.00000000000E+00 0.  1.
         11    1    3    3    0    0 -0.88492447848E+01  0.14862368663E+02 -0.12942200776E+02  0.21603233478E+02  0.51100000000E-03 0. -1.
        -11    1    3    3    0    0  0.10553359671E+01 -0.61747456151E+00  0.46205907323E+00  0.13070989579E+01  0.51100000000E-03 0.  1.
         12    1    3    3    0    0  0.16384884410E+01  0.25842635483E+02  0.96050382297E+01  0.27618530237E+02  0.00000000000E+00 0. -1.
</event>
<event>
 7    1  0.5855569E-013  0.5052886E+02  0.7816164E-02  0.1300439E+00
        -11   -1    0    0    0    0  0.00000000000E+00  0.00000000000E+00  0.45593999997E+02  0.45594000000E+02  0.51100000000E-03 0.  1.
         11   -1    0    0    0    0 -0.00000000000E+00 -0.00000000000E+00 -0.45593999997E+02  0.45594000000E+02  0.51100000000E-03 0. -1.
    9900012    2    1    2    0    0 -0.49247432283E+01  0.19434968893E+02 -0.35372224931E+02  0.50528863163E+02  0.30000010070E+02 0.  0.
        -12    1    1    2    0    0  0.49247432283E+01 -0.19434968893E+02  0.35372224931E+02  0.40659136837E+02  0.00000000000E+00 0.  1.
         11    1    3    3    0    0 -0.28850638024E+01  0.85919021089E+01 -0.13713183763E+02  0.16437633168E+02  0.51100000000E-03 0. -1.
        -11    1    3    3    0    0 -0.36147969492E+01  0.44656211407E+01  0.43875398601E+01  0.72290411149E+01  0.51100000000E-03 0.  1.
         12    1    3    3    0    0  0.15751175233E+01  0.63774456431E+01 -0.26046581029E+02  0.26862188880E+02  0.00000000000E+00 0. -1.
</event>
<event>
 7    1  0.5855569E-013  0.5052885E+02  0.7816164E-02  0.1300439E+00
        -11   -1    0    0    0    0  0.00000000000E+00  0.00000000000E+00  0.45593999997E+02  0.45594000000E+02  0.51100000000E-03 0. -1.
         11   -1    0    0    0    0 -0.00000000000E+00 -0.00000000000E+00 -0.45593999997E+02  0.45594000000E+02  0.51100000000E-03 0.  1.
    9900012    2    1    2    0    0 -0.17037013223E+02  0.17243528643E+01  0.36877273018E+02  0.50528850014E+02  0.29999970102E+02 0.  0.
        -12    1    1    2    0    0  0.17037013223E+02 -0.17243528643E+01 -0.36877273018E+02  0.40659149986E+02  0.00000000000E+00 0.  1.
         11    1    3    3    0    0 -0.52834787282E+01 -0.73130111102E+00  0.30077903418E+01  0.61234591358E+01  0.51100000000E-03 0. -1.
        -11    1    3    3    0    0  0.15019127752E+00  0.99668078040E+00 -0.42894329065E+01  0.44062642815E+01  0.51100000000E-03 0.  1.
        -12    1    3    3    0    0 -0.11903725772E+02  0.14589731949E+01  0.38158915583E+02  0.39999126597E+02  0.00000000000E+00 0.  1.
</event>
<event>
 7    1  0.5855569E-013  0.5052890E+02  0.7816164E-02  0.1300439E+00
        -11   -1    0    0    0    0  0.00000000000E+00  0.00000000000E+00  0.45593999997E+02  0.45594000000E+02  0.51100000000E-03 0.  1.
         11   -1    0    0    0    0 -0.00000000000E+00 -0.00000000000E+00 -0.45593999997E+02  0.45594000000E+02  0.51100000000E-03 0. -1.
    9900012    2    1    2    0    0  0.10268710486E+02 -0.37841004337E+02 -0.10759862084E+02  0.50528897005E+02  0.30000112937E+02 0.  0.
        -12    1    1    2    0    0 -0.10268710486E+02  0.37841004337E+02  0.10759862084E+02  0.40659102995E+02  0.00000000000E+00 0.  1.
         11    1    3    3    0    0  0.63642226689E+01 -0.10015754230E+02 -0.65621188451E+01  0.13560238456E+02  0.51100000000E-03 0. -1.
        -11    1    3    3    0    0  0.83703741584E+00 -0.15457183833E+02 -0.14015809968E+02  0.20882243486E+02  0.51100000000E-03 0.  1.
        -12    1    3    3    0    0  0.30674504008E+01 -0.12368066273E+02  0.98180667285E+01  0.16086415063E+02  0.00000000000E+00 0.  1.
</event>
<event>
 7    1  0.5855569E-013  0.5052887E+02  0.7816164E-02  0.1300439E+00
        -11   -1    0    0    0    0  0.00000000000E+00  0.00000000000E+00  0.45593999997E+02  0.45594000000E+02  0.51100000000E-03 0. -1.
         11   -1    0    0    0    0 -0.00000000000E+00 -0.00000000000E+00 -0.45593999997E+02  0.45594000000E+02  0.51100000000E-03 0.  1.
    9900012    2    1    2    0    0  0.20981759670E+02 -0.23987136416E+02 -0.25249716650E+02  0.50528866423E+02  0.30000019981E+02 0.  0.
        -12    1    1    2    0    0 -0.20981759670E+02  0.23987136416E+02  0.25249716650E+02  0.40659133577E+02  0.00000000000E+00 0.  1.
         11    1    3    3    0    0  0.21430879473E+01 -0.11911929201E+02 -0.57103526959E+01  0.13382638433E+02  0.51100000000E-03 0. -1.
        -11    1    3    3    0    0  0.17528996759E+02 -0.15573027800E+02 -0.22410847097E+02  0.32435027210E+02  0.51100000000E-03 0.  1.
         12    1    3    3    0    0  0.13096749644E+01  0.34978205853E+01  0.28714831432E+01  0.47112007812E+01  0.00000000000E+00 0. -1.
</event>
<event>
 7    1  0.5855569E-013  0.5052871E+02  0.7816164E-02  0.1300439E+00
        -11   -1    0    0    0    0  0.00000000000E+00  0.00000000000E+00  0.45593999997E+02  0.45594000000E+02  0.51100000000E-03 0.  1.
         11   -1    0    0    0    0 -0.00000000000E+00 -0.00000000000E+00 -0.45593999997E+02  0.45594000000E+02  0.51100000000E-03 0. -1.
    9900012    2    1    2    0    0 -0.29044133272E+02  0.62107188247E+01 -0.27767657345E+02  0.50528714465E+02  0.29999558083E+02 0.  0.
        -12    1    1    2    0    0  0.29044133272E+02 -0.62107188247E+01  0.27767657345E+02  0.40659285535E+02  0.00000000000E+00 0.  1.
         11    1    3    3    0    0 -0.15850608477E+02  0.20941667433E+01 -0.18987196790E+02  0.24822186963E+02  0.51100000000E-03 0. -1.
        -11    1    3    3    0    0 -0.10676774333E+02 -0.39940655602E+01 -0.12067612755E+02  0.16600402035E+02  0.51100000000E-03 0.  1.
         12    1    3    3    0    0 -0.25167504620E+01  0.81106176417E+01  0.32871522003E+01  0.91061254661E+01  0.00000000000E+00 0. -1.
</event>
<event>
 7    1  0.5855569E-013  0.5052887E+02  0.7816164E-02  0.1300439E+00
        -11   -1    0    0    0    0  0.00000000000E+00  0.00000000000E+00  0.45593999997E+02  0.45594000000E+02  0.51100000000E-03 0.  1.
         11   -1    0    0    0    0 -0.00000000000E+00 -0.00000000000E+00 -0.45593999997E+02  0.45594000000E+02  0.51100000000E-03 0. -1.
    9900012    2    1    2    0    0 -0.26918659485E+02  0.15697982725E+02 -0.26117504813E+02  0.50528868827E+02  0.30000027287E+02 0.  0.
        -12    1    1    2    0    0  0.26918659485E+02 -0.15697982725E+02  0.26117504813E+02  0.40659131173E+02  0.00000000000E+00 0.  1.
         11    1    3    3    0    0  0.30417396843E+01  0.76266380906E+00  0.37699427241E+00  0.31584745266E+01  0.51100000000E-03 0. -1.
        -11    1    3    3    0    0 -0.54561382418E+00  0.42199516092E+01 -0.12265679725E+02  0.12982780342E+02  0.51100000000E-03 0.  1.
         12    1    3    3    0    0 -0.29414785345E+02  0.10715367307E+02 -0.14228819361E+02  0.34387613959E+02  0.00000000000E+00 0. -1.
</event>
<event>
 7    1  0.5855569E-013  0.5052889E+02  0.7816164E-02  0.1300439E+00
        -11   -1    0    0    0    0  0.00000000000E+00  0.00000000000E+00  0.45593999997E+02  0.45594000000E+02  0.51100000000E-03 0. -1.
         11   -1    0    0    0    0 -0.00000000000E+00 -0.00000000000E+00 -0.45593999997E+02  0.45594000000E+02  0.51100000000E-03 0.  1.
    9900012    2    1    2    0    0  0.14569628138E+02  0.34506327126E+02  0.15817803111E+02  0.50528885757E+02  0.30000078746E+02 0.  0.
        -12    1    1    2    0    0 -0.14569628138E+02 -0.34506327126E+02 -0.15817803111E+02  0.40659114243E+02  0.00000000000E+00 0.  1.
         11    1    3    3    0    0 -0.27510445233E+01  0.84229830710E+00 -0.15446334181E+01  0.32655175799E+01  0.51100000000E-03 0. -1.
        -11    1    3    3    0    0 -0.30538419217E+01  0.48423457706E+01  0.95165697209E+01  0.11105825614E+02  0.51100000000E-03 0.  1.
         12    1    3    3    0    0  0.20374514583E+02  0.28821683048E+02  0.78458668079E+01  0.36157542563E+02  0.00000000000E+00 0. -1.
</event>
<event>
 7    1  0.5855569E-013  0.5052886E+02  0.7816164E-02  0.1300439E+00
        -11   -1    0    0    0    0  0.00000000000E+00  0.00000000000E+00  0.45593999997E+02  0.45594000000E+02  0.51100000000E-03 0.  1.
         11   -1    0    0    0    0 -0.00000000000E+00 -0.00000000000E+00 -0.45593999997E+02  0.45594000000E+02  0.51100000000E-03 0. -1.
    9900012    2    1    2    0    0  0.19902710272E+02  0.97044431932E+01 -0.34100903284E+02  0.50528859593E+02  0.29999999220E+02 0.  0.
        -12    1    1    2    0    0 -0.19902710272E+02 -0.97044431932E+01  0.34100903284E+02  0.40659140407E+02  0.00000000000E+00 0.  1.
         11    1    3    3    0    0 -0.39645509821E+01  0.59176047896E+01 -0.77558224425E+01  0.10530360533E+02  0.51100000000E-03 0. -1.
        -11    1    3    3    0    0  0.32616769094E+01 -0.63093536062E+01 -0.72105632085E+01  0.10121200583E+02  0.51100000000E-03 0.  1.
         12    1    3    3    0    0  0.20605584344E+02  0.10096192010E+02 -0.19134517633E+02  0.29877298477E+02  0.00000000000E+00 0. -1.
</event>
<event>
 7    1  0.5855569E-013  0.5052892E+02  0.7816164E-02  0.1300439E+00
        -11   -1    0    0    0    0  0.00000000000E+00  0.00000000000E+00  0.45593999997E+02  0.45594000000E+02  0.51100000000E-03 0. -1.
         11   -1    0    0    0    0 -0.00000000000E+00 -0.00000000000E+00 -0.45593999997E+02  0.45594000000E+02  0.51100000000E-03 0.  1.
    9900012    2    1    2    0    0  0.21638736598E+02  0.76315815889E+01  0.33566122255E+02  0.50528923248E+02  0.30000192703E+02 0.  0.
        -12    1    1    2    0    0 -0.21638736598E+02 -0.76315815889E+01 -0.33566122255E+02  0.40659076752E+02  0.00000000000E+00 0.  1.
         11    1    3    3    0    0  0.21844311571E+00  0.17912586841E+01 -0.57189005164E+00  0.18929827153E+01  0.51100000000E-03 0. -1.
        -11    1    3    3    0    0  0.61586697563E+00  0.94775689471E+01  0.12909290326E+01  0.95848893216E+01  0.51100000000E-03 0.  1.
         12    1    3    3    0    0  0.20804426507E+02 -0.36372460422E+01  0.32847083274E+02  0.39051051211E+02  0.00000000000E+00 0. -1.
</event>
<event>
 7    1  0.5855569E-013  0.5052886E+02  0.7816164E-02  0.1300439E+00
        -11   -1    0    0    0    0  0.00000000000E+00  0.00000000000E+00  0.45593999997E+02  0.45594000000E+02  0.51100000000E-03 0.  1.
         11   -1    0    0    0    0 -0.00000000000E+00 -0.00000000000E+00 -0.45593999997E+02  0.45594000000E+02  0.51100000000E-03 0. -1.
    9900012    2    1    2    0    0 -0.16518822722E+02  0.19721772091E+02 -0.31485639571E+02  0.50528864523E+02  0.30000014204E+02 0.  0.
        -12    1    1    2    0    0  0.16518822722E+02 -0.19721772091E+02  0.31485639571E+02  0.40659135477E+02  0.00000000000E+00 0.  1.
         11    1    3    3    0    0  0.36933071462E+01  0.45226669574E+01 -0.36644648033E+01  0.68937171859E+01  0.51100000000E-03 0. -1.
        -11    1    3    3    0    0  0.40421189203E+01  0.67417364896E+01 -0.53690887827E+01  0.95192883599E+01  0.51100000000E-03 0.  1.
         12    1    3    3    0    0 -0.24254248788E+02  0.84573686437E+01 -0.22452085985E+02  0.34115858977E+02  0.00000000000E+00 0. -1.
</event>
<event>
 7    1  0.5855569E-013  0.5052885E+02  0.7816164E-02  0.1300439E+00
        -11   -1    0    0    0    0  0.00000000000E+00  0.00000000000E+00  0.45593999997E+02  0.45594000000E+02  0.51100000000E-03 0. -1.
         11   -1    0    0    0    0 -0.00000000000E+00 -0.00000000000E+00 -0.45593999997E+02  0.45594000000E+02  0.51100000000E-03 0.  1.
    9900012    2    1    2    0    0 -0.12042798255E+02  0.25424798678E+02  0.29355018088E+02  0.50528850174E+02  0.29999970589E+02 0.  0.
        -12    1    1    2    0    0  0.12042798255E+02 -0.25424798678E+02 -0.29355018088E+02  0.40659149826E+02  0.00000000000E+00 0.  1.
         11    1    3    3    0    0 -0.95072189842E+01  0.12018207977E+01  0.50270013382E+01  0.10821382941E+02  0.51100000000E-03 0. -1.
        -11    1    3    3    0    0 -0.66745766897E+00 -0.31504041224E+01  0.29622326884E+00  0.32339286263E+01  0.51100000000E-03 0.  1.
         12    1    3    3    0    0 -0.18681216022E+01  0.27373382002E+02  0.24031793481E+02  0.36473538607E+02  0.00000000000E+00 0. -1.
</event>
<event>
 7    1  0.5855569E-013  0.5052887E+02  0.7816164E-02  0.1300439E+00
        -11   -1    0    0    0    0  0.00000000000E+00  0.00000000000E+00  0.45593999997E+02  0.45594000000E+02  0.51100000000E-03 0.  1.
         11   -1    0    0    0    0 -0.00000000000E+00 -0.00000000000E+00 -0.45593999997E+02  0.45594000000E+02  0.51100000000E-03 0. -1.
    9900012    2    1    2    0    0 -0.23460235748E+02  0.50818106547E+01 -0.32817024765E+02  0.50528873407E+02  0.30000041206E+02 0.  0.
        -12    1    1    2    0    0  0.23460235748E+02 -0.50818106547E+01  0.32817024765E+02  0.40659126593E+02  0.00000000000E+00 0.  1.
         11    1    3    3    0    0 -0.12348730811E+02  0.12328925410E+02 -0.10327406220E+02  0.20276806305E+02  0.51100000000E-03 0. -1.
        -11    1    3    3    0    0  0.21680557588E+01 -0.19978503247E+01  0.68933468305E+00  0.30277143623E+01  0.51100000000E-03 0.  1.
        -12    1    3    3    0    0 -0.13279560695E+02 -0.52492644307E+01 -0.23178953228E+02  0.27224352739E+02  0.00000000000E+00 0.  1.
</event>
<event>
 7    1  0.6171237E-013  0.5052885E+02  0.7816164E-02  0.1300439E+00
        -11   -1    0    0    0    0  0.00000000000E+00  0.00000000000E+00  0.45593999997E+02  0.45594000000E+02  0.51100000000E-03 0. -1.
         11   -1    0    0    0    0 -0.00000000000E+00 -0.00000000000E+00 -0.45593999997E+02  0.45594000000E+02  0.51100000000E-03 0.  1.
    9900012    2    1    2    0    0  0.40248980827E+02  0.24247752287E+01  0.52255844196E+01  0.50528846971E+02  0.29999960852E+02 0.  0.
        -12    1    1    2    0    0 -0.40248980827E+02 -0.24247752287E+01 -0.52255844196E+01  0.40659153029E+02  0.00000000000E+00 0.  1.
         11    1    3    3    0    0  0.10134754800E+02  0.79986870312E+01 -0.31527276102E+01  0.13290294983E+02  0.51100000000E-03 0. -1.
        -11    1    3    3    0    0  0.73610507872E+00 -0.72642321280E+00 -0.46311335466E+01  0.47452017406E+01  0.51100000000E-03 0.  1.
         12    1    3    3    0    0  0.29378120949E+02 -0.48474885897E+01  0.13009445576E+02  0.32493350247E+02  0.00000000000E+00 0. -1.
</event>
<event>
 7    1  0.5855569E-013  0.5052897E+02  0.7816164E-02  0.1300438E+00
        -11   -1    0    0    0    0  0.00000000000E+00  0.00000000000E+00  0.45593999997E+02  0.45594000000E+02  0.51100000000E-03 0.  1.
         11   -1    0    0    0    0 -0.00000000000E+00 -0.00000000000E+00 -0.45593999997E+02  0.45594000000E+02  0.51100000000E-03 0. -1.
    9900012    2    1    2    0    0  0.24879768587E+02  0.97146669039E+01 -0.30655813279E+02  0.50528972395E+02  0.30000342089E+02 0.  0.
        -12    1    1    2    0    0 -0.24879768587E+02 -0.97146669039E+01  0.30655813279E+02  0.40659027605E+02  0.00000000000E+00 0.  1.
         11    1    3    3    0    0  0.11028713476E+02  0.63629874638E+01  0.15932588383E+00  0.12733637163E+02  0.51100000000E-03 0. -1.
        -11    1    3    3    0    0  0.40733197479E+01  0.64281470614E+01 -0.30499833792E+01  0.81985003072E+01  0.51100000000E-03 0.  1.
         12    1    3    3    0    0  0.97777353631E+01 -0.30764676214E+01 -0.27765155784E+02  0.29596834925E+02  0.00000000000E+00 0. -1.
</event>
<event>
 7    1  0.5855569E-013  0.5052892E+02  0.7816164E-02  0.1300439E+00
        -11   -1    0    0    0    0  0.00000000000E+00  0.00000000000E+00  0.45593999997E+02  0.45594000000E+02  0.51100000000E-03 0.  1.
         11   -1    0    0    0    0 -0.00000000000E+00 -0.00000000000E+00 -0.45593999997E+02  0.45594000000E+02  0.51100000000E-03 0. -1.
    9900012    2    1    2    0    0 -0.89637290814E+01  0.16238679929E+02 -0.36181731578E+02  0.50528919036E+02  0.30000179901E+02 0.  0.
        -12    1    1    2    0    0  0.89637290814E+01 -0.16238679929E+02  0.36181731578E+02  0.40659080964E+02  0.00000000000E+00 0.  1.
         11    1    3    3    0    0 -0.12399203390E+02  0.15563077772E+02 -0.29787695439E+02  0.35822568784E+02  0.51100000000E-03 0. -1.
        -11    1    3    3    0    0 -0.40510709901E+01 -0.25195292460E+01 -0.39890028773E+01  0.62186291097E+01  0.51100000000E-03 0.  1.
        -12    1    3    3    0    0  0.74865452990E+01  0.31951314028E+01 -0.24050332613E+01  0.84877211420E+01  0.00000000000E+00 0.  1.
</event>
<event>
 7    1  0.5855569E-013  0.5052887E+02  0.7816164E-02  0.1300439E+00
        -11   -1    0    0    0    0  0.00000000000E+00  0.00000000000E+00  0.45593999997E+02  0.45594000000E+02  0.51100000000E-03 0.  1.
         11   -1    0    0    0    0 -0.00000000000E+00 -0.00000000000E+00 -0.45593999997E+02  0.45594000000E+02  0.51100000000E-03 0. -1.
    9900012    2    1    2    0    0  0.25071881508E+02 -0.17062779670E+02 -0.27081858657E+02  0.50528871127E+02  0.30000034278E+02 0.  0.
        -12    1    1    2    0    0 -0.25071881508E+02  0.17062779670E+02  0.27081858657E+02  0.40659128873E+02  0.00000000000E+00 0.  1.
         11    1    3    3    0    0  0.17598198011E+02 -0.18083404463E+02 -0.25059654147E+02  0.35562513359E+02  0.51100000000E-03 0. -1.
        -11    1    3    3    0    0  0.60109826183E+00 -0.36034288655E+01 -0.49751527389E+01  0.61723709986E+01  0.51100000000E-03 0.  1.
         12    1    3    3    0    0  0.68725852355E+01  0.46240536584E+01  0.29529482291E+01  0.87939867693E+01  0.00000000000E+00 0. -1.
</event>
<event>
 7    1  0.5855569E-013  0.5052885E+02  0.7816164E-02  0.1300439E+00
        -11   -1    0    0    0    0  0.00000000000E+00  0.00000000000E+00  0.45593999997E+02  0.45594000000E+02  0.51100000000E-03 0.  1.
         11   -1    0    0    0    0 -0.00000000000E+00 -0.00000000000E+00 -0.45593999997E+02  0.45594000000E+02  0.51100000000E-03 0. -1.
    9900012    2    1    2    0    0 -0.18461190940E+02 -0.35128920413E+02 -0.88492800096E+01  0.50528851251E+02  0.29999973862E+02 0.  0.
        -12    1    1    2    0    0  0.18461190940E+02  0.35128920413E+02  0.88492800096E+01  0.40659148749E+02  0.00000000000E+00 0.  1.
         11    1    3    3    0    0 -0.49370701110E+01 -0.50452606496E+01 -0.54149968298E+01  0.88967132825E+01  0.51100000000E-03 0. -1.
        -11    1    3    3    0    0 -0.87901519879E+01 -0.57600921607E+01 -0.11494141845E+02  0.15574361325E+02  0.51100000000E-03 0.  1.
        -12    1    3    3    0    0 -0.47339688411E+01 -0.24323567603E+02  0.80598586648E+01  0.26057776644E+02  0.00000000000E+00 0.  1.
</event>
<event>
 7    1  0.5855569E-013  0.5052886E+02  0.7816164E-02  0.1300439E+00
        -11   -1    0    0    0    0  0.00000000000E+00  0.00000000000E+00  0.45593999997E+02  0.45594000000E+02  0.51100000000E-03 0.  1.
         11   -1    0    0    0    0 -0.00000000000E+00 -0.00000000000E+00 -0.45593999997E+02  0.45594000000E+02  0.51100000000E-03 0. -1.
    9900012    2    1    2    0    0 -0.14404746822E+02  0.26834409799E+02 -0.26936647563E+02  0.50528864960E+02  0.30000015531E+02 0.  0.
        -12    1    1    2    0    0  0.14404746822E+02 -0.26834409799E+02  0.26936647563E+02  0.40659135040E+02  0.00000000000E+00 0.  1.
         11    1    3    3    0    0  0.37988856038E+00  0.28923271174E+01 -0.42700346712E+00  0.29482543470E+01  0.51100000000E-03 0. -1.
        -11    1    3    3    0    0 -0.50980817955E+01 -0.52921507668E+01 -0.66929429484E+00  0.73787026533E+01  0.51100000000E-03 0.  1.
         12    1    3    3    0    0 -0.96865535870E+01  0.29234233449E+02 -0.25840349801E+02  0.40201907959E+02  0.00000000000E+00 0. -1.
</event>
<event>
 7    1  0.5855569E-013  0.5052889E+02  0.7816164E-02  0.1300439E+00
        -11   -1    0    0    0    0  0.00000000000E+00  0.00000000000E+00  0.45593999997E+02  0.45594000000E+02  0.51100000000E-03 0. -1.
         11   -1    0    0    0    0 -0.00000000000E+00 -0.00000000000E+00 -0.45593999997E+02  0.45594000000E+02  0.51100000000E-03 0.  1.
    9900012    2    1    2    0    0  0.23795143732E+02 -0.13406898619E+01  0.32941719844E+02  0.50528890064E+02  0.30000091837E+02 0.  0.
        -12    1    1    2    0    0 -0.23795143732E+02  0.13406898619E+01 -0.32941719844E+02  0.40659109936E+02  0.00000000000E+00 0.  1.
         11    1    3    3    0    0  0.53156344831E+01  0.65760305380E+00  0.76194793583E+01  0.93136930208E+01  0.51100000000E-03 0. -1.
        -11    1    3    3    0    0  0.19183144975E+02  0.90870380147E+01  0.18662642984E+02  0.28264139018E+02  0.51100000000E-03 0.  1.
        -12    1    3    3    0    0 -0.70363572636E+00 -0.11085330930E+02  0.66595975023E+01  0.12951058025E+02  0.00000000000E+00 0.  1.
</event>
<event>
 7    1  0.5855569E-013  0.5052886E+02  0.7816164E-02  0.1300439E+00
        -11   -1    0    0    0    0  0.00000000000E+00  0.00000000000E+00  0.45593999997E+02  0.45594000000E+02  0.51100000000E-03 0.  1.
         11   -1    0    0    0    0 -0.00000000000E+00 -0.00000000000E+00 -0.45593999997E+02  0.45594000000E+02  0.51100000000E-03 0. -1.
    9900012    2    1    2    0    0 -0.43344191913E+01  0.28854932534E+02 -0.28315574316E+02  0.50528855025E+02  0.29999985334E+02 0.  0.
        -12    1    1    2    0    0  0.43344191913E+01 -0.28854932534E+02  0.28315574316E+02  0.40659144975E+02  0.00000000000E+00 0.  1.
         11    1    3    3    0    0  0.11841994429E+01  0.59276945327E+01 -0.41305197718E+01  0.73212761620E+01  0.51100000000E-03 0. -1.
        -11    1    3    3    0    0 -0.11724392170E+02  0.85147275732E-01 -0.50313328932E+01  0.12758641493E+02  0.51100000000E-03 0.  1.
        -12    1    3    3    0    0  0.62057735356E+01  0.22842090725E+02 -0.19153721651E+02  0.30448937370E+02  0.00000000000E+00 0.  1.
</event>
<event>
 7    1  0.5855569E-013  0.5052885E+02  0.7816164E-02  0.1300439E+00
        -11   -1    0    0    0    0  0.00000000000E+00  0.00000000000E+00  0.45593999997E+02  0.45594000000E+02  0.51100000000E-03 0. -1.
         11   -1    0    0    0    0 -0.00000000000E+00 -0.00000000000E+00 -0.45593999997E+02  0.45594000000E+02  0.51100000000E-03 0.  1.
    9900012    2    1    2    0    0  0.13394862003E+02  0.38337164384E+02 -0.20013931096E+01  0.50528854959E+02  0.29999985134E+02 0.  0.
        -12    1    1    2    0    0 -0.13394862003E+02 -0.38337164384E+02  0.20013931096E+01  0.40659145041E+02  0.00000000000E+00 0.  1.
         11    1    3    3    0    0  0.34148924616E+00 -0.37255744637E+00 -0.24867152485E+01  0.25375513678E+01  0.51100000000E-03 0.  1.
        -11    1    3    3    0    0  0.10108184384E+02  0.17377546798E+02  0.12160608615E+02  0.23495423521E+02  0.51100000000E-03 0. -1.
         12    1    3    3    0    0  0.29451883730E+01  0.21332175032E+02 -0.11675286476E+02  0.24495880071E+02  0.00000000000E+00 0. -1.
</event>
<event>
 7    1  0.5855569E-013  0.5052886E+02  0.7816164E-02  0.1300439E+00
        -11   -1    0    0    0    0  0.00000000000E+00  0.00000000000E+00  0.45593999997E+02  0.45594000000E+02  0.51100000000E-03 0.  1.
         11   -1    0    0    0    0 -0.00000000000E+00 -0.00000000000E+00 -0.45593999997E+02  0.45594000000E+02  0.51100000000E-03 0. -1.
    9900012    2    1    2    0    0 -0.24791748384E+02 -0.44049622335E+01 -0.31923832881E+02  0.50528860977E+02  0.30000003427E+02 0.  0.
        -12    1    1    2    0    0  0.24791748384E+02  0.44049622335E+01  0.31923832881E+02  0.40659139023E+02  0.00000000000E+00 0.  1.
         11    1    3    3    0    0 -0.20730140621E+02  0.22340958179E+01 -0.12702173582E+02  0.24414649870E+02  0.51100000000E-03 0.  1.
        -11    1    3    3    0    0 -0.27881309781E+01  0.26263079001E+01  0.89175009786E+00  0.39327326422E+01  0.51100000000E-03 0. -1.
         12    1    3    3    0    0 -0.12734767850E+01 -0.92653659515E+01 -0.20113409397E+02  0.22181478465E+02  0.00000000000E+00 0. -1.
</event>
<event>
 7    1  0.5855569E-013  0.5052885E+02  0.7816164E-02  0.1300439E+00
        -11   -1    0    0    0    0  0.00000000000E+00  0.00000000000E+00  0.45593999997E+02  0.45594000000E+02  0.51100000000E-03 0. -1.
         11   -1    0    0    0    0 -0.00000000000E+00 -0.00000000000E+00 -0.45593999997E+02  0.45594000000E+02  0.51100000000E-03 0.  1.
    9900012    2    1    2    0    0 -0.35544450571E+02  0.19285399883E+02  0.42227370522E+01  0.50528854372E+02  0.29999983348E+02 0.  0.
        -12    1    1    2    0    0  0.35544450571E+02 -0.19285399883E+02 -0.42227370522E+01  0.40659145628E+02  0.00000000000E+00 0.  1.
         11    1    3    3    0    0 -0.44134147252E+01  0.34084249633E+01  0.55265927529E+01  0.78510392933E+01  0.51100000000E-03 0. -1.
        -11    1    3    3    0    0 -0.12530324314E+02  0.30973281651E+01  0.11013357980E+02  0.16967513768E+02  0.51100000000E-03 0.  1.
        -12    1    3    3    0    0 -0.18600711531E+02  0.12779646755E+02 -0.12317213681E+02  0.25710301311E+02  0.00000000000E+00 0.  1.
</event>
<event>
 7    1  0.5855569E-013  0.5052886E+02  0.7816164E-02  0.1300439E+00
        -11   -1    0    0    0    0  0.00000000000E+00  0.00000000000E+00  0.45593999997E+02  0.45594000000E+02  0.51100000000E-03 0.  1.
         11   -1    0    0    0    0 -0.00000000000E+00 -0.00000000000E+00 -0.45593999997E+02  0.45594000000E+02  0.51100000000E-03 0. -1.
    9900012    2    1    2    0    0 -0.21426918229E+01  0.13302800254E+02 -0.38361570694E+02  0.50528859220E+02  0.29999998086E+02 0.  0.
        -12    1    1    2    0    0  0.21426918229E+01 -0.13302800254E+02  0.38361570694E+02  0.40659140780E+02  0.00000000000E+00 0.  1.
         11    1    3    3    0    0  0.40168915682E+01  0.58145723937E+01 -0.39010719401E+01  0.80723622649E+01  0.51100000000E-03 0.  1.
        -11    1    3    3    0    0  0.89512703252E+00  0.11762115132E+02 -0.31593918156E+02  0.33724238605E+02  0.51100000000E-03 0. -1.
         12    1    3    3    0    0 -0.70547104237E+01 -0.42738872719E+01 -0.28665805977E+01  0.87322583504E+01  0.00000000000E+00 0. -1.
</event>
<event>
 7    1  0.5855569E-013  0.5052886E+02  0.7816164E-02  0.1300439E+00
        -11   -1    0    0    0    0  0.00000000000E+00  0.00000000000E+00  0.45593999997E+02  0.45594000000E+02  0.51100000000E-03 0.  1.
         11   -1    0    0    0    0 -0.00000000000E+00 -0.00000000000E+00 -0.45593999997E+02  0.45594000000E+02  0.51100000000E-03 0. -1.
    9900012    2    1    2    0    0  0.23604613205E+02  0.28946005397E+02 -0.16066007675E+02  0.50528860860E+02  0.30000003071E+02 0.  0.
        -12    1    1    2    0    0 -0.23604613205E+02 -0.28946005397E+02  0.16066007675E+02  0.40659139140E+02  0.00000000000E+00 0.  1.
         11    1    3    3    0    0  0.22607985252E+01 -0.20209582115E+01  0.12761042394E+01  0.32899733062E+01  0.51100000000E-03 0. -1.
        -11    1    3    3    0    0  0.10107244569E+02  0.30506020837E+02 -0.94413068879E+01  0.33494954487E+02  0.51100000000E-03 0.  1.
         12    1    3    3    0    0  0.11236570110E+02  0.46094277119E+00 -0.79008050269E+01  0.13743933067E+02  0.00000000000E+00 0. -1.
</event>
<event>
 7    1  0.5855569E-013  0.5052886E+02  0.7816164E-02  0.1300439E+00
        -11   -1    0    0    0    0  0.00000000000E+00  0.00000000000E+00  0.45593999997E+02  0.45594000000E+02  0.51100000000E-03 0.  1.
         11   -1    0    0    0    0 -0.00000000000E+00 -0.00000000000E+00 -0.45593999997E+02  0.45594000000E+02  0.51100000000E-03 0. -1.
    9900012    2    1    2    0    0 -0.31307833556E+01  0.68596383800E+01 -0.39953838960E+02  0.50528859690E+02  0.29999999514E+02 0.  0.
        -12    1    1    2    0    0  0.31307833556E+01 -0.68596383800E+01  0.39953838960E+02  0.40659140310E+02  0.00000000000E+00 0.  1.
         11    1    3    3    0    0 -0.18486357709E+01 -0.17650700048E+01 -0.72726158728E+01  0.77086878410E+01  0.51100000000E-03 0. -1.
        -11    1    3    3    0    0  0.81048015741E+01 -0.30294506911E+00 -0.49590091498E+00  0.81256078080E+01  0.51100000000E-03 0.  1.
        -12    1    3    3    0    0 -0.93869491587E+01  0.89276534539E+01 -0.32185322172E+02  0.34694564041E+02  0.00000000000E+00 0.  1.
</event>
<event>
 7    1  0.5855569E-013  0.5052885E+02  0.7816164E-02  0.1300439E+00
        -11   -1    0    0    0    0  0.00000000000E+00  0.00000000000E+00  0.45593999997E+02  0.45594000000E+02  0.51100000000E-03 0.  1.
         11   -1    0    0    0    0 -0.00000000000E+00 -0.00000000000E+00 -0.45593999997E+02  0.45594000000E+02  0.51100000000E-03 0. -1.
    9900012    2    1    2    0    0  0.14001378355E+02  0.31941497070E+01 -0.38038473455E+02  0.50528847882E+02  0.29999963622E+02 0.  0.
        -12    1    1    2    0    0 -0.14001378355E+02 -0.31941497070E+01  0.38038473455E+02  0.40659152118E+02  0.00000000000E+00 0.  1.
         11    1    3    3    0    0 -0.22534453430E+01 -0.38298597253E+00 -0.18435500909E+01  0.29365577413E+01  0.51100000000E-03 0. -1.
        -11    1    3    3    0    0 -0.55668064173E+01 -0.30854803214E+01 -0.15629212739E+02  0.16875479656E+02  0.51100000000E-03 0.  1.
         12    1    3    3    0    0  0.21821630116E+02  0.66626160009E+01 -0.20565710625E+02  0.30716810485E+02  0.00000000000E+00 0. -1.
</event>
<event>
 7    1  0.5855569E-013  0.5052887E+02  0.7816164E-02  0.1300439E+00
        -11   -1    0    0    0    0  0.00000000000E+00  0.00000000000E+00  0.45593999997E+02  0.45594000000E+02  0.51100000000E-03 0.  1.
         11   -1    0    0    0    0 -0.00000000000E+00 -0.00000000000E+00 -0.45593999997E+02  0.45594000000E+02  0.51100000000E-03 0. -1.
    9900012    2    1    2    0    0  0.20721896240E+02 -0.79237359991E+01 -0.34073193902E+02  0.50528866725E+02  0.30000020899E+02 0.  0.
        -12    1    1    2    0    0 -0.20721896240E+02  0.79237359991E+01  0.34073193902E+02  0.40659133275E+02  0.00000000000E+00 0.  1.
         11    1    3    3    0    0  0.10164252733E+02 -0.41346608528E+01 -0.11340980616E+02  0.15780535339E+02  0.51100000000E-03 0. -1.
        -11    1    3    3    0    0  0.90919711323E+01 -0.12794966083E+02 -0.85209911180E+01  0.17860077996E+02  0.51100000000E-03 0.  1.
        -12    1    3    3    0    0  0.14656723749E+01  0.90058909368E+01 -0.14211222168E+02  0.16888253390E+02  0.00000000000E+00 0.  1.
</event>
<event>
 7    1  0.5855569E-013  0.5052886E+02  0.7816164E-02  0.1300439E+00
        -11   -1    0    0    0    0  0.00000000000E+00  0.00000000000E+00  0.45593999997E+02  0.45594000000E+02  0.51100000000E-03 0. -1.
         11   -1    0    0    0    0 -0.00000000000E+00 -0.00000000000E+00 -0.45593999997E+02  0.45594000000E+02  0.51100000000E-03 0.  1.
    9900012    2    1    2    0    0 -0.28766906033E+02  0.28124176712E+02  0.58874048686E+01  0.50528859152E+02  0.29999997877E+02 0.  0.
        -12    1    1    2    0    0  0.28766906033E+02 -0.28124176712E+02 -0.58874048686E+01  0.40659140848E+02  0.00000000000E+00 0.  1.
         11    1    3    3    0    0 -0.19309149311E+02  0.19566091902E+02  0.99453509633E+01  0.29233289337E+02  0.51100000000E-03 0. -1.
        -11    1    3    3    0    0 -0.77455345324E+01  0.31170783253E+01  0.56180668960E+01  0.10063406898E+02  0.51100000000E-03 0.  1.
         12    1    3    3    0    0 -0.17122221899E+01  0.54410064842E+01 -0.96760129907E+01  0.11232162917E+02  0.00000000000E+00 0. -1.
</event>
<event>
 7    1  0.5855569E-013  0.5052886E+02  0.7816164E-02  0.1300439E+00
        -11   -1    0    0    0    0  0.00000000000E+00  0.00000000000E+00  0.45593999997E+02  0.45594000000E+02  0.51100000000E-03 0. -1.
         11   -1    0    0    0    0 -0.00000000000E+00 -0.00000000000E+00 -0.45593999997E+02  0.45594000000E+02  0.51100000000E-03 0.  1.
    9900012    2    1    2    0    0 -0.26627585208E+02 -0.24178243766E+02  0.18961793110E+02  0.50528863713E+02  0.30000011743E+02 0.  0.
        -12    1    1    2    0    0  0.26627585208E+02  0.24178243766E+02 -0.18961793110E+02  0.40659136287E+02  0.00000000000E+00 0.  1.
         11    1    3    3    0    0 -0.95099890250E+01 -0.57739425590E+01  0.21031901516E+01  0.11322619529E+02  0.51100000000E-03 0. -1.
        -11    1    3    3    0    0 -0.67498846308E+01 -0.35596111786E+01 -0.62394221632E+01  0.98570869665E+01  0.51100000000E-03 0.  1.
         12    1    3    3    0    0 -0.10367711552E+02 -0.14844690029E+02  0.23098025121E+02  0.29349157218E+02  0.00000000000E+00 0. -1.
</event>
<event>
 7    1  0.5855569E-013  0.5052886E+02  0.7816164E-02  0.1300439E+00
        -11   -1    0    0    0    0  0.00000000000E+00  0.00000000000E+00  0.45593999997E+02  0.45594000000E+02  0.51100000000E-03 0.  1.
         11   -1    0    0    0    0 -0.00000000000E+00 -0.00000000000E+00 -0.45593999997E+02  0.45594000000E+02  0.51100000000E-03 0. -1.
    9900012    2    1    2    0    0  0.32428873640E+02  0.27770167829E+01 -0.24368461532E+02  0.50528860987E+02  0.30000003457E+02 0.  0.
        -12    1    1    2    0    0 -0.32428873640E+02 -0.27770167829E+01  0.24368461532E+02  0.40659139013E+02  0.00000000000E+00 0.  1.
         11    1    3    3    0    0  0.25084392541E+00 -0.12226675268E+01  0.33969869550E+01  0.36190273818E+01  0.51100000000E-03 0. -1.
        -11    1    3    3    0    0  0.26714593923E+02  0.84290582984E+01 -0.13699069987E+02  0.31183057435E+02  0.51100000000E-03 0.  1.
         12    1    3    3    0    0  0.54634357921E+01 -0.44293739887E+01 -0.14066378501E+02  0.15726776170E+02  0.00000000000E+00 0. -1.
</event>
<event>
 7    1  0.5855569E-013  0.5052885E+02  0.7816164E-02  0.1300439E+00
        -11   -1    0    0    0    0  0.00000000000E+00  0.00000000000E+00  0.45593999997E+02  0.45594000000E+02  0.51100000000E-03 0.  1.
         11   -1    0    0    0    0 -0.00000000000E+00 -0.00000000000E+00 -0.45593999997E+02  0.45594000000E+02  0.51100000000E-03 0. -1.
    9900012    2    1    2    0    0 -0.15614274800E+02  0.40100573391E+01 -0.37326669120E+02  0.50528851399E+02  0.29999974311E+02 0.  0.
        -12    1    1    2    0    0  0.15614274800E+02 -0.40100573391E+01  0.37326669120E+02  0.40659148601E+02  0.00000000000E+00 0.  1.
         11    1    3    3    0    0 -0.77647165619E+01 -0.95898715727E+01 -0.17216503394E+02  0.21181700815E+02  0.51100000000E-03 0. -1.
        -11    1    3    3    0    0 -0.82551199143E-01 -0.21507970642E+01  0.55992259690E+00  0.22240180501E+01  0.51100000000E-03 0.  1.
         12    1    3    3    0    0 -0.77670070392E+01  0.15750725976E+02 -0.20670088323E+02  0.27123132533E+02  0.00000000000E+00 0. -1.
</event>
<event>
 7    1  0.5855569E-013  0.5052886E+02  0.7816164E-02  0.1300439E+00
        -11   -1    0    0    0    0  0.00000000000E+00  0.00000000000E+00  0.45593999997E+02  0.45594000000E+02  0.51100000000E-03 0.  1.
         11   -1    0    0    0    0 -0.00000000000E+00 -0.00000000000E+00 -0.45593999997E+02  0.45594000000E+02  0.51100000000E-03 0. -1.
    9900012    2    1    2    0    0  0.19891299849E+02 -0.32174267274E+01 -0.35315008082E+02  0.50528862770E+02  0.30000008876E+02 0.  0.
        -12    1    1    2    0    0 -0.19891299849E+02  0.32174267274E+01  0.35315008082E+02  0.40659137230E+02  0.00000000000E+00 0.  1.
         11    1    3    3    0    0  0.14745189726E+01 -0.47565212476E+01 -0.91936911846E+00  0.50639846382E+01  0.51100000000E-03 0. -1.
        -11    1    3    3    0    0 -0.14986324412E+01 -0.64110392252E+01 -0.25242959371E+01  0.70511980103E+01  0.51100000000E-03 0.  1.
         12    1    3    3    0    0  0.19915413317E+02  0.79501337454E+01 -0.31871343027E+02  0.38413680122E+02  0.00000000000E+00 0. -1.
</event>
<event>
 7    1  0.5855569E-013  0.5052891E+02  0.7816164E-02  0.1300439E+00
        -11   -1    0    0    0    0  0.00000000000E+00  0.00000000000E+00  0.45593999997E+02  0.45594000000E+02  0.51100000000E-03 0.  1.
         11   -1    0    0    0    0 -0.00000000000E+00 -0.00000000000E+00 -0.45593999997E+02  0.45594000000E+02  0.51100000000E-03 0. -1.
    9900012    2    1    2    0    0  0.36330396420E+02 -0.37965241792E+01 -0.17856382547E+02  0.50528908796E+02  0.30000148775E+02 0.  0.
        -12    1    1    2    0    0 -0.36330396420E+02  0.37965241792E+01  0.17856382547E+02  0.40659091204E+02  0.00000000000E+00 0.  1.
         11    1    3    3    0    0  0.23233444506E+02  0.84079744863E+01 -0.97779220540E+01  0.26572443217E+02  0.51100000000E-03 0. -1.
        -11    1    3    3    0    0  0.80723761518E+01 -0.29205198173E+00  0.10276113434E+01  0.81427597551E+01  0.51100000000E-03 0.  1.
        -12    1    3    3    0    0  0.50245757626E+01 -0.11912446684E+02 -0.91060718365E+01  0.15813705824E+02  0.00000000000E+00 0.  1.
</event>
<event>
 7    1  0.5855569E-013  0.5052888E+02  0.7816164E-02  0.1300439E+00
        -11   -1    0    0    0    0  0.00000000000E+00  0.00000000000E+00  0.45593999997E+02  0.45594000000E+02  0.51100000000E-03 0.  1.
         11   -1    0    0    0    0 -0.00000000000E+00 -0.00000000000E+00 -0.45593999997E+02  0.45594000000E+02  0.51100000000E-03 0. -1.
    9900012    2    1    2    0    0  0.19604046466E+02 -0.30233281835E+01 -0.35492324252E+02  0.50528877630E+02  0.30000054043E+02 0.  0.
        -12    1    1    2    0    0 -0.19604046466E+02  0.30233281835E+01  0.35492324252E+02  0.40659122370E+02  0.00000000000E+00 0.  1.
         11    1    3    3    0    0 -0.57344296014E+00 -0.16621062758E+01 -0.55909776304E+01  0.58609269937E+01  0.51100000000E-03 0. -1.
        -11    1    3    3    0    0 -0.31509868490E+01  0.60879883856E+01 -0.12347656435E+01  0.69654122033E+01  0.51100000000E-03 0.  1.
         12    1    3    3    0    0  0.23328476275E+02 -0.74492102933E+01 -0.28666580978E+02  0.37702538433E+02  0.00000000000E+00 0. -1.
</event>
<event>
 7    1  0.5855569E-013  0.5052886E+02  0.7816164E-02  0.1300439E+00
        -11   -1    0    0    0    0  0.00000000000E+00  0.00000000000E+00  0.45593999997E+02  0.45594000000E+02  0.51100000000E-03 0.  1.
         11   -1    0    0    0    0 -0.00000000000E+00 -0.00000000000E+00 -0.45593999997E+02  0.45594000000E+02  0.51100000000E-03 0. -1.
    9900012    2    1    2    0    0 -0.23505506905E+02 -0.27793489806E+02 -0.18115703478E+02  0.50528860277E+02  0.30000001299E+02 0.  0.
        -12    1    1    2    0    0  0.23505506905E+02  0.27793489806E+02  0.18115703478E+02  0.40659139723E+02  0.00000000000E+00 0.  1.
         11    1    3    3    0    0 -0.84359977114E+01 -0.14377879021E+02 -0.72283217860E+01  0.18169702767E+02  0.51100000000E-03 0. -1.
        -11    1    3    3    0    0 -0.42267943072E+01 -0.18150635566E+02 -0.63793068282E+01  0.19697891192E+02  0.51100000000E-03 0.  1.
         12    1    3    3    0    0 -0.10842714887E+02  0.47350247809E+01 -0.45080748643E+01  0.12661266318E+02  0.00000000000E+00 0. -1.
</event>
<event>
 7    1  0.5855569E-013  0.5052885E+02  0.7816164E-02  0.1300439E+00
        -11   -1    0    0    0    0  0.00000000000E+00  0.00000000000E+00  0.45593999997E+02  0.45594000000E+02  0.51100000000E-03 0. -1.
         11   -1    0    0    0    0 -0.00000000000E+00 -0.00000000000E+00 -0.45593999997E+02  0.45594000000E+02  0.51100000000E-03 0.  1.
    9900012    2    1    2    0    0 -0.49605791816E+01  0.31542860781E+02  0.25171557183E+02  0.50528847241E+02  0.29999961673E+02 0.  0.
        -12    1    1    2    0    0  0.49605791816E+01 -0.31542860781E+02 -0.25171557183E+02  0.40659152759E+02  0.00000000000E+00 0.  1.
         11    1    3    3    0    0 -0.40399822213E+01  0.15837452951E+02  0.64445059488E+01  0.17569235313E+02  0.51100000000E-03 0. -1.
        -11    1    3    3    0    0  0.93307947381E+01  0.61016732374E+01  0.14499373379E+02  0.18290051268E+02  0.51100000000E-03 0.  1.
         12    1    3    3    0    0 -0.10251391698E+02  0.96037345931E+01  0.42276778553E+01  0.14669560659E+02  0.00000000000E+00 0. -1.
</event>
<event>
 7    1  0.5855569E-013  0.5052883E+02  0.7816164E-02  0.1300439E+00
        -11   -1    0    0    0    0  0.00000000000E+00  0.00000000000E+00  0.45593999997E+02  0.45594000000E+02  0.51100000000E-03 0. -1.
         11   -1    0    0    0    0 -0.00000000000E+00 -0.00000000000E+00 -0.45593999997E+02  0.45594000000E+02  0.51100000000E-03 0.  1.
    9900012    2    1    2    0    0  0.22462637787E+02  0.24520059520E+02  0.23395828660E+02  0.50528828662E+02  0.29999905201E+02 0.  0.
        -12    1    1    2    0    0 -0.22462637787E+02 -0.24520059520E+02 -0.23395828660E+02  0.40659171338E+02  0.00000000000E+00 0.  1.
         11    1    3    3    0    0 -0.42476072916E+01  0.67338203627E+01  0.83043849077E+01  0.11504317161E+02  0.51100000000E-03 0. -1.
        -11    1    3    3    0    0  0.24523102070E+01 -0.87819864150E+00  0.68477626446E+01  0.73264528732E+01  0.51100000000E-03 0.  1.
         12    1    3    3    0    0  0.24257934872E+02  0.18664437798E+02  0.82436811075E+01  0.31698058628E+02  0.00000000000E+00 0. -1.
</event>
<event>
 7    1  0.5855569E-013  0.5052882E+02  0.7816164E-02  0.1300439E+00
        -11   -1    0    0    0    0  0.00000000000E+00  0.00000000000E+00  0.45593999997E+02  0.45594000000E+02  0.51100000000E-03 0.  1.
         11   -1    0    0    0    0 -0.00000000000E+00 -0.00000000000E+00 -0.45593999997E+02  0.45594000000E+02  0.51100000000E-03 0. -1.
    9900012    2    1    2    0    0 -0.20948057025E+02  0.33794993912E+02 -0.84997600628E+01  0.50528823573E+02  0.29999889731E+02 0.  0.
        -12    1    1    2    0    0  0.20948057025E+02 -0.33794993912E+02  0.84997600628E+01  0.40659176427E+02  0.00000000000E+00 0.  1.
         11    1    3    3    0    0 -0.82249884106E+01  0.21519579591E+02  0.24297122865E+01  0.23165626307E+02  0.51100000000E-03 0. -1.
        -11    1    3    3    0    0 -0.27815742230E+01  0.87340009947E+01  0.32165859128E+01  0.97142345930E+01  0.51100000000E-03 0.  1.
         12    1    3    3    0    0 -0.99414943911E+01  0.35414133266E+01 -0.14146058262E+02  0.17648962673E+02  0.00000000000E+00 0. -1.
</event>
<event>
 7    1  0.5855569E-013  0.5052885E+02  0.7816164E-02  0.1300439E+00
        -11   -1    0    0    0    0  0.00000000000E+00  0.00000000000E+00  0.45593999997E+02  0.45594000000E+02  0.51100000000E-03 0.  1.
         11   -1    0    0    0    0 -0.00000000000E+00 -0.00000000000E+00 -0.45593999997E+02  0.45594000000E+02  0.51100000000E-03 0. -1.
    9900012    2    1    2    0    0  0.14483614885E+02  0.23695776557E+02 -0.29696825683E+02  0.50528851184E+02  0.29999973659E+02 0.  0.
        -12    1    1    2    0    0 -0.14483614885E+02 -0.23695776557E+02  0.29696825683E+02  0.40659148816E+02  0.00000000000E+00 0.  1.
         11    1    3    3    0    0  0.49512099475E+01  0.12864180177E+02 -0.60079894442E+01  0.15036540460E+02  0.51100000000E-03 0. -1.
        -11    1    3    3    0    0  0.95560696778E+01  0.75830171996E+01 -0.64034822634E+00  0.12216000313E+02  0.51100000000E-03 0.  1.
         12    1    3    3    0    0 -0.23664739994E-01  0.32485791804E+01 -0.23048488012E+02  0.23276310411E+02  0.00000000000E+00 0. -1.
</event>
<event>
 7    1  0.5855569E-013  0.5052886E+02  0.7816164E-02  0.1300439E+00
        -11   -1    0    0    0    0  0.00000000000E+00  0.00000000000E+00  0.45593999997E+02  0.45594000000E+02  0.51100000000E-03 0.  1.
         11   -1    0    0    0    0 -0.00000000000E+00 -0.00000000000E+00 -0.45593999997E+02  0.45594000000E+02  0.51100000000E-03 0. -1.
    9900012    2    1    2    0    0 -0.17825384134E+02 -0.35209318018E+02 -0.97839429249E+01  0.50528856699E+02  0.29999990421E+02 0.  0.
        -12    1    1    2    0    0  0.17825384134E+02  0.35209318018E+02  0.97839429249E+01  0.40659143301E+02  0.00000000000E+00 0.  1.
         11    1    3    3    0    0 -0.78222689942E+01 -0.15504772642E+02  0.33163488773E+01  0.17680046296E+02  0.51100000000E-03 0. -1.
        -11    1    3    3    0    0 -0.60503673570E+00 -0.32535623201E+01  0.54224733690E+01  0.63525549916E+01  0.51100000000E-03 0.  1.
         12    1    3    3    0    0 -0.93980784040E+01 -0.16450983057E+02 -0.18522765171E+02  0.26496255411E+02  0.00000000000E+00 0. -1.
</event>
<event>
 7    1  0.5855569E-013  0.5052886E+02  0.7816164E-02  0.1300439E+00
        -11   -1    0    0    0    0  0.00000000000E+00  0.00000000000E+00  0.45593999997E+02  0.45594000000E+02  0.51100000000E-03 0. -1.
         11   -1    0    0    0    0 -0.00000000000E+00 -0.00000000000E+00 -0.45593999997E+02  0.45594000000E+02  0.51100000000E-03 0.  1.
    9900012    2    1    2    0    0  0.18988565105E+02 -0.27823902264E+01  0.35844926493E+02  0.50528855206E+02  0.29999985884E+02 0.  0.
        -12    1    1    2    0    0 -0.18988565105E+02  0.27823902264E+01 -0.35844926493E+02  0.40659144794E+02  0.00000000000E+00 0.  1.
         11    1    3    3    0    0 -0.53151694807E-01 -0.11900319694E+02  0.10457448412E+02  0.15842306065E+02  0.51100000000E-03 0. -1.
        -11    1    3    3    0    0  0.99921003459E+01 -0.10104464957E+01  0.11293113543E+02  0.15112825189E+02  0.51100000000E-03 0.  1.
        -12    1    3    3    0    0  0.90496164538E+01  0.10128375963E+02  0.14094364537E+02  0.19573723951E+02  0.00000000000E+00 0.  1.
</event>
<event>
 7    1  0.5855569E-013  0.5052886E+02  0.7816164E-02  0.1300439E+00
        -11   -1    0    0    0    0  0.00000000000E+00  0.00000000000E+00  0.45593999997E+02  0.45594000000E+02  0.51100000000E-03 0. -1.
         11   -1    0    0    0    0 -0.00000000000E+00 -0.00000000000E+00 -0.45593999997E+02  0.45594000000E+02  0.51100000000E-03 0.  1.
    9900012    2    1    2    0    0 -0.30329259810E+02 -0.18563570587E+02  0.19715361759E+02  0.50528860279E+02  0.30000001304E+02 0.  0.
        -12    1    1    2    0    0  0.30329259810E+02  0.18563570587E+02 -0.19715361759E+02  0.40659139721E+02  0.00000000000E+00 0.  1.
         11    1    3    3    0    0 -0.19524675365E+02 -0.76423062443E+01  0.13906597399E+02  0.25159714711E+02  0.51100000000E-03 0. -1.
        -11    1    3    3    0    0  0.16822766575E+01  0.28985327026E+01  0.58519065161E+01  0.67436159970E+01  0.51100000000E-03 0.  1.
         12    1    3    3    0    0 -0.12486861102E+02 -0.13819797046E+02 -0.43142155676E-01  0.18625529571E+02  0.00000000000E+00 0. -1.
</event>
<event>
 7    1  0.5855569E-013  0.5052887E+02  0.7816164E-02  0.1300439E+00
        -11   -1    0    0    0    0  0.00000000000E+00  0.00000000000E+00  0.45593999997E+02  0.45594000000E+02  0.51100000000E-03 0.  1.
         11   -1    0    0    0    0 -0.00000000000E+00 -0.00000000000E+00 -0.45593999997E+02  0.45594000000E+02  0.51100000000E-03 0. -1.
    9900012    2    1    2    0    0 -0.89260001120E+01 -0.29687677213E+02 -0.26308429422E+02  0.50528866770E+02  0.30000021036E+02 0.  0.
        -12    1    1    2    0    0  0.89260001120E+01  0.29687677213E+02  0.26308429422E+02  0.40659133230E+02  0.00000000000E+00 0.  1.
         11    1    3    3    0    0 -0.66311497243E+01 -0.21435279234E+02 -0.11061835396E+02  0.25016145688E+02  0.51100000000E-03 0. -1.
        -11    1    3    3    0    0 -0.90502748782E+01 -0.63456090292E+00 -0.11535533873E+02  0.14675785665E+02  0.51100000000E-03 0.  1.
         12    1    3    3    0    0  0.67554244905E+01 -0.76178370765E+01 -0.37110601535E+01  0.10836935417E+02  0.00000000000E+00 0. -1.
</event>
<event>
 7    1  0.5855569E-013  0.5052886E+02  0.7816164E-02  0.1300439E+00
        -11   -1    0    0    0    0  0.00000000000E+00  0.00000000000E+00  0.45593999997E+02  0.45594000000E+02  0.51100000000E-03 0.  1.
         11   -1    0    0    0    0 -0.00000000000E+00 -0.00000000000E+00 -0.45593999997E+02  0.45594000000E+02  0.51100000000E-03 0. -1.
    9900012    2    1    2    0    0 -0.35226619457E+02  0.17393077085E+02 -0.10475278272E+02  0.50528864449E+02  0.30000013980E+02 0.  0.
        -12    1    1    2    0    0  0.35226619457E+02 -0.17393077085E+02  0.10475278272E+02  0.40659135551E+02  0.00000000000E+00 0.  1.
         11    1    3    3    0    0 -0.35386277093E+01  0.11904215390E+01 -0.61085493673E+00  0.37831380520E+01  0.51100000000E-03 0. -1.
        -11    1    3    3    0    0  0.70096202177E+00 -0.62459390477E+01 -0.13574281080E+01  0.64300632713E+01  0.51100000000E-03 0.  1.
        -12    1    3    3    0    0 -0.32388953770E+02  0.22448594593E+02 -0.85069952271E+01  0.40315663126E+02  0.00000000000E+00 0.  1.
</event>
<event>
 7    1  0.5855569E-013  0.5052886E+02  0.7816164E-02  0.1300439E+00
        -11   -1    0    0    0    0  0.00000000000E+00  0.00000000000E+00  0.45593999997E+02  0.45594000000E+02  0.51100000000E-03 0.  1.
         11   -1    0    0    0    0 -0.00000000000E+00 -0.00000000000E+00 -0.45593999997E+02  0.45594000000E+02  0.51100000000E-03 0. -1.
    9900012    2    1    2    0    0  0.37306042814E+02 -0.13723166834E+02 -0.85498081518E+01  0.50528863785E+02  0.30000011959E+02 0.  0.
        -12    1    1    2    0    0 -0.37306042814E+02  0.13723166834E+02  0.85498081518E+01  0.40659136215E+02  0.00000000000E+00 0.  1.
         11    1    3    3    0    0  0.16116397176E+02 -0.70508211206E+01  0.90855780351E+01  0.19798991513E+02  0.51100000000E-03 0.  1.
        -11    1    3    3    0    0  0.13489421670E+02 -0.49571373963E+01 -0.39016976409E+01  0.14891640370E+02  0.51100000000E-03 0. -1.
        -12    1    3    3    0    0  0.77002239672E+01 -0.17152083169E+01 -0.13733688546E+02  0.15838231902E+02  0.00000000000E+00 0.  1.
</event>
<event>
 7    1  0.5855569E-013  0.5052889E+02  0.7816164E-02  0.1300439E+00
        -11   -1    0    0    0    0  0.00000000000E+00  0.00000000000E+00  0.45593999997E+02  0.45594000000E+02  0.51100000000E-03 0.  1.
         11   -1    0    0    0    0 -0.00000000000E+00 -0.00000000000E+00 -0.45593999997E+02  0.45594000000E+02  0.51100000000E-03 0. -1.
    9900012    2    1    2    0    0  0.33686087919E+02 -0.71414044509E+00 -0.22757435830E+02  0.50528887842E+02  0.30000085085E+02 0.  0.
        -12    1    1    2    0    0 -0.33686087919E+02  0.71414044509E+00  0.22757435830E+02  0.40659112158E+02  0.00000000000E+00 0.  1.
         11    1    3    3    0    0  0.10894367636E+02 -0.28187278099E+00 -0.12470028189E+02  0.16561047725E+02  0.51100000000E-03 0. -1.
        -11    1    3    3    0    0  0.12397613521E+02  0.98438834722E+01 -0.11091594498E+02  0.19329416225E+02  0.51100000000E-03 0.  1.
        -12    1    3    3    0    0  0.10394106763E+02 -0.10276151136E+02  0.80418685616E+00  0.14638423893E+02  0.00000000000E+00 0.  1.
</event>
<event>
 7    1  0.5855569E-013  0.5052885E+02  0.7816164E-02  0.1300439E+00
        -11   -1    0    0    0    0  0.00000000000E+00  0.00000000000E+00  0.45593999997E+02  0.45594000000E+02  0.51100000000E-03 0.  1.
         11   -1    0    0    0    0 -0.00000000000E+00 -0.00000000000E+00 -0.45593999997E+02  0.45594000000E+02  0.51100000000E-03 0. -1.
    9900012    2    1    2    0    0 -0.29446173259E+02  0.24904388820E+02 -0.12878698075E+02  0.50528848924E+02  0.29999966790E+02 0.  0.
        -12    1    1    2    0    0  0.29446173259E+02 -0.24904388820E+02  0.12878698075E+02  0.40659151076E+02  0.00000000000E+00 0.  1.
         11    1    3    3    0    0 -0.19147101474E+02  0.11383180632E+02 -0.15359703275E+00  0.22275813980E+02  0.51100000000E-03 0. -1.
        -11    1    3    3    0    0 -0.97667898735E+01 -0.16721261107E+01 -0.63423785522E+01  0.11764861075E+02  0.51100000000E-03 0.  1.
         12    1    3    3    0    0 -0.53228191133E+00  0.15193334298E+02 -0.63827224904E+01  0.16488173869E+02  0.00000000000E+00 0. -1.
</event>
<event>
 7    1  0.5855569E-013  0.5052885E+02  0.7816164E-02  0.1300439E+00
        -11   -1    0    0    0    0  0.00000000000E+00  0.00000000000E+00  0.45593999997E+02  0.45594000000E+02  0.51100000000E-03 0.  1.
         11   -1    0    0    0    0 -0.00000000000E+00 -0.00000000000E+00 -0.45593999997E+02  0.45594000000E+02  0.51100000000E-03 0. -1.
    9900012    2    1    2    0    0  0.83022539091E+01 -0.53843673587E+01 -0.39436624165E+02  0.50528853952E+02  0.29999982072E+02 0.  0.
        -12    1    1    2    0    0 -0.83022539091E+01  0.53843673587E+01  0.39436624165E+02  0.40659146048E+02  0.00000000000E+00 0.  1.
         11    1    3    3    0    0  0.83287120034E+01 -0.53741756497E+01 -0.34096420595E+01  0.10482121292E+02  0.51100000000E-03 0. -1.
        -11    1    3    3    0    0 -0.41586301541E+01  0.69589436987E+01 -0.10503613198E+02  0.13268270145E+02  0.51100000000E-03 0.  1.
         12    1    3    3    0    0  0.41321720599E+01 -0.69691354078E+01 -0.25523368908E+02  0.26778462515E+02  0.00000000000E+00 0. -1.
</event>
<event>
 7    1  0.5855569E-013  0.5052886E+02  0.7816164E-02  0.1300439E+00
        -11   -1    0    0    0    0  0.00000000000E+00  0.00000000000E+00  0.45593999997E+02  0.45594000000E+02  0.51100000000E-03 0. -1.
         11   -1    0    0    0    0 -0.00000000000E+00 -0.00000000000E+00 -0.45593999997E+02  0.45594000000E+02  0.51100000000E-03 0.  1.
    9900012    2    1    2    0    0  0.35761320005E+02  0.17712584100E+02  0.77818935914E+01  0.50528861889E+02  0.30000006198E+02 0.  0.
        -12    1    1    2    0    0 -0.35761320005E+02 -0.17712584100E+02 -0.77818935914E+01  0.40659138111E+02  0.00000000000E+00 0.  1.
         11    1    3    3    0    0  0.13465470040E+02  0.84118638936E+01  0.86388188138E+01  0.18075052650E+02  0.51100000000E-03 0. -1.
        -11    1    3    3    0    0 -0.20640212642E+01  0.59866634689E+01 -0.42644418739E+01  0.76345129528E+01  0.51100000000E-03 0.  1.
         12    1    3    3    0    0  0.24359871230E+02  0.33140567379E+01  0.34075166516E+01  0.24819296286E+02  0.00000000000E+00 0. -1.
</event>
<event>
 7    1  0.5855569E-013  0.5052886E+02  0.7816164E-02  0.1300439E+00
        -11   -1    0    0    0    0  0.00000000000E+00  0.00000000000E+00  0.45593999997E+02  0.45594000000E+02  0.51100000000E-03 0.  1.
         11   -1    0    0    0    0 -0.00000000000E+00 -0.00000000000E+00 -0.45593999997E+02  0.45594000000E+02  0.51100000000E-03 0. -1.
    9900012    2    1    2    0    0  0.54561912880E+01  0.39265309725E+02 -0.90350010710E+01  0.50528858156E+02  0.29999994850E+02 0.  0.
        -12    1    1    2    0    0 -0.54561912880E+01 -0.39265309725E+02  0.90350010710E+01  0.40659141844E+02  0.00000000000E+00 0.  1.
         11    1    3    3    0    0  0.14888122112E+01 -0.21140307728E+01  0.37559712182E+01  0.45599350830E+01  0.51100000000E-03 0. -1.
        -11    1    3    3    0    0 -0.49931298887E+00  0.31922528496E+02 -0.37531084264E+01  0.32146274468E+02  0.51100000000E-03 0.  1.
         12    1    3    3    0    0  0.44666920657E+01  0.94568120015E+01 -0.90378638627E+01  0.13822648604E+02  0.00000000000E+00 0. -1.
</event>
<event>
 7    1  0.5855569E-013  0.5052887E+02  0.7816164E-02  0.1300439E+00
        -11   -1    0    0    0    0  0.00000000000E+00  0.00000000000E+00  0.45593999997E+02  0.45594000000E+02  0.51100000000E-03 0. -1.
         11   -1    0    0    0    0 -0.00000000000E+00 -0.00000000000E+00 -0.45593999997E+02  0.45594000000E+02  0.51100000000E-03 0.  1.
    9900012    2    1    2    0    0 -0.13549017610E+02 -0.38275222800E+02 -0.21439450272E+01  0.50528867460E+02  0.30000023132E+02 0.  0.
        -12    1    1    2    0    0  0.13549017610E+02  0.38275222800E+02  0.21439450272E+01  0.40659132540E+02  0.00000000000E+00 0.  1.
         11    1    3    3    0    0  0.38868921172E+01 -0.22167394058E+02  0.25912915568E+01  0.22654272927E+02  0.51100000000E-03 0. -1.
        -11    1    3    3    0    0 -0.12100000592E+02 -0.14839422692E+02  0.19283857847E+01  0.19244145919E+02  0.51100000000E-03 0.  1.
        -12    1    3    3    0    0 -0.53359091352E+01 -0.12684060503E+01 -0.66636223687E+01  0.86304486141E+01  0.00000000000E+00 0.  1.
</event>
<event>
 7    1  0.5855569E-013  0.5052886E+02  0.7816164E-02  0.1300439E+00
        -11   -1    0    0    0    0  0.00000000000E+00  0.00000000000E+00  0.45593999997E+02  0.45594000000E+02  0.51100000000E-03 0. -1.
         11   -1    0    0    0    0 -0.00000000000E+00 -0.00000000000E+00 -0.45593999997E+02  0.45594000000E+02  0.51100000000E-03 0.  1.
    9900012    2    1    2    0    0 -0.22864111987E+02  0.24608769845E+02 -0.22908662888E+02  0.50528855818E+02  0.29999987746E+02 0.  0.
        -12    1    1    2    0    0  0.22864111987E+02 -0.24608769845E+02  0.22908662888E+02  0.40659144182E+02  0.00000000000E+00 0.  1.
         11    1    3    3    0    0 -0.75466657523E+01  0.20590073608E+02 -0.11259066861E+02  0.24650961077E+02  0.51100000000E-03 0. -1.
        -11    1    3    3    0    0 -0.87590446385E+01  0.10512401380E+02 -0.85831938445E+01  0.16152481623E+02  0.51100000000E-03 0.  1.
        -12    1    3    3    0    0 -0.65584015965E+01 -0.64937051428E+01 -0.30664021825E+01  0.97254131186E+01  0.00000000000E+00 0.  1.
</event>
<event>
 7    1  0.5855569E-013  0.5052887E+02  0.7816164E-02  0.1300439E+00
        -11   -1    0    0    0    0  0.00000000000E+00  0.00000000000E+00  0.45593999997E+02  0.45594000000E+02  0.51100000000E-03 0.  1.
         11   -1    0    0    0    0 -0.00000000000E+00 -0.00000000000E+00 -0.45593999997E+02  0.45594000000E+02  0.51100000000E-03 0. -1.
    9900012    2    1    2    0    0  0.15892425574E+02 -0.32789192276E+02 -0.18040646389E+02  0.50528865197E+02  0.30000016254E+02 0.  0.
        -12    1    1    2    0    0 -0.15892425574E+02  0.32789192276E+02  0.18040646389E+02  0.40659134803E+02  0.00000000000E+00 0.  1.
         11    1    3    3    0    0  0.59059767828E+01 -0.87683723316E+01 -0.12974494358E+02  0.16736260610E+02  0.51100000000E-03 0. -1.
        -11    1    3    3    0    0  0.34624509542E+01 -0.20423306617E+02 -0.11722853794E+02  0.23801792393E+02  0.51100000000E-03 0.  1.
        -12    1    3    3    0    0  0.65239978371E+01 -0.35975133276E+01  0.66567017635E+01  0.99908121937E+01  0.00000000000E+00 0.  1.
</event>
<event>
 7    1  0.5855569E-013  0.5052887E+02  0.7816164E-02  0.1300439E+00
        -11   -1    0    0    0    0  0.00000000000E+00  0.00000000000E+00  0.45593999997E+02  0.45594000000E+02  0.51100000000E-03 0. -1.
         11   -1    0    0    0    0 -0.00000000000E+00 -0.00000000000E+00 -0.45593999997E+02  0.45594000000E+02  0.51100000000E-03 0.  1.
    9900012    2    1    2    0    0 -0.37188197461E+02 -0.63571343439E+01  0.15158817995E+02  0.50528868793E+02  0.30000027185E+02 0.  0.
        -12    1    1    2    0    0  0.37188197461E+02  0.63571343439E+01 -0.15158817995E+02  0.40659131207E+02  0.00000000000E+00 0.  1.
         11    1    3    3    0    0 -0.35188026952E+01 -0.52937461459E+00  0.12405382797E+02  0.12905647310E+02  0.51100000000E-03 0. -1.
        -11    1    3    3    0    0  0.63610820276E+00  0.20473352060E+01 -0.70282145091E+00  0.22561412509E+01  0.51100000000E-03 0.  1.
        -12    1    3    3    0    0 -0.34305502968E+02 -0.78750949353E+01  0.34562566493E+01  0.35367080233E+02  0.00000000000E+00 0.  1.
</event>
<event>
 7    1  0.5855569E-013  0.5052885E+02  0.7816164E-02  0.1300439E+00
        -11   -1    0    0    0    0  0.00000000000E+00  0.00000000000E+00  0.45593999997E+02  0.45594000000E+02  0.51100000000E-03 0. -1.
         11   -1    0    0    0    0 -0.00000000000E+00 -0.00000000000E+00 -0.45593999997E+02  0.45594000000E+02  0.51100000000E-03 0.  1.
    9900012    2    1    2    0    0  0.31743953669E+02  0.62691226895E+01  0.24620837321E+02  0.50528854359E+02  0.29999983310E+02 0.  0.
        -12    1    1    2    0    0 -0.31743953669E+02 -0.62691226895E+01 -0.24620837321E+02  0.40659145641E+02  0.00000000000E+00 0.  1.
         11    1    3    3    0    0  0.14901365511E+02 -0.82524706763E+00  0.18359614086E+02  0.23660244218E+02  0.51100000000E-03 0. -1.
        -11    1    3    3    0    0  0.16676495569E+01 -0.43293962800E+01  0.63621333060E+01  0.78741010698E+01  0.51100000000E-03 0.  1.
         12    1    3    3    0    0  0.15174938601E+02  0.11423766037E+02 -0.10091007020E+00  0.18994509071E+02  0.00000000000E+00 0. -1.
</event>
<event>
 7    1  0.5855569E-013  0.5052886E+02  0.7816164E-02  0.1300439E+00
        -11   -1    0    0    0    0  0.00000000000E+00  0.00000000000E+00  0.45593999997E+02  0.45594000000E+02  0.51100000000E-03 0.  1.
         11   -1    0    0    0    0 -0.00000000000E+00 -0.00000000000E+00 -0.45593999997E+02  0.45594000000E+02  0.51100000000E-03 0. -1.
    9900012    2    1    2    0    0 -0.64323119898E+01  0.10946424831E+01 -0.40132192652E+02  0.50528858755E+02  0.29999996673E+02 0.  0.
        -12    1    1    2    0    0  0.64323119898E+01 -0.10946424831E+01  0.40132192652E+02  0.40659141245E+02  0.00000000000E+00 0.  1.
         11    1    3    3    0    0  0.15314630352E+01  0.40085987905E+01  0.26175380989E+01  0.50265046754E+01  0.51100000000E-03 0. -1.
        -11    1    3    3    0    0 -0.30953066986E+01  0.31268754269E+01 -0.38810828385E+01  0.58669479079E+01  0.51100000000E-03 0.  1.
         12    1    3    3    0    0 -0.48684683263E+01 -0.60408317343E+01 -0.38868647912E+02  0.39635406172E+02  0.00000000000E+00 0. -1.
</event>
<event>
 7    1  0.5855569E-013  0.5052891E+02  0.7816164E-02  0.1300439E+00
        -11   -1    0    0    0    0  0.00000000000E+00  0.00000000000E+00  0.45593999997E+02  0.45594000000E+02  0.51100000000E-03 0. -1.
         11   -1    0    0    0    0 -0.00000000000E+00 -0.00000000000E+00 -0.45593999997E+02  0.45594000000E+02  0.51100000000E-03 0.  1.
    9900012    2    1    2    0    0 -0.46525844024E+01 -0.19758468316E+02 -0.35229508279E+02  0.50528906732E+02  0.30000142501E+02 0.  0.
        -12    1    1    2    0    0  0.46525844024E+01  0.19758468316E+02  0.35229508279E+02  0.40659093268E+02  0.00000000000E+00 0.  1.
         11    1    3    3    0    0 -0.50705000617E+00 -0.10550979897E+02 -0.23731137300E+02  0.25975895641E+02  0.51100000000E-03 0. -1.
        -11    1    3    3    0    0 -0.76345138276E+01  0.32512314609E+01 -0.20938013461E+01  0.85580553711E+01  0.51100000000E-03 0.  1.
         12    1    3    3    0    0  0.34889794314E+01 -0.12458719879E+02 -0.94045696327E+01  0.15994955720E+02  0.00000000000E+00 0. -1.
</event>
<event>
 7    1  0.5855569E-013  0.5052886E+02  0.7816164E-02  0.1300439E+00
        -11   -1    0    0    0    0  0.00000000000E+00  0.00000000000E+00  0.45593999997E+02  0.45594000000E+02  0.51100000000E-03 0.  1.
         11   -1    0    0    0    0 -0.00000000000E+00 -0.00000000000E+00 -0.45593999997E+02  0.45594000000E+02  0.51100000000E-03 0. -1.
    9900012    2    1    2    0    0 -0.26430773858E+02 -0.21739361168E+02 -0.21954045628E+02  0.50528858959E+02  0.29999997293E+02 0.  0.
        -12    1    1    2    0    0  0.26430773858E+02  0.21739361168E+02  0.21954045628E+02  0.40659141041E+02  0.00000000000E+00 0.  1.
         11    1    3    3    0    0 -0.10541009628E+02 -0.12539915487E+02 -0.23810609483E+02  0.28901686605E+02  0.51100000000E-03 0. -1.
        -11    1    3    3    0    0 -0.73128416504E+01  0.11650102931E+00 -0.32113449189E+01  0.79877382245E+01  0.51100000000E-03 0.  1.
         12    1    3    3    0    0 -0.85769225796E+01 -0.93159467095E+01  0.50679087738E+01  0.13639434129E+02  0.00000000000E+00 0. -1.
</event>
<event>
 7    1  0.5855569E-013  0.5052887E+02  0.7816164E-02  0.1300439E+00
        -11   -1    0    0    0    0  0.00000000000E+00  0.00000000000E+00  0.45593999997E+02  0.45594000000E+02  0.51100000000E-03 0. -1.
         11   -1    0    0    0    0 -0.00000000000E+00 -0.00000000000E+00 -0.45593999997E+02  0.45594000000E+02  0.51100000000E-03 0.  1.
    9900012    2    1    2    0    0  0.34165990706E+02 -0.20338657643E+02  0.84964307614E+01  0.50528865093E+02  0.30000015938E+02 0.  0.
        -12    1    1    2    0    0 -0.34165990706E+02  0.20338657643E+02 -0.84964307614E+01  0.40659134907E+02  0.00000000000E+00 0.  1.
         11    1    3    3    0    0  0.78513001047E+01 -0.48460389269E+01 -0.78711446242E+01  0.12127733695E+02  0.51100000000E-03 0. -1.
        -11    1    3    3    0    0  0.20226144375E+01 -0.39010974617E+01 -0.29305847255E+01  0.52818422603E+01  0.51100000000E-03 0.  1.
         12    1    3    3    0    0  0.24292076164E+02 -0.11591521254E+02  0.19298160111E+02  0.33119289138E+02  0.00000000000E+00 0. -1.
</event>
<event>
 7    1  0.5855569E-013  0.5052886E+02  0.7816164E-02  0.1300439E+00
        -11   -1    0    0    0    0  0.00000000000E+00  0.00000000000E+00  0.45593999997E+02  0.45594000000E+02  0.51100000000E-03 0.  1.
         11   -1    0    0    0    0 -0.00000000000E+00 -0.00000000000E+00 -0.45593999997E+02  0.45594000000E+02  0.51100000000E-03 0. -1.
    9900012    2    1    2    0    0 -0.31604678314E+02  0.10364315636E+02 -0.23385701516E+02  0.50528858772E+02  0.29999996724E+02 0.  0.
        -12    1    1    2    0    0  0.31604678314E+02 -0.10364315636E+02  0.23385701516E+02  0.40659141228E+02  0.00000000000E+00 0.  1.
         11    1    3    3    0    0 -0.84404840065E+01 -0.28112620209E+01 -0.33401794520E+01  0.95027240014E+01  0.51100000000E-03 0. -1.
        -11    1    3    3    0    0 -0.67988846491E+01 -0.44753476621E+01  0.20045723242E+01  0.83828324349E+01  0.51100000000E-03 0.  1.
        -12    1    3    3    0    0 -0.16365309659E+02  0.17650925319E+02 -0.22050094389E+02  0.32643302336E+02  0.00000000000E+00 0.  1.
</event>
<event>
 7    1  0.5855569E-013  0.5052885E+02  0.7816164E-02  0.1300439E+00
        -11   -1    0    0    0    0  0.00000000000E+00  0.00000000000E+00  0.45593999997E+02  0.45594000000E+02  0.51100000000E-03 0.  1.
         11   -1    0    0    0    0 -0.00000000000E+00 -0.00000000000E+00 -0.45593999997E+02  0.45594000000E+02  0.51100000000E-03 0. -1.
    9900012    2    1    2    0    0  0.75502642504E+01  0.32285980423E+02 -0.23532435405E+02  0.50528849269E+02  0.29999967837E+02 0.  0.
        -12    1    1    2    0    0 -0.75502642504E+01 -0.32285980423E+02  0.23532435405E+02  0.40659150731E+02  0.00000000000E+00 0.  1.
         11    1    3    3    0    0 -0.59792847811E+01  0.20187155434E+02 -0.15037552964E+02  0.25872786677E+02  0.51100000000E-03 0. -1.
        -11    1    3    3    0    0 -0.58821563729E+00  0.29196665663E+01 -0.71706650658E+01  0.77645919559E+01  0.51100000000E-03 0.  1.
        -12    1    3    3    0    0  0.14117764669E+02  0.91791584226E+01 -0.13242173750E+01  0.16891470636E+02  0.00000000000E+00 0.  1.
</event>
<event>
 7    1  0.5855569E-013  0.5052885E+02  0.7816164E-02  0.1300439E+00
        -11   -1    0    0    0    0  0.00000000000E+00  0.00000000000E+00  0.45593999997E+02  0.45594000000E+02  0.51100000000E-03 0.  1.
         11   -1    0    0    0    0 -0.00000000000E+00 -0.00000000000E+00 -0.45593999997E+02  0.45594000000E+02  0.51100000000E-03 0. -1.
    9900012    2    1    2    0    0 -0.28138947737E+02 -0.68649210961E+01 -0.28534874050E+02  0.50528849020E+02  0.29999967081E+02 0.  0.
        -12    1    1    2    0    0  0.28138947737E+02  0.68649210961E+01  0.28534874050E+02  0.40659150980E+02  0.00000000000E+00 0.  1.
         11    1    3    3    0    0 -0.89037886300E+01 -0.52666353318E+01 -0.21014681010E+02  0.23422888761E+02  0.51100000000E-03 0. -1.
        -11    1    3    3    0    0 -0.20523814636E+02  0.17153685639E+01 -0.98760387570E+01  0.22840875603E+02  0.51100000000E-03 0.  1.
        -12    1    3    3    0    0  0.12886555295E+01 -0.33136543281E+01  0.23558457171E+01  0.42650846560E+01  0.00000000000E+00 0.  1.
</event>
<event>
 7    1  0.5855569E-013  0.5052886E+02  0.7816164E-02  0.1300439E+00
        -11   -1    0    0    0    0  0.00000000000E+00  0.00000000000E+00  0.45593999997E+02  0.45594000000E+02  0.51100000000E-03 0. -1.
         11   -1    0    0    0    0 -0.00000000000E+00 -0.00000000000E+00 -0.45593999997E+02  0.45594000000E+02  0.51100000000E-03 0.  1.
    9900012    2    1    2    0    0 -0.82190356243E+01 -0.27361046559E+02  0.28930720794E+02  0.50528855628E+02  0.29999987168E+02 0.  0.
        -12    1    1    2    0    0  0.82190356243E+01  0.27361046559E+02 -0.28930720794E+02  0.40659144372E+02  0.00000000000E+00 0.  1.
         11    1    3    3    0    0 -0.13978052067E+01 -0.15654461067E+01  0.10901300304E+02  0.11101478707E+02  0.51100000000E-03 0. -1.
        -11    1    3    3    0    0  0.59031331404E+01 -0.22006149205E+01  0.93030396347E+01  0.11235489914E+02  0.51100000000E-03 0.  1.
        -12    1    3    3    0    0 -0.12724363558E+02 -0.23594985532E+02  0.87263808554E+01  0.28191887007E+02  0.00000000000E+00 0.  1.
</event>
<event>
 7    1  0.5855569E-013  0.5052887E+02  0.7816164E-02  0.1300439E+00
        -11   -1    0    0    0    0  0.00000000000E+00  0.00000000000E+00  0.45593999997E+02  0.45594000000E+02  0.51100000000E-03 0. -1.
         11   -1    0    0    0    0 -0.00000000000E+00 -0.00000000000E+00 -0.45593999997E+02  0.45594000000E+02  0.51100000000E-03 0.  1.
    9900012    2    1    2    0    0  0.30253465334E+02 -0.15810557023E+02  0.22088897175E+02  0.50528865030E+02  0.30000015745E+02 0.  0.
        -12    1    1    2    0    0 -0.30253465334E+02  0.15810557023E+02 -0.22088897175E+02  0.40659134970E+02  0.00000000000E+00 0.  1.
         11    1    3    3    0    0  0.17496352578E+02 -0.30965342010E+01  0.11638709948E+02  0.21240773223E+02  0.51100000000E-03 0. -1.
        -11    1    3    3    0    0  0.46011606819E+01  0.65332073369E+00  0.12648743938E+02  0.13475467750E+02  0.51100000000E-03 0.  1.
         12    1    3    3    0    0  0.81559520741E+01 -0.13367343556E+02 -0.21985567104E+01  0.15812624058E+02  0.00000000000E+00 0. -1.
</event>
<event>
 7    1  0.5855569E-013  0.5052886E+02  0.7816164E-02  0.1300439E+00
        -11   -1    0    0    0    0  0.00000000000E+00  0.00000000000E+00  0.45593999997E+02  0.45594000000E+02  0.51100000000E-03 0. -1.
         11   -1    0    0    0    0 -0.00000000000E+00 -0.00000000000E+00 -0.45593999997E+02  0.45594000000E+02  0.51100000000E-03 0.  1.
    9900012    2    1    2    0    0  0.16510541312E+02  0.90952712370E+01  0.36025599694E+02  0.50528858758E+02  0.29999996680E+02 0.  0.
        -12    1    1    2    0    0 -0.16510541312E+02 -0.90952712370E+01 -0.36025599694E+02  0.40659141242E+02  0.00000000000E+00 0.  1.
         11    1    3    3    0    0  0.12158145148E+01  0.43909961409E+01  0.15357739273E+01  0.48080821396E+01  0.51100000000E-03 0. -1.
        -11    1    3    3    0    0 -0.33656695647E+01 -0.28039692795E+01 -0.13828698561E+01  0.45937244844E+01  0.51100000000E-03 0.  1.
         12    1    3    3    0    0  0.18660396362E+02  0.75082443755E+01  0.35872695622E+02  0.41127052134E+02  0.00000000000E+00 0. -1.
</event>
<event>
 7    1  0.5855569E-013  0.5052886E+02  0.7816164E-02  0.1300439E+00
        -11   -1    0    0    0    0  0.00000000000E+00  0.00000000000E+00  0.45593999997E+02  0.45594000000E+02  0.51100000000E-03 0.  1.
         11   -1    0    0    0    0 -0.00000000000E+00 -0.00000000000E+00 -0.45593999997E+02  0.45594000000E+02  0.51100000000E-03 0. -1.
    9900012    2    1    2    0    0 -0.11621379813E+02 -0.34470969576E+02 -0.18162085583E+02  0.50528861236E+02  0.30000004214E+02 0.  0.
        -12    1    1    2    0    0  0.11621379813E+02  0.34470969576E+02  0.18162085583E+02  0.40659138764E+02  0.00000000000E+00 0.  1.
         11    1    3    3    0    0  0.82444280485E+00 -0.14261511443E+02 -0.54234493030E+01  0.15280190352E+02  0.51100000000E-03 0. -1.
        -11    1    3    3    0    0  0.37759257048E+01 -0.10189756670E+02 -0.11969343572E+02  0.16166444931E+02  0.51100000000E-03 0.  1.
        -12    1    3    3    0    0 -0.16221748323E+02 -0.10019701463E+02 -0.76929270753E+00  0.19082225953E+02  0.00000000000E+00 0.  1.
</event>
<event>
 7    1  0.5855569E-013  0.5052886E+02  0.7816164E-02  0.1300439E+00
        -11   -1    0    0    0    0  0.00000000000E+00  0.00000000000E+00  0.45593999997E+02  0.45594000000E+02  0.51100000000E-03 0.  1.
         11   -1    0    0    0    0 -0.00000000000E+00 -0.00000000000E+00 -0.45593999997E+02  0.45594000000E+02  0.51100000000E-03 0. -1.
    9900012    2    1    2    0    0  0.31934629344E+02 -0.11581363743E+01 -0.25139685593E+02  0.50528860524E+02  0.30000002049E+02 0.  0.
        -12    1    1    2    0    0 -0.31934629344E+02  0.11581363743E+01  0.25139685593E+02  0.40659139476E+02  0.00000000000E+00 0.  1.
         11    1    3    3    0    0  0.23970999826E+01 -0.41010612911E+01 -0.68037734095E+01  0.82979590810E+01  0.51100000000E-03 0.  1.
        -11    1    3    3    0    0  0.92413350774E+01 -0.10270403398E+02 -0.62383390702E+01  0.15159166685E+02  0.51100000000E-03 0. -1.
         12    1    3    3    0    0  0.20296194284E+02  0.13213328315E+02 -0.12097573113E+02  0.27071734758E+02  0.00000000000E+00 0. -1.
</event>
<event>
 7    1  0.5855569E-013  0.5052886E+02  0.7816164E-02  0.1300439E+00
        -11   -1    0    0    0    0  0.00000000000E+00  0.00000000000E+00  0.45593999997E+02  0.45594000000E+02  0.51100000000E-03 0.  1.
         11   -1    0    0    0    0 -0.00000000000E+00 -0.00000000000E+00 -0.45593999997E+02  0.45594000000E+02  0.51100000000E-03 0. -1.
    9900012    2    1    2    0    0 -0.69028311856E+01 -0.17093495274E+02 -0.36239882546E+02  0.50528859011E+02  0.29999997449E+02 0.  0.
        -12    1    1    2    0    0  0.69028311856E+01  0.17093495274E+02  0.36239882546E+02  0.40659140989E+02  0.00000000000E+00 0.  1.
         11    1    3    3    0    0 -0.49663267490E+01 -0.18251321015E+02 -0.27125212257E+02  0.33068901712E+02  0.51100000000E-03 0. -1.
        -11    1    3    3    0    0 -0.47920868567E+01 -0.18428767963E+01 -0.11560611253E+02  0.12649427819E+02  0.51100000000E-03 0.  1.
        -12    1    3    3    0    0  0.28555824201E+01  0.30007025370E+01  0.24459409650E+01  0.48105294800E+01  0.00000000000E+00 0.  1.
</event>
<event>
 7    1  0.5855569E-013  0.5052886E+02  0.7816164E-02  0.1300439E+00
        -11   -1    0    0    0    0  0.00000000000E+00  0.00000000000E+00  0.45593999997E+02  0.45594000000E+02  0.51100000000E-03 0.  1.
         11   -1    0    0    0    0 -0.00000000000E+00 -0.00000000000E+00 -0.45593999997E+02  0.45594000000E+02  0.51100000000E-03 0. -1.
    9900012    2    1    2    0    0  0.38192946876E+02  0.10515539769E+02 -0.91590503733E+01  0.50528856238E+02  0.29999989021E+02 0.  0.
        -12    1    1    2    0    0 -0.38192946876E+02 -0.10515539769E+02  0.91590503733E+01  0.40659143762E+02  0.00000000000E+00 0.  1.
         11    1    3    3    0    0  0.23464368810E+02  0.15370359901E+02  0.35435344156E+01  0.28273330253E+02  0.51100000000E-03 0. -1.
        -11    1    3    3    0    0  0.49519443676E+00  0.22924583300E+01 -0.15231146456E+01  0.27965087537E+01  0.51100000000E-03 0.  1.
         12    1    3    3    0    0  0.14233383629E+02 -0.71472784620E+01 -0.11179470143E+02  0.19459017232E+02  0.00000000000E+00 0. -1.
</event>
<event>
 7    1  0.5855569E-013  0.5052886E+02  0.7816164E-02  0.1300439E+00
        -11   -1    0    0    0    0  0.00000000000E+00  0.00000000000E+00  0.45593999997E+02  0.45594000000E+02  0.51100000000E-03 0.  1.
         11   -1    0    0    0    0 -0.00000000000E+00 -0.00000000000E+00 -0.45593999997E+02  0.45594000000E+02  0.51100000000E-03 0. -1.
    9900012    2    1    2    0    0 -0.11883177208E+02  0.21967029046E+02 -0.32084346464E+02  0.50528861376E+02  0.30000004637E+02 0.  0.
        -12    1    1    2    0    0  0.11883177208E+02 -0.21967029046E+02  0.32084346464E+02  0.40659138624E+02  0.00000000000E+00 0.  1.
         11    1    3    3    0    0 -0.25384979857E+01  0.45142612118E+01 -0.13000235519E+02  0.13993879024E+02  0.51100000000E-03 0. -1.
        -11    1    3    3    0    0 -0.11327269358E+02  0.16799541388E+02 -0.23872257862E+02  0.31311600369E+02  0.51100000000E-03 0.  1.
         12    1    3    3    0    0  0.19825901356E+01  0.65322644684E+00  0.47881469178E+01  0.52233819833E+01  0.00000000000E+00 0. -1.
</event>
<event>
 7    1  0.5855569E-013  0.5052885E+02  0.7816164E-02  0.1300439E+00
        -11   -1    0    0    0    0  0.00000000000E+00  0.00000000000E+00  0.45593999997E+02  0.45594000000E+02  0.51100000000E-03 0.  1.
         11   -1    0    0    0    0 -0.00000000000E+00 -0.00000000000E+00 -0.45593999997E+02  0.45594000000E+02  0.51100000000E-03 0. -1.
    9900012    2    1    2    0    0  0.21136492275E+02  0.34036819590E+02 -0.69216902825E+01  0.50528853552E+02  0.29999980858E+02 0.  0.
        -12    1    1    2    0    0 -0.21136492275E+02 -0.34036819590E+02  0.69216902825E+01  0.40659146448E+02  0.00000000000E+00 0.  1.
         11    1    3    3    0    0  0.12903708702E+01  0.16089292541E+01 -0.57417295620E+01  0.61009154192E+01  0.51100000000E-03 0. -1.
        -11    1    3    3    0    0 -0.45572412595E+01  0.77619801560E+01 -0.34889736803E+01  0.96534823479E+01  0.51100000000E-03 0.  1.
         12    1    3    3    0    0  0.24403362664E+02  0.24665910180E+02  0.23090129599E+01  0.34774455785E+02  0.00000000000E+00 0. -1.
</event>
<event>
 7    1  0.5855569E-013  0.5052881E+02  0.7816164E-02  0.1300439E+00
        -11   -1    0    0    0    0  0.00000000000E+00  0.00000000000E+00  0.45593999997E+02  0.45594000000E+02  0.51100000000E-03 0.  1.
         11   -1    0    0    0    0 -0.00000000000E+00 -0.00000000000E+00 -0.45593999997E+02  0.45594000000E+02  0.51100000000E-03 0. -1.
    9900012    2    1    2    0    0  0.52801277924E+01  0.22675110113E+02 -0.33333607287E+02  0.50528809859E+02  0.29999848047E+02 0.  0.
        -12    1    1    2    0    0 -0.52801277924E+01 -0.22675110113E+02  0.33333607287E+02  0.40659190141E+02  0.00000000000E+00 0.  1.
         11    1    3    3    0    0  0.18352835852E+01 -0.79410565168E+00 -0.11757122211E+01  0.23197347072E+01  0.51100000000E-03 0. -1.
        -11    1    3    3    0    0  0.14648571907E+02  0.92872422680E+01 -0.19757577543E+02  0.26290595248E+02  0.51100000000E-03 0.  1.
         12    1    3    3    0    0 -0.11203727700E+02  0.14181973496E+02 -0.12400317524E+02  0.21918479904E+02  0.00000000000E+00 0. -1.
</event>
<event>
 7    1  0.5855569E-013  0.5052887E+02  0.7816164E-02  0.1300439E+00
        -11   -1    0    0    0    0  0.00000000000E+00  0.00000000000E+00  0.45593999997E+02  0.45594000000E+02  0.51100000000E-03 0. -1.
         11   -1    0    0    0    0 -0.00000000000E+00 -0.00000000000E+00 -0.45593999997E+02  0.45594000000E+02  0.51100000000E-03 0.  1.
    9900012    2    1    2    0    0  0.23149756646E+02 -0.42127691281E+01  0.33158802865E+02  0.50528869858E+02  0.30000030419E+02 0.  0.
        -12    1    1    2    0    0 -0.23149756646E+02  0.42127691281E+01 -0.33158802865E+02  0.40659130142E+02  0.00000000000E+00 0.  1.
         11    1    3    3    0    0  0.63892919360E+01  0.11015675570E+01  0.12195098729E+02  0.13811478407E+02  0.51100000000E-03 0. -1.
        -11    1    3    3    0    0  0.99703945772E+01  0.74497298889E+01  0.18119802485E+02  0.21982595065E+02  0.51100000000E-03 0.  1.
        -12    1    3    3    0    0  0.67900701325E+01 -0.12764066574E+02  0.28439016516E+01  0.14734796385E+02  0.00000000000E+00 0.  1.
</event>
<event>
 7    1  0.5855569E-013  0.5052887E+02  0.7816164E-02  0.1300439E+00
        -11   -1    0    0    0    0  0.00000000000E+00  0.00000000000E+00  0.45593999997E+02  0.45594000000E+02  0.51100000000E-03 0. -1.
         11   -1    0    0    0    0 -0.00000000000E+00 -0.00000000000E+00 -0.45593999997E+02  0.45594000000E+02  0.51100000000E-03 0.  1.
    9900012    2    1    2    0    0  0.24846876692E+02 -0.16841761604E+02  0.27425400755E+02  0.50528870375E+02  0.30000031991E+02 0.  0.
        -12    1    1    2    0    0 -0.24846876692E+02  0.16841761604E+02 -0.27425400755E+02  0.40659129625E+02  0.00000000000E+00 0.  1.
         11    1    3    3    0    0  0.22257417680E+01 -0.13289058651E+02  0.13666580565E+02  0.19191884505E+02  0.51100000000E-03 0. -1.
        -11    1    3    3    0    0  0.19260602118E+02 -0.78873375229E+01  0.56832971658E+01  0.21575002992E+02  0.51100000000E-03 0.  1.
        -12    1    3    3    0    0  0.33605328056E+01  0.43346345695E+01  0.80755230249E+01  0.97619828782E+01  0.00000000000E+00 0.  1.
</event>
<event>
 7    1  0.5855569E-013  0.5052886E+02  0.7816164E-02  0.1300439E+00
        -11   -1    0    0    0    0  0.00000000000E+00  0.00000000000E+00  0.45593999997E+02  0.45594000000E+02  0.51100000000E-03 0.  1.
         11   -1    0    0    0    0 -0.00000000000E+00 -0.00000000000E+00 -0.45593999997E+02  0.45594000000E+02  0.51100000000E-03 0. -1.
    9900012    2    1    2    0    0  0.26206993604E+02 -0.24833679156E+02 -0.18698869517E+02  0.50528857665E+02  0.29999993358E+02 0.  0.
        -12    1    1    2    0    0 -0.26206993604E+02  0.24833679156E+02  0.18698869517E+02  0.40659142335E+02  0.00000000000E+00 0.  1.
         11    1    3    3    0    0  0.74825362388E+01 -0.82887289241E+01 -0.28310119902E+01  0.11519809239E+02  0.51100000000E-03 0. -1.
        -11    1    3    3    0    0  0.18115462979E+02 -0.20565776264E+02 -0.19436093266E+02  0.33598852272E+02  0.51100000000E-03 0.  1.
        -12    1    3    3    0    0  0.60899438624E+00  0.40208260321E+01  0.35682357387E+01  0.54101961545E+01  0.00000000000E+00 0.  1.
</event>
<event>
 7    1  0.5855569E-013  0.5052886E+02  0.7816164E-02  0.1300439E+00
        -11   -1    0    0    0    0  0.00000000000E+00  0.00000000000E+00  0.45593999997E+02  0.45594000000E+02  0.51100000000E-03 0.  1.
         11   -1    0    0    0    0 -0.00000000000E+00 -0.00000000000E+00 -0.45593999997E+02  0.45594000000E+02  0.51100000000E-03 0. -1.
    9900012    2    1    2    0    0 -0.23371455062E+02 -0.18634984174E+02 -0.27562258324E+02  0.50528860427E+02  0.30000001754E+02 0.  0.
        -12    1    1    2    0    0  0.23371455062E+02  0.18634984174E+02  0.27562258324E+02  0.40659139573E+02  0.00000000000E+00 0.  1.
         11    1    3    3    0    0 -0.60262322607E+01 -0.16324897256E+02 -0.32692326675E+01  0.17706090144E+02  0.51100000000E-03 0. -1.
        -11    1    3    3    0    0  0.18719815825E+01  0.15661000445E+01 -0.32260639601E+01  0.40453026253E+01  0.51100000000E-03 0.  1.
        -12    1    3    3    0    0 -0.19217204384E+02 -0.38761869623E+01 -0.21066961696E+02  0.28777467658E+02  0.00000000000E+00 0.  1.
</event>
<event>
 7    1  0.5855569E-013  0.5052886E+02  0.7816164E-02  0.1300439E+00
        -11   -1    0    0    0    0  0.00000000000E+00  0.00000000000E+00  0.45593999997E+02  0.45594000000E+02  0.51100000000E-03 0.  1.
         11   -1    0    0    0    0 -0.00000000000E+00 -0.00000000000E+00 -0.45593999997E+02  0.45594000000E+02  0.51100000000E-03 0. -1.
    9900012    2    1    2    0    0 -0.32255001785E+02  0.19618896085E+02 -0.15095672109E+02  0.50528861542E+02  0.30000005143E+02 0.  0.
        -12    1    1    2    0    0  0.32255001785E+02 -0.19618896085E+02  0.15095672109E+02  0.40659138458E+02  0.00000000000E+00 0.  1.
         11    1    3    3    0    0 -0.27355124359E+02  0.11927228631E+02 -0.25541335949E+01  0.29951380772E+02  0.51100000000E-03 0. -1.
        -11    1    3    3    0    0 -0.32481256943E+01 -0.13273333392E+01  0.14929793373E+01  0.38132822977E+01  0.51100000000E-03 0.  1.
        -12    1    3    3    0    0 -0.16517517316E+01  0.90190007936E+01 -0.14034517851E+02  0.16764198472E+02  0.00000000000E+00 0.  1.
</event>
<event>
 7    1  0.5855569E-013  0.5052890E+02  0.7816164E-02  0.1300439E+00
        -11   -1    0    0    0    0  0.00000000000E+00  0.00000000000E+00  0.45593999997E+02  0.45594000000E+02  0.51100000000E-03 0.  1.
         11   -1    0    0    0    0 -0.00000000000E+00 -0.00000000000E+00 -0.45593999997E+02  0.45594000000E+02  0.51100000000E-03 0. -1.
    9900012    2    1    2    0    0  0.26788487666E+02  0.27191636238E+02 -0.14005500872E+02  0.50528902526E+02  0.30000129718E+02 0.  0.
        -12    1    1    2    0    0 -0.26788487666E+02 -0.27191636238E+02  0.14005500872E+02  0.40659097474E+02  0.00000000000E+00 0.  1.
         11    1    3    3    0    0  0.87685226927E+00  0.11211595632E+02  0.42214661521E+01  0.12012057412E+02  0.51100000000E-03 0. -1.
        -11    1    3    3    0    0 -0.75018115123E+00  0.43186323033E+01 -0.46976482018E+01  0.64250490753E+01  0.51100000000E-03 0.  1.
         12    1    3    3    0    0  0.26661816548E+02  0.11661408303E+02 -0.13529318822E+02  0.32091796039E+02  0.00000000000E+00 0. -1.
</event>
<event>
 7    1  0.5855569E-013  0.5052888E+02  0.7816164E-02  0.1300439E+00
        -11   -1    0    0    0    0  0.00000000000E+00  0.00000000000E+00  0.45593999997E+02  0.45594000000E+02  0.51100000000E-03 0.  1.
         11   -1    0    0    0    0 -0.00000000000E+00 -0.00000000000E+00 -0.45593999997E+02  0.45594000000E+02  0.51100000000E-03 0. -1.
    9900012    2    1    2    0    0  0.25875558690E+02  0.21079385273E+02 -0.23222373188E+02  0.50528884939E+02  0.30000076261E+02 0.  0.
        -12    1    1    2    0    0 -0.25875558690E+02 -0.21079385273E+02  0.23222373188E+02  0.40659115061E+02  0.00000000000E+00 0.  1.
         11    1    3    3    0    0  0.16902920121E+02  0.27500006007E+01 -0.19564287837E+02  0.26000626353E+02  0.51100000000E-03 0. -1.
        -11    1    3    3    0    0  0.10874622549E+01 -0.44289701602E+00  0.29067862284E+01  0.31349861820E+01  0.51100000000E-03 0.  1.
        -12    1    3    3    0    0  0.78851763145E+01  0.18772281688E+02 -0.65648715794E+01  0.21393272404E+02  0.00000000000E+00 0.  1.
</event>
<event>
 7    1  0.5855569E-013  0.5052887E+02  0.7816164E-02  0.1300439E+00
        -11   -1    0    0    0    0  0.00000000000E+00  0.00000000000E+00  0.45593999997E+02  0.45594000000E+02  0.51100000000E-03 0.  1.
         11   -1    0    0    0    0 -0.00000000000E+00 -0.00000000000E+00 -0.45593999997E+02  0.45594000000E+02  0.51100000000E-03 0. -1.
    9900012    2    1    2    0    0 -0.28073460176E+02 -0.66936880152E+01 -0.28639840422E+02  0.50528867141E+02  0.30000022160E+02 0.  0.
        -12    1    1    2    0    0  0.28073460176E+02  0.66936880152E+01  0.28639840422E+02  0.40659132859E+02  0.00000000000E+00 0.  1.
         11    1    3    3    0    0 -0.19239062748E+02 -0.86043212317E+01 -0.17927340180E+02  0.27668852623E+02  0.51100000000E-03 0. -1.
        -11    1    3    3    0    0 -0.75018144570E+01 -0.46437536759E+01  0.14870736413E+01  0.89472373740E+01  0.51100000000E-03 0.  1.
         12    1    3    3    0    0 -0.13325829705E+01  0.65543868924E+01 -0.12199573883E+02  0.13912777143E+02  0.00000000000E+00 0. -1.
</event>
<event>
 7    1  0.5855569E-013  0.5052886E+02  0.7816164E-02  0.1300439E+00
        -11   -1    0    0    0    0  0.00000000000E+00  0.00000000000E+00  0.45593999997E+02  0.45594000000E+02  0.51100000000E-03 0.  1.
         11   -1    0    0    0    0 -0.00000000000E+00 -0.00000000000E+00 -0.45593999997E+02  0.45594000000E+02  0.51100000000E-03 0. -1.
    9900012    2    1    2    0    0 -0.16388403343E+02 -0.27768776975E+02 -0.24768545286E+02  0.50528861121E+02  0.30000003863E+02 0.  0.
        -12    1    1    2    0    0  0.16388403343E+02  0.27768776975E+02  0.24768545286E+02  0.40659138879E+02  0.00000000000E+00 0.  1.
         11    1    3    3    0    0 -0.14859992099E+02 -0.22490942976E+02 -0.25313055774E+02  0.36978543428E+02  0.51100000000E-03 0. -1.
        -11    1    3    3    0    0  0.17398661652E+01 -0.80271154131E+00 -0.52161631284E+01  0.55569630316E+01  0.51100000000E-03 0.  1.
        -12    1    3    3    0    0 -0.32682774088E+01 -0.44751224571E+01  0.57606736163E+01  0.79933546613E+01  0.00000000000E+00 0.  1.
</event>
<event>
 7    1  0.5855569E-013  0.5052886E+02  0.7816164E-02  0.1300439E+00
        -11   -1    0    0    0    0  0.00000000000E+00  0.00000000000E+00  0.45593999997E+02  0.45594000000E+02  0.51100000000E-03 0.  1.
         11   -1    0    0    0    0 -0.00000000000E+00 -0.00000000000E+00 -0.45593999997E+02  0.45594000000E+02  0.51100000000E-03 0. -1.
    9900012    2    1    2    0    0 -0.26177267855E+02 -0.36371474023E+01 -0.30898018623E+02  0.50528858981E+02  0.29999997360E+02 0.  0.
        -12    1    1    2    0    0  0.26177267855E+02  0.36371474023E+01  0.30898018623E+02  0.40659141019E+02  0.00000000000E+00 0.  1.
         11    1    3    3    0    0 -0.55657982393E+01  0.19610337535E+01  0.21952954160E+01  0.62962755378E+01  0.51100000000E-03 0.  1.
        -11    1    3    3    0    0 -0.89785444934E+01  0.68904636520E+01 -0.78993890973E+01  0.13801923740E+02  0.51100000000E-03 0. -1.
         12    1    3    3    0    0 -0.11632925122E+02 -0.12488644808E+02 -0.25193924941E+02  0.30430659703E+02  0.00000000000E+00 0. -1.
</event>
<event>
 7    1  0.5855569E-013  0.5052886E+02  0.7816164E-02  0.1300439E+00
        -11   -1    0    0    0    0  0.00000000000E+00  0.00000000000E+00  0.45593999997E+02  0.45594000000E+02  0.51100000000E-03 0.  1.
         11   -1    0    0    0    0 -0.00000000000E+00 -0.00000000000E+00 -0.45593999997E+02  0.45594000000E+02  0.51100000000E-03 0. -1.
    9900012    2    1    2    0    0 -0.17703032412E+02 -0.35388129001E+02  0.93514031318E+01  0.50528858700E+02  0.29999996503E+02 0.  0.
        -12    1    1    2    0    0  0.17703032412E+02  0.35388129001E+02 -0.93514031318E+01  0.40659141300E+02  0.00000000000E+00 0.  1.
         11    1    3    3    0    0 -0.14344921493E+02 -0.20486676657E+02  0.27223975125E+01  0.25157347666E+02  0.51100000000E-03 0. -1.
        -11    1    3    3    0    0 -0.76008368869E+01 -0.16573897540E+02  0.11884023640E+01  0.18272358947E+02  0.51100000000E-03 0.  1.
        -12    1    3    3    0    0  0.42427259676E+01  0.16724451964E+01  0.54406032554E+01  0.70991520869E+01  0.00000000000E+00 0.  1.
</event>
<event>
 7    1  0.5855569E-013  0.5052888E+02  0.7816164E-02  0.1300439E+00
        -11   -1    0    0    0    0  0.00000000000E+00  0.00000000000E+00  0.45593999997E+02  0.45594000000E+02  0.51100000000E-03 0. -1.
         11   -1    0    0    0    0 -0.00000000000E+00 -0.00000000000E+00 -0.45593999997E+02  0.45594000000E+02  0.51100000000E-03 0.  1.
    9900012    2    1    2    0    0 -0.35586684988E+02 -0.16377396078E+02  0.10887258051E+02  0.50528884926E+02  0.30000076221E+02 0.  0.
        -12    1    1    2    0    0  0.35586684988E+02  0.16377396078E+02 -0.10887258051E+02  0.40659115074E+02  0.00000000000E+00 0.  1.
         11    1    3    3    0    0 -0.36123623743E+01  0.45633836685E+01 -0.53739072616E+00  0.58448628284E+01  0.51100000000E-03 0. -1.
        -11    1    3    3    0    0 -0.76418812967E+00  0.31239347515E+01 -0.98912943022E+00  0.33647182825E+01  0.51100000000E-03 0.  1.
        -12    1    3    3    0    0 -0.31210134484E+02 -0.24064714498E+02  0.12413778207E+02  0.41319303815E+02  0.00000000000E+00 0.  1.
</event>
<event>
 7    1  0.5855569E-013  0.5052886E+02  0.7816164E-02  0.1300439E+00
        -11   -1    0    0    0    0  0.00000000000E+00  0.00000000000E+00  0.45593999997E+02  0.45594000000E+02  0.51100000000E-03 0.  1.
         11   -1    0    0    0    0 -0.00000000000E+00 -0.00000000000E+00 -0.45593999997E+02  0.45594000000E+02  0.51100000000E-03 0. -1.
    9900012    2    1    2    0    0  0.27007974591E+02  0.30311389922E+02 -0.22258516971E+01  0.50528862450E+02  0.30000007902E+02 0.  0.
        -12    1    1    2    0    0 -0.27007974591E+02 -0.30311389922E+02  0.22258516971E+01  0.40659137550E+02  0.00000000000E+00 0.  1.
         11    1    3    3    0    0  0.94980373184E+00 -0.16306825862E+01  0.56123792588E+01  0.59211530998E+01  0.51100000000E-03 0. -1.
        -11    1    3    3    0    0 -0.17589162314E+01  0.62947526250E+00  0.42615552118E+00  0.19161508826E+01  0.51100000000E-03 0.  1.
         12    1    3    3    0    0  0.27817087091E+02  0.31312597246E+02 -0.82643864771E+01  0.42691558467E+02  0.00000000000E+00 0. -1.
</event>
<event>
 7    1  0.5855569E-013  0.5052883E+02  0.7816164E-02  0.1300439E+00
        -11   -1    0    0    0    0  0.00000000000E+00  0.00000000000E+00  0.45593999997E+02  0.45594000000E+02  0.51100000000E-03 0.  1.
         11   -1    0    0    0    0 -0.00000000000E+00 -0.00000000000E+00 -0.45593999997E+02  0.45594000000E+02  0.51100000000E-03 0. -1.
    9900012    2    1    2    0    0  0.70421597690E+01 -0.32009041649E+02 -0.24062359982E+02  0.50528832160E+02  0.29999915834E+02 0.  0.
        -12    1    1    2    0    0 -0.70421597690E+01  0.32009041649E+02  0.24062359982E+02  0.40659167840E+02  0.00000000000E+00 0.  1.
         11    1    3    3    0    0 -0.18817253146E+01  0.14785510848E+01 -0.37378581772E+01  0.44383090794E+01  0.51100000000E-03 0. -1.
        -11    1    3    3    0    0 -0.23900772134E+00 -0.30281445369E+02 -0.99324836441E+01  0.31869692341E+02  0.51100000000E-03 0.  1.
         12    1    3    3    0    0  0.91628928049E+01 -0.32061473653E+01 -0.10392018161E+02  0.14220830740E+02  0.00000000000E+00 0. -1.
</event>
<event>
 7    1  0.5855569E-013  0.5052886E+02  0.7816164E-02  0.1300439E+00
        -11   -1    0    0    0    0  0.00000000000E+00  0.00000000000E+00  0.45593999997E+02  0.45594000000E+02  0.51100000000E-03 0. -1.
         11   -1    0    0    0    0 -0.00000000000E+00 -0.00000000000E+00 -0.45593999997E+02  0.45594000000E+02  0.51100000000E-03 0.  1.
    9900012    2    1    2    0    0 -0.30541082965E+02 -0.22505846314E+02  0.14625139447E+02  0.50528861164E+02  0.30000003995E+02 0.  0.
        -12    1    1    2    0    0  0.30541082965E+02  0.22505846314E+02 -0.14625139447E+02  0.40659138836E+02  0.00000000000E+00 0.  1.
         11    1    3    3    0    0 -0.13607011542E+02 -0.63916890750E+01  0.48444139224E+01  0.15794707938E+02  0.51100000000E-03 0. -1.
        -11    1    3    3    0    0 -0.52723623491E+01  0.53299932584E+00  0.13107565661E+02  0.14138252043E+02  0.51100000000E-03 0.  1.
        -12    1    3    3    0    0 -0.11661709074E+02 -0.16647156565E+02 -0.33268401364E+01  0.20595901183E+02  0.00000000000E+00 0.  1.
</event>
<event>
 7    1  0.5855569E-013  0.5052887E+02  0.7816164E-02  0.1300439E+00
        -11   -1    0    0    0    0  0.00000000000E+00  0.00000000000E+00  0.45593999997E+02  0.45594000000E+02  0.51100000000E-03 0.  1.
         11   -1    0    0    0    0 -0.00000000000E+00 -0.00000000000E+00 -0.45593999997E+02  0.45594000000E+02  0.51100000000E-03 0. -1.
    9900012    2    1    2    0    0  0.39364191853E+02 -0.44324990736E+01  0.91639667527E+01  0.50528868984E+02  0.30000027765E+02 0.  0.
        -12    1    1    2    0    0 -0.39364191853E+02  0.44324990736E+01 -0.91639667527E+01  0.40659131016E+02  0.00000000000E+00 0.  1.
         11    1    3    3    0    0  0.13531543274E+02  0.86569171397E+01  0.92524776458E+01  0.18537886087E+02  0.51100000000E-03 0. -1.
        -11    1    3    3    0    0 -0.26656841329E+00 -0.39896904080E+01 -0.16065245393E+01  0.43092469907E+01  0.51100000000E-03 0.  1.
        -12    1    3    3    0    0  0.26099216993E+02 -0.90997258053E+01  0.15180136462E+01  0.27681735906E+02  0.00000000000E+00 0.  1.
</event>
<event>
 7    1  0.5855569E-013  0.5052886E+02  0.7816164E-02  0.1300439E+00
        -11   -1    0    0    0    0  0.00000000000E+00  0.00000000000E+00  0.45593999997E+02  0.45594000000E+02  0.51100000000E-03 0.  1.
         11   -1    0    0    0    0 -0.00000000000E+00 -0.00000000000E+00 -0.45593999997E+02  0.45594000000E+02  0.51100000000E-03 0. -1.
    9900012    2    1    2    0    0 -0.33698372588E+01 -0.15626273435E+02 -0.37384879500E+02  0.50528862776E+02  0.30000008893E+02 0.  0.
        -12    1    1    2    0    0  0.33698372588E+01  0.15626273435E+02  0.37384879500E+02  0.40659137224E+02  0.00000000000E+00 0.  1.
         11    1    3    3    0    0 -0.76069694499E+01  0.46391536246E+01 -0.26184028983E+01  0.92867520998E+01  0.51100000000E-03 0.  1.
        -11    1    3    3    0    0  0.28452841334E+01 -0.38680086579E+01 -0.13653635849E+02  0.14473386090E+02  0.51100000000E-03 0. -1.
        -12    1    3    3    0    0  0.13918480577E+01 -0.16397418402E+02 -0.21112840753E+02  0.26768724585E+02  0.00000000000E+00 0.  1.
</event>
<event>
 7    1  0.5855569E-013  0.5052886E+02  0.7816164E-02  0.1300439E+00
        -11   -1    0    0    0    0  0.00000000000E+00  0.00000000000E+00  0.45593999997E+02  0.45594000000E+02  0.51100000000E-03 0.  1.
         11   -1    0    0    0    0 -0.00000000000E+00 -0.00000000000E+00 -0.45593999997E+02  0.45594000000E+02  0.51100000000E-03 0. -1.
    9900012    2    1    2    0    0 -0.21416413095E+01 -0.18654941838E+02 -0.36063446465E+02  0.50528860149E+02  0.30000000910E+02 0.  0.
        -12    1    1    2    0    0  0.21416413095E+01  0.18654941838E+02  0.36063446465E+02  0.40659139851E+02  0.00000000000E+00 0.  1.
         11    1    3    3    0    0 -0.65214026966E+01 -0.16075181378E+01 -0.10729174037E+02  0.12658119271E+02  0.51100000000E-03 0. -1.
        -11    1    3    3    0    0  0.31973837023E+01 -0.14822611308E+02 -0.29404341966E+02  0.33083959787E+02  0.51100000000E-03 0.  1.
        -12    1    3    3    0    0  0.11823776848E+01 -0.22248123925E+01  0.40700695379E+01  0.47867810912E+01  0.00000000000E+00 0.  1.
</event>
<event>
 7    1  0.5855569E-013  0.5052886E+02  0.7816164E-02  0.1300439E+00
        -11   -1    0    0    0    0  0.00000000000E+00  0.00000000000E+00  0.45593999997E+02  0.45594000000E+02  0.51100000000E-03 0. -1.
         11   -1    0    0    0    0 -0.00000000000E+00 -0.00000000000E+00 -0.45593999997E+02  0.45594000000E+02  0.51100000000E-03 0.  1.
    9900012    2    1    2    0    0  0.24324281900E+02 -0.30997615222E+02  0.10032107301E+02  0.50528855687E+02  0.29999987345E+02 0.  0.
        -12    1    1    2    0    0 -0.24324281900E+02  0.30997615222E+02 -0.10032107301E+02  0.40659144313E+02  0.00000000000E+00 0.  1.
         11    1    3    3    0    0 -0.53053754996E+00 -0.24240923217E+01  0.37764213494E+01  0.45187445320E+01  0.51100000000E-03 0. -1.
        -11    1    3    3    0    0  0.13170110626E+02 -0.99565493735E+00  0.89246542579E+01  0.15940282198E+02  0.51100000000E-03 0.  1.
         12    1    3    3    0    0  0.11684708824E+02 -0.27577867963E+02 -0.26689683060E+01  0.30069828957E+02  0.00000000000E+00 0. -1.
</event>
<event>
 7    1  0.5855569E-013  0.5052887E+02  0.7816164E-02  0.1300439E+00
        -11   -1    0    0    0    0  0.00000000000E+00  0.00000000000E+00  0.45593999997E+02  0.45594000000E+02  0.51100000000E-03 0.  1.
         11   -1    0    0    0    0 -0.00000000000E+00 -0.00000000000E+00 -0.45593999997E+02  0.45594000000E+02  0.51100000000E-03 0. -1.
    9900012    2    1    2    0    0 -0.22693848327E+02  0.14622167051E+02 -0.30403065080E+02  0.50528869569E+02  0.30000029541E+02 0.  0.
        -12    1    1    2    0    0  0.22693848327E+02 -0.14622167051E+02  0.30403065080E+02  0.40659130431E+02  0.00000000000E+00 0.  1.
         11    1    3    3    0    0 -0.19087650407E+01  0.16011250572E-01 -0.26557000664E+00  0.19272176914E+01  0.51100000000E-03 0. -1.
        -11    1    3    3    0    0 -0.58591610930E+01  0.12813507686E+02  0.89669418398E+00  0.14118066747E+02  0.51100000000E-03 0.  1.
         12    1    3    3    0    0 -0.14925922194E+02  0.17926481141E+01 -0.31034189257E+02  0.34483585131E+02  0.00000000000E+00 0. -1.
</event>
<event>
 7    1  0.5855569E-013  0.5052886E+02  0.7816164E-02  0.1300439E+00
        -11   -1    0    0    0    0  0.00000000000E+00  0.00000000000E+00  0.45593999997E+02  0.45594000000E+02  0.51100000000E-03 0.  1.
         11   -1    0    0    0    0 -0.00000000000E+00 -0.00000000000E+00 -0.45593999997E+02  0.45594000000E+02  0.51100000000E-03 0. -1.
    9900012    2    1    2    0    0 -0.27302580563E+02 -0.12847221327E+02 -0.27252216637E+02  0.50528864337E+02  0.30000013639E+02 0.  0.
        -12    1    1    2    0    0  0.27302580563E+02  0.12847221327E+02  0.27252216637E+02  0.40659135663E+02  0.00000000000E+00 0.  1.
         11    1    3    3    0    0 -0.89945707396E+01 -0.29682166250E+01 -0.62231488670E+01  0.11333145848E+02  0.51100000000E-03 0. -1.
        -11    1    3    3    0    0 -0.12186424693E+02  0.48417588151E+01 -0.19055113404E+02  0.23131124536E+02  0.51100000000E-03 0.  1.
        -12    1    3    3    0    0 -0.61215851310E+01 -0.14720763517E+02 -0.19739543655E+01  0.16064593953E+02  0.00000000000E+00 0.  1.
</event>
<event>
 7    1  0.5855569E-013  0.5052886E+02  0.7816164E-02  0.1300439E+00
        -11   -1    0    0    0    0  0.00000000000E+00  0.00000000000E+00  0.45593999997E+02  0.45594000000E+02  0.51100000000E-03 0.  1.
         11   -1    0    0    0    0 -0.00000000000E+00 -0.00000000000E+00 -0.45593999997E+02  0.45594000000E+02  0.51100000000E-03 0. -1.
    9900012    2    1    2    0    0  0.34968178271E+02  0.20492112372E+02 -0.32350010487E+01  0.50528863353E+02  0.30000010648E+02 0.  0.
        -12    1    1    2    0    0 -0.34968178271E+02 -0.20492112372E+02  0.32350010487E+01  0.40659136647E+02  0.00000000000E+00 0.  1.
         11    1    3    3    0    0  0.22313938609E+02  0.56714664211E+01  0.21689121313E+01  0.23125344705E+02  0.51100000000E-03 0. -1.
        -11    1    3    3    0    0  0.12722868122E+00 -0.36126374623E+00  0.50856084991E+01  0.51000110489E+01  0.51100000000E-03 0.  1.
        -12    1    3    3    0    0  0.12527010981E+02  0.15181909698E+02 -0.10489521679E+02  0.22303507599E+02  0.00000000000E+00 0.  1.
</event>
<event>
 7    1  0.5855569E-013  0.5052886E+02  0.7816164E-02  0.1300439E+00
        -11   -1    0    0    0    0  0.00000000000E+00  0.00000000000E+00  0.45593999997E+02  0.45594000000E+02  0.51100000000E-03 0. -1.
         11   -1    0    0    0    0 -0.00000000000E+00 -0.00000000000E+00 -0.45593999997E+02  0.45594000000E+02  0.51100000000E-03 0.  1.
    9900012    2    1    2    0    0  0.91870075110E+01 -0.28419895098E+02  0.27587573305E+02  0.50528859020E+02  0.29999997476E+02 0.  0.
        -12    1    1    2    0    0 -0.91870075110E+01  0.28419895098E+02 -0.27587573305E+02  0.40659140980E+02  0.00000000000E+00 0.  1.
         11    1    3    3    0    0 -0.27062719473E+01 -0.13687874399E+02 -0.79280294717E+00  0.13975347945E+02  0.51100000000E-03 0. -1.
        -11    1    3    3    0    0  0.37316387680E+01 -0.13998819241E+02  0.21081697490E+02  0.25579875632E+02  0.51100000000E-03 0.  1.
        -12    1    3    3    0    0  0.81616406903E+01 -0.73320145760E+00  0.72986787625E+01  0.10973635442E+02  0.00000000000E+00 0.  1.
</event>
<event>
 7    1  0.5855569E-013  0.5052887E+02  0.7816164E-02  0.1300439E+00
        -11   -1    0    0    0    0  0.00000000000E+00  0.00000000000E+00  0.45593999997E+02  0.45594000000E+02  0.51100000000E-03 0. -1.
         11   -1    0    0    0    0 -0.00000000000E+00 -0.00000000000E+00 -0.45593999997E+02  0.45594000000E+02  0.51100000000E-03 0.  1.
    9900012    2    1    2    0    0  0.21313074046E+02 -0.20200717504E+01  0.34566413880E+02  0.50528870844E+02  0.30000033418E+02 0.  0.
        -12    1    1    2    0    0 -0.21313074046E+02  0.20200717504E+01 -0.34566413880E+02  0.40659129156E+02  0.00000000000E+00 0.  1.
         11    1    3    3    0    0  0.98357542438E+01  0.58824709230E+01  0.56481376851E+01  0.12776814363E+02  0.51100000000E-03 0. -1.
        -11    1    3    3    0    0  0.36143750515E+01  0.54113971350E+01  0.21765161762E+01  0.68617890445E+01  0.51100000000E-03 0.  1.
        -12    1    3    3    0    0  0.78629447511E+01 -0.13313939808E+02  0.26741760019E+02  0.30890267436E+02  0.00000000000E+00 0.  1.
</event>
<event>
 7    1  0.5855569E-013  0.5052886E+02  0.7816164E-02  0.1300439E+00
        -11   -1    0    0    0    0  0.00000000000E+00  0.00000000000E+00  0.45593999997E+02  0.45594000000E+02  0.51100000000E-03 0.  1.
         11   -1    0    0    0    0 -0.00000000000E+00 -0.00000000000E+00 -0.45593999997E+02  0.45594000000E+02  0.51100000000E-03 0. -1.
    9900012    2    1    2    0    0 -0.31654335493E+02  0.41596468516E+01 -0.25176702513E+02  0.50528856294E+02  0.29999989192E+02 0.  0.
        -12    1    1    2    0    0  0.31654335493E+02 -0.41596468516E+01  0.25176702513E+02  0.40659143706E+02  0.00000000000E+00 0.  1.
         11    1    3    3    0    0 -0.26700016365E+02 -0.87410821671E+01 -0.19284615260E+02  0.34076293480E+02  0.51100000000E-03 0. -1.
        -11    1    3    3    0    0 -0.14610091860E+01  0.82492305204E+01 -0.65002680334E+01  0.10603670911E+02  0.51100000000E-03 0.  1.
        -12    1    3    3    0    0 -0.34933099420E+01  0.46514984982E+01  0.60818078027E+00  0.58488919029E+01  0.00000000000E+00 0.  1.
</event>
<event>
 7    1  0.5855569E-013  0.5052886E+02  0.7816164E-02  0.1300439E+00
        -11   -1    0    0    0    0  0.00000000000E+00  0.00000000000E+00  0.45593999997E+02  0.45594000000E+02  0.51100000000E-03 0.  1.
         11   -1    0    0    0    0 -0.00000000000E+00 -0.00000000000E+00 -0.45593999997E+02  0.45594000000E+02  0.51100000000E-03 0. -1.
    9900012    2    1    2    0    0  0.52719258076E+01 -0.38436171679E+02 -0.12166878461E+02  0.50528862939E+02  0.30000009389E+02 0.  0.
        -12    1    1    2    0    0 -0.52719258076E+01  0.38436171679E+02  0.12166878461E+02  0.40659137061E+02  0.00000000000E+00 0.  1.
         11    1    3    3    0    0  0.16238965239E+01 -0.89140595811E+01 -0.73088431833E+00  0.90901974832E+01  0.51100000000E-03 0. -1.
        -11    1    3    3    0    0 -0.39200353621E+00 -0.14966234590E+02  0.78789356891E+01  0.16918022119E+02  0.51100000000E-03 0.  1.
         12    1    3    3    0    0  0.40400328200E+01 -0.14555877508E+02 -0.19314929832E+02  0.24520643337E+02  0.00000000000E+00 0. -1.
</event>
<event>
 7    1  0.5855569E-013  0.5052886E+02  0.7816164E-02  0.1300439E+00
        -11   -1    0    0    0    0  0.00000000000E+00  0.00000000000E+00  0.45593999997E+02  0.45594000000E+02  0.51100000000E-03 0.  1.
         11   -1    0    0    0    0 -0.00000000000E+00 -0.00000000000E+00 -0.45593999997E+02  0.45594000000E+02  0.51100000000E-03 0. -1.
    9900012    2    1    2    0    0 -0.21179079274E+02 -0.16231468505E+02 -0.30678192069E+02  0.50528862806E+02  0.30000008984E+02 0.  0.
        -12    1    1    2    0    0  0.21179079274E+02  0.16231468505E+02  0.30678192069E+02  0.40659137194E+02  0.00000000000E+00 0.  1.
         11    1    3    3    0    0 -0.91099734444E+01 -0.16815136775E+02 -0.19010752104E+02  0.26965702971E+02  0.51100000000E-03 0. -1.
        -11    1    3    3    0    0 -0.15991478216E+02 -0.13949733766E+01 -0.86603374202E+01  0.18239374188E+02  0.51100000000E-03 0.  1.
        -12    1    3    3    0    0  0.39223723861E+01  0.19786416459E+01 -0.30071025448E+01  0.53237856468E+01  0.00000000000E+00 0.  1.
</event>
<event>
 7    1  0.5855569E-013  0.5052886E+02  0.7816164E-02  0.1300439E+00
        -11   -1    0    0    0    0  0.00000000000E+00  0.00000000000E+00  0.45593999997E+02  0.45594000000E+02  0.51100000000E-03 0. -1.
         11   -1    0    0    0    0 -0.00000000000E+00 -0.00000000000E+00 -0.45593999997E+02  0.45594000000E+02  0.51100000000E-03 0.  1.
    9900012    2    1    2    0    0  0.27327418057E+02 -0.29897819890E+02  0.35352867341E+01  0.50528860018E+02  0.30000000509E+02 0.  0.
        -12    1    1    2    0    0 -0.27327418057E+02  0.29897819890E+02 -0.35352867341E+01  0.40659139982E+02  0.00000000000E+00 0.  1.
         11    1    3    3    0    0  0.12214827718E+02 -0.19774900877E+02  0.81438807859E+01  0.24628672627E+02  0.51100000000E-03 0. -1.
        -11    1    3    3    0    0  0.10788945806E+02 -0.12301786003E+02  0.32381461423E+01  0.16679954471E+02  0.51100000000E-03 0.  1.
        -12    1    3    3    0    0  0.43236445326E+01  0.21788669898E+01 -0.78467401941E+01  0.92202329188E+01  0.00000000000E+00 0.  1.
</event>
<event>
 7    1  0.5855569E-013  0.5052883E+02  0.7816164E-02  0.1300439E+00
        -11   -1    0    0    0    0  0.00000000000E+00  0.00000000000E+00  0.45593999997E+02  0.45594000000E+02  0.51100000000E-03 0. -1.
         11   -1    0    0    0    0 -0.00000000000E+00 -0.00000000000E+00 -0.45593999997E+02  0.45594000000E+02  0.51100000000E-03 0.  1.
    9900012    2    1    2    0    0  0.14412897111E+02 -0.38017043075E+02 -0.37572933961E+00  0.50528827113E+02  0.29999900494E+02 0.  0.
        -12    1    1    2    0    0 -0.14412897111E+02  0.38017043075E+02  0.37572933961E+00  0.40659172887E+02  0.00000000000E+00 0.  1.
         11    1    3    3    0    0  0.35046954229E+00 -0.55647552169E+00 -0.47005032759E+01  0.47462854122E+01  0.51100000000E-03 0. -1.
        -11    1    3    3    0    0  0.91396746526E+01 -0.48134456575E+01 -0.49980709056E+01  0.11475348574E+02  0.51100000000E-03 0.  1.
         12    1    3    3    0    0  0.49227529161E+01 -0.32647121896E+02  0.93228448419E+01  0.34307193127E+02  0.00000000000E+00 0. -1.
</event>
<event>
 7    1  0.5855569E-013  0.5052886E+02  0.7816164E-02  0.1300439E+00
        -11   -1    0    0    0    0  0.00000000000E+00  0.00000000000E+00  0.45593999997E+02  0.45594000000E+02  0.51100000000E-03 0.  1.
         11   -1    0    0    0    0 -0.00000000000E+00 -0.00000000000E+00 -0.45593999997E+02  0.45594000000E+02  0.51100000000E-03 0. -1.
    9900012    2    1    2    0    0  0.28036907080E+02  0.29372176000E+02  0.20911006849E+01  0.50528861007E+02  0.30000003517E+02 0.  0.
        -12    1    1    2    0    0 -0.28036907080E+02 -0.29372176000E+02 -0.20911006849E+01  0.40659138993E+02  0.00000000000E+00 0.  1.
         11    1    3    3    0    0 -0.19160833431E+01 -0.33912503719E+00 -0.29623557126E+01  0.35442817041E+01  0.51100000000E-03 0. -1.
        -11    1    3    3    0    0  0.48467677619E+01 -0.27492376213E+01  0.16281274893E+01  0.58051929010E+01  0.51100000000E-03 0.  1.
         12    1    3    3    0    0  0.25106222661E+02  0.32460538659E+02  0.34253289082E+01  0.41179386402E+02  0.00000000000E+00 0. -1.
</event>
<event>
 7    1  0.5855569E-013  0.5052888E+02  0.7816164E-02  0.1300439E+00
        -11   -1    0    0    0    0  0.00000000000E+00  0.00000000000E+00  0.45593999997E+02  0.45594000000E+02  0.51100000000E-03 0.  1.
         11   -1    0    0    0    0 -0.00000000000E+00 -0.00000000000E+00 -0.45593999997E+02  0.45594000000E+02  0.51100000000E-03 0. -1.
    9900012    2    1    2    0    0  0.22114326640E+02  0.21315755464E+02 -0.26641303520E+02  0.50528881379E+02  0.30000065441E+02 0.  0.
        -12    1    1    2    0    0 -0.22114326640E+02 -0.21315755464E+02  0.26641303520E+02  0.40659118621E+02  0.00000000000E+00 0.  1.
         11    1    3    3    0    0  0.11584026910E+02  0.39938993501E+01 -0.47194100368E+00  0.12262285270E+02  0.51100000000E-03 0. -1.
        -11    1    3    3    0    0  0.77754225126E+01  0.17994215828E+02 -0.10295644395E+02  0.22141573844E+02  0.51100000000E-03 0.  1.
         12    1    3    3    0    0  0.27548772173E+01 -0.67235971380E+00 -0.15873718122E+02  0.16125022266E+02  0.00000000000E+00 0. -1.
</event>
<event>
 7    1  0.5855569E-013  0.5052885E+02  0.7816164E-02  0.1300439E+00
        -11   -1    0    0    0    0  0.00000000000E+00  0.00000000000E+00  0.45593999997E+02  0.45594000000E+02  0.51100000000E-03 0. -1.
         11   -1    0    0    0    0 -0.00000000000E+00 -0.00000000000E+00 -0.45593999997E+02  0.45594000000E+02  0.51100000000E-03 0.  1.
    9900012    2    1    2    0    0  0.10793132649E+02 -0.39190348529E+02  0.88938139857E+00  0.50528854295E+02  0.29999983116E+02 0.  0.
        -12    1    1    2    0    0 -0.10793132649E+02  0.39190348529E+02 -0.88938139857E+00  0.40659145705E+02  0.00000000000E+00 0.  1.
         11    1    3    3    0    0 -0.13012507568E+01 -0.78208389942E+00  0.86239224780E+01  0.87565374393E+01  0.51100000000E-03 0. -1.
        -11    1    3    3    0    0  0.10419912559E+01 -0.14647542537E+02 -0.10180674189E+01  0.14719806713E+02  0.51100000000E-03 0.  1.
        -12    1    3    3    0    0  0.11052392150E+02 -0.23760722092E+02 -0.67164736606E+01  0.27052510143E+02  0.00000000000E+00 0.  1.
</event>
<event>
 7    1  0.5855569E-013  0.5052885E+02  0.7816164E-02  0.1300439E+00
        -11   -1    0    0    0    0  0.00000000000E+00  0.00000000000E+00  0.45593999997E+02  0.45594000000E+02  0.51100000000E-03 0. -1.
         11   -1    0    0    0    0 -0.00000000000E+00 -0.00000000000E+00 -0.45593999997E+02  0.45594000000E+02  0.51100000000E-03 0.  1.
    9900012    2    1    2    0    0  0.11486561738E+02 -0.14580664589E+02  0.36174983119E+02  0.50528852394E+02  0.29999977336E+02 0.  0.
        -12    1    1    2    0    0 -0.11486561738E+02  0.14580664589E+02 -0.36174983119E+02  0.40659147606E+02  0.00000000000E+00 0.  1.
         11    1    3    3    0    0  0.26636524386E+01 -0.10988883101E+02  0.31596133730E+02  0.33558400783E+02  0.51100000000E-03 0. -1.
        -11    1    3    3    0    0  0.46472376198E+01 -0.71439402219E+01 -0.16414534032E+01  0.86791168287E+01  0.51100000000E-03 0.  1.
        -12    1    3    3    0    0  0.41756716793E+01  0.35521587347E+01  0.62203027921E+01  0.82913347825E+01  0.00000000000E+00 0.  1.
</event>
<event>
 7    1  0.5919348E-013  0.5052891E+02  0.7816164E-02  0.1300439E+00
        -11   -1    0    0    0    0  0.00000000000E+00  0.00000000000E+00  0.45593999997E+02  0.45594000000E+02  0.51100000000E-03 0. -1.
         11   -1    0    0    0    0 -0.00000000000E+00 -0.00000000000E+00 -0.45593999997E+02  0.45594000000E+02  0.51100000000E-03 0.  1.
    9900012    2    1    2    0    0 -0.54462999607E+01  0.27170881089E+02  0.29753025408E+02  0.50528911430E+02  0.30000156782E+02 0.  0.
        -12    1    1    2    0    0  0.54462999607E+01 -0.27170881089E+02 -0.29753025408E+02  0.40659088570E+02  0.00000000000E+00 0.  1.
         11    1    3    3    0    0 -0.20639956832E+01  0.19066174334E+02  0.11080328110E+02  0.22148425524E+02  0.51100000000E-03 0. -1.
        -11    1    3    3    0    0  0.58662088396E+01 -0.34197828881E-01 -0.16880188403E+00  0.58687366595E+01  0.51100000000E-03 0.  1.
         12    1    3    3    0    0 -0.92485131171E+01  0.81389045842E+01  0.18841499182E+02  0.22511749247E+02  0.00000000000E+00 0. -1.
</event>
<event>
 7    1  0.5855569E-013  0.5052889E+02  0.7816164E-02  0.1300439E+00
        -11   -1    0    0    0    0  0.00000000000E+00  0.00000000000E+00  0.45593999997E+02  0.45594000000E+02  0.51100000000E-03 0.  1.
         11   -1    0    0    0    0 -0.00000000000E+00 -0.00000000000E+00 -0.45593999997E+02  0.45594000000E+02  0.51100000000E-03 0. -1.
    9900012    2    1    2    0    0 -0.14477090483E+02 -0.95218047807E+01 -0.36781960876E+02  0.50528885880E+02  0.30000079120E+02 0.  0.
        -12    1    1    2    0    0  0.14477090483E+02  0.95218047807E+01  0.36781960876E+02  0.40659114120E+02  0.00000000000E+00 0.  1.
         11    1    3    3    0    0 -0.45592510485E+01  0.13407207229E+01 -0.26300338101E+02  0.26726243407E+02  0.51100000000E-03 0. -1.
        -11    1    3    3    0    0  0.10530982676E+00 -0.95495679221E-01  0.35029460059E+01  0.35058295118E+01  0.51100000000E-03 0.  1.
        -12    1    3    3    0    0 -0.10023149261E+02 -0.10767029824E+02 -0.13984568782E+02  0.20296812961E+02  0.00000000000E+00 0.  1.
</event>
<event>
 7    1  0.5855569E-013  0.5052887E+02  0.7816164E-02  0.1300439E+00
        -11   -1    0    0    0    0  0.00000000000E+00  0.00000000000E+00  0.45593999997E+02  0.45594000000E+02  0.51100000000E-03 0. -1.
         11   -1    0    0    0    0 -0.00000000000E+00 -0.00000000000E+00 -0.45593999997E+02  0.45594000000E+02  0.51100000000E-03 0.  1.
    9900012    2    1    2    0    0  0.35216788043E+02  0.18234161183E+02  0.89698388532E+01  0.50528870605E+02  0.30000032692E+02 0.  0.
        -12    1    1    2    0    0 -0.35216788043E+02 -0.18234161183E+02 -0.89698388532E+01  0.40659129395E+02  0.00000000000E+00 0.  1.
         11    1    3    3    0    0  0.97833850806E+01 -0.19288098509E+01  0.49641668480E+01  0.11139025264E+02  0.51100000000E-03 0. -1.
        -11    1    3    3    0    0  0.14081445122E+02 -0.15257646212E+01 -0.16658415623E+01  0.14261489500E+02  0.51100000000E-03 0.  1.
        -12    1    3    3    0    0  0.11351957840E+02  0.21688735655E+02  0.56715135675E+01  0.25128355841E+02  0.00000000000E+00 0.  1.
</event>
<event>
 7    1  0.5855569E-013  0.5052886E+02  0.7816164E-02  0.1300439E+00
        -11   -1    0    0    0    0  0.00000000000E+00  0.00000000000E+00  0.45593999997E+02  0.45594000000E+02  0.51100000000E-03 0.  1.
         11   -1    0    0    0    0 -0.00000000000E+00 -0.00000000000E+00 -0.45593999997E+02  0.45594000000E+02  0.51100000000E-03 0. -1.
    9900012    2    1    2    0    0 -0.23027818268E+02  0.20692042299E+02 -0.26357623530E+02  0.50528863920E+02  0.30000012370E+02 0.  0.
        -12    1    1    2    0    0  0.23027818268E+02 -0.20692042299E+02  0.26357623530E+02  0.40659136080E+02  0.00000000000E+00 0.  1.
         11    1    3    3    0    0  0.36323546398E+00  0.47732348553E+01 -0.16177045017E+01  0.50529871464E+01  0.51100000000E-03 0. -1.
        -11    1    3    3    0    0 -0.81338209890E+01  0.87486218812E+01  0.36214790915E+01  0.12482489326E+02  0.51100000000E-03 0.  1.
         12    1    3    3    0    0 -0.15257232743E+02  0.71701855623E+01 -0.28361398119E+02  0.32993387447E+02  0.00000000000E+00 0. -1.
</event>
<event>
 7    1  0.5855569E-013  0.5052886E+02  0.7816164E-02  0.1300439E+00
        -11   -1    0    0    0    0  0.00000000000E+00  0.00000000000E+00  0.45593999997E+02  0.45594000000E+02  0.51100000000E-03 0.  1.
         11   -1    0    0    0    0 -0.00000000000E+00 -0.00000000000E+00 -0.45593999997E+02  0.45594000000E+02  0.51100000000E-03 0. -1.
    9900012    2    1    2    0    0  0.93614202180E+01 -0.19387618998E+02 -0.34491296829E+02  0.50528861841E+02  0.30000006051E+02 0.  0.
        -12    1    1    2    0    0 -0.93614202180E+01  0.19387618998E+02  0.34491296829E+02  0.40659138159E+02  0.00000000000E+00 0.  1.
         11    1    3    3    0    0 -0.32800989675E+00  0.12795765960E+01  0.18914481932E+01  0.23070507766E+01  0.51100000000E-03 0. -1.
        -11    1    3    3    0    0  0.43490395079E+01  0.43004685021E+01 -0.69985813103E+01  0.92945314351E+01  0.51100000000E-03 0.  1.
         12    1    3    3    0    0  0.53403906068E+01 -0.24967664096E+02 -0.29384163712E+02  0.38927279629E+02  0.00000000000E+00 0. -1.
</event>
<event>
 7    1  0.5855569E-013  0.5052886E+02  0.7816164E-02  0.1300439E+00
        -11   -1    0    0    0    0  0.00000000000E+00  0.00000000000E+00  0.45593999997E+02  0.45594000000E+02  0.51100000000E-03 0. -1.
         11   -1    0    0    0    0 -0.00000000000E+00 -0.00000000000E+00 -0.45593999997E+02  0.45594000000E+02  0.51100000000E-03 0.  1.
    9900012    2    1    2    0    0 -0.37673340632E+02 -0.12802647868E+02  0.83652583162E+01  0.50528856704E+02  0.29999990439E+02 0.  0.
        -12    1    1    2    0    0  0.37673340632E+02  0.12802647868E+02 -0.83652583162E+01  0.40659143296E+02  0.00000000000E+00 0.  1.
         11    1    3    3    0    0 -0.69941212337E+01 -0.76834821005E+01  0.12962042296E+01  0.10470614819E+02  0.51100000000E-03 0. -1.
        -11    1    3    3    0    0 -0.97716661355E+01 -0.12198020668E+02  0.87657668620E+01  0.17919705249E+02  0.51100000000E-03 0.  1.
        -12    1    3    3    0    0 -0.20907553263E+02  0.70788549002E+01 -0.16967127753E+01  0.22138536636E+02  0.00000000000E+00 0.  1.
</event>
<event>
 7    1  0.5855569E-013  0.5052884E+02  0.7816164E-02  0.1300439E+00
        -11   -1    0    0    0    0  0.00000000000E+00  0.00000000000E+00  0.45593999997E+02  0.45594000000E+02  0.51100000000E-03 0. -1.
         11   -1    0    0    0    0 -0.00000000000E+00 -0.00000000000E+00 -0.45593999997E+02  0.45594000000E+02  0.51100000000E-03 0.  1.
    9900012    2    1    2    0    0 -0.25859418083E+02  0.24785717958E+02  0.19238653910E+02  0.50528842083E+02  0.29999945994E+02 0.  0.
        -12    1    1    2    0    0  0.25859418083E+02 -0.24785717958E+02 -0.19238653910E+02  0.40659157917E+02  0.00000000000E+00 0.  1.
         11    1    3    3    0    0  0.39082631983E+01 -0.16088454422E+01 -0.42550610817E+00  0.42478183334E+01  0.51100000000E-03 0. -1.
        -11    1    3    3    0    0 -0.42449721845E+00 -0.12135172402E+01  0.17923344294E+01  0.22057390935E+01  0.51100000000E-03 0.  1.
         12    1    3    3    0    0 -0.29343184063E+02  0.27608080640E+02  0.17871825589E+02  0.44075284656E+02  0.00000000000E+00 0. -1.
</event>
<event>
 7    1  0.5855569E-013  0.5052886E+02  0.7816164E-02  0.1300439E+00
        -11   -1    0    0    0    0  0.00000000000E+00  0.00000000000E+00  0.45593999997E+02  0.45594000000E+02  0.51100000000E-03 0.  1.
         11   -1    0    0    0    0 -0.00000000000E+00 -0.00000000000E+00 -0.45593999997E+02  0.45594000000E+02  0.51100000000E-03 0. -1.
    9900012    2    1    2    0    0 -0.23332724947E+01 -0.24554871932E+02 -0.32323056800E+02  0.50528857153E+02  0.29999991802E+02 0.  0.
        -12    1    1    2    0    0  0.23332724947E+01  0.24554871932E+02  0.32323056800E+02  0.40659142847E+02  0.00000000000E+00 0.  1.
         11    1    3    3    0    0 -0.15283366611E+01 -0.16836062487E+01  0.13183820731E+01  0.26283977062E+01  0.51100000000E-03 0. -1.
        -11    1    3    3    0    0  0.55774924693E+01 -0.28009357613E+01  0.19550182877E+01  0.65403180465E+01  0.51100000000E-03 0.  1.
         12    1    3    3    0    0 -0.63824283029E+01 -0.20070329922E+02 -0.35596457161E+02  0.41360141400E+02  0.00000000000E+00 0. -1.
</event>
<event>
 7    1  0.5855569E-013  0.5052887E+02  0.7816164E-02  0.1300439E+00
        -11   -1    0    0    0    0  0.00000000000E+00  0.00000000000E+00  0.45593999997E+02  0.45594000000E+02  0.51100000000E-03 0.  1.
         11   -1    0    0    0    0 -0.00000000000E+00 -0.00000000000E+00 -0.45593999997E+02  0.45594000000E+02  0.51100000000E-03 0. -1.
    9900012    2    1    2    0    0  0.22631798352E+02  0.17654706574E+02  0.28797182545E+02  0.50528872077E+02  0.30000037167E+02 0.  0.
        -12    1    1    2    0    0 -0.22631798352E+02 -0.17654706574E+02 -0.28797182545E+02  0.40659127923E+02  0.00000000000E+00 0.  1.
         11    1    3    3    0    0 -0.14610232155E+01  0.31823710367E+01  0.35677471956E+01  0.49990893735E+01  0.51100000000E-03 0. -1.
        -11    1    3    3    0    0 -0.26718356748E+01 -0.32992388138E+01 -0.62490591038E+00  0.42911758624E+01  0.51100000000E-03 0.  1.
         12    1    3    3    0    0  0.26764657243E+02  0.17771574351E+02  0.25854341260E+02  0.41238606842E+02  0.00000000000E+00 0. -1.
</event>
<event>
 7    1  0.5855569E-013  0.5052886E+02  0.7816164E-02  0.1300439E+00
        -11   -1    0    0    0    0  0.00000000000E+00  0.00000000000E+00  0.45593999997E+02  0.45594000000E+02  0.51100000000E-03 0.  1.
         11   -1    0    0    0    0 -0.00000000000E+00 -0.00000000000E+00 -0.45593999997E+02  0.45594000000E+02  0.51100000000E-03 0. -1.
    9900012    2    1    2    0    0  0.17197807290E+02 -0.17182974239E+02 -0.32590584591E+02  0.50528863472E+02  0.30000011008E+02 0.  0.
        -12    1    1    2    0    0 -0.17197807290E+02  0.17182974239E+02  0.32590584591E+02  0.40659136528E+02  0.00000000000E+00 0.  1.
         11    1    3    3    0    0  0.12494680267E+02 -0.28556886574E+01 -0.24988730186E+01  0.13058191273E+02  0.51100000000E-03 0. -1.
        -11    1    3    3    0    0  0.91724834063E+01 -0.57291704941E+01 -0.83364192954E+01  0.13654806235E+02  0.51100000000E-03 0.  1.
         12    1    3    3    0    0 -0.44693563841E+01 -0.85981150873E+01 -0.21755292277E+02  0.23815865964E+02  0.00000000000E+00 0. -1.
</event>
<event>
 7    1  0.5855569E-013  0.5052885E+02  0.7816164E-02  0.1300439E+00
        -11   -1    0    0    0    0  0.00000000000E+00  0.00000000000E+00  0.45593999997E+02  0.45594000000E+02  0.51100000000E-03 0.  1.
         11   -1    0    0    0    0 -0.00000000000E+00 -0.00000000000E+00 -0.45593999997E+02  0.45594000000E+02  0.51100000000E-03 0. -1.
    9900012    2    1    2    0    0 -0.22542532373E+02 -0.28654407575E+02 -0.17997926244E+02  0.50528853571E+02  0.29999980913E+02 0.  0.
        -12    1    1    2    0    0  0.22542532373E+02  0.28654407575E+02  0.17997926244E+02  0.40659146429E+02  0.00000000000E+00 0.  1.
         11    1    3    3    0    0 -0.13852315851E+02 -0.24397021030E+02 -0.45936594984E+01  0.28428911295E+02  0.51100000000E-03 0. -1.
        -11    1    3    3    0    0 -0.87780411137E+01 -0.89677704490E+01 -0.77872572364E+01  0.14768760549E+02  0.51100000000E-03 0.  1.
        -12    1    3    3    0    0  0.87824591497E-01  0.47103839041E+01 -0.56170095091E+01  0.73311817266E+01  0.00000000000E+00 0.  1.
</event>
<event>
 7    1  0.5855569E-013  0.5052887E+02  0.7816164E-02  0.1300439E+00
        -11   -1    0    0    0    0  0.00000000000E+00  0.00000000000E+00  0.45593999997E+02  0.45594000000E+02  0.51100000000E-03 0.  1.
         11   -1    0    0    0    0 -0.00000000000E+00 -0.00000000000E+00 -0.45593999997E+02  0.45594000000E+02  0.51100000000E-03 0. -1.
    9900012    2    1    2    0    0  0.10287884526E+02  0.13512209658E+02 -0.36942450685E+02  0.50528867687E+02  0.30000023821E+02 0.  0.
        -12    1    1    2    0    0 -0.10287884526E+02 -0.13512209658E+02  0.36942450685E+02  0.40659132313E+02  0.00000000000E+00 0.  1.
         11    1    3    3    0    0  0.44619291472E+01  0.47197603187E+01 -0.44122733533E+01  0.78519491584E+01  0.51100000000E-03 0. -1.
        -11    1    3    3    0    0 -0.19830283409E+00  0.11611229656E+02 -0.24478651402E+01  0.11868109459E+02  0.51100000000E-03 0.  1.
        -12    1    3    3    0    0  0.60242582129E+01 -0.28187803167E+01 -0.30082312191E+02  0.30808809069E+02  0.00000000000E+00 0.  1.
</event>
<event>
 7    1  0.5855569E-013  0.5052887E+02  0.7816164E-02  0.1300439E+00
        -11   -1    0    0    0    0  0.00000000000E+00  0.00000000000E+00  0.45593999997E+02  0.45594000000E+02  0.51100000000E-03 0. -1.
         11   -1    0    0    0    0 -0.00000000000E+00 -0.00000000000E+00 -0.45593999997E+02  0.45594000000E+02  0.51100000000E-03 0.  1.
    9900012    2    1    2    0    0  0.39935855013E+02  0.30909685016E+01  0.69812798801E+01  0.50528869775E+02  0.30000030168E+02 0.  0.
        -12    1    1    2    0    0 -0.39935855013E+02 -0.30909685016E+01 -0.69812798801E+01  0.40659130225E+02  0.00000000000E+00 0.  1.
         11    1    3    3    0    0  0.32930257696E+02  0.51076556455E+01  0.15959318269E+02  0.36948475720E+02  0.51100000000E-03 0. -1.
        -11    1    3    3    0    0  0.13912929480E+01 -0.94053293784E+00  0.10903972741E+01  0.20023148481E+01  0.51100000000E-03 0.  1.
        -12    1    3    3    0    0  0.56143043690E+01 -0.10761542061E+01 -0.10068435663E+02  0.11578079207E+02  0.00000000000E+00 0.  1.
</event>
<event>
 7    1  0.5855569E-013  0.5052886E+02  0.7816164E-02  0.1300439E+00
        -11   -1    0    0    0    0  0.00000000000E+00  0.00000000000E+00  0.45593999997E+02  0.45594000000E+02  0.51100000000E-03 0. -1.
         11   -1    0    0    0    0 -0.00000000000E+00 -0.00000000000E+00 -0.45593999997E+02  0.45594000000E+02  0.51100000000E-03 0.  1.
    9900012    2    1    2    0    0  0.17628067467E+02 -0.35476610452E+02 -0.91557058756E+01  0.50528860783E+02  0.30000002835E+02 0.  0.
        -12    1    1    2    0    0 -0.17628067467E+02  0.35476610452E+02  0.91557058756E+01  0.40659139217E+02  0.00000000000E+00 0.  1.
         11    1    3    3    0    0  0.97252389309E+01 -0.26708194362E+02 -0.96189313411E+01  0.30007195116E+02  0.51100000000E-03 0. -1.
        -11    1    3    3    0    0  0.10498305954E+02 -0.11857388522E+02 -0.17269045689E+01  0.15930922450E+02  0.51100000000E-03 0.  1.
        -12    1    3    3    0    0 -0.25954774181E+01  0.30889724312E+01  0.21901300344E+01  0.45907432161E+01  0.00000000000E+00 0.  1.
</event>
<event>
 7    1  0.5855569E-013  0.5052886E+02  0.7816164E-02  0.1300439E+00
        -11   -1    0    0    0    0  0.00000000000E+00  0.00000000000E+00  0.45593999997E+02  0.45594000000E+02  0.51100000000E-03 0.  1.
         11   -1    0    0    0    0 -0.00000000000E+00 -0.00000000000E+00 -0.45593999997E+02  0.45594000000E+02  0.51100000000E-03 0. -1.
    9900012    2    1    2    0    0  0.25047255901E+02  0.15671598375E+02 -0.27932092636E+02  0.50528858065E+02  0.29999994575E+02 0.  0.
        -12    1    1    2    0    0 -0.25047255901E+02 -0.15671598375E+02  0.27932092636E+02  0.40659141935E+02  0.00000000000E+00 0.  1.
         11    1    3    3    0    0  0.73856553124E+00  0.62712135660E+01 -0.18116428291E+02  0.19185373932E+02  0.51100000000E-03 0. -1.
        -11    1    3    3    0    0 -0.10080045443E+01  0.31496586877E+01  0.41194010031E+00  0.33325842702E+01  0.51100000000E-03 0.  1.
        -12    1    3    3    0    0  0.25316694914E+02  0.62507261214E+01 -0.10227604446E+02  0.28010899863E+02  0.00000000000E+00 0.  1.
</event>
<event>
 7    1  0.5855569E-013  0.5052886E+02  0.7816164E-02  0.1300439E+00
        -11   -1    0    0    0    0  0.00000000000E+00  0.00000000000E+00  0.45593999997E+02  0.45594000000E+02  0.51100000000E-03 0. -1.
         11   -1    0    0    0    0 -0.00000000000E+00 -0.00000000000E+00 -0.45593999997E+02  0.45594000000E+02  0.51100000000E-03 0.  1.
    9900012    2    1    2    0    0  0.43741308410E+01 -0.23017508534E+02  0.33229913234E+02  0.50528857691E+02  0.29999993438E+02 0.  0.
        -12    1    1    2    0    0 -0.43741308410E+01  0.23017508534E+02 -0.33229913234E+02  0.40659142309E+02  0.00000000000E+00 0.  1.
         11    1    3    3    0    0 -0.93024574278E+01 -0.23938965099E+01  0.10070002683E+02  0.13916587549E+02  0.51100000000E-03 0. -1.
        -11    1    3    3    0    0 -0.22066858994E+01 -0.57300829735E+01  0.26085233458E+01  0.66714097347E+01  0.51100000000E-03 0.  1.
         12    1    3    3    0    0  0.15883274168E+02 -0.14893529051E+02  0.20551387205E+02  0.29940860408E+02  0.00000000000E+00 0. -1.
</event>
<event>
 7    1  0.6424192E-013  0.5052886E+02  0.7816164E-02  0.1300439E+00
        -11   -1    0    0    0    0  0.00000000000E+00  0.00000000000E+00  0.45593999997E+02  0.45594000000E+02  0.51100000000E-03 0. -1.
         11   -1    0    0    0    0 -0.00000000000E+00 -0.00000000000E+00 -0.45593999997E+02  0.45594000000E+02  0.51100000000E-03 0.  1.
    9900012    2    1    2    0    0  0.18530607792E+02  0.21952030830E+02  0.28773089907E+02  0.50528858525E+02  0.29999995972E+02 0.  0.
        -12    1    1    2    0    0 -0.18530607792E+02 -0.21952030830E+02 -0.28773089907E+02  0.40659141475E+02  0.00000000000E+00 0.  1.
         11    1    3    3    0    0  0.17124164748E+02  0.97425806619E+01  0.16861039173E+02  0.25931632007E+02  0.51100000000E-03 0. -1.
        -11    1    3    3    0    0 -0.16448044512E+01  0.67552570544E+01  0.15782552280E+02  0.17246096263E+02  0.51100000000E-03 0.  1.
        -12    1    3    3    0    0  0.30512474954E+01  0.54541931141E+01 -0.38705015472E+01  0.73511302553E+01  0.00000000000E+00 0.  1.
</event>
<event>
 7    1  0.5855569E-013  0.5052890E+02  0.7816164E-02  0.1300439E+00
        -11   -1    0    0    0    0  0.00000000000E+00  0.00000000000E+00  0.45593999997E+02  0.45594000000E+02  0.51100000000E-03 0.  1.
         11   -1    0    0    0    0 -0.00000000000E+00 -0.00000000000E+00 -0.45593999997E+02  0.45594000000E+02  0.51100000000E-03 0. -1.
    9900012    2    1    2    0    0  0.32203116316E+02 -0.24624032508E+02 -0.31271070070E+01  0.50528899227E+02  0.30000119691E+02 0.  0.
        -12    1    1    2    0    0 -0.32203116316E+02  0.24624032508E+02  0.31271070070E+01  0.40659100773E+02  0.00000000000E+00 0.  1.
         11    1    3    3    0    0  0.88551042074E+01 -0.79047542883E+01  0.61171168853E+01  0.13353543729E+02  0.51100000000E-03 0. -1.
        -11    1    3    3    0    0 -0.29904509310E+01  0.16997346159E+01 -0.27073658229E+01  0.43774107067E+01  0.51100000000E-03 0.  1.
        -12    1    3    3    0    0  0.26338463039E+02 -0.18419012836E+02 -0.65368580694E+01  0.32797944791E+02  0.00000000000E+00 0.  1.
</event>
<event>
 7    1  0.5855569E-013  0.5052884E+02  0.7816164E-02  0.1300439E+00
        -11   -1    0    0    0    0  0.00000000000E+00  0.00000000000E+00  0.45593999997E+02  0.45594000000E+02  0.51100000000E-03 0. -1.
         11   -1    0    0    0    0 -0.00000000000E+00 -0.00000000000E+00 -0.45593999997E+02  0.45594000000E+02  0.51100000000E-03 0.  1.
    9900012    2    1    2    0    0  0.32761204024E+02  0.21582123411E+02  0.10680935420E+02  0.50528844555E+02  0.29999953510E+02 0.  0.
        -12    1    1    2    0    0 -0.32761204024E+02 -0.21582123411E+02 -0.10680935420E+02  0.40659155445E+02  0.00000000000E+00 0.  1.
         11    1    3    3    0    0  0.18371031913E+02  0.18154804260E+02  0.10421956919E+02  0.27851551439E+02  0.51100000000E-03 0. -1.
        -11    1    3    3    0    0  0.40025909724E+01 -0.18945104651E+01  0.76665291884E+01  0.88535628112E+01  0.51100000000E-03 0.  1.
         12    1    3    3    0    0  0.10387581138E+02  0.53218296165E+01 -0.74075506872E+01  0.13823730305E+02  0.00000000000E+00 0. -1.
</event>
<event>
 7    1  0.5855569E-013  0.5052886E+02  0.7816164E-02  0.1300439E+00
        -11   -1    0    0    0    0  0.00000000000E+00  0.00000000000E+00  0.45593999997E+02  0.45594000000E+02  0.51100000000E-03 0.  1.
         11   -1    0    0    0    0 -0.00000000000E+00 -0.00000000000E+00 -0.45593999997E+02  0.45594000000E+02  0.51100000000E-03 0. -1.
    9900012    2    1    2    0    0  0.34223091811E+02  0.21907286967E+02 -0.14198897951E+01  0.50528864220E+02  0.30000013282E+02 0.  0.
        -12    1    1    2    0    0 -0.34223091811E+02 -0.21907286967E+02  0.14198897951E+01  0.40659135780E+02  0.00000000000E+00 0.  1.
         11    1    3    3    0    0  0.13232808035E+02  0.11738330178E+02  0.10236794429E+02  0.20437406007E+02  0.51100000000E-03 0. -1.
        -11    1    3    3    0    0  0.16459505544E+02  0.13716009554E+02 -0.65663777085E+01  0.22408961540E+02  0.51100000000E-03 0.  1.
        -12    1    3    3    0    0  0.45307782319E+01 -0.35470527642E+01 -0.50903065157E+01  0.76824966725E+01  0.00000000000E+00 0.  1.
</event>
<event>
 7    1  0.5855569E-013  0.5052886E+02  0.7816164E-02  0.1300439E+00
        -11   -1    0    0    0    0  0.00000000000E+00  0.00000000000E+00  0.45593999997E+02  0.45594000000E+02  0.51100000000E-03 0.  1.
         11   -1    0    0    0    0 -0.00000000000E+00 -0.00000000000E+00 -0.45593999997E+02  0.45594000000E+02  0.51100000000E-03 0. -1.
    9900012    2    1    2    0    0 -0.40159718129E+01  0.94930826865E+00 -0.40449180677E+02  0.50528862856E+02  0.30000009138E+02 0.  0.
        -12    1    1    2    0    0  0.40159718129E+01 -0.94930826865E+00  0.40449180677E+02  0.40659137144E+02  0.00000000000E+00 0.  1.
         11    1    3    3    0    0 -0.55611213778E+01 -0.20815804200E+01 -0.38219328167E+02  0.38677850171E+02  0.51100000000E-03 0. -1.
        -11    1    3    3    0    0 -0.15521343646E+01  0.22107686723E+01 -0.61919618768E+01  0.67555171048E+01  0.51100000000E-03 0.  1.
        -12    1    3    3    0    0  0.30972839294E+01  0.82012001631E+00  0.39621093665E+01  0.50954955807E+01  0.00000000000E+00 0.  1.
</event>
<event>
 7    1  0.5855569E-013  0.5052885E+02  0.7816164E-02  0.1300439E+00
        -11   -1    0    0    0    0  0.00000000000E+00  0.00000000000E+00  0.45593999997E+02  0.45594000000E+02  0.51100000000E-03 0.  1.
         11   -1    0    0    0    0 -0.00000000000E+00 -0.00000000000E+00 -0.45593999997E+02  0.45594000000E+02  0.51100000000E-03 0. -1.
    9900012    2    1    2    0    0 -0.14688543786E+02 -0.37284092568E+02 -0.68782047667E+01  0.50528848780E+02  0.29999966351E+02 0.  0.
        -12    1    1    2    0    0  0.14688543786E+02  0.37284092568E+02  0.68782047667E+01  0.40659151220E+02  0.00000000000E+00 0.  1.
         11    1    3    3    0    0 -0.14730761626E+02 -0.20343063885E+02 -0.87568339686E+01  0.26599205397E+02  0.51100000000E-03 0. -1.
        -11    1    3    3    0    0  0.25922990084E+01 -0.18134685058E+02  0.56978892419E+01  0.19184701154E+02  0.51100000000E-03 0.  1.
         12    1    3    3    0    0 -0.25500811679E+01  0.11936563749E+01 -0.38192600400E+01  0.47449422291E+01  0.00000000000E+00 0. -1.
</event>
<event>
 7    1  0.5855569E-013  0.5052884E+02  0.7816164E-02  0.1300439E+00
        -11   -1    0    0    0    0  0.00000000000E+00  0.00000000000E+00  0.45593999997E+02  0.45594000000E+02  0.51100000000E-03 0.  1.
         11   -1    0    0    0    0 -0.00000000000E+00 -0.00000000000E+00 -0.45593999997E+02  0.45594000000E+02  0.51100000000E-03 0. -1.
    9900012    2    1    2    0    0  0.19152931056E+02 -0.35816994503E+02 -0.18642565546E+01  0.50528839706E+02  0.29999938771E+02 0.  0.
        -12    1    1    2    0    0 -0.19152931056E+02  0.35816994503E+02  0.18642565546E+01  0.40659160294E+02  0.00000000000E+00 0.  1.
         11    1    3    3    0    0  0.10170128589E+02 -0.22171709419E+02 -0.49707084124E+01  0.24894259508E+02  0.51100000000E-03 0. -1.
        -11    1    3    3    0    0  0.10324205598E+02 -0.13925027435E+02 -0.44970201492E+01  0.17908623643E+02  0.51100000000E-03 0.  1.
        -12    1    3    3    0    0 -0.13414031307E+01  0.27974234973E+00  0.76034720071E+01  0.77259565559E+01  0.00000000000E+00 0.  1.
</event>
<event>
 7    1  0.5855569E-013  0.5052886E+02  0.7816164E-02  0.1300439E+00
        -11   -1    0    0    0    0  0.00000000000E+00  0.00000000000E+00  0.45593999997E+02  0.45594000000E+02  0.51100000000E-03 0. -1.
         11   -1    0    0    0    0 -0.00000000000E+00 -0.00000000000E+00 -0.45593999997E+02  0.45594000000E+02  0.51100000000E-03 0.  1.
    9900012    2    1    2    0    0  0.40143419015E+02 -0.63386870052E+01  0.12218733492E+01  0.50528855670E+02  0.29999987294E+02 0.  0.
        -12    1    1    2    0    0 -0.40143419015E+02  0.63386870052E+01 -0.12218733492E+01  0.40659144330E+02  0.00000000000E+00 0.  1.
         11    1    3    3    0    0  0.13137823278E+02  0.61582759770E+00 -0.39168810825E+01  0.13723104670E+02  0.51100000000E-03 0. -1.
        -11    1    3    3    0    0  0.15379952542E+02  0.81169301890E+01  0.30704624303E+01  0.17659423425E+02  0.51100000000E-03 0.  1.
        -12    1    3    3    0    0  0.11625643195E+02 -0.15071444792E+02  0.20682920013E+01  0.19146327575E+02  0.00000000000E+00 0.  1.
</event>
<event>
 7    1  0.5855569E-013  0.5052886E+02  0.7816164E-02  0.1300439E+00
        -11   -1    0    0    0    0  0.00000000000E+00  0.00000000000E+00  0.45593999997E+02  0.45594000000E+02  0.51100000000E-03 0.  1.
         11   -1    0    0    0    0 -0.00000000000E+00 -0.00000000000E+00 -0.45593999997E+02  0.45594000000E+02  0.51100000000E-03 0. -1.
    9900012    2    1    2    0    0  0.36656362161E+02 -0.14262952213E+02 -0.10297800706E+02  0.50528863363E+02  0.30000010679E+02 0.  0.
        -12    1    1    2    0    0 -0.36656362161E+02  0.14262952213E+02  0.10297800706E+02  0.40659136637E+02  0.00000000000E+00 0.  1.
         11    1    3    3    0    0 -0.12766813319E+01 -0.24867619987E+01 -0.60794631730E+00  0.28606816403E+01  0.51100000000E-03 0. -1.
        -11    1    3    3    0    0  0.71179431100E+01 -0.95761417757E+01  0.56200955521E+01  0.13189127329E+02  0.51100000000E-03 0.  1.
         12    1    3    3    0    0  0.30815100383E+02 -0.22000484386E+01 -0.15309949940E+02  0.34479054394E+02  0.00000000000E+00 0. -1.
</event>
<event>
 7    1  0.5855569E-013  0.5052886E+02  0.7816164E-02  0.1300439E+00
        -11   -1    0    0    0    0  0.00000000000E+00  0.00000000000E+00  0.45593999997E+02  0.45594000000E+02  0.51100000000E-03 0. -1.
         11   -1    0    0    0    0 -0.00000000000E+00 -0.00000000000E+00 -0.45593999997E+02  0.45594000000E+02  0.51100000000E-03 0.  1.
    9900012    2    1    2    0    0  0.27371472382E+02 -0.26825649274E+02  0.13577655778E+02  0.50528859628E+02  0.29999999326E+02 0.  0.
        -12    1    1    2    0    0 -0.27371472382E+02  0.26825649274E+02 -0.13577655778E+02  0.40659140372E+02  0.00000000000E+00 0.  1.
         11    1    3    3    0    0  0.11024786557E+02 -0.81228320848E+01  0.17751746526E+01  0.13808604745E+02  0.51100000000E-03 0. -1.
        -11    1    3    3    0    0  0.11019798025E+02 -0.30400538476E+00 -0.41637281306E+01  0.11784099456E+02  0.51100000000E-03 0.  1.
        -12    1    3    3    0    0  0.53268877995E+01 -0.18398811805E+02  0.15966209256E+02  0.24936155427E+02  0.00000000000E+00 0.  1.
</event>
<event>
 7    1  0.5855569E-013  0.5052886E+02  0.7816164E-02  0.1300439E+00
        -11   -1    0    0    0    0  0.00000000000E+00  0.00000000000E+00  0.45593999997E+02  0.45594000000E+02  0.51100000000E-03 0.  1.
         11   -1    0    0    0    0 -0.00000000000E+00 -0.00000000000E+00 -0.45593999997E+02  0.45594000000E+02  0.51100000000E-03 0. -1.
    9900012    2    1    2    0    0 -0.27627730443E+02  0.21130429973E+02 -0.21056573765E+02  0.50528857621E+02  0.29999993225E+02 0.  0.
        -12    1    1    2    0    0  0.27627730443E+02 -0.21130429973E+02  0.21056573765E+02  0.40659142379E+02  0.00000000000E+00 0.  1.
         11    1    3    3    0    0 -0.17969010888E+01  0.23136937729E+01 -0.50170282574E+01  0.58096992345E+01  0.51100000000E-03 0. -1.
        -11    1    3    3    0    0  0.37997173773E+01  0.24262328249E+01 -0.90973022467E+01  0.10153096390E+02  0.51100000000E-03 0.  1.
        -12    1    3    3    0    0 -0.29630546731E+02  0.16390503375E+02 -0.69422432609E+01  0.34566061997E+02  0.00000000000E+00 0.  1.
</event>
<event>
 7    1  0.5855569E-013  0.5052887E+02  0.7816164E-02  0.1300439E+00
        -11   -1    0    0    0    0  0.00000000000E+00  0.00000000000E+00  0.45593999997E+02  0.45594000000E+02  0.51100000000E-03 0.  1.
         11   -1    0    0    0    0 -0.00000000000E+00 -0.00000000000E+00 -0.45593999997E+02  0.45594000000E+02  0.51100000000E-03 0. -1.
    9900012    2    1    2    0    0  0.24466876143E+02  0.19235569540E+02 -0.26163525727E+02  0.50528865206E+02  0.30000016279E+02 0.  0.
        -12    1    1    2    0    0 -0.24466876143E+02 -0.19235569540E+02  0.26163525727E+02  0.40659134794E+02  0.00000000000E+00 0.  1.
         11    1    3    3    0    0  0.11726517207E+02  0.43710729629E+01 -0.13397827599E+02  0.18333555828E+02  0.51100000000E-03 0. -1.
        -11    1    3    3    0    0  0.17890883507E+02  0.88434433191E+01 -0.13714531197E+02  0.24215254874E+02  0.51100000000E-03 0.  1.
        -12    1    3    3    0    0 -0.51505245705E+01  0.60210532581E+01  0.94883306936E+00  0.79800545036E+01  0.00000000000E+00 0.  1.
</event>
<event>
 7    1  0.5855569E-013  0.5052888E+02  0.7816164E-02  0.1300439E+00
        -11   -1    0    0    0    0  0.00000000000E+00  0.00000000000E+00  0.45593999997E+02  0.45594000000E+02  0.51100000000E-03 0.  1.
         11   -1    0    0    0    0 -0.00000000000E+00 -0.00000000000E+00 -0.45593999997E+02  0.45594000000E+02  0.51100000000E-03 0. -1.
    9900012    2    1    2    0    0 -0.38985272043E+02 -0.51651548370E+00 -0.11534546368E+02  0.50528880673E+02  0.30000063293E+02 0.  0.
        -12    1    1    2    0    0  0.38985272043E+02  0.51651548370E+00  0.11534546368E+02  0.40659119327E+02  0.00000000000E+00 0.  1.
         11    1    3    3    0    0 -0.28458506930E+02 -0.90397162031E+01 -0.11946156937E+02  0.32160748616E+02  0.51100000000E-03 0. -1.
        -11    1    3    3    0    0 -0.22226641067E+01 -0.26490881038E+01 -0.23440012038E+01  0.41775884692E+01  0.51100000000E-03 0.  1.
        -12    1    3    3    0    0 -0.83041010069E+01  0.11172288823E+02  0.27556117723E+01  0.14190543588E+02  0.00000000000E+00 0.  1.
</event>
<event>
 7    1  0.5855569E-013  0.5052897E+02  0.7816164E-02  0.1300438E+00
        -11   -1    0    0    0    0  0.00000000000E+00  0.00000000000E+00  0.45593999997E+02  0.45594000000E+02  0.51100000000E-03 0.  1.
         11   -1    0    0    0    0 -0.00000000000E+00 -0.00000000000E+00 -0.45593999997E+02  0.45594000000E+02  0.51100000000E-03 0. -1.
    9900012    2    1    2    0    0 -0.10012721992E+02 -0.12878069284E+02 -0.37243223526E+02  0.50528966948E+02  0.30000325533E+02 0.  0.
        -12    1    1    2    0    0  0.10012721992E+02  0.12878069284E+02  0.37243223526E+02  0.40659033052E+02  0.00000000000E+00 0.  1.
         11    1    3    3    0    0 -0.14035468568E+02 -0.76967971464E+01 -0.26994247391E+02  0.31383506125E+02  0.51100000000E-03 0. -1.
        -11    1    3    3    0    0 -0.36693346322E+01 -0.58421416870E+01 -0.80246249590E+00  0.69454000931E+01  0.51100000000E-03 0.  1.
         12    1    3    3    0    0  0.76920812085E+01  0.66086954927E+00 -0.94465136384E+01  0.12200060729E+02  0.00000000000E+00 0. -1.
</event>
<event>
 7    1  0.5855569E-013  0.5052886E+02  0.7816164E-02  0.1300439E+00
        -11   -1    0    0    0    0  0.00000000000E+00  0.00000000000E+00  0.45593999997E+02  0.45594000000E+02  0.51100000000E-03 0.  1.
         11   -1    0    0    0    0 -0.00000000000E+00 -0.00000000000E+00 -0.45593999997E+02  0.45594000000E+02  0.51100000000E-03 0. -1.
    9900012    2    1    2    0    0 -0.21221448440E+02  0.25283093374E+01 -0.34589350209E+02  0.50528863636E+02  0.30000011506E+02 0.  0.
        -12    1    1    2    0    0  0.21221448440E+02 -0.25283093374E+01  0.34589350209E+02  0.40659136364E+02  0.00000000000E+00 0.  1.
         11    1    3    3    0    0 -0.71515627729E+01  0.85773291308E+01 -0.88769924835E+01  0.14265918159E+02  0.51100000000E-03 0. -1.
        -11    1    3    3    0    0 -0.16220883971E+01 -0.13472472252E+01  0.35434051157E+01  0.41233440226E+01  0.51100000000E-03 0.  1.
         12    1    3    3    0    0 -0.12447797270E+02 -0.47017725682E+01 -0.29255762842E+02  0.32139601454E+02  0.00000000000E+00 0. -1.
</event>
<event>
 7    1  0.5855569E-013  0.5052885E+02  0.7816164E-02  0.1300439E+00
        -11   -1    0    0    0    0  0.00000000000E+00  0.00000000000E+00  0.45593999997E+02  0.45594000000E+02  0.51100000000E-03 0.  1.
         11   -1    0    0    0    0 -0.00000000000E+00 -0.00000000000E+00 -0.45593999997E+02  0.45594000000E+02  0.51100000000E-03 0. -1.
    9900012    2    1    2    0    0 -0.34020240914E+02 -0.14264429196E+02 -0.17097237366E+02  0.50528852718E+02  0.29999978323E+02 0.  0.
        -12    1    1    2    0    0  0.34020240914E+02  0.14264429196E+02  0.17097237366E+02  0.40659147282E+02  0.00000000000E+00 0.  1.
         11    1    3    3    0    0 -0.17583337962E+02 -0.48039811573E+01 -0.64939747903E+01  0.19350031464E+02  0.51100000000E-03 0. -1.
        -11    1    3    3    0    0 -0.20800786181E+02 -0.12241941314E+02 -0.90345968146E+01  0.25771336262E+02  0.51100000000E-03 0.  1.
        -12    1    3    3    0    0  0.43638832286E+01  0.27814932750E+01 -0.15686657607E+01  0.54074849921E+01  0.00000000000E+00 0.  1.
</event>
<event>
 7    1  0.5855569E-013  0.5052886E+02  0.7816164E-02  0.1300439E+00
        -11   -1    0    0    0    0  0.00000000000E+00  0.00000000000E+00  0.45593999997E+02  0.45594000000E+02  0.51100000000E-03 0.  1.
         11   -1    0    0    0    0 -0.00000000000E+00 -0.00000000000E+00 -0.45593999997E+02  0.45594000000E+02  0.51100000000E-03 0. -1.
    9900012    2    1    2    0    0  0.34657263566E+02 -0.98178654395E+01 -0.18858656508E+02  0.50528864189E+02  0.30000013188E+02 0.  0.
        -12    1    1    2    0    0 -0.34657263566E+02  0.98178654395E+01  0.18858656508E+02  0.40659135811E+02  0.00000000000E+00 0.  1.
         11    1    3    3    0    0  0.18517228534E+02 -0.10022801574E+02 -0.12405456831E+02  0.24438487339E+02  0.51100000000E-03 0. -1.
        -11    1    3    3    0    0  0.11209846907E+02 -0.87204602630E+01 -0.34966580661E+00  0.14206666087E+02  0.51100000000E-03 0.  1.
         12    1    3    3    0    0  0.49301881252E+01  0.89253963970E+01 -0.61035338701E+01  0.11883710763E+02  0.00000000000E+00 0. -1.
</event>
<event>
 7    1  0.5855569E-013  0.5052887E+02  0.7816164E-02  0.1300439E+00
        -11   -1    0    0    0    0  0.00000000000E+00  0.00000000000E+00  0.45593999997E+02  0.45594000000E+02  0.51100000000E-03 0. -1.
         11   -1    0    0    0    0 -0.00000000000E+00 -0.00000000000E+00 -0.45593999997E+02  0.45594000000E+02  0.51100000000E-03 0.  1.
    9900012    2    1    2    0    0  0.13673817054E+02  0.20682469261E+02 -0.32224632931E+02  0.50528870950E+02  0.30000033741E+02 0.  0.
        -12    1    1    2    0    0 -0.13673817054E+02 -0.20682469261E+02  0.32224632931E+02  0.40659129050E+02  0.00000000000E+00 0.  1.
         11    1    3    3    0    0 -0.36142864315E+01  0.53954161318E+01 -0.59008434083E+01  0.87745959927E+01  0.51100000000E-03 0.  1.
        -11    1    3    3    0    0 -0.28988284320E+01  0.11417930679E+02 -0.82268804795E+01  0.14368504096E+02  0.51100000000E-03 0. -1.
        -12    1    3    3    0    0  0.20186931918E+02  0.38691224497E+01 -0.18096909043E+02  0.27385770862E+02  0.00000000000E+00 0.  1.
</event>
<event>
 7    1  0.5855569E-013  0.5052885E+02  0.7816164E-02  0.1300439E+00
        -11   -1    0    0    0    0  0.00000000000E+00  0.00000000000E+00  0.45593999997E+02  0.45594000000E+02  0.51100000000E-03 0.  1.
         11   -1    0    0    0    0 -0.00000000000E+00 -0.00000000000E+00 -0.45593999997E+02  0.45594000000E+02  0.51100000000E-03 0. -1.
    9900012    2    1    2    0    0  0.10953097095E+02  0.24511105348E+02 -0.30535252908E+02  0.50528852302E+02  0.29999977058E+02 0.  0.
        -12    1    1    2    0    0 -0.10953097095E+02 -0.24511105348E+02  0.30535252908E+02  0.40659147698E+02  0.00000000000E+00 0.  1.
         11    1    3    3    0    0  0.14066905893E+01  0.76079006246E+01 -0.85596306056E+01  0.11538033051E+02  0.51100000000E-03 0. -1.
        -11    1    3    3    0    0  0.89955257276E+01  0.65556805354E+01 -0.25678290727E+02  0.27986979925E+02  0.51100000000E-03 0.  1.
        -12    1    3    3    0    0  0.55088077828E+00  0.10347524188E+02  0.37026684248E+01  0.11003839326E+02  0.00000000000E+00 0.  1.
</event>
<event>
 7    1  0.5855569E-013  0.5052875E+02  0.7816164E-02  0.1300439E+00
        -11   -1    0    0    0    0  0.00000000000E+00  0.00000000000E+00  0.45593999997E+02  0.45594000000E+02  0.51100000000E-03 0.  1.
         11   -1    0    0    0    0 -0.00000000000E+00 -0.00000000000E+00 -0.45593999997E+02  0.45594000000E+02  0.51100000000E-03 0. -1.
    9900012    2    1    2    0    0  0.27468581106E+02  0.31836881722E+01 -0.29807985329E+02  0.50528747575E+02  0.29999658727E+02 0.  0.
        -12    1    1    2    0    0 -0.27468581106E+02 -0.31836881722E+01  0.29807985329E+02  0.40659252425E+02  0.00000000000E+00 0.  1.
         11    1    3    3    0    0  0.16772035741E+02  0.10814251071E+02 -0.20813142491E+02  0.28834633858E+02  0.51100000000E-03 0. -1.
        -11    1    3    3    0    0 -0.39799311523E-01  0.39437767118E+01 -0.15194478773E+01  0.42265447887E+01  0.51100000000E-03 0.  1.
        -12    1    3    3    0    0  0.10736344677E+02 -0.11574339610E+02 -0.74753949609E+01  0.17467568928E+02  0.00000000000E+00 0.  1.
</event>
<event>
 7    1  0.5855569E-013  0.5052886E+02  0.7816164E-02  0.1300439E+00
        -11   -1    0    0    0    0  0.00000000000E+00  0.00000000000E+00  0.45593999997E+02  0.45594000000E+02  0.51100000000E-03 0.  1.
         11   -1    0    0    0    0 -0.00000000000E+00 -0.00000000000E+00 -0.45593999997E+02  0.45594000000E+02  0.51100000000E-03 0. -1.
    9900012    2    1    2    0    0 -0.34722944905E+02 -0.83563417561E+01  0.19433323092E+02  0.50528863304E+02  0.30000010500E+02 0.  0.
        -12    1    1    2    0    0  0.34722944905E+02  0.83563417561E+01 -0.19433323092E+02  0.40659136696E+02  0.00000000000E+00 0.  1.
         11    1    3    3    0    0  0.17241848927E+01  0.20480990976E+01  0.67638812720E+01  0.72744493662E+01  0.51100000000E-03 0. -1.
        -11    1    3    3    0    0  0.15281460189E+01 -0.18728359988E+01  0.10482828643E+01  0.26346996333E+01  0.51100000000E-03 0.  1.
         12    1    3    3    0    0 -0.37975275816E+02 -0.85316048550E+01  0.11621158956E+02  0.40619714305E+02  0.00000000000E+00 0. -1.
</event>
<event>
 7    1  0.5855569E-013  0.5052886E+02  0.7816164E-02  0.1300439E+00
        -11   -1    0    0    0    0  0.00000000000E+00  0.00000000000E+00  0.45593999997E+02  0.45594000000E+02  0.51100000000E-03 0.  1.
         11   -1    0    0    0    0 -0.00000000000E+00 -0.00000000000E+00 -0.45593999997E+02  0.45594000000E+02  0.51100000000E-03 0. -1.
    9900012    2    1    2    0    0  0.59797796715E+00 -0.29287227353E+02 -0.28196920565E+02  0.50528860892E+02  0.30000003168E+02 0.  0.
        -12    1    1    2    0    0 -0.59797796715E+00  0.29287227353E+02  0.28196920565E+02  0.40659139108E+02  0.00000000000E+00 0.  1.
         11    1    3    3    0    0  0.23639189217E+01 -0.19577016266E+02 -0.77507149128E+01  0.21187762045E+02  0.51100000000E-03 0. -1.
        -11    1    3    3    0    0 -0.46150970732E+01  0.42572193127E+01 -0.34708687562E+01  0.71742572755E+01  0.51100000000E-03 0.  1.
         12    1    3    3    0    0  0.28491561187E+01 -0.13967430399E+02 -0.16975336896E+02  0.22166841572E+02  0.00000000000E+00 0. -1.
</event>
<event>
 7    1  0.5855569E-013  0.5052885E+02  0.7816164E-02  0.1300439E+00
        -11   -1    0    0    0    0  0.00000000000E+00  0.00000000000E+00  0.45593999997E+02  0.45594000000E+02  0.51100000000E-03 0. -1.
         11   -1    0    0    0    0 -0.00000000000E+00 -0.00000000000E+00 -0.45593999997E+02  0.45594000000E+02  0.51100000000E-03 0.  1.
    9900012    2    1    2    0    0  0.28862188249E+02 -0.23884950842E+02 -0.15800294806E+02  0.50528854619E+02  0.29999984098E+02 0.  0.
        -12    1    1    2    0    0 -0.28862188249E+02  0.23884950842E+02  0.15800294806E+02  0.40659145381E+02  0.00000000000E+00 0.  1.
         11    1    3    3    0    0  0.17190488317E+02 -0.13962298297E+02 -0.29516267461E+01  0.22342129778E+02  0.51100000000E-03 0. -1.
        -11    1    3    3    0    0  0.11270085802E+02  0.24411243806E+01 -0.19397708756E+01  0.11693444041E+02  0.51100000000E-03 0.  1.
        -12    1    3    3    0    0  0.40161412975E+00 -0.12363776925E+02 -0.10908897184E+02  0.16493280800E+02  0.00000000000E+00 0.  1.
</event>
<event>
 7    1  0.5855569E-013  0.5052886E+02  0.7816164E-02  0.1300439E+00
        -11   -1    0    0    0    0  0.00000000000E+00  0.00000000000E+00  0.45593999997E+02  0.45594000000E+02  0.51100000000E-03 0.  1.
         11   -1    0    0    0    0 -0.00000000000E+00 -0.00000000000E+00 -0.45593999997E+02  0.45594000000E+02  0.51100000000E-03 0. -1.
    9900012    2    1    2    0    0  0.37966132789E+01 -0.71451472831E+01 -0.39845929903E+02  0.50528861643E+02  0.30000005451E+02 0.  0.
        -12    1    1    2    0    0 -0.37966132789E+01  0.71451472831E+01  0.39845929903E+02  0.40659138357E+02  0.00000000000E+00 0.  1.
         11    1    3    3    0    0 -0.91467796031E+00  0.53899261352E+01 -0.35237700229E+02  0.35659268882E+02  0.51100000000E-03 0. -1.
        -11    1    3    3    0    0  0.15285607609E+01 -0.16220077728E+01 -0.24259090297E+01  0.32943044935E+01  0.51100000000E-03 0.  1.
         12    1    3    3    0    0  0.31827304783E+01 -0.10913065645E+02 -0.21823206440E+01  0.11575288267E+02  0.00000000000E+00 0. -1.
</event>
<event>
 7    1  0.5855569E-013  0.5052886E+02  0.7816164E-02  0.1300439E+00
        -11   -1    0    0    0    0  0.00000000000E+00  0.00000000000E+00  0.45593999997E+02  0.45594000000E+02  0.51100000000E-03 0.  1.
         11   -1    0    0    0    0 -0.00000000000E+00 -0.00000000000E+00 -0.45593999997E+02  0.45594000000E+02  0.51100000000E-03 0. -1.
    9900012    2    1    2    0    0  0.15677617670E+02  0.33998535971E+02 -0.15858033177E+02  0.50528863755E+02  0.30000011869E+02 0.  0.
        -12    1    1    2    0    0 -0.15677617670E+02 -0.33998535971E+02  0.15858033177E+02  0.40659136245E+02  0.00000000000E+00 0.  1.
         11    1    3    3    0    0  0.15765419971E+02  0.21696657006E+02 -0.14941611655E+02  0.30700898215E+02  0.51100000000E-03 0. -1.
        -11    1    3    3    0    0  0.39560294962E+01  0.11798924577E+01 -0.57214974903E+01  0.70553419038E+01  0.51100000000E-03 0.  1.
        -12    1    3    3    0    0 -0.40438317975E+01  0.11121986507E+02  0.48050759688E+01  0.12772623636E+02  0.00000000000E+00 0.  1.
</event>
<event>
 7    1  0.5855569E-013  0.5052886E+02  0.7816164E-02  0.1300439E+00
        -11   -1    0    0    0    0  0.00000000000E+00  0.00000000000E+00  0.45593999997E+02  0.45594000000E+02  0.51100000000E-03 0.  1.
         11   -1    0    0    0    0 -0.00000000000E+00 -0.00000000000E+00 -0.45593999997E+02  0.45594000000E+02  0.51100000000E-03 0. -1.
    9900012    2    1    2    0    0 -0.12883523027E+02 -0.20481614651E+02 -0.32675429529E+02  0.50528863275E+02  0.30000010412E+02 0.  0.
        -12    1    1    2    0    0  0.12883523027E+02  0.20481614651E+02  0.32675429529E+02  0.40659136725E+02  0.00000000000E+00 0.  1.
         11    1    3    3    0    0  0.42340026374E+01 -0.37571965966E+01 -0.52116704395E+01  0.76944664292E+01  0.51100000000E-03 0. -1.
        -11    1    3    3    0    0  0.32276006136E+01 -0.99461819824E+01 -0.14144811954E+02  0.17590328230E+02  0.51100000000E-03 0.  1.
        -12    1    3    3    0    0 -0.20345126278E+02 -0.67782360717E+01 -0.13318947135E+02  0.25244068617E+02  0.00000000000E+00 0.  1.
</event>
<event>
 7    1  0.5855569E-013  0.5052888E+02  0.7816164E-02  0.1300439E+00
        -11   -1    0    0    0    0  0.00000000000E+00  0.00000000000E+00  0.45593999997E+02  0.45594000000E+02  0.51100000000E-03 0.  1.
         11   -1    0    0    0    0 -0.00000000000E+00 -0.00000000000E+00 -0.45593999997E+02  0.45594000000E+02  0.51100000000E-03 0. -1.
    9900012    2    1    2    0    0 -0.41153352704E+01  0.13754888695E+02 -0.38039859783E+02  0.50528881961E+02  0.30000067208E+02 0.  0.
        -12    1    1    2    0    0  0.41153352704E+01 -0.13754888695E+02  0.38039859783E+02  0.40659118039E+02  0.00000000000E+00 0.  1.
         11    1    3    3    0    0  0.17057611680E+01 -0.57753589128E+00  0.36884288668E+01  0.41045921399E+01  0.51100000000E-03 0. -1.
        -11    1    3    3    0    0  0.49844506679E+00 -0.12691523708E+01  0.68504245600E-01  0.13652429519E+01  0.51100000000E-03 0.  1.
         12    1    3    3    0    0 -0.63195415052E+01  0.15601576957E+02 -0.41796792895E+02  0.45059046869E+02  0.00000000000E+00 0. -1.
</event>
<event>
 7    1  0.5855569E-013  0.5052883E+02  0.7816164E-02  0.1300439E+00
        -11   -1    0    0    0    0  0.00000000000E+00  0.00000000000E+00  0.45593999997E+02  0.45594000000E+02  0.51100000000E-03 0. -1.
         11   -1    0    0    0    0 -0.00000000000E+00 -0.00000000000E+00 -0.45593999997E+02  0.45594000000E+02  0.51100000000E-03 0.  1.
    9900012    2    1    2    0    0  0.38356462568E+01  0.21851251115E+02  0.34073138344E+02  0.50528829889E+02  0.29999908931E+02 0.  0.
        -12    1    1    2    0    0 -0.38356462568E+01 -0.21851251115E+02 -0.34073138344E+02  0.40659170111E+02  0.00000000000E+00 0.  1.
         11    1    3    3    0    0 -0.36912313977E+01 -0.48269968378E+00  0.30043915478E+01  0.47837806231E+01  0.51100000000E-03 0. -1.
        -11    1    3    3    0    0 -0.58426810386E+01 -0.16038274066E+01  0.43281834084E+01  0.74459623923E+01  0.51100000000E-03 0.  1.
         12    1    3    3    0    0  0.13369558693E+02  0.23937778205E+02  0.26740563388E+02  0.38299086874E+02  0.00000000000E+00 0. -1.
</event>
<event>
 7    1  0.5855569E-013  0.5052885E+02  0.7816164E-02  0.1300439E+00
        -11   -1    0    0    0    0  0.00000000000E+00  0.00000000000E+00  0.45593999997E+02  0.45594000000E+02  0.51100000000E-03 0.  1.
         11   -1    0    0    0    0 -0.00000000000E+00 -0.00000000000E+00 -0.45593999997E+02  0.45594000000E+02  0.51100000000E-03 0. -1.
    9900012    2    1    2    0    0  0.33867939577E+02  0.21489603953E+02  0.66577891783E+01  0.50528848927E+02  0.29999966799E+02 0.  0.
        -12    1    1    2    0    0 -0.33867939577E+02 -0.21489603953E+02 -0.66577891783E+01  0.40659151073E+02  0.00000000000E+00 0.  1.
         11    1    3    3    0    0  0.74448191163E+01 -0.89329301792E+00  0.84325879113E+01  0.11284141227E+02  0.51100000000E-03 0. -1.
        -11    1    3    3    0    0  0.33269719084E+01  0.80292515571E+01  0.64634958115E+01  0.10831177268E+02  0.51100000000E-03 0.  1.
         12    1    3    3    0    0  0.23096148552E+02  0.14353645413E+02 -0.82382945446E+01  0.28413530432E+02  0.00000000000E+00 0. -1.
</event>
<event>
 7    1  0.5855569E-013  0.5052886E+02  0.7816164E-02  0.1300439E+00
        -11   -1    0    0    0    0  0.00000000000E+00  0.00000000000E+00  0.45593999997E+02  0.45594000000E+02  0.51100000000E-03 0.  1.
         11   -1    0    0    0    0 -0.00000000000E+00 -0.00000000000E+00 -0.45593999997E+02  0.45594000000E+02  0.51100000000E-03 0. -1.
    9900012    2    1    2    0    0  0.23513111096E+02  0.17429282498E+01 -0.33124939842E+02  0.50528857955E+02  0.29999994239E+02 0.  0.
        -12    1    1    2    0    0 -0.23513111096E+02 -0.17429282498E+01  0.33124939842E+02  0.40659142045E+02  0.00000000000E+00 0.  1.
         11    1    3    3    0    0  0.17915754484E+02 -0.63893718805E+01 -0.24349697520E+02  0.30898318746E+02  0.51100000000E-03 0. -1.
        -11    1    3    3    0    0  0.75575425000E+01 -0.13622083295E+01 -0.24742762971E+01  0.80680916968E+01  0.51100000000E-03 0.  1.
        -12    1    3    3    0    0 -0.19601858881E+01  0.94945084599E+01 -0.63009660256E+01  0.11562447512E+02  0.00000000000E+00 0.  1.
</event>
<event>
 7    1  0.5855569E-013  0.5052886E+02  0.7816164E-02  0.1300439E+00
        -11   -1    0    0    0    0  0.00000000000E+00  0.00000000000E+00  0.45593999997E+02  0.45594000000E+02  0.51100000000E-03 0. -1.
         11   -1    0    0    0    0 -0.00000000000E+00 -0.00000000000E+00 -0.45593999997E+02  0.45594000000E+02  0.51100000000E-03 0.  1.
    9900012    2    1    2    0    0 -0.12490451825E+02 -0.35782386363E+02 -0.14723279580E+02  0.50528861763E+02  0.30000005814E+02 0.  0.
        -12    1    1    2    0    0  0.12490451825E+02  0.35782386363E+02  0.14723279580E+02  0.40659138237E+02  0.00000000000E+00 0.  1.
         11    1    3    3    0    0 -0.13042670776E+01  0.87092682366E+00  0.15012517648E+01  0.21710327645E+01  0.51100000000E-03 0. -1.
        -11    1    3    3    0    0 -0.44787471929E+01  0.10056609542E+01  0.30632509425E+01  0.55185176425E+01  0.51100000000E-03 0.  1.
         12    1    3    3    0    0 -0.67074375541E+01 -0.37658974141E+02 -0.19287782287E+02  0.42839311356E+02  0.00000000000E+00 0. -1.
</event>
<event>
 7    1  0.5855569E-013  0.5052884E+02  0.7816164E-02  0.1300439E+00
        -11   -1    0    0    0    0  0.00000000000E+00  0.00000000000E+00  0.45593999997E+02  0.45594000000E+02  0.51100000000E-03 0.  1.
         11   -1    0    0    0    0 -0.00000000000E+00 -0.00000000000E+00 -0.45593999997E+02  0.45594000000E+02  0.51100000000E-03 0. -1.
    9900012    2    1    2    0    0 -0.22183081615E+02  0.10764451851E+02 -0.32329621249E+02  0.50528844282E+02  0.29999952678E+02 0.  0.
        -12    1    1    2    0    0  0.22183081615E+02 -0.10764451851E+02  0.32329621249E+02  0.40659155718E+02  0.00000000000E+00 0.  1.
         11    1    3    3    0    0 -0.19794138037E+02  0.42975526395E+01 -0.25830633521E+02  0.32825272088E+02  0.51100000000E-03 0. -1.
        -11    1    3    3    0    0 -0.31686112201E+01 -0.17737827559E+01 -0.84517823358E+01  0.91988601056E+01  0.51100000000E-03 0.  1.
        -12    1    3    3    0    0  0.77966764166E+00  0.82406819677E+01  0.19527946071E+01  0.85047120881E+01  0.00000000000E+00 0.  1.
</event>
<event>
 7    1  0.5855569E-013  0.5052886E+02  0.7816164E-02  0.1300439E+00
        -11   -1    0    0    0    0  0.00000000000E+00  0.00000000000E+00  0.45593999997E+02  0.45594000000E+02  0.51100000000E-03 0.  1.
         11   -1    0    0    0    0 -0.00000000000E+00 -0.00000000000E+00 -0.45593999997E+02  0.45594000000E+02  0.51100000000E-03 0. -1.
    9900012    2    1    2    0    0 -0.28466947721E+02  0.11613221604E+02 -0.26606987935E+02  0.50528857909E+02  0.29999994102E+02 0.  0.
        -12    1    1    2    0    0  0.28466947721E+02 -0.11613221604E+02  0.26606987935E+02  0.40659142091E+02  0.00000000000E+00 0.  1.
         11    1    3    3    0    0 -0.13236721229E+02  0.15737355295E+02 -0.20718800883E+02  0.29191503059E+02  0.51100000000E-03 0. -1.
        -11    1    3    3    0    0 -0.15366833388E+02 -0.15601050662E+01 -0.85372046790E+01  0.17648154583E+02  0.51100000000E-03 0.  1.
        -12    1    3    3    0    0  0.13660689551E+00 -0.25640286243E+01  0.26490176267E+01  0.36892002679E+01  0.00000000000E+00 0.  1.
</event>
<event>
 7    1  0.5855569E-013  0.5052886E+02  0.7816164E-02  0.1300439E+00
        -11   -1    0    0    0    0  0.00000000000E+00  0.00000000000E+00  0.45593999997E+02  0.45594000000E+02  0.51100000000E-03 0.  1.
         11   -1    0    0    0    0 -0.00000000000E+00 -0.00000000000E+00 -0.45593999997E+02  0.45594000000E+02  0.51100000000E-03 0. -1.
    9900012    2    1    2    0    0 -0.38532042986E+02  0.12611304901E+02  0.30663337591E+01  0.50528858953E+02  0.29999997273E+02 0.  0.
        -12    1    1    2    0    0  0.38532042986E+02 -0.12611304901E+02 -0.30663337591E+01  0.40659141047E+02  0.00000000000E+00 0.  1.
         11    1    3    3    0    0 -0.15686178799E+02  0.23949788030E+01 -0.22981041908E+01  0.16033509033E+02  0.51100000000E-03 0. -1.
        -11    1    3    3    0    0 -0.10563014183E+02  0.19372055398E+01 -0.88875209755E+01  0.13939801407E+02  0.51100000000E-03 0.  1.
         12    1    3    3    0    0 -0.12282850004E+02  0.82791205579E+01  0.14251958925E+02  0.20555548512E+02  0.00000000000E+00 0. -1.
</event>
<event>
 7    1  0.5855569E-013  0.5052887E+02  0.7816164E-02  0.1300439E+00
        -11   -1    0    0    0    0  0.00000000000E+00  0.00000000000E+00  0.45593999997E+02  0.45594000000E+02  0.51100000000E-03 0. -1.
         11   -1    0    0    0    0 -0.00000000000E+00 -0.00000000000E+00 -0.45593999997E+02  0.45594000000E+02  0.51100000000E-03 0.  1.
    9900012    2    1    2    0    0  0.98307791881E+01  0.37966905791E+02 -0.10725410469E+02  0.50528873294E+02  0.30000040864E+02 0.  0.
        -12    1    1    2    0    0 -0.98307791881E+01 -0.37966905791E+02  0.10725410469E+02  0.40659126706E+02  0.00000000000E+00 0.  1.
         11    1    3    3    0    0  0.24921362026E+01  0.70569760815E+00  0.25316711540E+01  0.36218932976E+01  0.51100000000E-03 0. -1.
        -11    1    3    3    0    0  0.13139961137E+02  0.91090216187E+01 -0.71857802969E+01  0.17529069920E+02  0.51100000000E-03 0.  1.
        -12    1    3    3    0    0 -0.58013181514E+01  0.28152186564E+02 -0.60713013259E+01  0.29377910076E+02  0.00000000000E+00 0.  1.
</event>
<event>
 7    1  0.5855569E-013  0.5052886E+02  0.7816164E-02  0.1300439E+00
        -11   -1    0    0    0    0  0.00000000000E+00  0.00000000000E+00  0.45593999997E+02  0.45594000000E+02  0.51100000000E-03 0. -1.
         11   -1    0    0    0    0 -0.00000000000E+00 -0.00000000000E+00 -0.45593999997E+02  0.45594000000E+02  0.51100000000E-03 0.  1.
    9900012    2    1    2    0    0  0.24202994596E+02 -0.30711812243E+02 -0.11142943703E+02  0.50528861384E+02  0.30000004662E+02 0.  0.
        -12    1    1    2    0    0 -0.24202994596E+02  0.30711812243E+02  0.11142943703E+02  0.40659138616E+02  0.00000000000E+00 0.  1.
         11    1    3    3    0    0  0.22363848482E+02 -0.18323766650E+02 -0.12408471281E+02  0.31462236140E+02  0.51100000000E-03 0. -1.
        -11    1    3    3    0    0  0.36333243435E+01 -0.14700357208E+02  0.33052426541E+01  0.15499231500E+02  0.51100000000E-03 0.  1.
        -12    1    3    3    0    0 -0.17941782289E+01  0.23123116159E+01 -0.20397150764E+01  0.35673937432E+01  0.00000000000E+00 0.  1.
</event>
<event>
 7    1  0.5855569E-013  0.5052886E+02  0.7816164E-02  0.1300439E+00
        -11   -1    0    0    0    0  0.00000000000E+00  0.00000000000E+00  0.45593999997E+02  0.45594000000E+02  0.51100000000E-03 0.  1.
         11   -1    0    0    0    0 -0.00000000000E+00 -0.00000000000E+00 -0.45593999997E+02  0.45594000000E+02  0.51100000000E-03 0. -1.
    9900012    2    1    2    0    0 -0.29178816606E+02  0.14844904020E+02 -0.24112060780E+02  0.50528856023E+02  0.29999988368E+02 0.  0.
        -12    1    1    2    0    0  0.29178816606E+02 -0.14844904020E+02  0.24112060780E+02  0.40659143977E+02  0.00000000000E+00 0.  1.
         11    1    3    3    0    0 -0.65584672697E+01  0.86926861095E+01 -0.23076175800E+02  0.25516390312E+02  0.51100000000E-03 0.  1.
        -11    1    3    3    0    0 -0.10840249400E+02  0.80207496045E-01 -0.37757747555E+01  0.11479282015E+02  0.51100000000E-03 0. -1.
        -12    1    3    3    0    0 -0.11780099936E+02  0.60720104144E+01  0.27398897761E+01  0.13533183696E+02  0.00000000000E+00 0.  1.
</event>
<event>
 7    1  0.5855569E-013  0.5052886E+02  0.7816164E-02  0.1300439E+00
        -11   -1    0    0    0    0  0.00000000000E+00  0.00000000000E+00  0.45593999997E+02  0.45594000000E+02  0.51100000000E-03 0. -1.
         11   -1    0    0    0    0 -0.00000000000E+00 -0.00000000000E+00 -0.45593999997E+02  0.45594000000E+02  0.51100000000E-03 0.  1.
    9900012    2    1    2    0    0  0.27436859675E+01 -0.37728344481E+02 -0.14906693628E+02  0.50528864435E+02  0.30000013936E+02 0.  0.
        -12    1    1    2    0    0 -0.27436859675E+01  0.37728344481E+02  0.14906693628E+02  0.40659135565E+02  0.00000000000E+00 0.  1.
         11    1    3    3    0    0 -0.71062675025E+00 -0.14739577736E+02 -0.62953571309E+01  0.16043430552E+02  0.51100000000E-03 0. -1.
        -11    1    3    3    0    0 -0.83664530356E+01 -0.11116646819E+02 -0.10768495454E+02  0.17593688286E+02  0.51100000000E-03 0.  1.
         12    1    3    3    0    0  0.11820765753E+02 -0.11872119926E+02  0.21571589569E+01  0.16891745597E+02  0.00000000000E+00 0. -1.
</event>
<event>
 7    1  0.5855569E-013  0.5052885E+02  0.7816164E-02  0.1300439E+00
        -11   -1    0    0    0    0  0.00000000000E+00  0.00000000000E+00  0.45593999997E+02  0.45594000000E+02  0.51100000000E-03 0.  1.
         11   -1    0    0    0    0 -0.00000000000E+00 -0.00000000000E+00 -0.45593999997E+02  0.45594000000E+02  0.51100000000E-03 0. -1.
    9900012    2    1    2    0    0  0.35742538365E+02 -0.60753519685E+01 -0.18404545452E+02  0.50528852891E+02  0.29999978849E+02 0.  0.
        -12    1    1    2    0    0 -0.35742538365E+02  0.60753519685E+01  0.18404545452E+02  0.40659147109E+02  0.00000000000E+00 0.  1.
         11    1    3    3    0    0  0.21771228042E+02 -0.72842561681E+01 -0.70298260434E+01  0.24009689978E+02  0.51100000000E-03 0. -1.
        -11    1    3    3    0    0  0.16717592369E+02  0.16125767039E+01 -0.22059622258E+01  0.16939438238E+02  0.51100000000E-03 0.  1.
         12    1    3    3    0    0 -0.27462820461E+01 -0.40367250427E+00 -0.91687571831E+01  0.95797246750E+01  0.00000000000E+00 0. -1.
</event>
<event>
 7    1  0.5855569E-013  0.5052887E+02  0.7816164E-02  0.1300439E+00
        -11   -1    0    0    0    0  0.00000000000E+00  0.00000000000E+00  0.45593999997E+02  0.45594000000E+02  0.51100000000E-03 0. -1.
         11   -1    0    0    0    0 -0.00000000000E+00 -0.00000000000E+00 -0.45593999997E+02  0.45594000000E+02  0.51100000000E-03 0.  1.
    9900012    2    1    2    0    0  0.22386397920E+02 -0.31861825779E+02 -0.11697785833E+02  0.50528868834E+02  0.30000027308E+02 0.  0.
        -12    1    1    2    0    0 -0.22386397920E+02  0.31861825779E+02  0.11697785833E+02  0.40659131166E+02  0.00000000000E+00 0.  1.
         11    1    3    3    0    0  0.13995487572E+02 -0.10183373220E+02 -0.10261771356E+02  0.20121598200E+02  0.51100000000E-03 0. -1.
        -11    1    3    3    0    0  0.14600099576E+01 -0.19512840293E+02 -0.74913665760E+01  0.20952401743E+02  0.51100000000E-03 0.  1.
        -12    1    3    3    0    0  0.69309003896E+01 -0.21656122666E+01  0.60553520990E+01  0.94548688909E+01  0.00000000000E+00 0.  1.
</event>
<event>
 7    1  0.5855569E-013  0.5052885E+02  0.7816164E-02  0.1300439E+00
        -11   -1    0    0    0    0  0.00000000000E+00  0.00000000000E+00  0.45593999997E+02  0.45594000000E+02  0.51100000000E-03 0.  1.
         11   -1    0    0    0    0 -0.00000000000E+00 -0.00000000000E+00 -0.45593999997E+02  0.45594000000E+02  0.51100000000E-03 0. -1.
    9900012    2    1    2    0    0 -0.31139654724E+02 -0.23231899922E+02 -0.11990283737E+02  0.50528853742E+02  0.29999981435E+02 0.  0.
        -12    1    1    2    0    0  0.31139654724E+02  0.23231899922E+02  0.11990283737E+02  0.40659146258E+02  0.00000000000E+00 0.  1.
         11    1    3    3    0    0  0.13647877770E+01 -0.12825355223E+01 -0.52619292985E+01  0.55852881077E+01  0.51100000000E-03 0. -1.
        -11    1    3    3    0    0  0.77312507752E+00 -0.20684963606E+01 -0.57585797307E+01  0.61674662833E+01  0.51100000000E-03 0.  1.
         12    1    3    3    0    0 -0.33277567578E+02 -0.19880868039E+02 -0.96977470797E+00  0.38776099351E+02  0.00000000000E+00 0. -1.
</event>
<event>
 7    1  0.5855569E-013  0.5052886E+02  0.7816164E-02  0.1300439E+00
        -11   -1    0    0    0    0  0.00000000000E+00  0.00000000000E+00  0.45593999997E+02  0.45594000000E+02  0.51100000000E-03 0. -1.
         11   -1    0    0    0    0 -0.00000000000E+00 -0.00000000000E+00 -0.45593999997E+02  0.45594000000E+02  0.51100000000E-03 0.  1.
    9900012    2    1    2    0    0  0.20262628073E+01  0.19223727158E+02  0.35770210382E+02  0.50528863541E+02  0.30000011219E+02 0.  0.
        -12    1    1    2    0    0 -0.20262628073E+01 -0.19223727158E+02 -0.35770210382E+02  0.40659136459E+02  0.00000000000E+00 0.  1.
         11    1    3    3    0    0 -0.23510269911E+01  0.31176846930E+01  0.10709790501E+02  0.11399425362E+02  0.51100000000E-03 0. -1.
        -11    1    3    3    0    0 -0.39413406933E-01 -0.63101888387E+01  0.97949028890E+01  0.11651616174E+02  0.51100000000E-03 0.  1.
        -12    1    3    3    0    0  0.44167032054E+01  0.22416231304E+02  0.15265516992E+02  0.27477822005E+02  0.00000000000E+00 0.  1.
</event>
<event>
 7    1  0.5855569E-013  0.5052887E+02  0.7816164E-02  0.1300439E+00
        -11   -1    0    0    0    0  0.00000000000E+00  0.00000000000E+00  0.45593999997E+02  0.45594000000E+02  0.51100000000E-03 0.  1.
         11   -1    0    0    0    0 -0.00000000000E+00 -0.00000000000E+00 -0.45593999997E+02  0.45594000000E+02  0.51100000000E-03 0. -1.
    9900012    2    1    2    0    0  0.14937131305E+02  0.27323839484E+02 -0.26142974094E+02  0.50528865845E+02  0.30000018222E+02 0.  0.
        -12    1    1    2    0    0 -0.14937131305E+02 -0.27323839484E+02  0.26142974094E+02  0.40659134155E+02  0.00000000000E+00 0.  1.
         11    1    3    3    0    0  0.68216021888E+01  0.96604233671E+01 -0.18008001737E+02  0.21544051682E+02  0.51100000000E-03 0. -1.
        -11    1    3    3    0    0  0.51846133359E+01  0.55711317492E+01 -0.13450730260E+02  0.15454444965E+02  0.51100000000E-03 0.  1.
        -12    1    3    3    0    0  0.29309157801E+01  0.12092284367E+02  0.53157579029E+01  0.13530369197E+02  0.00000000000E+00 0.  1.
</event>
<event>
 7    1  0.5855569E-013  0.5052889E+02  0.7816164E-02  0.1300439E+00
        -11   -1    0    0    0    0  0.00000000000E+00  0.00000000000E+00  0.45593999997E+02  0.45594000000E+02  0.51100000000E-03 0.  1.
         11   -1    0    0    0    0 -0.00000000000E+00 -0.00000000000E+00 -0.45593999997E+02  0.45594000000E+02  0.51100000000E-03 0. -1.
    9900012    2    1    2    0    0  0.36774800366E+02 -0.46863538851E+01 -0.16697770179E+02  0.50528888062E+02  0.30000085752E+02 0.  0.
        -12    1    1    2    0    0 -0.36774800366E+02  0.46863538851E+01  0.16697770179E+02  0.40659111938E+02  0.00000000000E+00 0.  1.
         11    1    3    3    0    0  0.20322169697E+01 -0.88086674563E+00 -0.82316897504E+01  0.85244676340E+01  0.51100000000E-03 0. -1.
        -11    1    3    3    0    0  0.33573756099E+01  0.56231526685E+01  0.31086177129E+01  0.72495048980E+01  0.51100000000E-03 0.  1.
        -12    1    3    3    0    0  0.31385207786E+02 -0.94286398080E+01 -0.11574698142E+02  0.34754915530E+02  0.00000000000E+00 0.  1.
</event>
<event>
 7    1  0.5855569E-013  0.5052886E+02  0.7816164E-02  0.1300439E+00
        -11   -1    0    0    0    0  0.00000000000E+00  0.00000000000E+00  0.45593999997E+02  0.45594000000E+02  0.51100000000E-03 0.  1.
         11   -1    0    0    0    0 -0.00000000000E+00 -0.00000000000E+00 -0.45593999997E+02  0.45594000000E+02  0.51100000000E-03 0. -1.
    9900012    2    1    2    0    0 -0.30468902931E+02  0.25777988521E+02  0.77657503556E+01  0.50528860602E+02  0.30000002287E+02 0.  0.
        -12    1    1    2    0    0  0.30468902931E+02 -0.25777988521E+02 -0.77657503556E+01  0.40659139398E+02  0.00000000000E+00 0.  1.
         11    1    3    3    0    0 -0.18566595905E+02  0.42363938629E+01  0.78467111360E+01  0.20596999596E+02  0.51100000000E-03 0. -1.
        -11    1    3    3    0    0 -0.11176632143E+02  0.61890328498E+01  0.50363211593E+01  0.13732653230E+02  0.51100000000E-03 0.  1.
        -12    1    3    3    0    0 -0.72567488288E+00  0.15352561808E+02 -0.51172819397E+01  0.16199207776E+02  0.00000000000E+00 0.  1.
</event>
<event>
 7    1  0.5855569E-013  0.5052886E+02  0.7816164E-02  0.1300439E+00
        -11   -1    0    0    0    0  0.00000000000E+00  0.00000000000E+00  0.45593999997E+02  0.45594000000E+02  0.51100000000E-03 0.  1.
         11   -1    0    0    0    0 -0.00000000000E+00 -0.00000000000E+00 -0.45593999997E+02  0.45594000000E+02  0.51100000000E-03 0. -1.
    9900012    2    1    2    0    0 -0.21106451858E+02 -0.11523033589E+01 -0.34732629787E+02  0.50528859761E+02  0.29999999728E+02 0.  0.
        -12    1    1    2    0    0  0.21106451858E+02  0.11523033589E+01  0.34732629787E+02  0.40659140239E+02  0.00000000000E+00 0.  1.
         11    1    3    3    0    0 -0.10555948426E+01 -0.62325516678E+01  0.52101173729E+00  0.63427465861E+01  0.51100000000E-03 0. -1.
        -11    1    3    3    0    0 -0.35432621018E+01  0.23543958974E+01  0.90037172792E+00  0.43483969315E+01  0.51100000000E-03 0.  1.
         12    1    3    3    0    0 -0.16507594914E+02  0.27258524115E+01 -0.36154013253E+02  0.39837716243E+02  0.00000000000E+00 0. -1.
</event>
<event>
 7    1  0.5855569E-013  0.5052886E+02  0.7816164E-02  0.1300439E+00
        -11   -1    0    0    0    0  0.00000000000E+00  0.00000000000E+00  0.45593999997E+02  0.45594000000E+02  0.51100000000E-03 0. -1.
         11   -1    0    0    0    0 -0.00000000000E+00 -0.00000000000E+00 -0.45593999997E+02  0.45594000000E+02  0.51100000000E-03 0.  1.
    9900012    2    1    2    0    0  0.24778606397E+02  0.27618275714E+02  0.16625791034E+02  0.50528863070E+02  0.30000009788E+02 0.  0.
        -12    1    1    2    0    0 -0.24778606397E+02 -0.27618275714E+02 -0.16625791034E+02  0.40659136930E+02  0.00000000000E+00 0.  1.
         11    1    3    3    0    0 -0.13579474028E+01  0.27874163256E+01  0.11141460751E+01  0.32946976582E+01  0.51100000000E-03 0. -1.
        -11    1    3    3    0    0  0.76352945134E+01  0.21708601211E+02  0.19436623149E+00  0.23013015173E+02  0.51100000000E-03 0.  1.
         12    1    3    3    0    0  0.18501259286E+02  0.31222581769E+01  0.15317278727E+02  0.24221150239E+02  0.00000000000E+00 0. -1.
</event>
<event>
 7    1  0.5855569E-013  0.5052885E+02  0.7816164E-02  0.1300439E+00
        -11   -1    0    0    0    0  0.00000000000E+00  0.00000000000E+00  0.45593999997E+02  0.45594000000E+02  0.51100000000E-03 0.  1.
         11   -1    0    0    0    0 -0.00000000000E+00 -0.00000000000E+00 -0.45593999997E+02  0.45594000000E+02  0.51100000000E-03 0. -1.
    9900012    2    1    2    0    0 -0.70251966586E+00  0.40652483874E+02 -0.22085041011E+00  0.50528846616E+02  0.29999959774E+02 0.  0.
        -12    1    1    2    0    0  0.70251966586E+00 -0.40652483874E+02  0.22085041011E+00  0.40659153384E+02  0.00000000000E+00 0.  1.
         11    1    3    3    0    0  0.44748235462E+00  0.10114514583E+02  0.12254582176E+02  0.15895862049E+02  0.51100000000E-03 0.  1.
        -11    1    3    3    0    0  0.39925964240E+01  0.10853720093E+02 -0.19547342134E+01  0.11728812906E+02  0.51100000000E-03 0. -1.
        -12    1    3    3    0    0 -0.51425984445E+01  0.19684249198E+02 -0.10520698373E+02  0.22904171662E+02  0.00000000000E+00 0.  1.
</event>
<event>
 7    1  0.5855569E-013  0.5052886E+02  0.7816164E-02  0.1300439E+00
        -11   -1    0    0    0    0  0.00000000000E+00  0.00000000000E+00  0.45593999997E+02  0.45594000000E+02  0.51100000000E-03 0.  1.
         11   -1    0    0    0    0 -0.00000000000E+00 -0.00000000000E+00 -0.45593999997E+02  0.45594000000E+02  0.51100000000E-03 0. -1.
    9900012    2    1    2    0    0  0.97342101877E+01  0.75141961466E+01 -0.38754972934E+02  0.50528856885E+02  0.29999990987E+02 0.  0.
        -12    1    1    2    0    0 -0.97342101877E+01 -0.75141961466E+01  0.38754972934E+02  0.40659143115E+02  0.00000000000E+00 0.  1.
         11    1    3    3    0    0  0.11379738156E+02  0.24312040586E+01 -0.11805153385E+02  0.16576213089E+02  0.51100000000E-03 0. -1.
        -11    1    3    3    0    0  0.75576347901E+01  0.67960487376E+01 -0.19496123782E+02  0.21986426832E+02  0.51100000000E-03 0.  1.
        -12    1    3    3    0    0 -0.92031627579E+01 -0.17130566496E+01 -0.74536957683E+01  0.11966216964E+02  0.00000000000E+00 0.  1.
</event>
<event>
 7    1  0.5855569E-013  0.5052886E+02  0.7816164E-02  0.1300439E+00
        -11   -1    0    0    0    0  0.00000000000E+00  0.00000000000E+00  0.45593999997E+02  0.45594000000E+02  0.51100000000E-03 0.  1.
         11   -1    0    0    0    0 -0.00000000000E+00 -0.00000000000E+00 -0.45593999997E+02  0.45594000000E+02  0.51100000000E-03 0. -1.
    9900012    2    1    2    0    0  0.18011463827E+02 -0.33871116827E+02 -0.13472200383E+02  0.50528861206E+02  0.30000004121E+02 0.  0.
        -12    1    1    2    0    0 -0.18011463827E+02  0.33871116827E+02  0.13472200383E+02  0.40659138794E+02  0.00000000000E+00 0.  1.
         11    1    3    3    0    0  0.48421292323E+00 -0.20349395148E+02 -0.28340386112E+01  0.20551499219E+02  0.51100000000E-03 0. -1.
        -11    1    3    3    0    0  0.20861431829E+01 -0.82720626144E+01  0.26575751775E+01  0.89354193725E+01  0.51100000000E-03 0.  1.
         12    1    3    3    0    0  0.15441107721E+02 -0.52496590649E+01 -0.13295736950E+02  0.21041942614E+02  0.00000000000E+00 0. -1.
</event>
<event>
 7    1  0.5855569E-013  0.5052886E+02  0.7816164E-02  0.1300439E+00
        -11   -1    0    0    0    0  0.00000000000E+00  0.00000000000E+00  0.45593999997E+02  0.45594000000E+02  0.51100000000E-03 0.  1.
         11   -1    0    0    0    0 -0.00000000000E+00 -0.00000000000E+00 -0.45593999997E+02  0.45594000000E+02  0.51100000000E-03 0. -1.
    9900012    2    1    2    0    0  0.54002372517E+01 -0.62139916768E+01 -0.39816951351E+02  0.50528857488E+02  0.29999992820E+02 0.  0.
        -12    1    1    2    0    0 -0.54002372517E+01  0.62139916768E+01  0.39816951351E+02  0.40659142512E+02  0.00000000000E+00 0.  1.
         11    1    3    3    0    0 -0.70267692267E+01 -0.21202853557E+01 -0.11916478238E+02  0.13995483186E+02  0.51100000000E-03 0. -1.
        -11    1    3    3    0    0  0.38441000472E+01  0.51776004955E+01 -0.21348732375E+02  0.22301413102E+02  0.51100000000E-03 0.  1.
        -12    1    3    3    0    0  0.85829064311E+01 -0.92713068166E+01 -0.65517407374E+01  0.14231961199E+02  0.00000000000E+00 0.  1.
</event>
<event>
 7    1  0.5855569E-013  0.5052886E+02  0.7816164E-02  0.1300439E+00
        -11   -1    0    0    0    0  0.00000000000E+00  0.00000000000E+00  0.45593999997E+02  0.45594000000E+02  0.51100000000E-03 0.  1.
         11   -1    0    0    0    0 -0.00000000000E+00 -0.00000000000E+00 -0.45593999997E+02  0.45594000000E+02  0.51100000000E-03 0. -1.
    9900012    2    1    2    0    0 -0.28384593376E+02 -0.86729593884E+01 -0.27789569970E+02  0.50528861239E+02  0.30000004222E+02 0.  0.
        -12    1    1    2    0    0  0.28384593376E+02  0.86729593884E+01  0.27789569970E+02  0.40659138761E+02  0.00000000000E+00 0.  1.
         11    1    3    3    0    0 -0.13218580791E+02 -0.10025184972E-01 -0.13642766172E+02  0.18996211404E+02  0.51100000000E-03 0. -1.
        -11    1    3    3    0    0 -0.19419238962E+02 -0.30530151875E+01 -0.14587307970E+02  0.24478915370E+02  0.51100000000E-03 0.  1.
         12    1    3    3    0    0  0.42532263767E+01 -0.56099190160E+01  0.44050417229E+00  0.70537344651E+01  0.00000000000E+00 0. -1.
</event>
<event>
 7    1  0.5855569E-013  0.5052885E+02  0.7816164E-02  0.1300439E+00
        -11   -1    0    0    0    0  0.00000000000E+00  0.00000000000E+00  0.45593999997E+02  0.45594000000E+02  0.51100000000E-03 0. -1.
         11   -1    0    0    0    0 -0.00000000000E+00 -0.00000000000E+00 -0.45593999997E+02  0.45594000000E+02  0.51100000000E-03 0.  1.
    9900012    2    1    2    0    0 -0.34245393288E+02 -0.20783852931E+02  0.69606769131E+01  0.50528849404E+02  0.29999968248E+02 0.  0.
        -12    1    1    2    0    0  0.34245393288E+02  0.20783852931E+02 -0.69606769131E+01  0.40659150596E+02  0.00000000000E+00 0.  1.
         11    1    3    3    0    0 -0.44499285151E+00  0.37447569993E+01 -0.28870344006E+01  0.47493359023E+01  0.51100000000E-03 0. -1.
        -11    1    3    3    0    0 -0.78795749048E-01  0.58766190090E+00 -0.20072358091E+01  0.20929766206E+01  0.51100000000E-03 0.  1.
         12    1    3    3    0    0 -0.33721604687E+02 -0.25116271831E+02  0.11854947123E+02  0.43686536881E+02  0.00000000000E+00 0. -1.
</event>
<event>
 7    1  0.5855569E-013  0.5052886E+02  0.7816164E-02  0.1300439E+00
        -11   -1    0    0    0    0  0.00000000000E+00  0.00000000000E+00  0.45593999997E+02  0.45594000000E+02  0.51100000000E-03 0.  1.
         11   -1    0    0    0    0 -0.00000000000E+00 -0.00000000000E+00 -0.45593999997E+02  0.45594000000E+02  0.51100000000E-03 0. -1.
    9900012    2    1    2    0    0  0.34381535015E+01 -0.35322709948E+02 -0.19840646503E+02  0.50528855995E+02  0.29999988282E+02 0.  0.
        -12    1    1    2    0    0 -0.34381535015E+01  0.35322709948E+02  0.19840646503E+02  0.40659144005E+02  0.00000000000E+00 0.  1.
         11    1    3    3    0    0  0.32216018595E+01 -0.24601249413E+01 -0.77163261270E+01  0.87162275342E+01  0.51100000000E-03 0. -1.
        -11    1    3    3    0    0  0.35413653262E+01  0.81450432252E+00 -0.65854957938E+01  0.75215318105E+01  0.51100000000E-03 0.  1.
         12    1    3    3    0    0 -0.33248136843E+01 -0.33677089329E+02 -0.55388245825E+01  0.34291096650E+02  0.00000000000E+00 0. -1.
</event>
<event>
 7    1  0.5855569E-013  0.5052881E+02  0.7816164E-02  0.1300439E+00
        -11   -1    0    0    0    0  0.00000000000E+00  0.00000000000E+00  0.45593999997E+02  0.45594000000E+02  0.51100000000E-03 0.  1.
         11   -1    0    0    0    0 -0.00000000000E+00 -0.00000000000E+00 -0.45593999997E+02  0.45594000000E+02  0.51100000000E-03 0. -1.
    9900012    2    1    2    0    0 -0.89237384240E+01 -0.33294581024E+02 -0.21564041649E+02  0.50528805157E+02  0.29999833755E+02 0.  0.
        -12    1    1    2    0    0  0.89237384240E+01  0.33294581024E+02  0.21564041649E+02  0.40659194843E+02  0.00000000000E+00 0.  1.
         11    1    3    3    0    0 -0.75472900460E+01 -0.17979684670E+02 -0.17635697148E+01  0.19579091559E+02  0.51100000000E-03 0. -1.
        -11    1    3    3    0    0 -0.65614371129E+01 -0.66184558342E+01 -0.71766902847E+00  0.93472703883E+01  0.51100000000E-03 0.  1.
         12    1    3    3    0    0  0.51849887350E+01 -0.86964405195E+01 -0.19082802905E+02  0.21602443210E+02  0.00000000000E+00 0. -1.
</event>
<event>
 7    1  0.5855569E-013  0.5052884E+02  0.7816164E-02  0.1300439E+00
        -11   -1    0    0    0    0  0.00000000000E+00  0.00000000000E+00  0.45593999997E+02  0.45594000000E+02  0.51100000000E-03 0.  1.
         11   -1    0    0    0    0 -0.00000000000E+00 -0.00000000000E+00 -0.45593999997E+02  0.45594000000E+02  0.51100000000E-03 0. -1.
    9900012    2    1    2    0    0  0.15904546787E+02  0.41149566219E+01 -0.37192468468E+02  0.50528841287E+02  0.29999943576E+02 0.  0.
        -12    1    1    2    0    0 -0.15904546787E+02 -0.41149566219E+01  0.37192468468E+02  0.40659158713E+02  0.00000000000E+00 0.  1.
         11    1    3    3    0    0  0.58762452461E+01  0.12286394485E+01 -0.21307603031E+02  0.22137157908E+02  0.51100000000E-03 0. -1.
        -11    1    3    3    0    0  0.17975607095E+01  0.37977815097E+01 -0.19063861158E+02  0.19521402906E+02  0.51100000000E-03 0.  1.
        -12    1    3    3    0    0  0.82307408313E+01 -0.91146433632E+00  0.31789957210E+01  0.88702804726E+01  0.00000000000E+00 0.  1.
</event>
<event>
 7    1  0.5855569E-013  0.5052886E+02  0.7816164E-02  0.1300439E+00
        -11   -1    0    0    0    0  0.00000000000E+00  0.00000000000E+00  0.45593999997E+02  0.45594000000E+02  0.51100000000E-03 0.  1.
         11   -1    0    0    0    0 -0.00000000000E+00 -0.00000000000E+00 -0.45593999997E+02  0.45594000000E+02  0.51100000000E-03 0. -1.
    9900012    2    1    2    0    0  0.15038708480E+02  0.36410290607E+02  0.10064459097E+02  0.50528863859E+02  0.30000012185E+02 0.  0.
        -12    1    1    2    0    0 -0.15038708480E+02 -0.36410290607E+02 -0.10064459097E+02  0.40659136141E+02  0.00000000000E+00 0.  1.
         11    1    3    3    0    0  0.14910778068E+02  0.10956801174E+02 -0.63445649028E+01  0.19561091448E+02  0.51100000000E-03 0.  1.
        -11    1    3    3    0    0  0.29750343586E+01  0.76081842841E+01  0.57122381072E+01  0.99681975296E+01  0.51100000000E-03 0. -1.
        -12    1    3    3    0    0 -0.28471039467E+01  0.17845305149E+02  0.10696785893E+02  0.20999574881E+02  0.00000000000E+00 0.  1.
</event>
<event>
 7    1  0.5855569E-013  0.5052887E+02  0.7816164E-02  0.1300439E+00
        -11   -1    0    0    0    0  0.00000000000E+00  0.00000000000E+00  0.45593999997E+02  0.45594000000E+02  0.51100000000E-03 0.  1.
         11   -1    0    0    0    0 -0.00000000000E+00 -0.00000000000E+00 -0.45593999997E+02  0.45594000000E+02  0.51100000000E-03 0. -1.
    9900012    2    1    2    0    0  0.11551477618E+02  0.15576833154E+01 -0.38952554210E+02  0.50528874432E+02  0.30000044324E+02 0.  0.
        -12    1    1    2    0    0 -0.11551477618E+02 -0.15576833154E+01  0.38952554210E+02  0.40659125568E+02  0.00000000000E+00 0.  1.
         11    1    3    3    0    0  0.12360862310E+02 -0.41624772521E+01 -0.21225108828E+02  0.24912293732E+02  0.51100000000E-03 0. -1.
        -11    1    3    3    0    0  0.47389210768E+01 -0.40011126832E+01 -0.24294669750E+01  0.66609748325E+01  0.51100000000E-03 0.  1.
        -12    1    3    3    0    0 -0.55483057687E+01  0.97212732507E+01 -0.15297978406E+02  0.18955605868E+02  0.00000000000E+00 0.  1.
</event>
<event>
 7    1  0.5855569E-013  0.5052884E+02  0.7816164E-02  0.1300439E+00
        -11   -1    0    0    0    0  0.00000000000E+00  0.00000000000E+00  0.45593999997E+02  0.45594000000E+02  0.51100000000E-03 0.  1.
         11   -1    0    0    0    0 -0.00000000000E+00 -0.00000000000E+00 -0.45593999997E+02  0.45594000000E+02  0.51100000000E-03 0. -1.
    9900012    2    1    2    0    0 -0.48792309876E+01 -0.25969689319E+02 -0.30902032585E+02  0.50528840192E+02  0.29999940248E+02 0.  0.
        -12    1    1    2    0    0  0.48792309876E+01  0.25969689319E+02  0.30902032585E+02  0.40659159808E+02  0.00000000000E+00 0.  1.
         11    1    3    3    0    0 -0.52032401147E+01 -0.17570410172E+02 -0.21034831829E+02  0.27897261006E+02  0.51100000000E-03 0. -1.
        -11    1    3    3    0    0  0.35986897524E+01 -0.99099165909E+01 -0.13753615889E+02  0.17329713358E+02  0.51100000000E-03 0.  1.
        -12    1    3    3    0    0 -0.32746806253E+01  0.15106374436E+01  0.38864151327E+01  0.53018658288E+01  0.00000000000E+00 0.  1.
</event>
<event>
 7    1  0.5855569E-013  0.5052885E+02  0.7816164E-02  0.1300439E+00
        -11   -1    0    0    0    0  0.00000000000E+00  0.00000000000E+00  0.45593999997E+02  0.45594000000E+02  0.51100000000E-03 0. -1.
         11   -1    0    0    0    0 -0.00000000000E+00 -0.00000000000E+00 -0.45593999997E+02  0.45594000000E+02  0.51100000000E-03 0.  1.
    9900012    2    1    2    0    0  0.12888252320E+02 -0.35753239219E+02 -0.14448713002E+02  0.50528850108E+02  0.29999970390E+02 0.  0.
        -12    1    1    2    0    0 -0.12888252320E+02  0.35753239219E+02  0.14448713002E+02  0.40659149892E+02  0.00000000000E+00 0.  1.
         11    1    3    3    0    0 -0.71965683966E+00 -0.23849900982E+02  0.35929371007E+00  0.23863461087E+02  0.51100000000E-03 0. -1.
        -11    1    3    3    0    0  0.13822932547E+01 -0.25494953319E+01  0.22632372472E+01  0.36787095818E+01  0.51100000000E-03 0.  1.
        -12    1    3    3    0    0  0.12225615905E+02 -0.93538429048E+01 -0.17071243959E+02  0.22986679440E+02  0.00000000000E+00 0.  1.
</event>
<event>
 7    1  0.5855569E-013  0.5052887E+02  0.7816164E-02  0.1300439E+00
        -11   -1    0    0    0    0  0.00000000000E+00  0.00000000000E+00  0.45593999997E+02  0.45594000000E+02  0.51100000000E-03 0. -1.
         11   -1    0    0    0    0 -0.00000000000E+00 -0.00000000000E+00 -0.45593999997E+02  0.45594000000E+02  0.51100000000E-03 0.  1.
    9900012    2    1    2    0    0 -0.28828058405E+02  0.24684225184E+02 -0.14587571926E+02  0.50528865983E+02  0.30000018643E+02 0.  0.
        -12    1    1    2    0    0  0.28828058405E+02 -0.24684225184E+02  0.14587571926E+02  0.40659134017E+02  0.00000000000E+00 0.  1.
         11    1    3    3    0    0 -0.25688405267E+02  0.14114621881E+02 -0.16588481650E+02  0.33679287993E+02  0.51100000000E-03 0. -1.
        -11    1    3    3    0    0 -0.28815679863E+01  0.43084220224E+01 -0.51738024248E+01  0.73235350873E+01  0.51100000000E-03 0.  1.
         12    1    3    3    0    0 -0.25808515132E+00  0.62611812806E+01  0.71747121486E+01  0.95260429030E+01  0.00000000000E+00 0. -1.
</event>
<event>
 7    1  0.5855569E-013  0.5052887E+02  0.7816164E-02  0.1300439E+00
        -11   -1    0    0    0    0  0.00000000000E+00  0.00000000000E+00  0.45593999997E+02  0.45594000000E+02  0.51100000000E-03 0. -1.
         11   -1    0    0    0    0 -0.00000000000E+00 -0.00000000000E+00 -0.45593999997E+02  0.45594000000E+02  0.51100000000E-03 0.  1.
    9900012    2    1    2    0    0 -0.21333190210E+02  0.28995805105E+02  0.18902467297E+02  0.50528868331E+02  0.30000025778E+02 0.  0.
        -12    1    1    2    0    0  0.21333190210E+02 -0.28995805105E+02 -0.18902467297E+02  0.40659131669E+02  0.00000000000E+00 0.  1.
         11    1    3    3    0    0  0.22664263246E+01  0.10385121861E+02 -0.11954194005E+00  0.10630227415E+02  0.51100000000E-03 0. -1.
        -11    1    3    3    0    0 -0.72982247239E+00 -0.12420081398E+01 -0.24029407754E+01  0.28016690903E+01  0.51100000000E-03 0.  1.
         12    1    3    3    0    0 -0.22869794062E+02  0.19852691384E+02  0.21424950012E+02  0.37096971826E+02  0.00000000000E+00 0. -1.
</event>
<event>
 7    1  0.5855569E-013  0.5052886E+02  0.7816164E-02  0.1300439E+00
        -11   -1    0    0    0    0  0.00000000000E+00  0.00000000000E+00  0.45593999997E+02  0.45594000000E+02  0.51100000000E-03 0. -1.
         11   -1    0    0    0    0 -0.00000000000E+00 -0.00000000000E+00 -0.45593999997E+02  0.45594000000E+02  0.51100000000E-03 0.  1.
    9900012    2    1    2    0    0  0.15213626666E+02  0.67342595558E+01  0.37099338247E+02  0.50528860972E+02  0.30000003411E+02 0.  0.
        -12    1    1    2    0    0 -0.15213626666E+02 -0.67342595558E+01 -0.37099338247E+02  0.40659139028E+02  0.00000000000E+00 0.  1.
         11    1    3    3    0    0 -0.17277390030E+00  0.35518426842E+01  0.10791228117E+02  0.11362043909E+02  0.51100000000E-03 0. -1.
        -11    1    3    3    0    0  0.11416828366E+01  0.11518117010E+02  0.61267669700E+01  0.13096096095E+02  0.51100000000E-03 0.  1.
         12    1    3    3    0    0  0.14244717730E+02 -0.83357001386E+01  0.20181343161E+02  0.26070720968E+02  0.00000000000E+00 0. -1.
</event>
<event>
 7    1  0.5855569E-013  0.5052886E+02  0.7816164E-02  0.1300439E+00
        -11   -1    0    0    0    0  0.00000000000E+00  0.00000000000E+00  0.45593999997E+02  0.45594000000E+02  0.51100000000E-03 0.  1.
         11   -1    0    0    0    0 -0.00000000000E+00 -0.00000000000E+00 -0.45593999997E+02  0.45594000000E+02  0.51100000000E-03 0. -1.
    9900012    2    1    2    0    0 -0.31485570809E+02 -0.16214282173E+02  0.19973019105E+02  0.50528860711E+02  0.30000002618E+02 0.  0.
        -12    1    1    2    0    0  0.31485570809E+02  0.16214282173E+02 -0.19973019105E+02  0.40659139289E+02  0.00000000000E+00 0.  1.
         11    1    3    3    0    0 -0.20298894517E+02 -0.14020206801E+02  0.10304984222E+01  0.24691562215E+02  0.51100000000E-03 0. -1.
        -11    1    3    3    0    0  0.24330716027E+01  0.13152584549E+01  0.79530366789E+00  0.28778899236E+01  0.51100000000E-03 0.  1.
        -12    1    3    3    0    0 -0.13619747895E+02 -0.35093338267E+01  0.18147217015E+02  0.22959408573E+02  0.00000000000E+00 0.  1.
</event>
<event>
 7    1  0.5855569E-013  0.5052887E+02  0.7816164E-02  0.1300439E+00
        -11   -1    0    0    0    0  0.00000000000E+00  0.00000000000E+00  0.45593999997E+02  0.45594000000E+02  0.51100000000E-03 0. -1.
         11   -1    0    0    0    0 -0.00000000000E+00 -0.00000000000E+00 -0.45593999997E+02  0.45594000000E+02  0.51100000000E-03 0.  1.
    9900012    2    1    2    0    0 -0.31125195955E+02 -0.24046077206E+02  0.10304025508E+02  0.50528873178E+02  0.30000040513E+02 0.  0.
        -12    1    1    2    0    0  0.31125195955E+02  0.24046077206E+02 -0.10304025508E+02  0.40659126822E+02  0.00000000000E+00 0.  1.
         11    1    3    3    0    0 -0.13933175119E+02 -0.91432028851E+01  0.88904477551E+00  0.16688976265E+02  0.51100000000E-03 0. -1.
        -11    1    3    3    0    0 -0.10782033623E+01  0.10806640197E+01 -0.61385526434E+01  0.63255186373E+01  0.51100000000E-03 0.  1.
        -12    1    3    3    0    0 -0.16113817474E+02 -0.15983538341E+02  0.15553533376E+02  0.27514378277E+02  0.00000000000E+00 0.  1.
</event>
<event>
 7    1  0.5855569E-013  0.5052886E+02  0.7816164E-02  0.1300439E+00
        -11   -1    0    0    0    0  0.00000000000E+00  0.00000000000E+00  0.45593999997E+02  0.45594000000E+02  0.51100000000E-03 0. -1.
         11   -1    0    0    0    0 -0.00000000000E+00 -0.00000000000E+00 -0.45593999997E+02  0.45594000000E+02  0.51100000000E-03 0.  1.
    9900012    2    1    2    0    0 -0.17771049745E+02 -0.31358929637E+02  0.18814168602E+02  0.50528860595E+02  0.30000002263E+02 0.  0.
        -12    1    1    2    0    0  0.17771049745E+02  0.31358929637E+02 -0.18814168602E+02  0.40659139405E+02  0.00000000000E+00 0.  1.
         11    1    3    3    0    0  0.15527803596E+01 -0.30891235072E+00 -0.13795381910E+01  0.20999237051E+01  0.51100000000E-03 0. -1.
        -11    1    3    3    0    0 -0.85038233240E+01 -0.97213168804E+01 -0.48531860954E+01  0.13797551542E+02  0.51100000000E-03 0.  1.
         12    1    3    3    0    0 -0.10820006781E+02 -0.21328700406E+02  0.25046892889E+02  0.34631385348E+02  0.00000000000E+00 0. -1.
</event>
<event>
 7    1  0.5855569E-013  0.5052884E+02  0.7816164E-02  0.1300439E+00
        -11   -1    0    0    0    0  0.00000000000E+00  0.00000000000E+00  0.45593999997E+02  0.45594000000E+02  0.51100000000E-03 0. -1.
         11   -1    0    0    0    0 -0.00000000000E+00 -0.00000000000E+00 -0.45593999997E+02  0.45594000000E+02  0.51100000000E-03 0.  1.
    9900012    2    1    2    0    0 -0.20123033357E+02  0.17733254547E+02  0.30557521713E+02  0.50528844555E+02  0.29999953509E+02 0.  0.
        -12    1    1    2    0    0  0.20123033357E+02 -0.17733254547E+02 -0.30557521713E+02  0.40659155445E+02  0.00000000000E+00 0.  1.
         11    1    3    3    0    0  0.13172582702E+01  0.75245024488E+01  0.16988356509E+02  0.18626796923E+02  0.51100000000E-03 0. -1.
        -11    1    3    3    0    0 -0.12997355550E+02 -0.26174454024E+01  0.41718530652E+01  0.13899159327E+02  0.51100000000E-03 0.  1.
         12    1    3    3    0    0 -0.84429360768E+01  0.12826197500E+02  0.93973121384E+01  0.18002888305E+02  0.00000000000E+00 0. -1.
</event>
<event>
 7    1  0.5855569E-013  0.5052885E+02  0.7816164E-02  0.1300439E+00
        -11   -1    0    0    0    0  0.00000000000E+00  0.00000000000E+00  0.45593999997E+02  0.45594000000E+02  0.51100000000E-03 0. -1.
         11   -1    0    0    0    0 -0.00000000000E+00 -0.00000000000E+00 -0.45593999997E+02  0.45594000000E+02  0.51100000000E-03 0.  1.
    9900012    2    1    2    0    0  0.26682251399E+02  0.17149209992E+02  0.25438716024E+02  0.50528853231E+02  0.29999979881E+02 0.  0.
        -12    1    1    2    0    0 -0.26682251399E+02 -0.17149209992E+02 -0.25438716024E+02  0.40659146769E+02  0.00000000000E+00 0.  1.
         11    1    3    3    0    0  0.76402181666E+01  0.16356410373E+01  0.56344731870E+01  0.96330443575E+01  0.51100000000E-03 0. -1.
        -11    1    3    3    0    0  0.22320220976E+02  0.69084729429E+01  0.56973955859E+01  0.24049523479E+02  0.51100000000E-03 0.  1.
         12    1    3    3    0    0 -0.32781877441E+01  0.86050960116E+01  0.14106847251E+02  0.16846285395E+02  0.00000000000E+00 0. -1.
</event>
<event>
 7    1  0.5855569E-013  0.5052886E+02  0.7816164E-02  0.1300439E+00
        -11   -1    0    0    0    0  0.00000000000E+00  0.00000000000E+00  0.45593999997E+02  0.45594000000E+02  0.51100000000E-03 0.  1.
         11   -1    0    0    0    0 -0.00000000000E+00 -0.00000000000E+00 -0.45593999997E+02  0.45594000000E+02  0.51100000000E-03 0. -1.
    9900012    2    1    2    0    0 -0.24096935959E+02  0.12561300725E+02 -0.30244290116E+02  0.50528859783E+02  0.29999999797E+02 0.  0.
        -12    1    1    2    0    0  0.24096935959E+02 -0.12561300725E+02  0.30244290116E+02  0.40659140217E+02  0.00000000000E+00 0.  1.
         11    1    3    3    0    0 -0.66844759055E+01  0.63208814024E+01 -0.81287617868E+01  0.12276503097E+02  0.51100000000E-03 0. -1.
        -11    1    3    3    0    0 -0.45132724604E+01  0.12172114248E+02 -0.20077841987E+02  0.23909197659E+02  0.51100000000E-03 0.  1.
        -12    1    3    3    0    0 -0.12899187593E+02 -0.59316949252E+01 -0.20376863424E+01  0.14343159027E+02  0.00000000000E+00 0.  1.
</event>
<event>
 7    1  0.5855569E-013  0.5052886E+02  0.7816164E-02  0.1300439E+00
        -11   -1    0    0    0    0  0.00000000000E+00  0.00000000000E+00  0.45593999997E+02  0.45594000000E+02  0.51100000000E-03 0.  1.
         11   -1    0    0    0    0 -0.00000000000E+00 -0.00000000000E+00 -0.45593999997E+02  0.45594000000E+02  0.51100000000E-03 0. -1.
    9900012    2    1    2    0    0  0.28651860265E+02  0.25095905628E+02 -0.14227869979E+02  0.50528857608E+02  0.29999993184E+02 0.  0.
        -12    1    1    2    0    0 -0.28651860265E+02 -0.25095905628E+02  0.14227869979E+02  0.40659142392E+02  0.00000000000E+00 0.  1.
         11    1    3    3    0    0 -0.82930135928E+00  0.13751468530E+02 -0.49454462282E+01  0.14637215108E+02  0.51100000000E-03 0. -1.
        -11    1    3    3    0    0 -0.92642259820E+00 -0.99844758261E+00  0.77601546819E+00  0.15675958260E+01  0.51100000000E-03 0.  1.
         12    1    3    3    0    0  0.30407584223E+02  0.12342884681E+02 -0.10058439219E+02  0.34324046673E+02  0.00000000000E+00 0. -1.
</event>
<event>
 7    1  0.5855569E-013  0.5052888E+02  0.7816164E-02  0.1300439E+00
        -11   -1    0    0    0    0  0.00000000000E+00  0.00000000000E+00  0.45593999997E+02  0.45594000000E+02  0.51100000000E-03 0. -1.
         11   -1    0    0    0    0 -0.00000000000E+00 -0.00000000000E+00 -0.45593999997E+02  0.45594000000E+02  0.51100000000E-03 0.  1.
    9900012    2    1    2    0    0 -0.39727339019E+02  0.55852713153E+01  0.66111793706E+01  0.50528875392E+02  0.30000047241E+02 0.  0.
        -12    1    1    2    0    0  0.39727339019E+02 -0.55852713153E+01 -0.66111793706E+01  0.40659124608E+02  0.00000000000E+00 0.  1.
         11    1    3    3    0    0  0.36472136312E+00  0.16769345432E+01  0.27135747504E+00  0.17374597190E+01  0.51100000000E-03 0. -1.
        -11    1    3    3    0    0 -0.10853749336E+02 -0.56904100460E+01 -0.82106766442E+01  0.14751266127E+02  0.51100000000E-03 0.  1.
        -12    1    3    3    0    0 -0.29238311047E+02  0.95987468181E+01  0.14550498540E+02  0.34040149546E+02  0.00000000000E+00 0.  1.
</event>
<event>
 7    1  0.5855569E-013  0.5052885E+02  0.7816164E-02  0.1300439E+00
        -11   -1    0    0    0    0  0.00000000000E+00  0.00000000000E+00  0.45593999997E+02  0.45594000000E+02  0.51100000000E-03 0. -1.
         11   -1    0    0    0    0 -0.00000000000E+00 -0.00000000000E+00 -0.45593999997E+02  0.45594000000E+02  0.51100000000E-03 0.  1.
    9900012    2    1    2    0    0 -0.28794467270E+02 -0.13968796829E+02  0.25078227737E+02  0.50528854207E+02  0.29999982846E+02 0.  0.
        -12    1    1    2    0    0  0.28794467270E+02  0.13968796829E+02 -0.25078227737E+02  0.40659145793E+02  0.00000000000E+00 0.  1.
         11    1    3    3    0    0 -0.17526866329E+02 -0.47478358670E+01  0.21756147324E+02  0.28338365079E+02  0.51100000000E-03 0. -1.
        -11    1    3    3    0    0 -0.57054706357E+01 -0.27664729302E+01  0.96712793094E+01  0.11564575712E+02  0.51100000000E-03 0.  1.
        -12    1    3    3    0    0 -0.55621303058E+01 -0.64544880321E+01 -0.63491988963E+01  0.10625913416E+02  0.00000000000E+00 0.  1.
</event>
<event>
 7    1  0.5855569E-013  0.5052886E+02  0.7816164E-02  0.1300439E+00
        -11   -1    0    0    0    0  0.00000000000E+00  0.00000000000E+00  0.45593999997E+02  0.45594000000E+02  0.51100000000E-03 0.  1.
         11   -1    0    0    0    0 -0.00000000000E+00 -0.00000000000E+00 -0.45593999997E+02  0.45594000000E+02  0.51100000000E-03 0. -1.
    9900012    2    1    2    0    0 -0.31910424528E+01 -0.51598984037E+00 -0.40530442517E+02  0.50528858740E+02  0.29999996625E+02 0.  0.
        -12    1    1    2    0    0  0.31910424528E+01  0.51598984037E+00  0.40530442517E+02  0.40659141260E+02  0.00000000000E+00 0.  1.
         11    1    3    3    0    0  0.39735586019E+01 -0.59418262423E+01 -0.16036279956E+02  0.17557241872E+02  0.51100000000E-03 0. -1.
        -11    1    3    3    0    0  0.70520449453E+01  0.19612659754E+01 -0.65956456063E+01  0.98529408483E+01  0.51100000000E-03 0.  1.
         12    1    3    3    0    0 -0.14216646000E+02  0.34645704265E+01 -0.17898516954E+02  0.23118676019E+02  0.00000000000E+00 0. -1.
</event>
<event>
 7    1  0.5855569E-013  0.5052886E+02  0.7816164E-02  0.1300439E+00
        -11   -1    0    0    0    0  0.00000000000E+00  0.00000000000E+00  0.45593999997E+02  0.45594000000E+02  0.51100000000E-03 0.  1.
         11   -1    0    0    0    0 -0.00000000000E+00 -0.00000000000E+00 -0.45593999997E+02  0.45594000000E+02  0.51100000000E-03 0. -1.
    9900012    2    1    2    0    0 -0.23406147087E+02 -0.17002546412E+02 -0.28569763592E+02  0.50528859605E+02  0.29999999255E+02 0.  0.
        -12    1    1    2    0    0  0.23406147087E+02  0.17002546412E+02  0.28569763592E+02  0.40659140395E+02  0.00000000000E+00 0.  1.
         11    1    3    3    0    0 -0.67036164995E+00  0.18332413232E+01 -0.84098515349E+00  0.21254210830E+01  0.51100000000E-03 0. -1.
        -11    1    3    3    0    0 -0.14623152698E+02 -0.48351767329E+01  0.99666109104E+00  0.15434016407E+02  0.51100000000E-03 0.  1.
         12    1    3    3    0    0 -0.81126327394E+01 -0.14000611002E+02 -0.28725439530E+02  0.32969422115E+02  0.00000000000E+00 0. -1.
</event>
<event>
 7    1  0.5855569E-013  0.5052886E+02  0.7816164E-02  0.1300439E+00
        -11   -1    0    0    0    0  0.00000000000E+00  0.00000000000E+00  0.45593999997E+02  0.45594000000E+02  0.51100000000E-03 0.  1.
         11   -1    0    0    0    0 -0.00000000000E+00 -0.00000000000E+00 -0.45593999997E+02  0.45594000000E+02  0.51100000000E-03 0. -1.
    9900012    2    1    2    0    0 -0.14560709930E+02 -0.21011515317E+02 -0.31617524339E+02  0.50528857179E+02  0.29999991883E+02 0.  0.
        -12    1    1    2    0    0  0.14560709930E+02  0.21011515317E+02  0.31617524339E+02  0.40659142821E+02  0.00000000000E+00 0.  1.
         11    1    3    3    0    0  0.49505438178E+01 -0.93295422589E+01 -0.41549377590E+01  0.11349526461E+02  0.51100000000E-03 0. -1.
        -11    1    3    3    0    0 -0.79766893796E+00 -0.18714375601E-01  0.21300984773E+01  0.22746309033E+01  0.51100000000E-03 0.  1.
        -12    1    3    3    0    0 -0.18713584810E+02 -0.11663258683E+02 -0.29592685057E+02  0.36904699815E+02  0.00000000000E+00 0.  1.
</event>
<event>
 7    1  0.5855569E-013  0.5052886E+02  0.7816164E-02  0.1300439E+00
        -11   -1    0    0    0    0  0.00000000000E+00  0.00000000000E+00  0.45593999997E+02  0.45594000000E+02  0.51100000000E-03 0.  1.
         11   -1    0    0    0    0 -0.00000000000E+00 -0.00000000000E+00 -0.45593999997E+02  0.45594000000E+02  0.51100000000E-03 0. -1.
    9900012    2    1    2    0    0 -0.15482679722E+02 -0.85877646388E+01 -0.36601943113E+02  0.50528864341E+02  0.30000013652E+02 0.  0.
        -12    1    1    2    0    0  0.15482679722E+02  0.85877646388E+01  0.36601943113E+02  0.40659135659E+02  0.00000000000E+00 0.  1.
         11    1    3    3    0    0  0.95272966383E+00  0.70186073150E+01 -0.22327722140E+00  0.70864938745E+01  0.51100000000E-03 0. -1.
        -11    1    3    3    0    0 -0.70083901439E+01 -0.30699719331E+01 -0.83657472620E+01  0.11337018461E+02  0.51100000000E-03 0.  1.
        -12    1    3    3    0    0 -0.94270192424E+01 -0.12536400021E+02 -0.28012918629E+02  0.32105352006E+02  0.00000000000E+00 0.  1.
</event>
<event>
 7    1  0.5855569E-013  0.5052888E+02  0.7816164E-02  0.1300439E+00
        -11   -1    0    0    0    0  0.00000000000E+00  0.00000000000E+00  0.45593999997E+02  0.45594000000E+02  0.51100000000E-03 0.  1.
         11   -1    0    0    0    0 -0.00000000000E+00 -0.00000000000E+00 -0.45593999997E+02  0.45594000000E+02  0.51100000000E-03 0. -1.
    9900012    2    1    2    0    0  0.11021321081E+02  0.33969138948E+02 -0.19436881779E+02  0.50528876884E+02  0.30000051778E+02 0.  0.
        -12    1    1    2    0    0 -0.11021321081E+02 -0.33969138948E+02  0.19436881779E+02  0.40659123116E+02  0.00000000000E+00 0.  1.
         11    1    3    3    0    0  0.19219514670E+01  0.11957816430E+01  0.35779936383E+01  0.42338906358E+01  0.51100000000E-03 0. -1.
        -11    1    3    3    0    0  0.38771001005E+01 -0.18364967292E+01  0.19955842170E+00  0.42947001351E+01  0.51100000000E-03 0.  1.
         12    1    3    3    0    0  0.52222695131E+01  0.34609854034E+02 -0.23214433839E+02  0.42000286113E+02  0.00000000000E+00 0. -1.
</event>
<event>
 7    1  0.5855569E-013  0.5052884E+02  0.7816164E-02  0.1300439E+00
        -11   -1    0    0    0    0  0.00000000000E+00  0.00000000000E+00  0.45593999997E+02  0.45594000000E+02  0.51100000000E-03 0.  1.
         11   -1    0    0    0    0 -0.00000000000E+00 -0.00000000000E+00 -0.45593999997E+02  0.45594000000E+02  0.51100000000E-03 0. -1.
    9900012    2    1    2    0    0 -0.13055780428E+02 -0.11676878511E+02 -0.36692839907E+02  0.50528838735E+02  0.29999935819E+02 0.  0.
        -12    1    1    2    0    0  0.13055780428E+02  0.11676878511E+02  0.36692839907E+02  0.40659161265E+02  0.00000000000E+00 0.  1.
         11    1    3    3    0    0 -0.16539434427E+01 -0.60192515189E+01 -0.11362843731E+01  0.63449239709E+01  0.51100000000E-03 0. -1.
        -11    1    3    3    0    0 -0.17394592274E+02 -0.14740681927E+01 -0.17564119248E+02  0.24763743712E+02  0.51100000000E-03 0.  1.
         12    1    3    3    0    0  0.59927552889E+01 -0.41835587992E+01 -0.17992436286E+02  0.19420171052E+02  0.00000000000E+00 0. -1.
</event>
<event>
 7    1  0.5855569E-013  0.5052886E+02  0.7816164E-02  0.1300439E+00
        -11   -1    0    0    0    0  0.00000000000E+00  0.00000000000E+00  0.45593999997E+02  0.45594000000E+02  0.51100000000E-03 0.  1.
         11   -1    0    0    0    0 -0.00000000000E+00 -0.00000000000E+00 -0.45593999997E+02  0.45594000000E+02  0.51100000000E-03 0. -1.
    9900012    2    1    2    0    0 -0.24141518040E+02 -0.29318665266E+02 -0.14517862298E+02  0.50528863856E+02  0.30000012178E+02 0.  0.
        -12    1    1    2    0    0  0.24141518040E+02  0.29318665266E+02  0.14517862298E+02  0.40659136144E+02  0.00000000000E+00 0.  1.
         11    1    3    3    0    0  0.27586837345E+01 -0.24676289838E+01 -0.58490951038E+01  0.69218091958E+01  0.51100000000E-03 0. -1.
        -11    1    3    3    0    0  0.16093004600E+01 -0.89041839466E+01 -0.19002751541E+01  0.92458307170E+01  0.51100000000E-03 0.  1.
        -12    1    3    3    0    0 -0.28509502234E+02 -0.17946852336E+02 -0.67684920396E+01  0.34361223944E+02  0.00000000000E+00 0.  1.
</event>
<event>
 7    1  0.5855569E-013  0.5052887E+02  0.7816164E-02  0.1300439E+00
        -11   -1    0    0    0    0  0.00000000000E+00  0.00000000000E+00  0.45593999997E+02  0.45594000000E+02  0.51100000000E-03 0. -1.
         11   -1    0    0    0    0 -0.00000000000E+00 -0.00000000000E+00 -0.45593999997E+02  0.45594000000E+02  0.51100000000E-03 0.  1.
    9900012    2    1    2    0    0  0.38935498597E+02  0.17095222409E+01  0.11587458053E+02  0.50528871856E+02  0.30000036495E+02 0.  0.
        -12    1    1    2    0    0 -0.38935498597E+02 -0.17095222409E+01 -0.11587458053E+02  0.40659128144E+02  0.00000000000E+00 0.  1.
         11    1    3    3    0    0  0.15682058006E+02 -0.37877016845E+01  0.81180393461E+00  0.16153409957E+02  0.51100000000E-03 0. -1.
        -11    1    3    3    0    0  0.18544318675E+02  0.11866500373E+02  0.13701389113E+02  0.25931325653E+02  0.51100000000E-03 0.  1.
         12    1    3    3    0    0  0.47091219160E+01 -0.63692764479E+01 -0.29257349946E+01  0.84441362464E+01  0.00000000000E+00 0. -1.
</event>
<event>
 7    1  0.5855569E-013  0.5052886E+02  0.7816164E-02  0.1300439E+00
        -11   -1    0    0    0    0  0.00000000000E+00  0.00000000000E+00  0.45593999997E+02  0.45594000000E+02  0.51100000000E-03 0.  1.
         11   -1    0    0    0    0 -0.00000000000E+00 -0.00000000000E+00 -0.45593999997E+02  0.45594000000E+02  0.51100000000E-03 0. -1.
    9900012    2    1    2    0    0 -0.12173420203E+02  0.30643739343E+02 -0.23789388964E+02  0.50528856532E+02  0.29999989913E+02 0.  0.
        -12    1    1    2    0    0  0.12173420203E+02 -0.30643739343E+02  0.23789388964E+02  0.40659143468E+02  0.00000000000E+00 0.  1.
         11    1    3    3    0    0 -0.11799407702E+02  0.30708243784E+02 -0.15849826062E+02  0.36516287392E+02  0.51100000000E-03 0. -1.
        -11    1    3    3    0    0 -0.20556380942E+01  0.19310622468E+01  0.21782544221E+01  0.35636276410E+01  0.51100000000E-03 0.  1.
         12    1    3    3    0    0  0.16816255934E+01 -0.19955666884E+01 -0.10117817324E+02  0.10448941499E+02  0.00000000000E+00 0. -1.
</event>
<event>
 7    1  0.5855569E-013  0.5052885E+02  0.7816164E-02  0.1300439E+00
        -11   -1    0    0    0    0  0.00000000000E+00  0.00000000000E+00  0.45593999997E+02  0.45594000000E+02  0.51100000000E-03 0.  1.
         11   -1    0    0    0    0 -0.00000000000E+00 -0.00000000000E+00 -0.45593999997E+02  0.45594000000E+02  0.51100000000E-03 0. -1.
    9900012    2    1    2    0    0  0.33027578283E+02 -0.31762524077E+01 -0.23500143321E+02  0.50528852902E+02  0.29999978882E+02 0.  0.
        -12    1    1    2    0    0 -0.33027578283E+02  0.31762524077E+01  0.23500143321E+02  0.40659147098E+02  0.00000000000E+00 0.  1.
         11    1    3    3    0    0  0.88905542914E+00  0.88124316238E+01 -0.80460250331E+01  0.11966114230E+02  0.51100000000E-03 0. -1.
        -11    1    3    3    0    0  0.20137138248E+02 -0.55679864876E+01 -0.13340531606E+02  0.24788638409E+02  0.51100000000E-03 0.  1.
        -12    1    3    3    0    0  0.12001384605E+02 -0.64206975440E+01 -0.21135866823E+01  0.13774100263E+02  0.00000000000E+00 0.  1.
</event>
<event>
 7    1  0.5855569E-013  0.5052886E+02  0.7816164E-02  0.1300439E+00
        -11   -1    0    0    0    0  0.00000000000E+00  0.00000000000E+00  0.45593999997E+02  0.45594000000E+02  0.51100000000E-03 0.  1.
         11   -1    0    0    0    0 -0.00000000000E+00 -0.00000000000E+00 -0.45593999997E+02  0.45594000000E+02  0.51100000000E-03 0. -1.
    9900012    2    1    2    0    0  0.79012475772E+01  0.27293977281E+02 -0.29082207031E+02  0.50528859885E+02  0.30000000105E+02 0.  0.
        -12    1    1    2    0    0 -0.79012475772E+01 -0.27293977281E+02  0.29082207031E+02  0.40659140115E+02  0.00000000000E+00 0.  1.
         11    1    3    3    0    0  0.12152239470E+01  0.14026726163E+02 -0.84150658088E+01  0.16402412899E+02  0.51100000000E-03 0. -1.
        -11    1    3    3    0    0 -0.33149688877E+00  0.10492927174E+02 -0.23756333869E+02  0.25972578039E+02  0.51100000000E-03 0.  1.
        -12    1    3    3    0    0  0.70175205190E+01  0.27743239446E+01  0.30891926462E+01  0.81538689460E+01  0.00000000000E+00 0.  1.
</event>
<event>
 7    1  0.5855569E-013  0.5052886E+02  0.7816164E-02  0.1300439E+00
        -11   -1    0    0    0    0  0.00000000000E+00  0.00000000000E+00  0.45593999997E+02  0.45594000000E+02  0.51100000000E-03 0. -1.
         11   -1    0    0    0    0 -0.00000000000E+00 -0.00000000000E+00 -0.45593999997E+02  0.45594000000E+02  0.51100000000E-03 0.  1.
    9900012    2    1    2    0    0 -0.33269133292E+02  0.74522014195E+01  0.22153898184E+02  0.50528859075E+02  0.29999997646E+02 0.  0.
        -12    1    1    2    0    0  0.33269133292E+02 -0.74522014195E+01 -0.22153898184E+02  0.40659140925E+02  0.00000000000E+00 0.  1.
         11    1    3    3    0    0 -0.34006312623E+01 -0.14150177979E+00  0.76001561292E+01  0.83274659522E+01  0.51100000000E-03 0. -1.
        -11    1    3    3    0    0 -0.73369963608E+01 -0.68187416348E+01  0.11547398377E+02  0.15286240958E+02  0.51100000000E-03 0.  1.
         12    1    3    3    0    0 -0.22531505669E+02  0.14412444834E+02  0.30063436781E+01  0.26915152166E+02  0.00000000000E+00 0. -1.
</event>
<event>
 7    1  0.5855569E-013  0.5052886E+02  0.7816164E-02  0.1300439E+00
        -11   -1    0    0    0    0  0.00000000000E+00  0.00000000000E+00  0.45593999997E+02  0.45594000000E+02  0.51100000000E-03 0.  1.
         11   -1    0    0    0    0 -0.00000000000E+00 -0.00000000000E+00 -0.45593999997E+02  0.45594000000E+02  0.51100000000E-03 0. -1.
    9900012    2    1    2    0    0 -0.10640247334E+02  0.28528163241E+02 -0.26946145822E+02  0.50528859135E+02  0.29999997828E+02 0.  0.
        -12    1    1    2    0    0  0.10640247334E+02 -0.28528163241E+02  0.26946145822E+02  0.40659140865E+02  0.00000000000E+00 0.  1.
         11    1    3    3    0    0  0.21254595754E+00  0.17066146269E+02 -0.35770146698E+01  0.17438278541E+02  0.51100000000E-03 0. -1.
        -11    1    3    3    0    0  0.47433803716E+01  0.31356361142E+01 -0.46834467043E+01  0.73665829584E+01  0.51100000000E-03 0.  1.
        -12    1    3    3    0    0 -0.15596173663E+02  0.83263808577E+01 -0.18685684448E+02  0.25723997636E+02  0.00000000000E+00 0.  1.
</event>
<event>
 7    1  0.7401416E-013  0.5052885E+02  0.7816164E-02  0.1300439E+00
        -11   -1    0    0    0    0  0.00000000000E+00  0.00000000000E+00  0.45593999997E+02  0.45594000000E+02  0.51100000000E-03 0.  1.
         11   -1    0    0    0    0 -0.00000000000E+00 -0.00000000000E+00 -0.45593999997E+02  0.45594000000E+02  0.51100000000E-03 0. -1.
    9900012    2    1    2    0    0 -0.11951563082E+02 -0.37934248875E+02 -0.84450597792E+01  0.50528854257E+02  0.29999983001E+02 0.  0.
        -12    1    1    2    0    0  0.11951563082E+02  0.37934248875E+02  0.84450597792E+01  0.40659145743E+02  0.00000000000E+00 0.  1.
         11    1    3    3    0    0 -0.28925391030E+01 -0.16011897717E+02  0.28695660190E+00  0.16273598106E+02  0.51100000000E-03 0. -1.
        -11    1    3    3    0    0 -0.53434143485E+01 -0.25152017089E+02 -0.11969845862E+02  0.28362885092E+02  0.51100000000E-03 0.  1.
        -12    1    3    3    0    0 -0.37156096305E+01  0.32296659307E+01  0.32378294809E+01  0.58923710591E+01  0.00000000000E+00 0.  1.
</event>
<event>
 7    1  0.5855569E-013  0.5052886E+02  0.7816164E-02  0.1300439E+00
        -11   -1    0    0    0    0  0.00000000000E+00  0.00000000000E+00  0.45593999997E+02  0.45594000000E+02  0.51100000000E-03 0.  1.
         11   -1    0    0    0    0 -0.00000000000E+00 -0.00000000000E+00 -0.45593999997E+02  0.45594000000E+02  0.51100000000E-03 0. -1.
    9900012    2    1    2    0    0  0.35345465442E+02  0.77999269500E+01 -0.18520938370E+02  0.50528856553E+02  0.29999989979E+02 0.  0.
        -12    1    1    2    0    0 -0.35345465442E+02 -0.77999269500E+01  0.18520938370E+02  0.40659143447E+02  0.00000000000E+00 0.  1.
         11    1    3    3    0    0 -0.46345705965E+01  0.97404042438E+00 -0.26981225662E+01  0.54504921801E+01  0.51100000000E-03 0. -1.
        -11    1    3    3    0    0 -0.54590546043E+00 -0.16519661327E+00  0.57062398619E+00  0.80679284051E+00  0.51100000000E-03 0.  1.
        -12    1    3    3    0    0  0.40525941499E+02  0.69910831389E+01 -0.16393439790E+02  0.44271571533E+02  0.00000000000E+00 0.  1.
</event>
<event>
 7    1  0.5855569E-013  0.5052886E+02  0.7816164E-02  0.1300439E+00
        -11   -1    0    0    0    0  0.00000000000E+00  0.00000000000E+00  0.45593999997E+02  0.45594000000E+02  0.51100000000E-03 0.  1.
         11   -1    0    0    0    0 -0.00000000000E+00 -0.00000000000E+00 -0.45593999997E+02  0.45594000000E+02  0.51100000000E-03 0. -1.
    9900012    2    1    2    0    0 -0.32640711956E+02 -0.19334698525E+02 -0.14625978243E+02  0.50528857318E+02  0.29999992304E+02 0.  0.
        -12    1    1    2    0    0  0.32640711956E+02  0.19334698525E+02  0.14625978243E+02  0.40659142682E+02  0.00000000000E+00 0.  1.
         11    1    3    3    0    0 -0.17835755755E+02 -0.16695687217E+02 -0.12742604562E+02  0.27554203424E+02  0.51100000000E-03 0. -1.
        -11    1    3    3    0    0 -0.41384492066E+01 -0.93836507347E+01 -0.34826160819E+00  0.10261625084E+02  0.51100000000E-03 0.  1.
         12    1    3    3    0    0 -0.10666506995E+02  0.67446394273E+01 -0.15351120724E+01  0.12713028811E+02  0.00000000000E+00 0. -1.
</event>
<event>
 7    1  0.5855569E-013  0.5052885E+02  0.7816164E-02  0.1300439E+00
        -11   -1    0    0    0    0  0.00000000000E+00  0.00000000000E+00  0.45593999997E+02  0.45594000000E+02  0.51100000000E-03 0. -1.
         11   -1    0    0    0    0 -0.00000000000E+00 -0.00000000000E+00 -0.45593999997E+02  0.45594000000E+02  0.51100000000E-03 0.  1.
    9900012    2    1    2    0    0  0.27284930055E+02 -0.29639161141E+02  0.54971796662E+01  0.50528852622E+02  0.29999978029E+02 0.  0.
        -12    1    1    2    0    0 -0.27284930055E+02  0.29639161141E+02 -0.54971796662E+01  0.40659147378E+02  0.00000000000E+00 0.  1.
         11    1    3    3    0    0  0.90472105955E+01 -0.15019555100E+02 -0.64290036565E+01  0.18675415477E+02  0.51100000000E-03 0. -1.
        -11    1    3    3    0    0  0.18411016584E+02 -0.13171464901E+02  0.30309526620E+01  0.22839432865E+02  0.51100000000E-03 0.  1.
        -12    1    3    3    0    0 -0.17329712429E+00 -0.14481411405E+01  0.88952306607E+01  0.90140042802E+01  0.00000000000E+00 0.  1.
</event>
<event>
 7    1  0.5855569E-013  0.5052886E+02  0.7816164E-02  0.1300439E+00
        -11   -1    0    0    0    0  0.00000000000E+00  0.00000000000E+00  0.45593999997E+02  0.45594000000E+02  0.51100000000E-03 0.  1.
         11   -1    0    0    0    0 -0.00000000000E+00 -0.00000000000E+00 -0.45593999997E+02  0.45594000000E+02  0.51100000000E-03 0. -1.
    9900012    2    1    2    0    0 -0.24319637806E+02  0.30297848508E+02 -0.11990050374E+02  0.50528859390E+02  0.29999998601E+02 0.  0.
        -12    1    1    2    0    0  0.24319637806E+02 -0.30297848508E+02  0.11990050374E+02  0.40659140610E+02  0.00000000000E+00 0.  1.
         11    1    3    3    0    0 -0.49910746694E+01  0.13321148190E+02 -0.74938435242E+01  0.16078603996E+02  0.51100000000E-03 0. -1.
        -11    1    3    3    0    0 -0.10316368821E+02  0.18094015429E+02  0.48850975146E+01  0.21393574690E+02  0.51100000000E-03 0.  1.
        -12    1    3    3    0    0 -0.90121943148E+01 -0.11173151108E+01 -0.93813043642E+01  0.13056680704E+02  0.00000000000E+00 0.  1.
</event>
<event>
 7    1  0.5855569E-013  0.5052886E+02  0.7816164E-02  0.1300439E+00
        -11   -1    0    0    0    0  0.00000000000E+00  0.00000000000E+00  0.45593999997E+02  0.45594000000E+02  0.51100000000E-03 0. -1.
         11   -1    0    0    0    0 -0.00000000000E+00 -0.00000000000E+00 -0.45593999997E+02  0.45594000000E+02  0.51100000000E-03 0.  1.
    9900012    2    1    2    0    0 -0.36746536427E+02 -0.15373316728E+01  0.17334780655E+02  0.50528856522E+02  0.29999989884E+02 0.  0.
        -12    1    1    2    0    0  0.36746536427E+02  0.15373316728E+01 -0.17334780655E+02  0.40659143478E+02  0.00000000000E+00 0.  1.
         11    1    3    3    0    0 -0.69300183526E+01 -0.49753874103E+01  0.40466660235E+01  0.94421999776E+01  0.51100000000E-03 0. -1.
        -11    1    3    3    0    0 -0.81747747045E+01 -0.10177818207E+02  0.22931453651E+01  0.13254185786E+02  0.51100000000E-03 0.  1.
         12    1    3    3    0    0 -0.21641743369E+02  0.13615873945E+02  0.10994969266E+02  0.27832470758E+02  0.00000000000E+00 0. -1.
</event>
<event>
 7    1  0.5855569E-013  0.5052886E+02  0.7816164E-02  0.1300439E+00
        -11   -1    0    0    0    0  0.00000000000E+00  0.00000000000E+00  0.45593999997E+02  0.45594000000E+02  0.51100000000E-03 0. -1.
         11   -1    0    0    0    0 -0.00000000000E+00 -0.00000000000E+00 -0.45593999997E+02  0.45594000000E+02  0.51100000000E-03 0.  1.
    9900012    2    1    2    0    0  0.21519037587E+02  0.32509607823E+02  0.11542203678E+02  0.50528855332E+02  0.29999986266E+02 0.  0.
        -12    1    1    2    0    0 -0.21519037587E+02 -0.32509607823E+02 -0.11542203678E+02  0.40659144668E+02  0.00000000000E+00 0.  1.
         11    1    3    3    0    0  0.12443873993E+02  0.88170431990E+01  0.15966637500E+02  0.22079940309E+02  0.51100000000E-03 0. -1.
        -11    1    3    3    0    0  0.37631827395E+01  0.29440353334E+01  0.31594996105E+01  0.57281171798E+01  0.51100000000E-03 0.  1.
        -12    1    3    3    0    0  0.53119808545E+01  0.20748529290E+02 -0.75839334330E+01  0.22720797843E+02  0.00000000000E+00 0.  1.
</event>
<event>
 7    1  0.5855569E-013  0.5052885E+02  0.7816164E-02  0.1300439E+00
        -11   -1    0    0    0    0  0.00000000000E+00  0.00000000000E+00  0.45593999997E+02  0.45594000000E+02  0.51100000000E-03 0.  1.
         11   -1    0    0    0    0 -0.00000000000E+00 -0.00000000000E+00 -0.45593999997E+02  0.45594000000E+02  0.51100000000E-03 0. -1.
    9900012    2    1    2    0    0 -0.36879335961E+02 -0.75590734366E+00 -0.17102904439E+02  0.50528853956E+02  0.29999982083E+02 0.  0.
        -12    1    1    2    0    0  0.36879335961E+02  0.75590734366E+00  0.17102904439E+02  0.40659146044E+02  0.00000000000E+00 0.  1.
         11    1    3    3    0    0 -0.19795363117E+02 -0.50913671160E+01 -0.65940253227E+01  0.21476954865E+02  0.51100000000E-03 0. -1.
        -11    1    3    3    0    0 -0.13664232681E+02 -0.67084640536E+01 -0.38163962219E+01  0.15693298732E+02  0.51100000000E-03 0.  1.
         12    1    3    3    0    0 -0.34197401630E+01  0.11043923826E+02 -0.66924828943E+01  0.13358600359E+02  0.00000000000E+00 0. -1.
</event>
<event>
 7    1  0.5855569E-013  0.5052893E+02  0.7816164E-02  0.1300439E+00
        -11   -1    0    0    0    0  0.00000000000E+00  0.00000000000E+00  0.45593999997E+02  0.45594000000E+02  0.51100000000E-03 0.  1.
         11   -1    0    0    0    0 -0.00000000000E+00 -0.00000000000E+00 -0.45593999997E+02  0.45594000000E+02  0.51100000000E-03 0. -1.
    9900012    2    1    2    0    0 -0.24580846638E+02 -0.12924739735E+00 -0.32387115059E+02  0.50528930308E+02  0.30000214163E+02 0.  0.
        -12    1    1    2    0    0  0.24580846638E+02  0.12924739735E+00  0.32387115059E+02  0.40659069692E+02  0.00000000000E+00 0.  1.
         11    1    3    3    0    0 -0.14497175272E+00 -0.24459673637E+01  0.60558785079E+00  0.25239869373E+01  0.51100000000E-03 0. -1.
        -11    1    3    3    0    0 -0.29663699356E+01  0.36114214582E+01  0.33668808202E+01  0.57600001964E+01  0.51100000000E-03 0.  1.
         12    1    3    3    0    0 -0.21469504950E+02 -0.12947014918E+01 -0.36359583730E+02  0.42244943174E+02  0.00000000000E+00 0. -1.
</event>
<event>
 7    1  0.5855569E-013  0.5052885E+02  0.7816164E-02  0.1300439E+00
        -11   -1    0    0    0    0  0.00000000000E+00  0.00000000000E+00  0.45593999997E+02  0.45594000000E+02  0.51100000000E-03 0. -1.
         11   -1    0    0    0    0 -0.00000000000E+00 -0.00000000000E+00 -0.45593999997E+02  0.45594000000E+02  0.51100000000E-03 0.  1.
    9900012    2    1    2    0    0 -0.21859651201E+02  0.34218661173E+02 -0.20988724105E+01  0.50528851110E+02  0.29999973433E+02 0.  0.
        -12    1    1    2    0    0  0.21859651201E+02 -0.34218661173E+02  0.20988724105E+01  0.40659148890E+02  0.00000000000E+00 0.  1.
         11    1    3    3    0    0 -0.14895006980E+02  0.14724468379E+02  0.26786214323E+01  0.21115070803E+02  0.51100000000E-03 0. -1.
        -11    1    3    3    0    0 -0.13419750796E+02  0.17365274561E+02 -0.18861125345E+01  0.22027253409E+02  0.51100000000E-03 0.  1.
        -12    1    3    3    0    0  0.64551065753E+01  0.21289182336E+01 -0.28913813083E+01  0.73865268980E+01  0.00000000000E+00 0.  1.
</event>
<event>
 7    1  0.5855569E-013  0.5052886E+02  0.7816164E-02  0.1300439E+00
        -11   -1    0    0    0    0  0.00000000000E+00  0.00000000000E+00  0.45593999997E+02  0.45594000000E+02  0.51100000000E-03 0.  1.
         11   -1    0    0    0    0 -0.00000000000E+00 -0.00000000000E+00 -0.45593999997E+02  0.45594000000E+02  0.51100000000E-03 0. -1.
    9900012    2    1    2    0    0  0.16143797149E+02 -0.24106061352E+02 -0.28485810815E+02  0.50528858370E+02  0.29999995501E+02 0.  0.
        -12    1    1    2    0    0 -0.16143797149E+02  0.24106061352E+02  0.28485810815E+02  0.40659141630E+02  0.00000000000E+00 0.  1.
         11    1    3    3    0    0  0.18420417513E+02 -0.24292325893E+02 -0.27632816662E+02  0.41146098668E+02  0.51100000000E-03 0. -1.
        -11    1    3    3    0    0 -0.26596994681E+01 -0.25335702986E+01 -0.38474500884E+01  0.53193845661E+01  0.51100000000E-03 0.  1.
        -12    1    3    3    0    0  0.38307910363E+00  0.27198348394E+01  0.29944559347E+01  0.40633751362E+01  0.00000000000E+00 0.  1.
</event>
<event>
 7    1  0.5855569E-013  0.5052886E+02  0.7816164E-02  0.1300439E+00
        -11   -1    0    0    0    0  0.00000000000E+00  0.00000000000E+00  0.45593999997E+02  0.45594000000E+02  0.51100000000E-03 0.  1.
         11   -1    0    0    0    0 -0.00000000000E+00 -0.00000000000E+00 -0.45593999997E+02  0.45594000000E+02  0.51100000000E-03 0. -1.
    9900012    2    1    2    0    0  0.40451414658E+02 -0.26278183714E+01 -0.31532522142E+01  0.50528863552E+02  0.30000011252E+02 0.  0.
        -12    1    1    2    0    0 -0.40451414658E+02  0.26278183714E+01  0.31532522142E+01  0.40659136448E+02  0.00000000000E+00 0.  1.
         11    1    3    3    0    0  0.97985657634E+01 -0.10091290090E+02 -0.53685872945E+01  0.15055489248E+02  0.51100000000E-03 0. -1.
        -11    1    3    3    0    0  0.21049541298E+02 -0.23249903343E+01 -0.16055382789E+01  0.21238326731E+02  0.51100000000E-03 0.  1.
        -12    1    3    3    0    0  0.96033075964E+01  0.97884620533E+01  0.38208733592E+01  0.14235047572E+02  0.00000000000E+00 0.  1.
</event>
<event>
 7    1  0.5855569E-013  0.5052886E+02  0.7816164E-02  0.1300439E+00
        -11   -1    0    0    0    0  0.00000000000E+00  0.00000000000E+00  0.45593999997E+02  0.45594000000E+02  0.51100000000E-03 0.  1.
         11   -1    0    0    0    0 -0.00000000000E+00 -0.00000000000E+00 -0.45593999997E+02  0.45594000000E+02  0.51100000000E-03 0. -1.
    9900012    2    1    2    0    0  0.24682735614E+02  0.24449400085E+02 -0.21122386685E+02  0.50528858086E+02  0.29999994638E+02 0.  0.
        -12    1    1    2    0    0 -0.24682735614E+02 -0.24449400085E+02  0.21122386685E+02  0.40659141914E+02  0.00000000000E+00 0.  1.
         11    1    3    3    0    0  0.44815923796E+01  0.15127009312E+01 -0.49438703247E+01  0.68421333232E+01  0.51100000000E-03 0. -1.
        -11    1    3    3    0    0  0.18147204831E+02  0.17519638534E+02 -0.23415010573E+02  0.34416878097E+02  0.51100000000E-03 0.  1.
        -12    1    3    3    0    0  0.20539384036E+01  0.54170606190E+01  0.72364942126E+01  0.92698466657E+01  0.00000000000E+00 0.  1.
</event>
<event>
 7    1  0.5855569E-013  0.5052887E+02  0.7816164E-02  0.1300439E+00
        -11   -1    0    0    0    0  0.00000000000E+00  0.00000000000E+00  0.45593999997E+02  0.45594000000E+02  0.51100000000E-03 0. -1.
         11   -1    0    0    0    0 -0.00000000000E+00 -0.00000000000E+00 -0.45593999997E+02  0.45594000000E+02  0.51100000000E-03 0.  1.
    9900012    2    1    2    0    0 -0.40094097282E+02  0.62604717027E+01 -0.25367234149E+01  0.50528866851E+02  0.30000021279E+02 0.  0.
        -12    1    1    2    0    0  0.40094097282E+02 -0.62604717027E+01  0.25367234149E+01  0.40659133149E+02  0.00000000000E+00 0.  1.
         11    1    3    3    0    0 -0.10722207565E+02 -0.87819200634E+00 -0.79640983061E+00  0.10787549543E+02  0.51100000000E-03 0. -1.
        -11    1    3    3    0    0 -0.11921759332E+02 -0.21925765360E+01 -0.12335909690E+02  0.17294808630E+02  0.51100000000E-03 0.  1.
        -12    1    3    3    0    0 -0.17450130385E+02  0.93312402450E+01  0.10595596105E+02  0.22446508677E+02  0.00000000000E+00 0.  1.
</event>
<event>
 7    1  0.5855569E-013  0.5052887E+02  0.7816164E-02  0.1300439E+00
        -11   -1    0    0    0    0  0.00000000000E+00  0.00000000000E+00  0.45593999997E+02  0.45594000000E+02  0.51100000000E-03 0. -1.
         11   -1    0    0    0    0 -0.00000000000E+00 -0.00000000000E+00 -0.45593999997E+02  0.45594000000E+02  0.51100000000E-03 0.  1.
    9900012    2    1    2    0    0  0.21804203345E+02  0.32875965867E+02 -0.98444312017E+01  0.50528865222E+02  0.30000016330E+02 0.  0.
        -12    1    1    2    0    0 -0.21804203345E+02 -0.32875965867E+02  0.98444312017E+01  0.40659134778E+02  0.00000000000E+00 0.  1.
         11    1    3    3    0    0  0.23399078828E+01  0.14452681021E+00 -0.60717173816E+01  0.65085950190E+01  0.51100000000E-03 0. -1.
        -11    1    3    3    0    0  0.23331997765E+01 -0.95899914271E+00  0.46565659476E+01  0.52959519671E+01  0.51100000000E-03 0.  1.
         12    1    3    3    0    0  0.17131095685E+02  0.33690438199E+02 -0.84292797678E+01  0.38724318236E+02  0.00000000000E+00 0. -1.
</event>
<event>
 7    1  0.5855569E-013  0.5052887E+02  0.7816164E-02  0.1300439E+00
        -11   -1    0    0    0    0  0.00000000000E+00  0.00000000000E+00  0.45593999997E+02  0.45594000000E+02  0.51100000000E-03 0.  1.
         11   -1    0    0    0    0 -0.00000000000E+00 -0.00000000000E+00 -0.45593999997E+02  0.45594000000E+02  0.51100000000E-03 0. -1.
    9900012    2    1    2    0    0  0.31347062942E+02 -0.54559027687E+01 -0.25313231896E+02  0.50528868933E+02  0.30000027608E+02 0.  0.
        -12    1    1    2    0    0 -0.31347062942E+02  0.54559027687E+01  0.25313231896E+02  0.40659131067E+02  0.00000000000E+00 0.  1.
         11    1    3    3    0    0  0.80775868606E+01  0.54563140908E+01 -0.41678153731E+01  0.10601389446E+02  0.51100000000E-03 0. -1.
        -11    1    3    3    0    0  0.15261860461E+02  0.17138153082E+01 -0.17778683742E+01  0.15460348115E+02  0.51100000000E-03 0.  1.
         12    1    3    3    0    0  0.80076156212E+01 -0.12626032168E+02 -0.19367548149E+02  0.24467131371E+02  0.00000000000E+00 0. -1.
</event>
<event>
 7    1  0.5855569E-013  0.5052888E+02  0.7816164E-02  0.1300439E+00
        -11   -1    0    0    0    0  0.00000000000E+00  0.00000000000E+00  0.45593999997E+02  0.45594000000E+02  0.51100000000E-03 0. -1.
         11   -1    0    0    0    0 -0.00000000000E+00 -0.00000000000E+00 -0.45593999997E+02  0.45594000000E+02  0.51100000000E-03 0.  1.
    9900012    2    1    2    0    0  0.30566886704E+02  0.25408432020E+02  0.85580939057E+01  0.50528881075E+02  0.30000064514E+02 0.  0.
        -12    1    1    2    0    0 -0.30566886704E+02 -0.25408432020E+02 -0.85580939057E+01  0.40659118925E+02  0.00000000000E+00 0.  1.
         11    1    3    3    0    0  0.15662459250E+02  0.26437255139E+02  0.57382317340E+01  0.31259692781E+02  0.51100000000E-03 0. -1.
        -11    1    3    3    0    0  0.52412514585E+01  0.49709391243E+01 -0.95137578928E+00  0.72860187196E+01  0.51100000000E-03 0.  1.
         12    1    3    3    0    0  0.96631759950E+01 -0.59997622431E+01  0.37712379609E+01  0.11983169574E+02  0.00000000000E+00 0. -1.
</event>
<event>
 7    1  0.5855569E-013  0.5052885E+02  0.7816164E-02  0.1300439E+00
        -11   -1    0    0    0    0  0.00000000000E+00  0.00000000000E+00  0.45593999997E+02  0.45594000000E+02  0.51100000000E-03 0. -1.
         11   -1    0    0    0    0 -0.00000000000E+00 -0.00000000000E+00 -0.45593999997E+02  0.45594000000E+02  0.51100000000E-03 0.  1.
    9900012    2    1    2    0    0 -0.10700038514E+01 -0.37305770567E+02  0.16133853392E+02  0.50528847880E+02  0.29999963617E+02 0.  0.
        -12    1    1    2    0    0  0.10700038514E+01  0.37305770567E+02 -0.16133853392E+02  0.40659152120E+02  0.00000000000E+00 0.  1.
         11    1    3    3    0    0 -0.27025434549E+01 -0.27095108128E+02 -0.13285980657E+01  0.27261947815E+02  0.51100000000E-03 0. -1.
        -11    1    3    3    0    0  0.39752744312E+01 -0.20836243061E+01  0.76982997770E+00  0.45537825495E+01  0.51100000000E-03 0.  1.
        -12    1    3    3    0    0 -0.23427348276E+01 -0.81270381327E+01  0.16692621480E+02  0.18713117516E+02  0.00000000000E+00 0.  1.
</event>
<event>
 7    1  0.5855569E-013  0.5052887E+02  0.7816164E-02  0.1300439E+00
        -11   -1    0    0    0    0  0.00000000000E+00  0.00000000000E+00  0.45593999997E+02  0.45594000000E+02  0.51100000000E-03 0.  1.
         11   -1    0    0    0    0 -0.00000000000E+00 -0.00000000000E+00 -0.45593999997E+02  0.45594000000E+02  0.51100000000E-03 0. -1.
    9900012    2    1    2    0    0  0.14207281667E+02  0.29503865003E+02 -0.24100618378E+02  0.50528871767E+02  0.30000036222E+02 0.  0.
        -12    1    1    2    0    0 -0.14207281667E+02 -0.29503865003E+02  0.24100618378E+02  0.40659128233E+02  0.00000000000E+00 0.  1.
         11    1    3    3    0    0  0.45866910655E+01 -0.67987323796E+00 -0.26101876916E+01  0.53210001500E+01  0.51100000000E-03 0. -1.
        -11    1    3    3    0    0 -0.77081808685E+01  0.86283468012E+01 -0.30448884419E+01  0.11963936088E+02  0.51100000000E-03 0.  1.
         12    1    3    3    0    0  0.17328771470E+02  0.21555391440E+02 -0.18445542244E+02  0.33243935529E+02  0.00000000000E+00 0. -1.
</event>
<event>
 7    1  0.5855569E-013  0.5052881E+02  0.7816164E-02  0.1300439E+00
        -11   -1    0    0    0    0  0.00000000000E+00  0.00000000000E+00  0.45593999997E+02  0.45594000000E+02  0.51100000000E-03 0. -1.
         11   -1    0    0    0    0 -0.00000000000E+00 -0.00000000000E+00 -0.45593999997E+02  0.45594000000E+02  0.51100000000E-03 0.  1.
    9900012    2    1    2    0    0 -0.38175310462E+02 -0.99961014694E+01  0.97925277478E+01  0.50528807028E+02  0.29999839442E+02 0.  0.
        -12    1    1    2    0    0  0.38175310462E+02  0.99961014694E+01 -0.97925277478E+01  0.40659192972E+02  0.00000000000E+00 0.  1.
         11    1    3    3    0    0 -0.15726540803E+02 -0.94677409874E+01  0.13018397686E+02  0.22504241458E+02  0.51100000000E-03 0. -1.
        -11    1    3    3    0    0 -0.38320368639E+01 -0.63624126267E+01  0.22510230841E+01  0.77609217329E+01  0.51100000000E-03 0.  1.
         12    1    3    3    0    0 -0.18616732795E+02  0.58340521447E+01 -0.54768930220E+01  0.20263643837E+02  0.00000000000E+00 0. -1.
</event>
<event>
 7    1  0.5855569E-013  0.5052885E+02  0.7816164E-02  0.1300439E+00
        -11   -1    0    0    0    0  0.00000000000E+00  0.00000000000E+00  0.45593999997E+02  0.45594000000E+02  0.51100000000E-03 0. -1.
         11   -1    0    0    0    0 -0.00000000000E+00 -0.00000000000E+00 -0.45593999997E+02  0.45594000000E+02  0.51100000000E-03 0.  1.
    9900012    2    1    2    0    0 -0.21235557672E+01 -0.40395106348E+02  0.41100516735E+01  0.50528848131E+02  0.29999964379E+02 0.  0.
        -12    1    1    2    0    0  0.21235557672E+01  0.40395106348E+02 -0.41100516735E+01  0.40659151869E+02  0.00000000000E+00 0.  1.
         11    1    3    3    0    0  0.61410782792E+00 -0.14798953286E+02 -0.96897797861E+00  0.14843350881E+02  0.51100000000E-03 0. -1.
        -11    1    3    3    0    0 -0.10939277637E+02 -0.23478915574E+02  0.18520354844E+00  0.25902925942E+02  0.51100000000E-03 0.  1.
        -12    1    3    3    0    0  0.82016140416E+01 -0.21172374882E+01  0.48938261037E+01  0.97825713083E+01  0.00000000000E+00 0.  1.
</event>
<event>
 7    1  0.5855569E-013  0.5052887E+02  0.7816164E-02  0.1300439E+00
        -11   -1    0    0    0    0  0.00000000000E+00  0.00000000000E+00  0.45593999997E+02  0.45594000000E+02  0.51100000000E-03 0.  1.
         11   -1    0    0    0    0 -0.00000000000E+00 -0.00000000000E+00 -0.45593999997E+02  0.45594000000E+02  0.51100000000E-03 0. -1.
    9900012    2    1    2    0    0  0.31305011032E+02  0.43785561722E+01 -0.25573209954E+02  0.50528873875E+02  0.30000042631E+02 0.  0.
        -12    1    1    2    0    0 -0.31305011032E+02 -0.43785561722E+01  0.25573209954E+02  0.40659126125E+02  0.00000000000E+00 0.  1.
         11    1    3    3    0    0  0.16295239387E+02  0.76380739034E+01 -0.19787295922E+02  0.26747188260E+02  0.51100000000E-03 0. -1.
        -11    1    3    3    0    0  0.11138665491E+02  0.58625410194E+01 -0.58306564835E+01  0.13872123537E+02  0.51100000000E-03 0.  1.
        -12    1    3    3    0    0  0.38711061539E+01 -0.91220587506E+01  0.44742451803E-01  0.99095620787E+01  0.00000000000E+00 0.  1.
</event>
<event>
 7    1  0.5855569E-013  0.5052886E+02  0.7816164E-02  0.1300439E+00
        -11   -1    0    0    0    0  0.00000000000E+00  0.00000000000E+00  0.45593999997E+02  0.45594000000E+02  0.51100000000E-03 0. -1.
         11   -1    0    0    0    0 -0.00000000000E+00 -0.00000000000E+00 -0.45593999997E+02  0.45594000000E+02  0.51100000000E-03 0.  1.
    9900012    2    1    2    0    0  0.28211060578E+02  0.26403270663E+02  0.12655793392E+02  0.50528858998E+02  0.29999997410E+02 0.  0.
        -12    1    1    2    0    0 -0.28211060578E+02 -0.26403270663E+02 -0.12655793392E+02  0.40659141002E+02  0.00000000000E+00 0.  1.
         11    1    3    3    0    0  0.90968548989E+01 -0.21611316992E-01  0.11213969802E+02  0.14439749135E+02  0.51100000000E-03 0. -1.
        -11    1    3    3    0    0  0.99782367687E+00 -0.17930176312E+01  0.15242363068E+01  0.25561417989E+01  0.51100000000E-03 0.  1.
         12    1    3    3    0    0  0.18116382002E+02  0.28217899611E+02 -0.82412716833E-01  0.33532968064E+02  0.00000000000E+00 0. -1.
</event>
<event>
 7    1  0.5855569E-013  0.5052886E+02  0.7816164E-02  0.1300439E+00
        -11   -1    0    0    0    0  0.00000000000E+00  0.00000000000E+00  0.45593999997E+02  0.45594000000E+02  0.51100000000E-03 0. -1.
         11   -1    0    0    0    0 -0.00000000000E+00 -0.00000000000E+00 -0.45593999997E+02  0.45594000000E+02  0.51100000000E-03 0.  1.
    9900012    2    1    2    0    0 -0.33095361635E+02  0.23407627352E+02 -0.31536244121E+01  0.50528864164E+02  0.30000013113E+02 0.  0.
        -12    1    1    2    0    0  0.33095361635E+02 -0.23407627352E+02  0.31536244121E+01  0.40659135836E+02  0.00000000000E+00 0.  1.
         11    1    3    3    0    0 -0.46217076255E+01  0.32389078003E+01 -0.50474527507E+01  0.75714915734E+01  0.51100000000E-03 0. -1.
        -11    1    3    3    0    0 -0.77042599441E+01  0.13595176081E+02 -0.95865139459E+01  0.18332639850E+02  0.51100000000E-03 0.  1.
         12    1    3    3    0    0 -0.20769394065E+02  0.65735434708E+01  0.11480342285E+02  0.24624732741E+02  0.00000000000E+00 0. -1.
</event>
<event>
 7    1  0.5855569E-013  0.5052886E+02  0.7816164E-02  0.1300439E+00
        -11   -1    0    0    0    0  0.00000000000E+00  0.00000000000E+00  0.45593999997E+02  0.45594000000E+02  0.51100000000E-03 0.  1.
         11   -1    0    0    0    0 -0.00000000000E+00 -0.00000000000E+00 -0.45593999997E+02  0.45594000000E+02  0.51100000000E-03 0. -1.
    9900012    2    1    2    0    0 -0.22234742574E+02  0.34037927180E+02 -0.44902660358E+00  0.50528857253E+02  0.29999992106E+02 0.  0.
        -12    1    1    2    0    0  0.22234742574E+02 -0.34037927180E+02  0.44902660358E+00  0.40659142747E+02  0.00000000000E+00 0.  1.
         11    1    3    3    0    0 -0.49933825546E+01 -0.44061954942E+01 -0.23498028783E+01  0.70618695753E+01  0.51100000000E-03 0.  1.
        -11    1    3    3    0    0 -0.36146408045E+01  0.30070073821E+01 -0.23616927419E+01  0.52616836098E+01  0.51100000000E-03 0. -1.
         12    1    3    3    0    0 -0.13626719215E+02  0.35437115292E+02  0.42624690167E+01  0.38205304068E+02  0.00000000000E+00 0. -1.
</event>
<event>
 7    1  0.5855569E-013  0.5052887E+02  0.7816164E-02  0.1300439E+00
        -11   -1    0    0    0    0  0.00000000000E+00  0.00000000000E+00  0.45593999997E+02  0.45594000000E+02  0.51100000000E-03 0.  1.
         11   -1    0    0    0    0 -0.00000000000E+00 -0.00000000000E+00 -0.45593999997E+02  0.45594000000E+02  0.51100000000E-03 0. -1.
    9900012    2    1    2    0    0  0.26961882848E+02  0.30360996276E+02  0.21052309586E+01  0.50528865491E+02  0.30000017148E+02 0.  0.
        -12    1    1    2    0    0 -0.26961882848E+02 -0.30360996276E+02 -0.21052309586E+01  0.40659134509E+02  0.00000000000E+00 0.  1.
         11    1    3    3    0    0  0.59948798405E+01  0.15898318306E+02  0.11557464402E+02  0.20549211492E+02  0.51100000000E-03 0. -1.
        -11    1    3    3    0    0  0.32204154594E+01  0.90628932556E-01  0.26165304099E+01  0.41503639577E+01  0.51100000000E-03 0.  1.
         12    1    3    3    0    0  0.17746587548E+02  0.14372049037E+02 -0.12068763853E+02  0.25829290042E+02  0.00000000000E+00 0. -1.
</event>
<event>
 7    1  0.5855569E-013  0.5052887E+02  0.7816164E-02  0.1300439E+00
        -11   -1    0    0    0    0  0.00000000000E+00  0.00000000000E+00  0.45593999997E+02  0.45594000000E+02  0.51100000000E-03 0. -1.
         11   -1    0    0    0    0 -0.00000000000E+00 -0.00000000000E+00 -0.45593999997E+02  0.45594000000E+02  0.51100000000E-03 0.  1.
    9900012    2    1    2    0    0 -0.74469177733E+01  0.21455517305E+02  0.33724904531E+02  0.50528868273E+02  0.30000025604E+02 0.  0.
        -12    1    1    2    0    0  0.74469177733E+01 -0.21455517305E+02 -0.33724904531E+02  0.40659131727E+02  0.00000000000E+00 0.  1.
         11    1    3    3    0    0  0.82304067152E+00  0.96676729061E-01  0.13316234766E+02  0.13341995763E+02  0.51100000000E-03 0. -1.
        -11    1    3    3    0    0  0.25769337432E+01  0.12262620946E+02  0.19269007293E+02  0.22984932070E+02  0.51100000000E-03 0.  1.
        -12    1    3    3    0    0 -0.10846892188E+02  0.90962196304E+01  0.11396624719E+01  0.14201940440E+02  0.00000000000E+00 0.  1.
</event>
<event>
 7    1  0.5855569E-013  0.5052886E+02  0.7816164E-02  0.1300439E+00
        -11   -1    0    0    0    0  0.00000000000E+00  0.00000000000E+00  0.45593999997E+02  0.45594000000E+02  0.51100000000E-03 0.  1.
         11   -1    0    0    0    0 -0.00000000000E+00 -0.00000000000E+00 -0.45593999997E+02  0.45594000000E+02  0.51100000000E-03 0. -1.
    9900012    2    1    2    0    0 -0.34965341003E+02 -0.74344499314E+01 -0.19373163632E+02  0.50528860974E+02  0.30000003416E+02 0.  0.
        -12    1    1    2    0    0  0.34965341003E+02  0.74344499314E+01  0.19373163632E+02  0.40659139026E+02  0.00000000000E+00 0.  1.
         11    1    3    3    0    0 -0.83237167975E+01 -0.96930722930E+01 -0.45161668006E+01  0.13551224101E+02  0.51100000000E-03 0. -1.
        -11    1    3    3    0    0 -0.15704385884E+02 -0.53835111731E+01  0.53178104690E+00  0.16610018660E+02  0.51100000000E-03 0.  1.
        -12    1    3    3    0    0 -0.10937238321E+02  0.76421335347E+01 -0.15388777878E+02  0.20367618213E+02  0.00000000000E+00 0.  1.
</event>
<event>
 7    1  0.5855569E-013  0.5052885E+02  0.7816164E-02  0.1300439E+00
        -11   -1    0    0    0    0  0.00000000000E+00  0.00000000000E+00  0.45593999997E+02  0.45594000000E+02  0.51100000000E-03 0.  1.
         11   -1    0    0    0    0 -0.00000000000E+00 -0.00000000000E+00 -0.45593999997E+02  0.45594000000E+02  0.51100000000E-03 0. -1.
    9900012    2    1    2    0    0  0.57611750694E+01 -0.24589406555E+01 -0.40173732907E+02  0.50528851669E+02  0.29999975132E+02 0.  0.
        -12    1    1    2    0    0 -0.57611750694E+01  0.24589406555E+01  0.40173732907E+02  0.40659148331E+02  0.00000000000E+00 0.  1.
         11    1    3    3    0    0 -0.26848367415E+01 -0.16874324987E+01 -0.25256663277E+02  0.25454956627E+02  0.51100000000E-03 0. -1.
        -11    1    3    3    0    0 -0.37349172279E+01  0.15746496349E+01 -0.11520105240E+02  0.12212368860E+02  0.51100000000E-03 0.  1.
        -12    1    3    3    0    0  0.12180929039E+02 -0.23461577917E+01 -0.33969643901E+01  0.12861526181E+02  0.00000000000E+00 0.  1.
</event>
<event>
 7    1  0.5855569E-013  0.5052887E+02  0.7816164E-02  0.1300439E+00
        -11   -1    0    0    0    0  0.00000000000E+00  0.00000000000E+00  0.45593999997E+02  0.45594000000E+02  0.51100000000E-03 0.  1.
         11   -1    0    0    0    0 -0.00000000000E+00 -0.00000000000E+00 -0.45593999997E+02  0.45594000000E+02  0.51100000000E-03 0. -1.
    9900012    2    1    2    0    0 -0.94090401792E+01 -0.29117482919E+02 -0.26773256379E+02  0.50528866884E+02  0.30000021380E+02 0.  0.
        -12    1    1    2    0    0  0.94090401792E+01  0.29117482919E+02  0.26773256379E+02  0.40659133116E+02  0.00000000000E+00 0.  1.
         11    1    3    3    0    0  0.77838448979E+00 -0.18104513640E+02 -0.16716191069E+02  0.24653809861E+02  0.51100000000E-03 0. -1.
        -11    1    3    3    0    0 -0.40332434909E+01 -0.14866983466E+02 -0.28913677174E+01  0.15673361413E+02  0.51100000000E-03 0.  1.
        -12    1    3    3    0    0 -0.61541811781E+01  0.38540141871E+01 -0.71656975924E+01  0.10201695610E+02  0.00000000000E+00 0.  1.
</event>
<event>
 7    1  0.5855569E-013  0.5052886E+02  0.7816164E-02  0.1300439E+00
        -11   -1    0    0    0    0  0.00000000000E+00  0.00000000000E+00  0.45593999997E+02  0.45594000000E+02  0.51100000000E-03 0.  1.
         11   -1    0    0    0    0 -0.00000000000E+00 -0.00000000000E+00 -0.45593999997E+02  0.45594000000E+02  0.51100000000E-03 0. -1.
    9900012    2    1    2    0    0 -0.79631343260E+00  0.29673519840E+02 -0.27785140847E+02  0.50528856543E+02  0.29999989948E+02 0.  0.
        -12    1    1    2    0    0  0.79631343260E+00 -0.29673519840E+02  0.27785140847E+02  0.40659143457E+02  0.00000000000E+00 0.  1.
         11    1    3    3    0    0  0.66775648706E+01 -0.17795491495E+01 -0.86166797170E+01  0.11045534726E+02  0.51100000000E-03 0.  1.
        -11    1    3    3    0    0  0.48905312763E+00 -0.68811712864E+00  0.48854533162E+00  0.97537425973E+00  0.51100000000E-03 0. -1.
         12    1    3    3    0    0 -0.79629314308E+01  0.32141186118E+02 -0.19657006462E+02  0.38507947557E+02  0.00000000000E+00 0. -1.
</event>
<event>
 7    1  0.5855569E-013  0.5052886E+02  0.7816164E-02  0.1300439E+00
        -11   -1    0    0    0    0  0.00000000000E+00  0.00000000000E+00  0.45593999997E+02  0.45594000000E+02  0.51100000000E-03 0.  1.
         11   -1    0    0    0    0 -0.00000000000E+00 -0.00000000000E+00 -0.45593999997E+02  0.45594000000E+02  0.51100000000E-03 0. -1.
    9900012    2    1    2    0    0 -0.38449920189E+02  0.13210496621E+02  0.50202734812E+00  0.50528860622E+02  0.30000002347E+02 0.  0.
        -12    1    1    2    0    0  0.38449920189E+02 -0.13210496621E+02 -0.50202734812E+00  0.40659139378E+02  0.00000000000E+00 0.  1.
         11    1    3    3    0    0 -0.34521291792E+01  0.13406884134E+01  0.10520498431E+02  0.11153274353E+02  0.51100000000E-03 0.  1.
        -11    1    3    3    0    0 -0.20749597822E+02  0.60284514784E+01 -0.12242137963E+01  0.21642244262E+02  0.51100000000E-03 0. -1.
        -12    1    3    3    0    0 -0.14248193188E+02  0.58413567291E+01 -0.87942572863E+01  0.17733342008E+02  0.00000000000E+00 0.  1.
</event>
<event>
 7    1  0.5855569E-013  0.5052887E+02  0.7816164E-02  0.1300439E+00
        -11   -1    0    0    0    0  0.00000000000E+00  0.00000000000E+00  0.45593999997E+02  0.45594000000E+02  0.51100000000E-03 0.  1.
         11   -1    0    0    0    0 -0.00000000000E+00 -0.00000000000E+00 -0.45593999997E+02  0.45594000000E+02  0.51100000000E-03 0. -1.
    9900012    2    1    2    0    0 -0.17095010025E+02  0.28519300711E+02 -0.23400321341E+02  0.50528869172E+02  0.30000028335E+02 0.  0.
        -12    1    1    2    0    0  0.17095010025E+02 -0.28519300711E+02  0.23400321341E+02  0.40659130828E+02  0.00000000000E+00 0.  1.
         11    1    3    3    0    0  0.15076779881E+01  0.96963325739E+01 -0.89796576637E+01  0.13301361221E+02  0.51100000000E-03 0. -1.
        -11    1    3    3    0    0  0.44440852519E+01  0.71039815737E+01 -0.24125629941E+01  0.87199144713E+01  0.51100000000E-03 0.  1.
         12    1    3    3    0    0 -0.23046773265E+02  0.11718986563E+02 -0.12008100684E+02  0.28507593480E+02  0.00000000000E+00 0. -1.
</event>
<event>
 7    1  0.5855569E-013  0.5052885E+02  0.7816164E-02  0.1300439E+00
        -11   -1    0    0    0    0  0.00000000000E+00  0.00000000000E+00  0.45593999997E+02  0.45594000000E+02  0.51100000000E-03 0. -1.
         11   -1    0    0    0    0 -0.00000000000E+00 -0.00000000000E+00 -0.45593999997E+02  0.45594000000E+02  0.51100000000E-03 0.  1.
    9900012    2    1    2    0    0  0.10665163104E+02  0.15130480231E+02 -0.36200677239E+02  0.50528853814E+02  0.29999981652E+02 0.  0.
        -12    1    1    2    0    0 -0.10665163104E+02 -0.15130480231E+02  0.36200677239E+02  0.40659146186E+02  0.00000000000E+00 0.  1.
         11    1    3    3    0    0  0.12755939298E+02  0.10413102527E+02 -0.16269867918E+02  0.23148548420E+02  0.51100000000E-03 0. -1.
        -11    1    3    3    0    0  0.72966240566E+01  0.14187712743E+01 -0.13851638380E+02  0.15720099256E+02  0.51100000000E-03 0.  1.
         12    1    3    3    0    0 -0.93874002506E+01  0.32986064299E+01 -0.60791709408E+01  0.11660206138E+02  0.00000000000E+00 0. -1.
</event>
<event>
 7    1  0.5855569E-013  0.5052887E+02  0.7816164E-02  0.1300439E+00
        -11   -1    0    0    0    0  0.00000000000E+00  0.00000000000E+00  0.45593999997E+02  0.45594000000E+02  0.51100000000E-03 0. -1.
         11   -1    0    0    0    0 -0.00000000000E+00 -0.00000000000E+00 -0.45593999997E+02  0.45594000000E+02  0.51100000000E-03 0.  1.
    9900012    2    1    2    0    0 -0.44642972484E+01  0.34053315841E+02  0.21762501621E+02  0.50528871302E+02  0.30000034809E+02 0.  0.
        -12    1    1    2    0    0  0.44642972484E+01 -0.34053315841E+02 -0.21762501621E+02  0.40659128698E+02  0.00000000000E+00 0.  1.
         11    1    3    3    0    0  0.52576566252E+01  0.48314525140E+01  0.57448760564E+01  0.91645778816E+01  0.51100000000E-03 0. -1.
        -11    1    3    3    0    0  0.54767077270E+00 -0.32849551923E+01 -0.68808434254E+00  0.34006373247E+01  0.51100000000E-03 0.  1.
         12    1    3    3    0    0 -0.10269624646E+02  0.32506818519E+02  0.16705709907E+02  0.37963656095E+02  0.00000000000E+00 0. -1.
</event>
<event>
 7    1  0.5855569E-013  0.5052887E+02  0.7816164E-02  0.1300439E+00
        -11   -1    0    0    0    0  0.00000000000E+00  0.00000000000E+00  0.45593999997E+02  0.45594000000E+02  0.51100000000E-03 0.  1.
         11   -1    0    0    0    0 -0.00000000000E+00 -0.00000000000E+00 -0.45593999997E+02  0.45594000000E+02  0.51100000000E-03 0. -1.
    9900012    2    1    2    0    0  0.22713329961E+02 -0.26929988085E+02 -0.20298894601E+02  0.50528871404E+02  0.30000035120E+02 0.  0.
        -12    1    1    2    0    0 -0.22713329961E+02  0.26929988085E+02  0.20298894601E+02  0.40659128596E+02  0.00000000000E+00 0.  1.
         11    1    3    3    0    0  0.16499415078E+02 -0.12892201396E+02 -0.17773680009E+02  0.27465310048E+02  0.51100000000E-03 0. -1.
        -11    1    3    3    0    0  0.11758076765E+02 -0.89868249072E+01 -0.41902828157E+01  0.15380957755E+02  0.51100000000E-03 0.  1.
        -12    1    3    3    0    0 -0.55441618822E+01 -0.50509617819E+01  0.16650682230E+01  0.76826036007E+01  0.00000000000E+00 0.  1.
</event>
<event>
 7    1  0.5855569E-013  0.5052886E+02  0.7816164E-02  0.1300439E+00
        -11   -1    0    0    0    0  0.00000000000E+00  0.00000000000E+00  0.45593999997E+02  0.45594000000E+02  0.51100000000E-03 0.  1.
         11   -1    0    0    0    0 -0.00000000000E+00 -0.00000000000E+00 -0.45593999997E+02  0.45594000000E+02  0.51100000000E-03 0. -1.
    9900012    2    1    2    0    0  0.36083759130E+02  0.98898236687E+00  0.18712300822E+02  0.50528856365E+02  0.29999989406E+02 0.  0.
        -12    1    1    2    0    0 -0.36083759130E+02 -0.98898236687E+00 -0.18712300822E+02  0.40659143635E+02  0.00000000000E+00 0.  1.
         11    1    3    3    0    0  0.17055756474E+02 -0.39819762950E+01  0.25511060481E+01  0.17699240279E+02  0.51100000000E-03 0. -1.
        -11    1    3    3    0    0  0.64830476572E+01 -0.26695164485E+01  0.16719976015E+02  0.18130466712E+02  0.51100000000E-03 0.  1.
         12    1    3    3    0    0  0.12544954999E+02  0.76404751104E+01 -0.55878124078E+00  0.14699149374E+02  0.00000000000E+00 0. -1.
</event>
<event>
 7    1  0.5855569E-013  0.5052886E+02  0.7816164E-02  0.1300439E+00
        -11   -1    0    0    0    0  0.00000000000E+00  0.00000000000E+00  0.45593999997E+02  0.45594000000E+02  0.51100000000E-03 0.  1.
         11   -1    0    0    0    0 -0.00000000000E+00 -0.00000000000E+00 -0.45593999997E+02  0.45594000000E+02  0.51100000000E-03 0. -1.
    9900012    2    1    2    0    0  0.18027178734E+02 -0.22310182717E+02 -0.28817388931E+02  0.50528864117E+02  0.30000012969E+02 0.  0.
        -12    1    1    2    0    0 -0.18027178734E+02  0.22310182717E+02  0.28817388931E+02  0.40659135883E+02  0.00000000000E+00 0.  1.
         11    1    3    3    0    0  0.27231130260E+01 -0.18216527529E+01 -0.21815309552E+01  0.39360946221E+01  0.51100000000E-03 0. -1.
        -11    1    3    3    0    0  0.10563830874E+00 -0.20891703906E+02 -0.22776083944E+02  0.30906705610E+02  0.51100000000E-03 0.  1.
        -12    1    3    3    0    0  0.15198427399E+02  0.40317394176E+00 -0.38597740320E+01  0.15686063885E+02  0.00000000000E+00 0.  1.
</event>
<event>
 7    1  0.5855569E-013  0.5052886E+02  0.7816164E-02  0.1300439E+00
        -11   -1    0    0    0    0  0.00000000000E+00  0.00000000000E+00  0.45593999997E+02  0.45594000000E+02  0.51100000000E-03 0.  1.
         11   -1    0    0    0    0 -0.00000000000E+00 -0.00000000000E+00 -0.45593999997E+02  0.45594000000E+02  0.51100000000E-03 0. -1.
    9900012    2    1    2    0    0  0.14139979057E+02 -0.14771016729E+01 -0.38092580412E+02  0.50528861796E+02  0.30000005914E+02 0.  0.
        -12    1    1    2    0    0 -0.14139979057E+02  0.14771016729E+01  0.38092580412E+02  0.40659138204E+02  0.00000000000E+00 0.  1.
         11    1    3    3    0    0  0.88487787657E+01 -0.52535499273E+01  0.43475109984E+00  0.10299984527E+02  0.51100000000E-03 0. -1.
        -11    1    3    3    0    0 -0.16162113250E+01 -0.13776160099E+01 -0.15440439336E+02  0.15585799052E+02  0.51100000000E-03 0.  1.
        -12    1    3    3    0    0  0.69074116159E+01  0.51540642643E+01 -0.23086892176E+02  0.24643078217E+02  0.00000000000E+00 0.  1.
</event>
<event>
 7    1  0.5855569E-013  0.5052885E+02  0.7816164E-02  0.1300439E+00
        -11   -1    0    0    0    0  0.00000000000E+00  0.00000000000E+00  0.45593999997E+02  0.45594000000E+02  0.51100000000E-03 0.  1.
         11   -1    0    0    0    0 -0.00000000000E+00 -0.00000000000E+00 -0.45593999997E+02  0.45594000000E+02  0.51100000000E-03 0. -1.
    9900012    2    1    2    0    0  0.25455582454E+01  0.22778036426E+02 -0.33583443223E+02  0.50528850120E+02  0.29999970426E+02 0.  0.
        -12    1    1    2    0    0 -0.25455582454E+01 -0.22778036426E+02  0.33583443223E+02  0.40659149880E+02  0.00000000000E+00 0.  1.
         11    1    3    3    0    0  0.62399730467E+01  0.61541409011E+01 -0.21897820414E+02  0.23586548136E+02  0.51100000000E-03 0. -1.
        -11    1    3    3    0    0  0.24378996203E+01  0.12624274117E+02 -0.14242219874E+02  0.19187404169E+02  0.51100000000E-03 0.  1.
        -12    1    3    3    0    0 -0.61323144216E+01  0.39996214075E+01  0.25565970648E+01  0.77548978150E+01  0.00000000000E+00 0.  1.
</event>
<event>
 7    1  0.5855569E-013  0.5052886E+02  0.7816164E-02  0.1300439E+00
        -11   -1    0    0    0    0  0.00000000000E+00  0.00000000000E+00  0.45593999997E+02  0.45594000000E+02  0.51100000000E-03 0.  1.
         11   -1    0    0    0    0 -0.00000000000E+00 -0.00000000000E+00 -0.45593999997E+02  0.45594000000E+02  0.51100000000E-03 0. -1.
    9900012    2    1    2    0    0 -0.26753082060E+02  0.29616424721E+02 -0.77656460442E+01  0.50528864846E+02  0.30000015185E+02 0.  0.
        -12    1    1    2    0    0  0.26753082060E+02 -0.29616424721E+02  0.77656460442E+01  0.40659135154E+02  0.00000000000E+00 0.  1.
         11    1    3    3    0    0  0.15992780257E+01  0.37779018547E+01 -0.73718512509E+00  0.41681740363E+01  0.51100000000E-03 0. -1.
        -11    1    3    3    0    0 -0.17253622406E+02  0.82967358214E+01  0.79840274033E+01  0.20742902528E+02  0.51100000000E-03 0.  1.
         12    1    3    3    0    0 -0.11098737680E+02  0.17541787045E+02 -0.15012488322E+02  0.25617788282E+02  0.00000000000E+00 0. -1.
</event>
<event>
 7    1  0.5855569E-013  0.5052884E+02  0.7816164E-02  0.1300439E+00
        -11   -1    0    0    0    0  0.00000000000E+00  0.00000000000E+00  0.45593999997E+02  0.45594000000E+02  0.51100000000E-03 0.  1.
         11   -1    0    0    0    0 -0.00000000000E+00 -0.00000000000E+00 -0.45593999997E+02  0.45594000000E+02  0.51100000000E-03 0. -1.
    9900012    2    1    2    0    0 -0.19350949933E+02 -0.29151766794E+02  0.20709480629E+02  0.50528839182E+02  0.29999937177E+02 0.  0.
        -12    1    1    2    0    0  0.19350949933E+02  0.29151766794E+02 -0.20709480629E+02  0.40659160818E+02  0.00000000000E+00 0.  1.
         11    1    3    3    0    0 -0.24180672891E+01 -0.17554780735E+02  0.13668316755E+02  0.22379460656E+02  0.51100000000E-03 0. -1.
        -11    1    3    3    0    0 -0.30787326960E+01 -0.11725703428E+02  0.75559583955E+01  0.14285069948E+02  0.51100000000E-03 0.  1.
        -12    1    3    3    0    0 -0.13854149948E+02  0.12871736906E+00 -0.51479452143E+00  0.13864308578E+02  0.00000000000E+00 0.  1.
</event>
<event>
 7    1  0.5855569E-013  0.5052885E+02  0.7816164E-02  0.1300439E+00
        -11   -1    0    0    0    0  0.00000000000E+00  0.00000000000E+00  0.45593999997E+02  0.45594000000E+02  0.51100000000E-03 0.  1.
         11   -1    0    0    0    0 -0.00000000000E+00 -0.00000000000E+00 -0.45593999997E+02  0.45594000000E+02  0.51100000000E-03 0. -1.
    9900012    2    1    2    0    0  0.32363897633E+02 -0.19536019546E+02 -0.14969589300E+02  0.50528849326E+02  0.29999968011E+02 0.  0.
        -12    1    1    2    0    0 -0.32363897633E+02  0.19536019546E+02  0.14969589300E+02  0.40659150674E+02  0.00000000000E+00 0.  1.
         11    1    3    3    0    0  0.14236416290E+02 -0.14921844138E+02 -0.12032659301E+02  0.23877224951E+02  0.51100000000E-03 0.  1.
        -11    1    3    3    0    0  0.57224415707E+01 -0.43312274692E+01 -0.10049786376E+02  0.12349254042E+02  0.51100000000E-03 0. -1.
         12    1    3    3    0    0  0.12405039773E+02 -0.28294793867E+00  0.71128563767E+01  0.14302370333E+02  0.00000000000E+00 0. -1.
</event>
<event>
 7    1  0.5855569E-013  0.5052885E+02  0.7816164E-02  0.1300439E+00
        -11   -1    0    0    0    0  0.00000000000E+00  0.00000000000E+00  0.45593999997E+02  0.45594000000E+02  0.51100000000E-03 0.  1.
         11   -1    0    0    0    0 -0.00000000000E+00 -0.00000000000E+00 -0.45593999997E+02  0.45594000000E+02  0.51100000000E-03 0. -1.
    9900012    2    1    2    0    0 -0.12934184425E+02  0.45618055541E+00 -0.38544325706E+02  0.50528852548E+02  0.29999977804E+02 0.  0.
        -12    1    1    2    0    0  0.12934184425E+02 -0.45618055541E+00  0.38544325706E+02  0.40659147452E+02  0.00000000000E+00 0.  1.
         11    1    3    3    0    0 -0.76388901649E+01  0.47504927317E+00 -0.89101538962E+01  0.11746027306E+02  0.51100000000E-03 0. -1.
        -11    1    3    3    0    0 -0.56554748552E+01  0.10910540126E+02 -0.83614249192E+01  0.14863973514E+02  0.51100000000E-03 0.  1.
         12    1    3    3    0    0  0.36018059495E+00 -0.10929408843E+02 -0.21272746890E+02  0.23918851728E+02  0.00000000000E+00 0. -1.
</event>
<event>
 7    1  0.5855569E-013  0.5052886E+02  0.7816164E-02  0.1300439E+00
        -11   -1    0    0    0    0  0.00000000000E+00  0.00000000000E+00  0.45593999997E+02  0.45594000000E+02  0.51100000000E-03 0.  1.
         11   -1    0    0    0    0 -0.00000000000E+00 -0.00000000000E+00 -0.45593999997E+02  0.45594000000E+02  0.51100000000E-03 0. -1.
    9900012    2    1    2    0    0  0.46203123463E+01  0.34741714926E+02 -0.20611436405E+02  0.50528863845E+02  0.30000012144E+02 0.  0.
        -12    1    1    2    0    0 -0.46203123463E+01 -0.34741714926E+02  0.20611436405E+02  0.40659136155E+02  0.00000000000E+00 0.  1.
         11    1    3    3    0    0  0.26744957339E+01  0.32862888597E+02 -0.17292411136E+02  0.37231033527E+02  0.51100000000E-03 0. -1.
        -11    1    3    3    0    0  0.27589831265E+01  0.66667055468E+01  0.33103050583E+00  0.72226402512E+01  0.51100000000E-03 0.  1.
        -12    1    3    3    0    0 -0.81316651422E+00 -0.47878792180E+01 -0.36500557754E+01  0.60751900669E+01  0.00000000000E+00 0.  1.
</event>
<event>
 7    1  0.5855569E-013  0.5052887E+02  0.7816164E-02  0.1300439E+00
        -11   -1    0    0    0    0  0.00000000000E+00  0.00000000000E+00  0.45593999997E+02  0.45594000000E+02  0.51100000000E-03 0.  1.
         11   -1    0    0    0    0 -0.00000000000E+00 -0.00000000000E+00 -0.45593999997E+02  0.45594000000E+02  0.51100000000E-03 0. -1.
    9900012    2    1    2    0    0  0.23298669501E+02  0.29836718329E+02 -0.14835995876E+02  0.50528873905E+02  0.30000042723E+02 0.  0.
        -12    1    1    2    0    0 -0.23298669501E+02 -0.29836718329E+02  0.14835995876E+02  0.40659126095E+02  0.00000000000E+00 0.  1.
         11    1    3    3    0    0  0.87873138616E+01  0.25284437953E+02 -0.28165289619E+01  0.26915655726E+02  0.51100000000E-03 0. -1.
        -11    1    3    3    0    0  0.75041661019E+01  0.12284124290E+01  0.17563971363E+01  0.78042576292E+01  0.51100000000E-03 0.  1.
        -12    1    3    3    0    0  0.70071895371E+01  0.33238679469E+01 -0.13775864051E+02  0.15808960550E+02  0.00000000000E+00 0.  1.
</event>
<event>
 7    1  0.5855569E-013  0.5052887E+02  0.7816164E-02  0.1300439E+00
        -11   -1    0    0    0    0  0.00000000000E+00  0.00000000000E+00  0.45593999997E+02  0.45594000000E+02  0.51100000000E-03 0.  1.
         11   -1    0    0    0    0 -0.00000000000E+00 -0.00000000000E+00 -0.45593999997E+02  0.45594000000E+02  0.51100000000E-03 0. -1.
    9900012    2    1    2    0    0  0.58836962844E+01  0.41705758173E+01 -0.40014416525E+02  0.50528866777E+02  0.30000021055E+02 0.  0.
        -12    1    1    2    0    0 -0.58836962844E+01 -0.41705758173E+01  0.40014416525E+02  0.40659133223E+02  0.00000000000E+00 0.  1.
         11    1    3    3    0    0 -0.54638935381E+01  0.43307417267E+01 -0.23720550892E+02  0.24723955820E+02  0.51100000000E-03 0. -1.
        -11    1    3    3    0    0 -0.42817114198E+01  0.71580767711E+00 -0.39581843319E+01  0.58747473801E+01  0.51100000000E-03 0.  1.
        -12    1    3    3    0    0  0.15629301242E+02 -0.87597358651E+00 -0.12335681301E+02  0.19930163577E+02  0.00000000000E+00 0.  1.
</event>
<event>
 7    1  0.5855569E-013  0.5052886E+02  0.7816164E-02  0.1300439E+00
        -11   -1    0    0    0    0  0.00000000000E+00  0.00000000000E+00  0.45593999997E+02  0.45594000000E+02  0.51100000000E-03 0. -1.
         11   -1    0    0    0    0 -0.00000000000E+00 -0.00000000000E+00 -0.45593999997E+02  0.45594000000E+02  0.51100000000E-03 0.  1.
    9900012    2    1    2    0    0  0.36297862612E+02 -0.95048444688E+01  0.15661705933E+02  0.50528856732E+02  0.29999990522E+02 0.  0.
        -12    1    1    2    0    0 -0.36297862612E+02  0.95048444688E+01 -0.15661705933E+02  0.40659143268E+02  0.00000000000E+00 0.  1.
         11    1    3    3    0    0  0.59137660241E+01 -0.22796539185E+01 -0.21482974701E+01  0.66921321608E+01  0.51100000000E-03 0. -1.
        -11    1    3    3    0    0  0.18435940868E+01 -0.10972516019E+02  0.33267658443E+01  0.11613023645E+02  0.51100000000E-03 0.  1.
         12    1    3    3    0    0  0.28540502501E+02  0.37473254685E+01  0.14483237559E+02  0.32223700926E+02  0.00000000000E+00 0. -1.
</event>
<event>
 7    1  0.5855569E-013  0.5052885E+02  0.7816164E-02  0.1300439E+00
        -11   -1    0    0    0    0  0.00000000000E+00  0.00000000000E+00  0.45593999997E+02  0.45594000000E+02  0.51100000000E-03 0. -1.
         11   -1    0    0    0    0 -0.00000000000E+00 -0.00000000000E+00 -0.45593999997E+02  0.45594000000E+02  0.51100000000E-03 0.  1.
    9900012    2    1    2    0    0  0.65064131518E+01  0.31755140529E+02  0.24544731694E+02  0.50528853230E+02  0.29999979878E+02 0.  0.
        -12    1    1    2    0    0 -0.65064131518E+01 -0.31755140529E+02 -0.24544731694E+02  0.40659146770E+02  0.00000000000E+00 0.  1.
         11    1    3    3    0    0 -0.34526868045E+00  0.39013398924E+01  0.99019304121E+01  0.10648374973E+02  0.51100000000E-03 0. -1.
        -11    1    3    3    0    0 -0.45552947652E+01 -0.21105612545E+01  0.23387526362E+01  0.55384964893E+01  0.51100000000E-03 0.  1.
        -12    1    3    3    0    0  0.11406976597E+02  0.29964361891E+02  0.12304048646E+02  0.34341981768E+02  0.00000000000E+00 0.  1.
</event>
<event>
 7    1  0.5855569E-013  0.5052886E+02  0.7816164E-02  0.1300439E+00
        -11   -1    0    0    0    0  0.00000000000E+00  0.00000000000E+00  0.45593999997E+02  0.45594000000E+02  0.51100000000E-03 0. -1.
         11   -1    0    0    0    0 -0.00000000000E+00 -0.00000000000E+00 -0.45593999997E+02  0.45594000000E+02  0.51100000000E-03 0.  1.
    9900012    2    1    2    0    0 -0.40202160566E+02  0.31757180642E+01 -0.51833086475E+01  0.50528860955E+02  0.30000003357E+02 0.  0.
        -12    1    1    2    0    0  0.40202160566E+02 -0.31757180642E+01  0.51833086475E+01  0.40659139045E+02  0.00000000000E+00 0.  1.
         11    1    3    3    0    0 -0.21109958446E+02  0.95776115572E+01  0.19128490212E+01  0.23259836207E+02  0.51100000000E-03 0. -1.
        -11    1    3    3    0    0 -0.14218526257E+02  0.18379206148E+01 -0.97460371619E+01  0.17335791926E+02  0.51100000000E-03 0.  1.
         12    1    3    3    0    0 -0.48736758628E+01 -0.82398141077E+01  0.26498794932E+01  0.99332328209E+01  0.00000000000E+00 0. -1.
</event>
<event>
 7    1  0.5855569E-013  0.5052886E+02  0.7816164E-02  0.1300439E+00
        -11   -1    0    0    0    0  0.00000000000E+00  0.00000000000E+00  0.45593999997E+02  0.45594000000E+02  0.51100000000E-03 0. -1.
         11   -1    0    0    0    0 -0.00000000000E+00 -0.00000000000E+00 -0.45593999997E+02  0.45594000000E+02  0.51100000000E-03 0.  1.
    9900012    2    1    2    0    0  0.29198323534E+02  0.16998211609E+01  0.28244187490E+02  0.50528860608E+02  0.30000002303E+02 0.  0.
        -12    1    1    2    0    0 -0.29198323534E+02 -0.16998211609E+01 -0.28244187490E+02  0.40659139392E+02  0.00000000000E+00 0.  1.
         11    1    3    3    0    0  0.10716962663E+01 -0.92139802236E+01  0.45998884621E+01  0.10353981774E+02  0.51100000000E-03 0. -1.
        -11    1    3    3    0    0  0.43792207921E+01 -0.26453703567E+01  0.42272886015E+01  0.66366805145E+01  0.51100000000E-03 0.  1.
         12    1    3    3    0    0  0.23747406475E+02  0.13559171741E+02  0.19417010426E+02  0.33538198319E+02  0.00000000000E+00 0. -1.
</event>
<event>
 7    1  0.5855569E-013  0.5052883E+02  0.7816164E-02  0.1300439E+00
        -11   -1    0    0    0    0  0.00000000000E+00  0.00000000000E+00  0.45593999997E+02  0.45594000000E+02  0.51100000000E-03 0.  1.
         11   -1    0    0    0    0 -0.00000000000E+00 -0.00000000000E+00 -0.45593999997E+02  0.45594000000E+02  0.51100000000E-03 0. -1.
    9900012    2    1    2    0    0  0.21226557073E+02  0.15770587497E+02 -0.30885102701E+02  0.50528834687E+02  0.29999923513E+02 0.  0.
        -12    1    1    2    0    0 -0.21226557073E+02 -0.15770587497E+02  0.30885102701E+02  0.40659165313E+02  0.00000000000E+00 0.  1.
         11    1    3    3    0    0  0.10751170828E+02  0.57582434991E+01 -0.10310596659E+02  0.15970392797E+02  0.51100000000E-03 0. -1.
        -11    1    3    3    0    0  0.10073063993E+02  0.16497046538E+02 -0.90820650802E+01  0.21356569693E+02  0.51100000000E-03 0.  1.
         12    1    3    3    0    0  0.40232225143E+00 -0.64847025402E+01 -0.11492440962E+02  0.13201872196E+02  0.00000000000E+00 0. -1.
</event>
<event>
 7    1  0.5855569E-013  0.5052885E+02  0.7816164E-02  0.1300439E+00
        -11   -1    0    0    0    0  0.00000000000E+00  0.00000000000E+00  0.45593999997E+02  0.45594000000E+02  0.51100000000E-03 0.  1.
         11   -1    0    0    0    0 -0.00000000000E+00 -0.00000000000E+00 -0.45593999997E+02  0.45594000000E+02  0.51100000000E-03 0. -1.
    9900012    2    1    2    0    0 -0.15955889565E+01  0.21764677762E+02 -0.34306254710E+02  0.50528853250E+02  0.29999979938E+02 0.  0.
        -12    1    1    2    0    0  0.15955889565E+01 -0.21764677762E+02  0.34306254710E+02  0.40659146750E+02  0.00000000000E+00 0.  1.
         11    1    3    3    0    0  0.72035756014E+01  0.97358338345E+01 -0.12274510837E+02  0.17243595288E+02  0.51100000000E-03 0. -1.
        -11    1    3    3    0    0 -0.11003991349E+01 -0.25862465658E+01  0.24656069425E+01  0.37388189861E+01  0.51100000000E-03 0.  1.
        -12    1    3    3    0    0 -0.76987654229E+01  0.14615090494E+02 -0.24497350816E+02  0.29546438976E+02  0.00000000000E+00 0.  1.
</event>
<event>
 7    1  0.5855569E-013  0.5052887E+02  0.7816164E-02  0.1300439E+00
        -11   -1    0    0    0    0  0.00000000000E+00  0.00000000000E+00  0.45593999997E+02  0.45594000000E+02  0.51100000000E-03 0.  1.
         11   -1    0    0    0    0 -0.00000000000E+00 -0.00000000000E+00 -0.45593999997E+02  0.45594000000E+02  0.51100000000E-03 0. -1.
    9900012    2    1    2    0    0 -0.44585258274E+01  0.76891304158E+01 -0.39675734637E+02  0.50528866978E+02  0.30000021667E+02 0.  0.
        -12    1    1    2    0    0  0.44585258274E+01 -0.76891304158E+01  0.39675734637E+02  0.40659133022E+02  0.00000000000E+00 0.  1.
         11    1    3    3    0    0 -0.32985059430E+01  0.78550545329E+01 -0.15086982077E+02  0.17326253248E+02  0.51100000000E-03 0. -1.
        -11    1    3    3    0    0  0.18453954821E+01  0.26522773527E+01 -0.27794891737E+02  0.27982066875E+02  0.51100000000E-03 0.  1.
        -12    1    3    3    0    0 -0.30054153665E+01 -0.28182014698E+01  0.32061391769E+01  0.52205468556E+01  0.00000000000E+00 0.  1.
</event>
<event>
 7    1  0.5855569E-013  0.5052886E+02  0.7816164E-02  0.1300439E+00
        -11   -1    0    0    0    0  0.00000000000E+00  0.00000000000E+00  0.45593999997E+02  0.45594000000E+02  0.51100000000E-03 0. -1.
         11   -1    0    0    0    0 -0.00000000000E+00 -0.00000000000E+00 -0.45593999997E+02  0.45594000000E+02  0.51100000000E-03 0.  1.
    9900012    2    1    2    0    0 -0.52415197607E+01  0.40125443575E+02 -0.39548374364E+01  0.50528862151E+02  0.30000006994E+02 0.  0.
        -12    1    1    2    0    0  0.52415197607E+01 -0.40125443575E+02  0.39548374364E+01  0.40659137849E+02  0.00000000000E+00 0.  1.
         11    1    3    3    0    0 -0.24816642009E+01  0.17866689866E+02  0.49393818059E+01  0.18702266089E+02  0.51100000000E-03 0. -1.
        -11    1    3    3    0    0 -0.11477415543E+01  0.17797689984E+02  0.38349834311E+01  0.18242318318E+02  0.51100000000E-03 0.  1.
        -12    1    3    3    0    0 -0.16121140055E+01  0.44610637247E+01 -0.12729202673E+02  0.13584277744E+02  0.00000000000E+00 0.  1.
</event>
<event>
 7    1  0.5855569E-013  0.5052891E+02  0.7816164E-02  0.1300439E+00
        -11   -1    0    0    0    0  0.00000000000E+00  0.00000000000E+00  0.45593999997E+02  0.45594000000E+02  0.51100000000E-03 0. -1.
         11   -1    0    0    0    0 -0.00000000000E+00 -0.00000000000E+00 -0.45593999997E+02  0.45594000000E+02  0.51100000000E-03 0.  1.
    9900012    2    1    2    0    0 -0.30170627848E+02 -0.25247008872E+02  0.10270509265E+02  0.50528909967E+02  0.30000152336E+02 0.  0.
        -12    1    1    2    0    0  0.30170627848E+02  0.25247008872E+02 -0.10270509265E+02  0.40659090033E+02  0.00000000000E+00 0.  1.
         11    1    3    3    0    0 -0.19399287436E+01 -0.12681864253E+02  0.41353152649E+01  0.13479385634E+02  0.51100000000E-03 0. -1.
        -11    1    3    3    0    0  0.62261033270E+00 -0.63676759646E+01 -0.14893629132E+01  0.65691051875E+01  0.51100000000E-03 0.  1.
        -12    1    3    3    0    0 -0.28853309437E+02 -0.61974686544E+01  0.76245569134E+01  0.30480419146E+02  0.00000000000E+00 0.  1.
</event>
<event>
 7    1  0.5855569E-013  0.5052885E+02  0.7816164E-02  0.1300439E+00
        -11   -1    0    0    0    0  0.00000000000E+00  0.00000000000E+00  0.45593999997E+02  0.45594000000E+02  0.51100000000E-03 0.  1.
         11   -1    0    0    0    0 -0.00000000000E+00 -0.00000000000E+00 -0.45593999997E+02  0.45594000000E+02  0.51100000000E-03 0. -1.
    9900012    2    1    2    0    0  0.31306347573E+02 -0.20974533894E+02 -0.15269172184E+02  0.50528854785E+02  0.29999984605E+02 0.  0.
        -12    1    1    2    0    0 -0.31306347573E+02  0.20974533894E+02  0.15269172184E+02  0.40659145215E+02  0.00000000000E+00 0.  1.
         11    1    3    3    0    0  0.25278555045E+02 -0.11029717247E+02 -0.11503451914E+02  0.29882928470E+02  0.51100000000E-03 0. -1.
        -11    1    3    3    0    0  0.10569333789E+02 -0.10693252418E+02 -0.57653330004E+00  0.15046223943E+02  0.51100000000E-03 0.  1.
        -12    1    3    3    0    0 -0.45415412619E+01  0.74843577085E+00 -0.31891869693E+01  0.55997023727E+01  0.00000000000E+00 0.  1.
</event>
<event>
 7    1  0.5855569E-013  0.5052885E+02  0.7816164E-02  0.1300439E+00
        -11   -1    0    0    0    0  0.00000000000E+00  0.00000000000E+00  0.45593999997E+02  0.45594000000E+02  0.51100000000E-03 0. -1.
         11   -1    0    0    0    0 -0.00000000000E+00 -0.00000000000E+00 -0.45593999997E+02  0.45594000000E+02  0.51100000000E-03 0.  1.
    9900012    2    1    2    0    0 -0.17877176973E+02 -0.33121841678E+02 -0.15379090272E+02  0.50528852563E+02  0.29999977851E+02 0.  0.
        -12    1    1    2    0    0  0.17877176973E+02  0.33121841678E+02  0.15379090272E+02  0.40659147437E+02  0.00000000000E+00 0.  1.
         11    1    3    3    0    0 -0.16818486829E+01 -0.27786638391E+01  0.42260848632E+01  0.53300451456E+01  0.51100000000E-03 0. -1.
        -11    1    3    3    0    0  0.28469340405E+01  0.10993291196E+01 -0.45441512644E+01  0.54738349371E+01  0.51100000000E-03 0.  1.
         12    1    3    3    0    0 -0.19042262330E+02 -0.31442506959E+02 -0.15061023871E+02  0.39724972480E+02  0.00000000000E+00 0. -1.
</event>
<event>
 7    1  0.5855569E-013  0.5052885E+02  0.7816164E-02  0.1300439E+00
        -11   -1    0    0    0    0  0.00000000000E+00  0.00000000000E+00  0.45593999997E+02  0.45594000000E+02  0.51100000000E-03 0.  1.
         11   -1    0    0    0    0 -0.00000000000E+00 -0.00000000000E+00 -0.45593999997E+02  0.45594000000E+02  0.51100000000E-03 0. -1.
    9900012    2    1    2    0    0  0.16608042942E+02  0.20364318929E+02 -0.31026343430E+02  0.50528848970E+02  0.29999966930E+02 0.  0.
        -12    1    1    2    0    0 -0.16608042942E+02 -0.20364318929E+02  0.31026343430E+02  0.40659151030E+02  0.00000000000E+00 0.  1.
         11    1    3    3    0    0  0.18108263885E+02  0.11088492715E+02 -0.11031123741E+02  0.23928008335E+02  0.51100000000E-03 0. -1.
        -11    1    3    3    0    0  0.21350159089E+00  0.13228045574E+02 -0.15393454006E+02  0.20297418533E+02  0.51100000000E-03 0.  1.
        -12    1    3    3    0    0 -0.17137225340E+01 -0.39522193596E+01 -0.46017656839E+01  0.63034221023E+01  0.00000000000E+00 0.  1.
</event>
<event>
 7    1  0.5855569E-013  0.5052886E+02  0.7816164E-02  0.1300439E+00
        -11   -1    0    0    0    0  0.00000000000E+00  0.00000000000E+00  0.45593999997E+02  0.45594000000E+02  0.51100000000E-03 0.  1.
         11   -1    0    0    0    0 -0.00000000000E+00 -0.00000000000E+00 -0.45593999997E+02  0.45594000000E+02  0.51100000000E-03 0. -1.
    9900012    2    1    2    0    0  0.16233830005E+02 -0.34237443038E+02 -0.14745374863E+02  0.50528858073E+02  0.29999994597E+02 0.  0.
        -12    1    1    2    0    0 -0.16233830005E+02  0.34237443038E+02  0.14745374863E+02  0.40659141927E+02  0.00000000000E+00 0.  1.
         11    1    3    3    0    0  0.34948486286E+01 -0.21880317068E+02 -0.11465703675E+02  0.24948438888E+02  0.51100000000E-03 0. -1.
        -11    1    3    3    0    0 -0.18997882025E+01 -0.10425161191E+02 -0.16614759933E+01  0.10726308024E+02  0.51100000000E-03 0.  1.
         12    1    3    3    0    0  0.14638769579E+02 -0.19319647787E+01 -0.16181951951E+01  0.14854111161E+02  0.00000000000E+00 0. -1.
</event>
<event>
 7    1  0.5855569E-013  0.5052891E+02  0.7816164E-02  0.1300439E+00
        -11   -1    0    0    0    0  0.00000000000E+00  0.00000000000E+00  0.45593999997E+02  0.45594000000E+02  0.51100000000E-03 0.  1.
         11   -1    0    0    0    0 -0.00000000000E+00 -0.00000000000E+00 -0.45593999997E+02  0.45594000000E+02  0.51100000000E-03 0. -1.
    9900012    2    1    2    0    0  0.56109807962E+01  0.13531225587E+02 -0.37928680605E+02  0.50528905276E+02  0.30000138076E+02 0.  0.
        -12    1    1    2    0    0 -0.56109807962E+01 -0.13531225587E+02  0.37928680605E+02  0.40659094724E+02  0.00000000000E+00 0.  1.
         11    1    3    3    0    0 -0.29171601003E+01  0.10675829298E+02 -0.12477621261E+02  0.16678554699E+02  0.51100000000E-03 0. -1.
        -11    1    3    3    0    0  0.37526072280E+01  0.31194524440E+01 -0.28005944136E+02  0.28427907974E+02  0.51100000000E-03 0.  1.
        -12    1    3    3    0    0  0.47755336686E+01 -0.26405615530E+00  0.25548847928E+01  0.54224426025E+01  0.00000000000E+00 0.  1.
</event>
<event>
 7    1  0.5855569E-013  0.5052886E+02  0.7816164E-02  0.1300439E+00
        -11   -1    0    0    0    0  0.00000000000E+00  0.00000000000E+00  0.45593999997E+02  0.45594000000E+02  0.51100000000E-03 0. -1.
         11   -1    0    0    0    0 -0.00000000000E+00 -0.00000000000E+00 -0.45593999997E+02  0.45594000000E+02  0.51100000000E-03 0.  1.
    9900012    2    1    2    0    0  0.78229617859E+01 -0.11131184988E+02  0.38315322763E+02  0.50528856271E+02  0.29999989122E+02 0.  0.
        -12    1    1    2    0    0 -0.78229617859E+01  0.11131184988E+02 -0.38315322763E+02  0.40659143729E+02  0.00000000000E+00 0.  1.
         11    1    3    3    0    0  0.31831158867E+01 -0.25849788113E+01 -0.20584385457E+01  0.45881926410E+01  0.51100000000E-03 0. -1.
        -11    1    3    3    0    0  0.10502614155E+02  0.59501594582E+00  0.14809133267E+02  0.18165059219E+02  0.51100000000E-03 0.  1.
         12    1    3    3    0    0 -0.58627682554E+01 -0.91412221226E+01  0.25564628042E+02  0.27775604411E+02  0.00000000000E+00 0. -1.
</event>
<event>
 7    1  0.5855569E-013  0.5052886E+02  0.7816164E-02  0.1300439E+00
        -11   -1    0    0    0    0  0.00000000000E+00  0.00000000000E+00  0.45593999997E+02  0.45594000000E+02  0.51100000000E-03 0. -1.
         11   -1    0    0    0    0 -0.00000000000E+00 -0.00000000000E+00 -0.45593999997E+02  0.45594000000E+02  0.51100000000E-03 0.  1.
    9900012    2    1    2    0    0 -0.36254752542E+02 -0.14576950970E+02 -0.11237026385E+02  0.50528863961E+02  0.30000012496E+02 0.  0.
        -12    1    1    2    0    0  0.36254752542E+02  0.14576950970E+02  0.11237026385E+02  0.40659136039E+02  0.00000000000E+00 0.  1.
         11    1    3    3    0    0 -0.11009630848E+02 -0.95229581556E+01 -0.26213869080E+01  0.14790888176E+02  0.51100000000E-03 0. -1.
        -11    1    3    3    0    0  0.41787692896E+01 -0.29508780291E+01 -0.20884067122E+01  0.55255078296E+01  0.51100000000E-03 0.  1.
        -12    1    3    3    0    0 -0.29423890983E+02 -0.21031147851E+01 -0.65272327647E+01  0.30212467956E+02  0.00000000000E+00 0.  1.
</event>
<event>
 7    1  0.5855569E-013  0.5052887E+02  0.7816164E-02  0.1300439E+00
        -11   -1    0    0    0    0  0.00000000000E+00  0.00000000000E+00  0.45593999997E+02  0.45594000000E+02  0.51100000000E-03 0. -1.
         11   -1    0    0    0    0 -0.00000000000E+00 -0.00000000000E+00 -0.45593999997E+02  0.45594000000E+02  0.51100000000E-03 0.  1.
    9900012    2    1    2    0    0  0.99013648093E+01  0.81137384824E+01  0.38591382879E+02  0.50528872983E+02  0.30000039919E+02 0.  0.
        -12    1    1    2    0    0 -0.99013648093E+01 -0.81137384824E+01 -0.38591382879E+02  0.40659127017E+02  0.00000000000E+00 0.  1.
         11    1    3    3    0    0  0.46502905901E+01  0.13133750322E+00  0.34046725768E+02  0.34363090488E+02  0.51100000000E-03 0. -1.
        -11    1    3    3    0    0  0.18348224605E+01 -0.32723915532E+01  0.11412079545E+01  0.39214124745E+01  0.51100000000E-03 0.  1.
        -12    1    3    3    0    0  0.34162517587E+01  0.11254792532E+02  0.34034491565E+01  0.12244370020E+02  0.00000000000E+00 0.  1.
</event>
<event>
 7    1  0.5855569E-013  0.5052887E+02  0.7816164E-02  0.1300439E+00
        -11   -1    0    0    0    0  0.00000000000E+00  0.00000000000E+00  0.45593999997E+02  0.45594000000E+02  0.51100000000E-03 0.  1.
         11   -1    0    0    0    0 -0.00000000000E+00 -0.00000000000E+00 -0.45593999997E+02  0.45594000000E+02  0.51100000000E-03 0. -1.
    9900012    2    1    2    0    0 -0.20540106645E+02  0.25397575351E+02 -0.24212236344E+02  0.50528865683E+02  0.30000017729E+02 0.  0.
        -12    1    1    2    0    0  0.20540106645E+02 -0.25397575351E+02  0.24212236344E+02  0.40659134317E+02  0.00000000000E+00 0.  1.
         11    1    3    3    0    0 -0.97498723119E+01  0.13480563832E+02 -0.10441291115E+01  0.16669607589E+02  0.51100000000E-03 0. -1.
        -11    1    3    3    0    0 -0.74626286932E+01  0.13281249542E+02 -0.60897257935E+01  0.16406315154E+02  0.51100000000E-03 0.  1.
         12    1    3    3    0    0 -0.33276056397E+01 -0.13642380237E+01 -0.17078381439E+02  0.17452942940E+02  0.00000000000E+00 0. -1.
</event>
<event>
 7    1  0.5855569E-013  0.5052887E+02  0.7816164E-02  0.1300439E+00
        -11   -1    0    0    0    0  0.00000000000E+00  0.00000000000E+00  0.45593999997E+02  0.45594000000E+02  0.51100000000E-03 0. -1.
         11   -1    0    0    0    0 -0.00000000000E+00 -0.00000000000E+00 -0.45593999997E+02  0.45594000000E+02  0.51100000000E-03 0.  1.
    9900012    2    1    2    0    0  0.10053818792E+02 -0.38750482133E+01  0.39205478554E+02  0.50528870403E+02  0.30000032077E+02 0.  0.
        -12    1    1    2    0    0 -0.10053818792E+02  0.38750482133E+01 -0.39205478554E+02  0.40659129597E+02  0.00000000000E+00 0.  1.
         11    1    3    3    0    0  0.12214358412E+02  0.51669634506E+00  0.38838322214E+02  0.40716984161E+02  0.51100000000E-03 0. -1.
        -11    1    3    3    0    0  0.30449262216E+01 -0.95455283596E+00  0.14078207333E+01  0.34877939001E+01  0.51100000000E-03 0.  1.
        -12    1    3    3    0    0 -0.52054658414E+01 -0.34371917224E+01 -0.10406643939E+01  0.63240923414E+01  0.00000000000E+00 0.  1.
</event>
<event>
 7    1  0.5855569E-013  0.5052886E+02  0.7816164E-02  0.1300439E+00
        -11   -1    0    0    0    0  0.00000000000E+00  0.00000000000E+00  0.45593999997E+02  0.45594000000E+02  0.51100000000E-03 0.  1.
         11   -1    0    0    0    0 -0.00000000000E+00 -0.00000000000E+00 -0.45593999997E+02  0.45594000000E+02  0.51100000000E-03 0. -1.
    9900012    2    1    2    0    0 -0.15912879054E+02  0.37236050277E+02 -0.36636261289E+01  0.50528864293E+02  0.30000013506E+02 0.  0.
        -12    1    1    2    0    0  0.15912879054E+02 -0.37236050277E+02  0.36636261289E+01  0.40659135707E+02  0.00000000000E+00 0.  1.
         11    1    3    3    0    0 -0.11765341066E+02  0.41318105073E+01 -0.72347503171E+01  0.14416543306E+02  0.51100000000E-03 0. -1.
        -11    1    3    3    0    0 -0.27153014981E+01  0.15970060604E+02 -0.49283142231E+01  0.16932335317E+02  0.51100000000E-03 0.  1.
        -12    1    3    3    0    0 -0.14322364898E+01  0.17134179165E+02  0.84994384114E+01  0.19179985671E+02  0.00000000000E+00 0.  1.
</event>
<event>
 7    1  0.5855569E-013  0.5052891E+02  0.7816164E-02  0.1300439E+00
        -11   -1    0    0    0    0  0.00000000000E+00  0.00000000000E+00  0.45593999997E+02  0.45594000000E+02  0.51100000000E-03 0.  1.
         11   -1    0    0    0    0 -0.00000000000E+00 -0.00000000000E+00 -0.45593999997E+02  0.45594000000E+02  0.51100000000E-03 0. -1.
    9900012    2    1    2    0    0  0.21717238183E+02  0.30308917059E+02  0.16213966501E+02  0.50528910029E+02  0.30000152524E+02 0.  0.
        -12    1    1    2    0    0 -0.21717238183E+02 -0.30308917059E+02 -0.16213966501E+02  0.40659089971E+02  0.00000000000E+00 0.  1.
         11    1    3    3    0    0  0.12144543869E+02  0.10324503643E+02  0.36903478342E+01  0.16361662161E+02  0.51100000000E-03 0. -1.
        -11    1    3    3    0    0  0.17037451404E+02  0.15775202253E+02  0.92210424472E+01  0.24983181954E+02  0.51100000000E-03 0.  1.
        -12    1    3    3    0    0 -0.74647570902E+01  0.42092111619E+01  0.33025762192E+01  0.91840659136E+01  0.00000000000E+00 0.  1.
</event>
<event>
 7    1  0.5855569E-013  0.5052884E+02  0.7816164E-02  0.1300439E+00
        -11   -1    0    0    0    0  0.00000000000E+00  0.00000000000E+00  0.45593999997E+02  0.45594000000E+02  0.51100000000E-03 0.  1.
         11   -1    0    0    0    0 -0.00000000000E+00 -0.00000000000E+00 -0.45593999997E+02  0.45594000000E+02  0.51100000000E-03 0. -1.
    9900012    2    1    2    0    0 -0.13484832268E+02  0.32533974521E+02 -0.20319128928E+02  0.50528841132E+02  0.29999943106E+02 0.  0.
        -12    1    1    2    0    0  0.13484832268E+02 -0.32533974521E+02  0.20319128928E+02  0.40659158868E+02  0.00000000000E+00 0.  1.
         11    1    3    3    0    0 -0.13957786870E+02  0.47880838709E+01 -0.15238622453E+02  0.21212288325E+02  0.51100000000E-03 0. -1.
        -11    1    3    3    0    0  0.34629155748E+01  0.67644088790E+01 -0.23110331795E+01  0.79429142245E+01  0.51100000000E-03 0.  1.
        -12    1    3    3    0    0 -0.29899609726E+01  0.20981481771E+02 -0.27694732956E+01  0.21373638583E+02  0.00000000000E+00 0.  1.
</event>
<event>
 7    1  0.5855569E-013  0.5052887E+02  0.7816164E-02  0.1300439E+00
        -11   -1    0    0    0    0  0.00000000000E+00  0.00000000000E+00  0.45593999997E+02  0.45594000000E+02  0.51100000000E-03 0. -1.
         11   -1    0    0    0    0 -0.00000000000E+00 -0.00000000000E+00 -0.45593999997E+02  0.45594000000E+02  0.51100000000E-03 0.  1.
    9900012    2    1    2    0    0  0.26987840724E+02  0.28306879611E+02 -0.11114936406E+02  0.50528870747E+02  0.30000033124E+02 0.  0.
        -12    1    1    2    0    0 -0.26987840724E+02 -0.28306879611E+02  0.11114936406E+02  0.40659129253E+02  0.00000000000E+00 0.  1.
         11    1    3    3    0    0 -0.19444989313E+01  0.11564293189E+02 -0.28060997049E+01  0.12057700812E+02  0.51100000000E-03 0. -1.
        -11    1    3    3    0    0  0.15792005662E+01  0.56380790350E+01 -0.67118125041E+01  0.89067523253E+01  0.51100000000E-03 0.  1.
        -12    1    3    3    0    0  0.27353139089E+02  0.11104507387E+02 -0.15970241972E+01  0.29564417610E+02  0.00000000000E+00 0.  1.
</event>
<event>
 7    1  0.5855569E-013  0.5052886E+02  0.7816164E-02  0.1300439E+00
        -11   -1    0    0    0    0  0.00000000000E+00  0.00000000000E+00  0.45593999997E+02  0.45594000000E+02  0.51100000000E-03 0.  1.
         11   -1    0    0    0    0 -0.00000000000E+00 -0.00000000000E+00 -0.45593999997E+02  0.45594000000E+02  0.51100000000E-03 0. -1.
    9900012    2    1    2    0    0 -0.39227060617E+02 -0.18926494082E+01 -0.10527158969E+02  0.50528862252E+02  0.30000007302E+02 0.  0.
        -12    1    1    2    0    0  0.39227060617E+02  0.18926494082E+01  0.10527158969E+02  0.40659137748E+02  0.00000000000E+00 0.  1.
         11    1    3    3    0    0 -0.10415985063E+02 -0.90677641760E+01  0.87431049401E+00  0.13837684455E+02  0.51100000000E-03 0. -1.
        -11    1    3    3    0    0 -0.30186766736E+02  0.77867568828E+01 -0.68791919274E+01  0.31924876672E+02  0.51100000000E-03 0.  1.
        -12    1    3    3    0    0  0.13756911814E+01 -0.61164211501E+00 -0.45222775358E+01  0.47663011250E+01  0.00000000000E+00 0.  1.
</event>
<event>
 7    1  0.5855569E-013  0.5052886E+02  0.7816164E-02  0.1300439E+00
        -11   -1    0    0    0    0  0.00000000000E+00  0.00000000000E+00  0.45593999997E+02  0.45594000000E+02  0.51100000000E-03 0.  1.
         11   -1    0    0    0    0 -0.00000000000E+00 -0.00000000000E+00 -0.45593999997E+02  0.45594000000E+02  0.51100000000E-03 0. -1.
    9900012    2    1    2    0    0 -0.27689144270E+02 -0.29728098604E+02 -0.16482714584E+01  0.50528863809E+02  0.30000012034E+02 0.  0.
        -12    1    1    2    0    0  0.27689144270E+02  0.29728098604E+02  0.16482714584E+01  0.40659136191E+02  0.00000000000E+00 0.  1.
         11    1    3    3    0    0 -0.63336001158E+01 -0.97518954738E+01  0.15538735727E+01  0.11731516488E+02  0.51100000000E-03 0. -1.
        -11    1    3    3    0    0 -0.34181540496E+01 -0.20149624801E+02 -0.40672334248E+01  0.20838271155E+02  0.51100000000E-03 0.  1.
        -12    1    3    3    0    0 -0.17937390104E+02  0.17342167069E+00  0.86508839370E+00  0.17959076166E+02  0.00000000000E+00 0.  1.
</event>
<event>
 7    1  0.5855569E-013  0.5052886E+02  0.7816164E-02  0.1300439E+00
        -11   -1    0    0    0    0  0.00000000000E+00  0.00000000000E+00  0.45593999997E+02  0.45594000000E+02  0.51100000000E-03 0. -1.
         11   -1    0    0    0    0 -0.00000000000E+00 -0.00000000000E+00 -0.45593999997E+02  0.45594000000E+02  0.51100000000E-03 0.  1.
    9900012    2    1    2    0    0  0.32384509523E+02  0.21986446356E+02  0.11000230278E+02  0.50528863922E+02  0.30000012377E+02 0.  0.
        -12    1    1    2    0    0 -0.32384509523E+02 -0.21986446356E+02 -0.11000230278E+02  0.40659136078E+02  0.00000000000E+00 0.  1.
         11    1    3    3    0    0  0.28094832128E+02  0.15277628604E+02  0.11523928790E+02  0.33993035508E+02  0.51100000000E-03 0. -1.
        -11    1    3    3    0    0  0.83174511437E+01  0.57324331422E+01 -0.42531888414E+01  0.10960401400E+02  0.51100000000E-03 0.  1.
        -12    1    3    3    0    0 -0.40277737480E+01  0.97638461059E+00  0.37294903294E+01  0.55754270141E+01  0.00000000000E+00 0.  1.
</event>
<event>
 7    1  0.5855569E-013  0.5052885E+02  0.7816164E-02  0.1300439E+00
        -11   -1    0    0    0    0  0.00000000000E+00  0.00000000000E+00  0.45593999997E+02  0.45594000000E+02  0.51100000000E-03 0.  1.
         11   -1    0    0    0    0 -0.00000000000E+00 -0.00000000000E+00 -0.45593999997E+02  0.45594000000E+02  0.51100000000E-03 0. -1.
    9900012    2    1    2    0    0  0.91478612863E+01  0.64655843835E+01 -0.39085540916E+02  0.50528847817E+02  0.29999963424E+02 0.  0.
        -12    1    1    2    0    0 -0.91478612863E+01 -0.64655843835E+01  0.39085540916E+02  0.40659152183E+02  0.00000000000E+00 0.  1.
         11    1    3    3    0    0  0.57014815251E+01  0.14389134776E+02 -0.30218502857E+02  0.33951612721E+02  0.51100000000E-03 0. -1.
        -11    1    3    3    0    0  0.89797021317E+00 -0.77888337707E+00 -0.89126215045E+01  0.89915422571E+01  0.51100000000E-03 0.  1.
        -12    1    3    3    0    0  0.25484095480E+01 -0.71446670156E+01  0.45583445219E-01  0.75856928384E+01  0.00000000000E+00 0.  1.
</event>
<event>
 7    1  0.5855569E-013  0.5052887E+02  0.7816164E-02  0.1300439E+00
        -11   -1    0    0    0    0  0.00000000000E+00  0.00000000000E+00  0.45593999997E+02  0.45594000000E+02  0.51100000000E-03 0. -1.
         11   -1    0    0    0    0 -0.00000000000E+00 -0.00000000000E+00 -0.45593999997E+02  0.45594000000E+02  0.51100000000E-03 0.  1.
    9900012    2    1    2    0    0 -0.10958892646E+02  0.35707048387E+02  0.16064694927E+02  0.50528867500E+02  0.30000023254E+02 0.  0.
        -12    1    1    2    0    0  0.10958892646E+02 -0.35707048387E+02 -0.16064694927E+02  0.40659132500E+02  0.00000000000E+00 0.  1.
         11    1    3    3    0    0 -0.95396688033E+01  0.11659924583E+02  0.12817751623E+02  0.19780138500E+02  0.51100000000E-03 0. -1.
        -11    1    3    3    0    0 -0.84553456325E+01  0.40596552192E+01  0.13133199235E+01  0.94709281354E+01  0.51100000000E-03 0.  1.
         12    1    3    3    0    0  0.70361217901E+01  0.19987468585E+02  0.19336233804E+01  0.21277800865E+02  0.00000000000E+00 0. -1.
</event>
<event>
 7    1  0.5855569E-013  0.5052886E+02  0.7816164E-02  0.1300439E+00
        -11   -1    0    0    0    0  0.00000000000E+00  0.00000000000E+00  0.45593999997E+02  0.45594000000E+02  0.51100000000E-03 0.  1.
         11   -1    0    0    0    0 -0.00000000000E+00 -0.00000000000E+00 -0.45593999997E+02  0.45594000000E+02  0.51100000000E-03 0. -1.
    9900012    2    1    2    0    0 -0.27111781243E+02 -0.17859855625E+02 -0.24477390954E+02  0.50528858432E+02  0.29999995690E+02 0.  0.
        -12    1    1    2    0    0  0.27111781243E+02  0.17859855625E+02  0.24477390954E+02  0.40659141568E+02  0.00000000000E+00 0.  1.
         11    1    3    3    0    0 -0.12712005895E+02 -0.74846783775E+01 -0.21888597625E+02  0.26395571798E+02  0.51100000000E-03 0. -1.
        -11    1    3    3    0    0  0.11197944411E+01 -0.22145876910E+01 -0.57988674344E+01  0.63075511900E+01  0.51100000000E-03 0.  1.
         12    1    3    3    0    0 -0.15519569789E+02 -0.81605895565E+01  0.32100741052E+01  0.17825735444E+02  0.00000000000E+00 0. -1.
</event>
<event>
 7    1  0.5855569E-013  0.5052889E+02  0.7816164E-02  0.1300439E+00
        -11   -1    0    0    0    0  0.00000000000E+00  0.00000000000E+00  0.45593999997E+02  0.45594000000E+02  0.51100000000E-03 0.  1.
         11   -1    0    0    0    0 -0.00000000000E+00 -0.00000000000E+00 -0.45593999997E+02  0.45594000000E+02  0.51100000000E-03 0. -1.
    9900012    2    1    2    0    0 -0.22998137701E+01  0.25189993695E+02 -0.31832971932E+02  0.50528892438E+02  0.30000099055E+02 0.  0.
        -12    1    1    2    0    0  0.22998137701E+01 -0.25189993695E+02  0.31832971932E+02  0.40659107562E+02  0.00000000000E+00 0.  1.
         11    1    3    3    0    0 -0.30514843473E+01  0.17772201254E+02 -0.91782580728E+01  0.20233712354E+02  0.51100000000E-03 0. -1.
        -11    1    3    3    0    0  0.28128902325E-01  0.83775631370E+01 -0.80917198381E+00  0.84165975851E+01  0.51100000000E-03 0.  1.
        -12    1    3    3    0    0  0.72354167485E+00 -0.95977069608E+00 -0.21845541875E+02  0.21878582499E+02  0.00000000000E+00 0.  1.
</event>
<event>
 7    1  0.5855569E-013  0.5052885E+02  0.7816164E-02  0.1300439E+00
        -11   -1    0    0    0    0  0.00000000000E+00  0.00000000000E+00  0.45593999997E+02  0.45594000000E+02  0.51100000000E-03 0.  1.
         11   -1    0    0    0    0 -0.00000000000E+00 -0.00000000000E+00 -0.45593999997E+02  0.45594000000E+02  0.51100000000E-03 0. -1.
    9900012    2    1    2    0    0 -0.14580598040E+02  0.17683964898E+02 -0.33583483284E+02  0.50528846010E+02  0.29999957931E+02 0.  0.
        -12    1    1    2    0    0  0.14580598040E+02 -0.17683964898E+02  0.33583483284E+02  0.40659153990E+02  0.00000000000E+00 0.  1.
         11    1    3    3    0    0 -0.15067328704E+02  0.26091369436E+01 -0.19105018127E+02  0.24471079006E+02  0.51100000000E-03 0. -1.
        -11    1    3    3    0    0 -0.66130244524E+01  0.43243653513E+01 -0.20641139169E+01  0.81665656566E+01  0.51100000000E-03 0.  1.
        -12    1    3    3    0    0  0.70997551165E+01  0.10750462603E+02 -0.12414351241E+02  0.17891201347E+02  0.00000000000E+00 0.  1.
</event>
<event>
 7    1  0.5855569E-013  0.5052885E+02  0.7816164E-02  0.1300439E+00
        -11   -1    0    0    0    0  0.00000000000E+00  0.00000000000E+00  0.45593999997E+02  0.45594000000E+02  0.51100000000E-03 0. -1.
         11   -1    0    0    0    0 -0.00000000000E+00 -0.00000000000E+00 -0.45593999997E+02  0.45594000000E+02  0.51100000000E-03 0.  1.
    9900012    2    1    2    0    0  0.73350769274E+01  0.23575897442E+02  0.32303877485E+02  0.50528846119E+02  0.29999958265E+02 0.  0.
        -12    1    1    2    0    0 -0.73350769274E+01 -0.23575897442E+02 -0.32303877485E+02  0.40659153881E+02  0.00000000000E+00 0.  1.
         11    1    3    3    0    0  0.39949291011E+01 -0.34944706680E+01  0.12233943106E+02  0.13335672010E+02  0.51100000000E-03 0. -1.
        -11    1    3    3    0    0 -0.29065745325E+01  0.13086425752E+01  0.68846211662E+01  0.75867469818E+01  0.51100000000E-03 0.  1.
        -12    1    3    3    0    0  0.62467223588E+01  0.25761725535E+02  0.13185313213E+02  0.29606427128E+02  0.00000000000E+00 0.  1.
</event>
<event>
 7    1  0.5855569E-013  0.5052885E+02  0.7816164E-02  0.1300439E+00
        -11   -1    0    0    0    0  0.00000000000E+00  0.00000000000E+00  0.45593999997E+02  0.45594000000E+02  0.51100000000E-03 0.  1.
         11   -1    0    0    0    0 -0.00000000000E+00 -0.00000000000E+00 -0.45593999997E+02  0.45594000000E+02  0.51100000000E-03 0. -1.
    9900012    2    1    2    0    0  0.30320821304E+02  0.23748635804E+02 -0.13031354954E+02  0.50528854423E+02  0.29999983505E+02 0.  0.
        -12    1    1    2    0    0 -0.30320821304E+02 -0.23748635804E+02  0.13031354954E+02  0.40659145577E+02  0.00000000000E+00 0.  1.
         11    1    3    3    0    0  0.90675145607E+01 -0.23959533965E+01 -0.56766534783E+01  0.10962883196E+02  0.51100000000E-03 0. -1.
        -11    1    3    3    0    0  0.26226098732E+01  0.95034315672E+01 -0.10482695908E+02  0.14390281716E+02  0.51100000000E-03 0.  1.
         12    1    3    3    0    0  0.18630696870E+02  0.16641157633E+02  0.31279944323E+01  0.25175689512E+02  0.00000000000E+00 0. -1.
</event>
<event>
 7    1  0.5855569E-013  0.5052886E+02  0.7816164E-02  0.1300439E+00
        -11   -1    0    0    0    0  0.00000000000E+00  0.00000000000E+00  0.45593999997E+02  0.45594000000E+02  0.51100000000E-03 0.  1.
         11   -1    0    0    0    0 -0.00000000000E+00 -0.00000000000E+00 -0.45593999997E+02  0.45594000000E+02  0.51100000000E-03 0. -1.
    9900012    2    1    2    0    0  0.21408194092E+01 -0.40360050864E+02  0.44326913529E+01  0.50528861223E+02  0.30000004174E+02 0.  0.
        -12    1    1    2    0    0 -0.21408194092E+01  0.40360050864E+02 -0.44326913529E+01  0.40659138777E+02  0.00000000000E+00 0.  1.
         11    1    3    3    0    0  0.83562780883E+01 -0.10831251303E+02  0.15504362653E+00  0.13680914701E+02  0.51100000000E-03 0. -1.
        -11    1    3    3    0    0  0.51556823748E+01 -0.58154672632E+00 -0.10521262131E+01  0.52939802771E+01  0.51100000000E-03 0.  1.
         12    1    3    3    0    0 -0.11371141054E+02 -0.28947252835E+02  0.53297739394E+01  0.31553966245E+02  0.00000000000E+00 0. -1.
</event>
<event>
 7    1  0.5855569E-013  0.5052886E+02  0.7816164E-02  0.1300439E+00
        -11   -1    0    0    0    0  0.00000000000E+00  0.00000000000E+00  0.45593999997E+02  0.45594000000E+02  0.51100000000E-03 0.  1.
         11   -1    0    0    0    0 -0.00000000000E+00 -0.00000000000E+00 -0.45593999997E+02  0.45594000000E+02  0.51100000000E-03 0. -1.
    9900012    2    1    2    0    0  0.23798694474E+02 -0.31541395108E+02 -0.95879160842E+01  0.50528860820E+02  0.30000002948E+02 0.  0.
        -12    1    1    2    0    0 -0.23798694474E+02  0.31541395108E+02  0.95879160842E+01  0.40659139180E+02  0.00000000000E+00 0.  1.
         11    1    3    3    0    0 -0.82195360330E+00 -0.19696096604E+02 -0.51432181149E+01  0.20373132356E+02  0.51100000000E-03 0. -1.
        -11    1    3    3    0    0  0.63832815875E+01 -0.55752380976E+01  0.36664492337E+01  0.92343063581E+01  0.51100000000E-03 0.  1.
        -12    1    3    3    0    0  0.18237366490E+02 -0.62700604068E+01 -0.81111472030E+01  0.20921422106E+02  0.00000000000E+00 0.  1.
</event>
<event>
 7    1  0.5855569E-013  0.5052888E+02  0.7816164E-02  0.1300439E+00
        -11   -1    0    0    0    0  0.00000000000E+00  0.00000000000E+00  0.45593999997E+02  0.45594000000E+02  0.51100000000E-03 0.  1.
         11   -1    0    0    0    0 -0.00000000000E+00 -0.00000000000E+00 -0.45593999997E+02  0.45594000000E+02  0.51100000000E-03 0. -1.
    9900012    2    1    2    0    0 -0.13551760372E+02 -0.17365044197E+02 -0.34175559899E+02  0.50528882159E+02  0.30000067811E+02 0.  0.
        -12    1    1    2    0    0  0.13551760372E+02  0.17365044197E+02  0.34175559899E+02  0.40659117841E+02  0.00000000000E+00 0.  1.
         11    1    3    3    0    0  0.11976050890E+01 -0.38260388444E+01 -0.52893502601E+01  0.66370217435E+01  0.51100000000E-03 0. -1.
        -11    1    3    3    0    0 -0.32652347244E+01 -0.10380748961E+02 -0.30016136988E+02  0.31927890421E+02  0.51100000000E-03 0.  1.
         12    1    3    3    0    0 -0.11484130737E+02 -0.31582563917E+01  0.11299273488E+01  0.11963969995E+02  0.00000000000E+00 0. -1.
</event>
<event>
 7    1  0.5855569E-013  0.5052885E+02  0.7816164E-02  0.1300439E+00
        -11   -1    0    0    0    0  0.00000000000E+00  0.00000000000E+00  0.45593999997E+02  0.45594000000E+02  0.51100000000E-03 0. -1.
         11   -1    0    0    0    0 -0.00000000000E+00 -0.00000000000E+00 -0.45593999997E+02  0.45594000000E+02  0.51100000000E-03 0.  1.
    9900012    2    1    2    0    0 -0.40329190621E+02  0.19908889551E+01 -0.47706311403E+01  0.50528853717E+02  0.29999981357E+02 0.  0.
        -12    1    1    2    0    0  0.40329190621E+02 -0.19908889551E+01  0.47706311403E+01  0.40659146283E+02  0.00000000000E+00 0.  1.
         11    1    3    3    0    0 -0.18050588130E+02 -0.43593901215E+01 -0.75129809581E+01  0.20031797154E+02  0.51100000000E-03 0.  1.
        -11    1    3    3    0    0 -0.16161242825E+02  0.85725856885E+01 -0.63065147376E+01  0.19350636254E+02  0.51100000000E-03 0. -1.
         12    1    3    3    0    0 -0.61173596668E+01 -0.22223066119E+01  0.90488645554E+01  0.11146420309E+02  0.00000000000E+00 0. -1.
</event>
<event>
 7    1  0.5855569E-013  0.5052886E+02  0.7816164E-02  0.1300439E+00
        -11   -1    0    0    0    0  0.00000000000E+00  0.00000000000E+00  0.45593999997E+02  0.45594000000E+02  0.51100000000E-03 0. -1.
         11   -1    0    0    0    0 -0.00000000000E+00 -0.00000000000E+00 -0.45593999997E+02  0.45594000000E+02  0.51100000000E-03 0.  1.
    9900012    2    1    2    0    0 -0.22301294783E+02  0.23990607810E+02 -0.24088766658E+02  0.50528859684E+02  0.29999999496E+02 0.  0.
        -12    1    1    2    0    0  0.22301294783E+02 -0.23990607810E+02  0.24088766658E+02  0.40659140316E+02  0.00000000000E+00 0.  1.
         11    1    3    3    0    0 -0.13718925713E+02  0.40010432494E+01 -0.64697990364E+00  0.14305098849E+02  0.51100000000E-03 0. -1.
        -11    1    3    3    0    0 -0.10574416639E+02  0.38977536601E+01 -0.78956602662E+01  0.13760531318E+02  0.51100000000E-03 0.  1.
         12    1    3    3    0    0  0.19920475690E+01  0.16091810900E+02 -0.15546126488E+02  0.22463229518E+02  0.00000000000E+00 0. -1.
</event>
<event>
 7    1  0.5855569E-013  0.5052886E+02  0.7816164E-02  0.1300439E+00
        -11   -1    0    0    0    0  0.00000000000E+00  0.00000000000E+00  0.45593999997E+02  0.45594000000E+02  0.51100000000E-03 0. -1.
         11   -1    0    0    0    0 -0.00000000000E+00 -0.00000000000E+00 -0.45593999997E+02  0.45594000000E+02  0.51100000000E-03 0.  1.
    9900012    2    1    2    0    0 -0.12860857706E+01 -0.30937393042E+02  0.26351265848E+02  0.50528861831E+02  0.30000006021E+02 0.  0.
        -12    1    1    2    0    0  0.12860857706E+01  0.30937393042E+02 -0.26351265848E+02  0.40659138169E+02  0.00000000000E+00 0.  1.
         11    1    3    3    0    0 -0.18481666215E+01 -0.17460341737E+02  0.16720645932E+02  0.24245809000E+02  0.51100000000E-03 0. -1.
        -11    1    3    3    0    0  0.19739031565E+01 -0.15470137336E+02  0.14206500441E+02  0.21096115707E+02  0.51100000000E-03 0.  1.
        -12    1    3    3    0    0 -0.14118223056E+01  0.19930860304E+01 -0.45758805253E+01  0.51869371241E+01  0.00000000000E+00 0.  1.
</event>
<event>
 7    1  0.5855569E-013  0.5052888E+02  0.7816164E-02  0.1300439E+00
        -11   -1    0    0    0    0  0.00000000000E+00  0.00000000000E+00  0.45593999997E+02  0.45594000000E+02  0.51100000000E-03 0. -1.
         11   -1    0    0    0    0 -0.00000000000E+00 -0.00000000000E+00 -0.45593999997E+02  0.45594000000E+02  0.51100000000E-03 0.  1.
    9900012    2    1    2    0    0 -0.26798631998E+02 -0.11095613135E+01 -0.30557590983E+02  0.50528878392E+02  0.30000056361E+02 0.  0.
        -12    1    1    2    0    0  0.26798631998E+02  0.11095613135E+01  0.30557590983E+02  0.40659121608E+02  0.00000000000E+00 0.  1.
         11    1    3    3    0    0 -0.15925922785E+02  0.70723788610E+01 -0.17794935438E+02  0.24906089352E+02  0.51100000000E-03 0. -1.
        -11    1    3    3    0    0 -0.60414275263E+01  0.39550386903E+01 -0.98932191978E+01  0.12248141245E+02  0.51100000000E-03 0.  1.
        -12    1    3    3    0    0 -0.48312816865E+01 -0.12136978865E+02 -0.28694363466E+01  0.13374647795E+02  0.00000000000E+00 0.  1.
</event>
<event>
 7    1  0.5855569E-013  0.5052886E+02  0.7816164E-02  0.1300439E+00
        -11   -1    0    0    0    0  0.00000000000E+00  0.00000000000E+00  0.45593999997E+02  0.45594000000E+02  0.51100000000E-03 0. -1.
         11   -1    0    0    0    0 -0.00000000000E+00 -0.00000000000E+00 -0.45593999997E+02  0.45594000000E+02  0.51100000000E-03 0.  1.
    9900012    2    1    2    0    0 -0.26813930434E+02  0.14003287733E+00  0.30564017378E+02  0.50528860403E+02  0.30000001680E+02 0.  0.
        -12    1    1    2    0    0  0.26813930434E+02 -0.14003287733E+00 -0.30564017378E+02  0.40659139597E+02  0.00000000000E+00 0.  1.
         11    1    3    3    0    0  0.44113451598E+01 -0.14415825084E+01  0.79564979464E+01  0.92110795284E+01  0.51100000000E-03 0. -1.
        -11    1    3    3    0    0 -0.13646263447E+02  0.50658827736E+01  0.17337757545E+02  0.22638054494E+02  0.51100000000E-03 0.  1.
        -12    1    3    3    0    0 -0.17579012146E+02 -0.34842673879E+01  0.52697618868E+01  0.18679726380E+02  0.00000000000E+00 0.  1.
</event>
<event>
 7    1  0.5855569E-013  0.5052886E+02  0.7816164E-02  0.1300439E+00
        -11   -1    0    0    0    0  0.00000000000E+00  0.00000000000E+00  0.45593999997E+02  0.45594000000E+02  0.51100000000E-03 0.  1.
         11   -1    0    0    0    0 -0.00000000000E+00 -0.00000000000E+00 -0.45593999997E+02  0.45594000000E+02  0.51100000000E-03 0. -1.
    9900012    2    1    2    0    0  0.11840858897E+02  0.16817296296E+02 -0.35073324237E+02  0.50528862440E+02  0.30000007872E+02 0.  0.
        -12    1    1    2    0    0 -0.11840858897E+02 -0.16817296296E+02  0.35073324237E+02  0.40659137560E+02  0.00000000000E+00 0.  1.
         11    1    3    3    0    0  0.65880697979E+01  0.18588214631E+02 -0.82412140107E+01  0.21373862437E+02  0.51100000000E-03 0. -1.
        -11    1    3    3    0    0  0.14330142688E+01  0.18129079057E+01 -0.57605048986E+00  0.23815959769E+01  0.51100000000E-03 0.  1.
        -12    1    3    3    0    0  0.38197748300E+01 -0.35838262411E+01 -0.26256059736E+02  0.26773404026E+02  0.00000000000E+00 0.  1.
</event>
<event>
 7    1  0.5855569E-013  0.5052886E+02  0.7816164E-02  0.1300439E+00
        -11   -1    0    0    0    0  0.00000000000E+00  0.00000000000E+00  0.45593999997E+02  0.45594000000E+02  0.51100000000E-03 0. -1.
         11   -1    0    0    0    0 -0.00000000000E+00 -0.00000000000E+00 -0.45593999997E+02  0.45594000000E+02  0.51100000000E-03 0.  1.
    9900012    2    1    2    0    0  0.27746903447E+02 -0.28212756720E+02  0.93442572023E+01  0.50528862831E+02  0.30000009062E+02 0.  0.
        -12    1    1    2    0    0 -0.27746903447E+02  0.28212756720E+02 -0.93442572023E+01  0.40659137169E+02  0.00000000000E+00 0.  1.
         11    1    3    3    0    0  0.14849157925E+02 -0.13202504055E+02  0.10373809517E+02  0.22414716785E+02  0.51100000000E-03 0. -1.
        -11    1    3    3    0    0  0.50009924726E+01  0.46390665019E+01  0.75156870365E+00  0.68626321115E+01  0.51100000000E-03 0.  1.
        -12    1    3    3    0    0  0.78967530500E+01 -0.19649319167E+02 -0.17811210182E+01  0.21251513935E+02  0.00000000000E+00 0.  1.
</event>
<event>
 7    1  0.5855569E-013  0.5052888E+02  0.7816164E-02  0.1300439E+00
        -11   -1    0    0    0    0  0.00000000000E+00  0.00000000000E+00  0.45593999997E+02  0.45594000000E+02  0.51100000000E-03 0.  1.
         11   -1    0    0    0    0 -0.00000000000E+00 -0.00000000000E+00 -0.45593999997E+02  0.45594000000E+02  0.51100000000E-03 0. -1.
    9900012    2    1    2    0    0  0.13130768235E+02 -0.17381815129E+02 -0.34331030769E+02  0.50528877466E+02  0.30000053545E+02 0.  0.
        -12    1    1    2    0    0 -0.13130768235E+02  0.17381815129E+02  0.34331030769E+02  0.40659122534E+02  0.00000000000E+00 0.  1.
         11    1    3    3    0    0  0.17654302186E+02 -0.11535788458E+02 -0.18836931291E+02  0.28276824110E+02  0.51100000000E-03 0. -1.
        -11    1    3    3    0    0 -0.15555974846E+01 -0.10080674530E+02 -0.72266999359E+01  0.12500602975E+02  0.51100000000E-03 0.  1.
        -12    1    3    3    0    0 -0.29679364663E+01  0.42346478585E+01 -0.82673995417E+01  0.97514503811E+01  0.00000000000E+00 0.  1.
</event>
<event>
 7    1  0.5855569E-013  0.5052886E+02  0.7816164E-02  0.1300439E+00
        -11   -1    0    0    0    0  0.00000000000E+00  0.00000000000E+00  0.45593999997E+02  0.45594000000E+02  0.51100000000E-03 0. -1.
         11   -1    0    0    0    0 -0.00000000000E+00 -0.00000000000E+00 -0.45593999997E+02  0.45594000000E+02  0.51100000000E-03 0.  1.
    9900012    2    1    2    0    0 -0.82110350743E+01 -0.38534442562E+02  0.10041993699E+02  0.50528855911E+02  0.29999988028E+02 0.  0.
        -12    1    1    2    0    0  0.82110350743E+01  0.38534442562E+02 -0.10041993699E+02  0.40659144089E+02  0.00000000000E+00 0.  1.
         11    1    3    3    0    0 -0.29479060263E+01 -0.62456788575E+01 -0.17165113357E+01  0.71165346734E+01  0.51100000000E-03 0.  1.
        -11    1    3    3    0    0  0.76306335790E+01 -0.17750251457E+02 -0.22579138074E+01  0.19452407836E+02  0.51100000000E-03 0. -1.
        -12    1    3    3    0    0 -0.12893762627E+02 -0.14538512248E+02  0.14016418842E+02  0.23959913402E+02  0.00000000000E+00 0.  1.
</event>
<event>
 7    1  0.5855569E-013  0.5052887E+02  0.7816164E-02  0.1300439E+00
        -11   -1    0    0    0    0  0.00000000000E+00  0.00000000000E+00  0.45593999997E+02  0.45594000000E+02  0.51100000000E-03 0.  1.
         11   -1    0    0    0    0 -0.00000000000E+00 -0.00000000000E+00 -0.45593999997E+02  0.45594000000E+02  0.51100000000E-03 0. -1.
    9900012    2    1    2    0    0  0.19452683142E+02  0.11561716386E+02 -0.33779948384E+02  0.50528867200E+02  0.30000022340E+02 0.  0.
        -12    1    1    2    0    0 -0.19452683142E+02 -0.11561716386E+02  0.33779948384E+02  0.40659132800E+02  0.00000000000E+00 0.  1.
         11    1    3    3    0    0  0.21110330100E+01  0.47826577933E+01 -0.55927678403E+00  0.52576674219E+01  0.51100000000E-03 0. -1.
        -11    1    3    3    0    0  0.20406841420E+02 -0.27353309333E+01 -0.20070967266E+02  0.28753520469E+02  0.51100000000E-03 0.  1.
         12    1    3    3    0    0 -0.30651912878E+01  0.95143895264E+01 -0.13149704334E+02  0.16517679309E+02  0.00000000000E+00 0. -1.
</event>
<event>
 7    1  0.5855569E-013  0.5052886E+02  0.7816164E-02  0.1300439E+00
        -11   -1    0    0    0    0  0.00000000000E+00  0.00000000000E+00  0.45593999997E+02  0.45594000000E+02  0.51100000000E-03 0.  1.
         11   -1    0    0    0    0 -0.00000000000E+00 -0.00000000000E+00 -0.45593999997E+02  0.45594000000E+02  0.51100000000E-03 0. -1.
    9900012    2    1    2    0    0 -0.92335088377E+01  0.33093001186E+02 -0.21743081792E+02  0.50528855657E+02  0.29999987254E+02 0.  0.
        -12    1    1    2    0    0  0.92335088377E+01 -0.33093001186E+02  0.21743081792E+02  0.40659144343E+02  0.00000000000E+00 0.  1.
         11    1    3    3    0    0  0.49717360106E+00  0.87307065256E+01 -0.56550319246E+01  0.10414019606E+02  0.51100000000E-03 0. -1.
        -11    1    3    3    0    0 -0.80741524497E+01  0.71485984279E-01 -0.13366423873E+02  0.15615964122E+02  0.51100000000E-03 0.  1.
         12    1    3    3    0    0 -0.16565299891E+01  0.24290808676E+02 -0.27216259939E+01  0.24498871929E+02  0.00000000000E+00 0. -1.
</event>
<event>
 7    1  0.5855569E-013  0.5052886E+02  0.7816164E-02  0.1300439E+00
        -11   -1    0    0    0    0  0.00000000000E+00  0.00000000000E+00  0.45593999997E+02  0.45594000000E+02  0.51100000000E-03 0.  1.
         11   -1    0    0    0    0 -0.00000000000E+00 -0.00000000000E+00 -0.45593999997E+02  0.45594000000E+02  0.51100000000E-03 0. -1.
    9900012    2    1    2    0    0 -0.19491806830E+02  0.18500587087E+02 -0.30511692811E+02  0.50528860139E+02  0.30000000879E+02 0.  0.
        -12    1    1    2    0    0  0.19491806830E+02 -0.18500587087E+02  0.30511692811E+02  0.40659139861E+02  0.00000000000E+00 0.  1.
         11    1    3    3    0    0 -0.52542549637E+01  0.12731369622E+02 -0.15392084920E+02  0.20654569618E+02  0.51100000000E-03 0. -1.
        -11    1    3    3    0    0  0.12459253384E+01  0.77927435735E+01 -0.11327163441E+02  0.13805209677E+02  0.51100000000E-03 0.  1.
        -12    1    3    3    0    0 -0.15483477205E+02 -0.20235261083E+01 -0.37924444496E+01  0.16069080844E+02  0.00000000000E+00 0.  1.
</event>
<event>
 7    1  0.5855569E-013  0.5052890E+02  0.7816164E-02  0.1300439E+00
        -11   -1    0    0    0    0  0.00000000000E+00  0.00000000000E+00  0.45593999997E+02  0.45594000000E+02  0.51100000000E-03 0.  1.
         11   -1    0    0    0    0 -0.00000000000E+00 -0.00000000000E+00 -0.45593999997E+02  0.45594000000E+02  0.51100000000E-03 0. -1.
    9900012    2    1    2    0    0 -0.36863968420E+02 -0.16210575902E+01 -0.17075785455E+02  0.50528899613E+02  0.30000120863E+02 0.  0.
        -12    1    1    2    0    0  0.36863968420E+02  0.16210575902E+01  0.17075785455E+02  0.40659100387E+02  0.00000000000E+00 0.  1.
         11    1    3    3    0    0 -0.76304582946E+01 -0.40118859961E-01 -0.12403287820E+02  0.14562522182E+02  0.51100000000E-03 0. -1.
        -11    1    3    3    0    0 -0.27582616352E+01  0.52164315059E+01  0.41838374208E+01  0.72335095720E+01  0.51100000000E-03 0.  1.
         12    1    3    3    0    0 -0.26475248490E+02 -0.67973702362E+01 -0.88563350563E+01  0.28732867859E+02  0.00000000000E+00 0. -1.
</event>
<event>
 7    1  0.5855569E-013  0.5052886E+02  0.7816164E-02  0.1300439E+00
        -11   -1    0    0    0    0  0.00000000000E+00  0.00000000000E+00  0.45593999997E+02  0.45594000000E+02  0.51100000000E-03 0.  1.
         11   -1    0    0    0    0 -0.00000000000E+00 -0.00000000000E+00 -0.45593999997E+02  0.45594000000E+02  0.51100000000E-03 0. -1.
    9900012    2    1    2    0    0 -0.12985733845E+02  0.36523095349E+02 -0.12271915952E+02  0.50528859595E+02  0.29999999224E+02 0.  0.
        -12    1    1    2    0    0  0.12985733845E+02 -0.36523095349E+02  0.12271915952E+02  0.40659140405E+02  0.00000000000E+00 0.  1.
         11    1    3    3    0    0 -0.13837216413E+02  0.17887480457E+02  0.31872134402E+01  0.22838319661E+02  0.51100000000E-03 0. -1.
        -11    1    3    3    0    0 -0.36391548125E+01  0.18241911523E+00 -0.88084762185E+00  0.37486820720E+01  0.51100000000E-03 0.  1.
        -12    1    3    3    0    0  0.44906373815E+01  0.18453195777E+02 -0.14578281770E+02  0.23941857861E+02  0.00000000000E+00 0.  1.
</event>
<event>
 7    1  0.5855569E-013  0.5052886E+02  0.7816164E-02  0.1300439E+00
        -11   -1    0    0    0    0  0.00000000000E+00  0.00000000000E+00  0.45593999997E+02  0.45594000000E+02  0.51100000000E-03 0.  1.
         11   -1    0    0    0    0 -0.00000000000E+00 -0.00000000000E+00 -0.45593999997E+02  0.45594000000E+02  0.51100000000E-03 0. -1.
    9900012    2    1    2    0    0  0.32271020839E+02  0.12507129363E+02 -0.21338197086E+02  0.50528859259E+02  0.29999998203E+02 0.  0.
        -12    1    1    2    0    0 -0.32271020839E+02 -0.12507129363E+02  0.21338197086E+02  0.40659140741E+02  0.00000000000E+00 0.  1.
         11    1    3    3    0    0  0.73983685442E+01 -0.60068498170E+00 -0.47584071183E+01  0.88169789683E+01  0.51100000000E-03 0. -1.
        -11    1    3    3    0    0  0.22945721358E+02 -0.15198599933E+01 -0.13412721593E+02  0.26621743065E+02  0.51100000000E-03 0.  1.
         12    1    3    3    0    0  0.19269309371E+01  0.14627674338E+02 -0.31670683747E+01  0.15090137225E+02  0.00000000000E+00 0. -1.
</event>
<event>
 7    1  0.5855569E-013  0.5052887E+02  0.7816164E-02  0.1300439E+00
        -11   -1    0    0    0    0  0.00000000000E+00  0.00000000000E+00  0.45593999997E+02  0.45594000000E+02  0.51100000000E-03 0.  1.
         11   -1    0    0    0    0 -0.00000000000E+00 -0.00000000000E+00 -0.45593999997E+02  0.45594000000E+02  0.51100000000E-03 0. -1.
    9900012    2    1    2    0    0 -0.55060587808E+01  0.91706454053E+01 -0.39226875198E+02  0.50528866238E+02  0.30000019418E+02 0.  0.
        -12    1    1    2    0    0  0.55060587808E+01 -0.91706454053E+01  0.39226875198E+02  0.40659133762E+02  0.00000000000E+00 0.  1.
         11    1    3    3    0    0 -0.41779412267E+01 -0.19704044764E+01 -0.11751826596E+02  0.12627078653E+02  0.51100000000E-03 0. -1.
        -11    1    3    3    0    0 -0.42106975088E+01  0.47255715197E+01  0.27268253318E+01  0.68917759939E+01  0.51100000000E-03 0.  1.
         12    1    3    3    0    0  0.28825799547E+01  0.64154783620E+01 -0.30201873934E+02  0.31010011592E+02  0.00000000000E+00 0. -1.
</event>
<event>
 7    1  0.5855569E-013  0.5052886E+02  0.7816164E-02  0.1300439E+00
        -11   -1    0    0    0    0  0.00000000000E+00  0.00000000000E+00  0.45593999997E+02  0.45594000000E+02  0.51100000000E-03 0. -1.
         11   -1    0    0    0    0 -0.00000000000E+00 -0.00000000000E+00 -0.45593999997E+02  0.45594000000E+02  0.51100000000E-03 0.  1.
    9900012    2    1    2    0    0 -0.13941533251E+02 -0.38189455076E+02 -0.60403541864E+00  0.50528859734E+02  0.29999999648E+02 0.  0.
        -12    1    1    2    0    0  0.13941533251E+02  0.38189455076E+02  0.60403541864E+00  0.40659140266E+02  0.00000000000E+00 0.  1.
         11    1    3    3    0    0 -0.99513877863E+01 -0.31681644714E+02 -0.96223752635E+01  0.34573788289E+02  0.51100000000E-03 0. -1.
        -11    1    3    3    0    0 -0.27962636573E+01 -0.89957296918E+01  0.40130429050E+01  0.10239470531E+02  0.51100000000E-03 0.  1.
        -12    1    3    3    0    0 -0.11938818070E+01  0.24879193298E+01  0.50052969399E+01  0.57156009148E+01  0.00000000000E+00 0.  1.
</event>
<event>
 7    1  0.5855569E-013  0.5052885E+02  0.7816164E-02  0.1300439E+00
        -11   -1    0    0    0    0  0.00000000000E+00  0.00000000000E+00  0.45593999997E+02  0.45594000000E+02  0.51100000000E-03 0.  1.
         11   -1    0    0    0    0 -0.00000000000E+00 -0.00000000000E+00 -0.45593999997E+02  0.45594000000E+02  0.51100000000E-03 0. -1.
    9900012    2    1    2    0    0  0.31041398345E+02  0.21204063525E+02 -0.15491466157E+02  0.50528852875E+02  0.29999978800E+02 0.  0.
        -12    1    1    2    0    0 -0.31041398345E+02 -0.21204063525E+02  0.15491466157E+02  0.40659147125E+02  0.00000000000E+00 0.  1.
         11    1    3    3    0    0 -0.22492606072E+01  0.86299477888E-01  0.14174483576E+01  0.26600340198E+01  0.51100000000E-03 0.  1.
        -11    1    3    3    0    0  0.21082652860E+02  0.11390583262E+02  0.11602588038E+01  0.23991036647E+02  0.51100000000E-03 0. -1.
         12    1    3    3    0    0  0.12208006093E+02  0.97271807848E+01 -0.18069173318E+02  0.23877782208E+02  0.00000000000E+00 0. -1.
</event>
<event>
 7    1  0.5855569E-013  0.5052887E+02  0.7816164E-02  0.1300439E+00
        -11   -1    0    0    0    0  0.00000000000E+00  0.00000000000E+00  0.45593999997E+02  0.45594000000E+02  0.51100000000E-03 0.  1.
         11   -1    0    0    0    0 -0.00000000000E+00 -0.00000000000E+00 -0.45593999997E+02  0.45594000000E+02  0.51100000000E-03 0. -1.
    9900012    2    1    2    0    0 -0.31751335805E+02  0.22295377117E+02 -0.12162814295E+02  0.50528865506E+02  0.30000017193E+02 0.  0.
        -12    1    1    2    0    0  0.31751335805E+02 -0.22295377117E+02  0.12162814295E+02  0.40659134494E+02  0.00000000000E+00 0.  1.
         11    1    3    3    0    0 -0.54915709697E+01  0.10069093884E+02 -0.66847340216E+01  0.13275152450E+02  0.51100000000E-03 0.  1.
        -11    1    3    3    0    0 -0.49817064821E+01  0.89509928748E+01 -0.10996881946E+02  0.15028941604E+02  0.51100000000E-03 0. -1.
        -12    1    3    3    0    0 -0.21278058354E+02  0.32752903584E+01  0.55188016733E+01  0.22224771453E+02  0.00000000000E+00 0.  1.
</event>
<event>
 7    1  0.5855569E-013  0.5052886E+02  0.7816164E-02  0.1300439E+00
        -11   -1    0    0    0    0  0.00000000000E+00  0.00000000000E+00  0.45593999997E+02  0.45594000000E+02  0.51100000000E-03 0. -1.
         11   -1    0    0    0    0 -0.00000000000E+00 -0.00000000000E+00 -0.45593999997E+02  0.45594000000E+02  0.51100000000E-03 0.  1.
    9900012    2    1    2    0    0 -0.38303047414E+02  0.11414354127E+02  0.74669136765E+01  0.50528859315E+02  0.29999998375E+02 0.  0.
        -12    1    1    2    0    0  0.38303047414E+02 -0.11414354127E+02 -0.74669136765E+01  0.40659140685E+02  0.00000000000E+00 0.  1.
         11    1    3    3    0    0 -0.14278118408E+02  0.43821310474E+01 -0.94182962782E+01  0.17657067787E+02  0.51100000000E-03 0. -1.
        -11    1    3    3    0    0  0.60079570749E+00 -0.97231442306E+00 -0.90290951688E+00  0.14565701755E+01  0.51100000000E-03 0.  1.
         12    1    3    3    0    0 -0.24625724714E+02  0.80045375022E+01  0.17788119472E+02  0.31415221353E+02  0.00000000000E+00 0. -1.
</event>
<event>
 7    1  0.5855569E-013  0.5052886E+02  0.7816164E-02  0.1300439E+00
        -11   -1    0    0    0    0  0.00000000000E+00  0.00000000000E+00  0.45593999997E+02  0.45594000000E+02  0.51100000000E-03 0.  1.
         11   -1    0    0    0    0 -0.00000000000E+00 -0.00000000000E+00 -0.45593999997E+02  0.45594000000E+02  0.51100000000E-03 0. -1.
    9900012    2    1    2    0    0  0.12428639610E+02 -0.33984651640E+02  0.18540167446E+02  0.50528862792E+02  0.30000008941E+02 0.  0.
        -12    1    1    2    0    0 -0.12428639610E+02  0.33984651640E+02 -0.18540167446E+02  0.40659137208E+02  0.00000000000E+00 0.  1.
         11    1    3    3    0    0  0.14316869604E+02 -0.95851297270E+01  0.92788455698E+01  0.19568966311E+02  0.51100000000E-03 0. -1.
        -11    1    3    3    0    0  0.10456489088E+01  0.28193632748E+00  0.57580384766E+01  0.58589996665E+01  0.51100000000E-03 0.  1.
         12    1    3    3    0    0 -0.29338789027E+01 -0.24681458240E+02  0.35032833995E+01  0.25100896814E+02  0.00000000000E+00 0. -1.
</event>
<event>
 7    1  0.5855569E-013  0.5052886E+02  0.7816164E-02  0.1300439E+00
        -11   -1    0    0    0    0  0.00000000000E+00  0.00000000000E+00  0.45593999997E+02  0.45594000000E+02  0.51100000000E-03 0.  1.
         11   -1    0    0    0    0 -0.00000000000E+00 -0.00000000000E+00 -0.45593999997E+02  0.45594000000E+02  0.51100000000E-03 0. -1.
    9900012    2    1    2    0    0  0.31125763758E+02  0.11508199119E+02 -0.23492851869E+02  0.50528857050E+02  0.29999991490E+02 0.  0.
        -12    1    1    2    0    0 -0.31125763758E+02 -0.11508199119E+02  0.23492851869E+02  0.40659142950E+02  0.00000000000E+00 0.  1.
         11    1    3    3    0    0  0.37241928748E+01 -0.46651062366E+01 -0.95538965429E+01  0.11265423569E+02  0.51100000000E-03 0. -1.
        -11    1    3    3    0    0 -0.20020578469E+01 -0.62975078117E+00  0.90674635913E+00  0.22862657084E+01  0.51100000000E-03 0.  1.
         12    1    3    3    0    0  0.29403628730E+02  0.16803056137E+02 -0.14845701685E+02  0.36977167773E+02  0.00000000000E+00 0. -1.
</event>
<event>
 7    1  0.5855569E-013  0.5052887E+02  0.7816164E-02  0.1300439E+00
        -11   -1    0    0    0    0  0.00000000000E+00  0.00000000000E+00  0.45593999997E+02  0.45594000000E+02  0.51100000000E-03 0. -1.
         11   -1    0    0    0    0 -0.00000000000E+00 -0.00000000000E+00 -0.45593999997E+02  0.45594000000E+02  0.51100000000E-03 0.  1.
    9900012    2    1    2    0    0  0.24310758604E+02  0.32218919855E+02 -0.49084503553E+01  0.50528872299E+02  0.30000037839E+02 0.  0.
        -12    1    1    2    0    0 -0.24310758604E+02 -0.32218919855E+02  0.49084503553E+01  0.40659127701E+02  0.00000000000E+00 0.  1.
         11    1    3    3    0    0  0.42304470928E-01  0.51526239516E+01  0.24923265671E+01  0.57238986043E+01  0.51100000000E-03 0. -1.
        -11    1    3    3    0    0  0.23653704942E+02  0.87375031289E+01 -0.53128317946E+00  0.25221498379E+02  0.51100000000E-03 0.  1.
         12    1    3    3    0    0  0.61474919135E+00  0.18328792775E+02 -0.68694937429E+01  0.19583475315E+02  0.00000000000E+00 0. -1.
</event>
<event>
 7    1  0.5855569E-013  0.5052885E+02  0.7816164E-02  0.1300439E+00
        -11   -1    0    0    0    0  0.00000000000E+00  0.00000000000E+00  0.45593999997E+02  0.45594000000E+02  0.51100000000E-03 0.  1.
         11   -1    0    0    0    0 -0.00000000000E+00 -0.00000000000E+00 -0.45593999997E+02  0.45594000000E+02  0.51100000000E-03 0. -1.
    9900012    2    1    2    0    0  0.29117266429E+02 -0.33737148723E+01 -0.28177459704E+02  0.50528851070E+02  0.29999973312E+02 0.  0.
        -12    1    1    2    0    0 -0.29117266429E+02  0.33737148723E+01  0.28177459704E+02  0.40659148930E+02  0.00000000000E+00 0.  1.
         11    1    3    3    0    0  0.14261561577E+02 -0.12005027015E+02 -0.15491466337E+02  0.24238365081E+02  0.51100000000E-03 0. -1.
        -11    1    3    3    0    0  0.19146086571E+01  0.91030633972E+00 -0.10913187076E+02  0.11117195526E+02  0.51100000000E-03 0.  1.
        -12    1    3    3    0    0  0.12941096195E+02  0.77210058029E+01 -0.17728062909E+01  0.15173290463E+02  0.00000000000E+00 0.  1.
</event>
<event>
 7    1  0.5855569E-013  0.5052886E+02  0.7816164E-02  0.1300439E+00
        -11   -1    0    0    0    0  0.00000000000E+00  0.00000000000E+00  0.45593999997E+02  0.45594000000E+02  0.51100000000E-03 0.  1.
         11   -1    0    0    0    0 -0.00000000000E+00 -0.00000000000E+00 -0.45593999997E+02  0.45594000000E+02  0.51100000000E-03 0. -1.
    9900012    2    1    2    0    0 -0.28937466046E+01  0.52719701638E+01 -0.40211915134E+02  0.50528861327E+02  0.30000004491E+02 0.  0.
        -12    1    1    2    0    0  0.28937466046E+01 -0.52719701638E+01  0.40211915134E+02  0.40659138673E+02  0.00000000000E+00 0.  1.
         11    1    3    3    0    0  0.10653983699E+00  0.16097422976E+02 -0.16143655555E+02  0.22798157648E+02  0.51100000000E-03 0. -1.
        -11    1    3    3    0    0  0.15558457978E+01 -0.92247893400E+00 -0.68994911185E+00  0.19358857322E+01  0.51100000000E-03 0.  1.
         12    1    3    3    0    0 -0.45561322393E+01 -0.99029738782E+01 -0.23378310468E+02  0.25794817947E+02  0.00000000000E+00 0. -1.
</event>
<event>
 7    1  0.5855569E-013  0.5052886E+02  0.7816164E-02  0.1300439E+00
        -11   -1    0    0    0    0  0.00000000000E+00  0.00000000000E+00  0.45593999997E+02  0.45594000000E+02  0.51100000000E-03 0.  1.
         11   -1    0    0    0    0 -0.00000000000E+00 -0.00000000000E+00 -0.45593999997E+02  0.45594000000E+02  0.51100000000E-03 0. -1.
    9900012    2    1    2    0    0 -0.94537352953E+01 -0.30731844164E+02  0.24886667723E+02  0.50528860965E+02  0.30000003388E+02 0.  0.
        -12    1    1    2    0    0  0.94537352953E+01  0.30731844164E+02 -0.24886667723E+02  0.40659139035E+02  0.00000000000E+00 0.  1.
         11    1    3    3    0    0 -0.13300785912E+02 -0.14354406820E+02  0.77880157868E+01  0.21062124564E+02  0.51100000000E-03 0. -1.
        -11    1    3    3    0    0  0.32516535915E+01 -0.19960952211E+02  0.13269851968E+02  0.24188878349E+02  0.51100000000E-03 0.  1.
        -12    1    3    3    0    0  0.59539702493E+00  0.35835148666E+01  0.38287999681E+01  0.52778580515E+01  0.00000000000E+00 0.  1.
</event>
<event>
 7    1  0.5855569E-013  0.5052884E+02  0.7816164E-02  0.1300439E+00
        -11   -1    0    0    0    0  0.00000000000E+00  0.00000000000E+00  0.45593999997E+02  0.45594000000E+02  0.51100000000E-03 0.  1.
         11   -1    0    0    0    0 -0.00000000000E+00 -0.00000000000E+00 -0.45593999997E+02  0.45594000000E+02  0.51100000000E-03 0. -1.
    9900012    2    1    2    0    0 -0.31322625587E+02  0.14751935558E+02 -0.21317614355E+02  0.50528841645E+02  0.29999944663E+02 0.  0.
        -12    1    1    2    0    0  0.31322625587E+02 -0.14751935558E+02  0.21317614355E+02  0.40659158355E+02  0.00000000000E+00 0.  1.
         11    1    3    3    0    0 -0.13733176771E+02  0.23939899932E+01 -0.18105391801E+02  0.22850307325E+02  0.51100000000E-03 0. -1.
        -11    1    3    3    0    0  0.30231542638E+00  0.35689086085E+01 -0.65516816072E+01  0.74667955253E+01  0.51100000000E-03 0.  1.
        -12    1    3    3    0    0 -0.17891764242E+02  0.87890369560E+01  0.33394590531E+01  0.20211738794E+02  0.00000000000E+00 0.  1.
</event>
<event>
 7    1  0.5855569E-013  0.5052887E+02  0.7816164E-02  0.1300439E+00
        -11   -1    0    0    0    0  0.00000000000E+00  0.00000000000E+00  0.45593999997E+02  0.45594000000E+02  0.51100000000E-03 0.  1.
         11   -1    0    0    0    0 -0.00000000000E+00 -0.00000000000E+00 -0.45593999997E+02  0.45594000000E+02  0.51100000000E-03 0. -1.
    9900012    2    1    2    0    0 -0.37209481337E+02  0.50588580639E+01  0.15589328227E+02  0.50528871863E+02  0.30000036514E+02 0.  0.
        -12    1    1    2    0    0  0.37209481337E+02 -0.50588580639E+01 -0.15589328227E+02  0.40659128137E+02  0.00000000000E+00 0.  1.
         11    1    3    3    0    0 -0.25418232722E+02  0.68394892662E+01  0.80980692956E+01  0.27539860107E+02  0.51100000000E-03 0. -1.
        -11    1    3    3    0    0 -0.77619684102E+01  0.79639310766E+01  0.47571872685E+01  0.12095585259E+02  0.51100000000E-03 0.  1.
        -12    1    3    3    0    0 -0.40292802055E+01 -0.97445622790E+01  0.27340716633E+01  0.10893426497E+02  0.00000000000E+00 0.  1.
</event>
<event>
 7    1  0.5855569E-013  0.5052886E+02  0.7816164E-02  0.1300439E+00
        -11   -1    0    0    0    0  0.00000000000E+00  0.00000000000E+00  0.45593999997E+02  0.45594000000E+02  0.51100000000E-03 0.  1.
         11   -1    0    0    0    0 -0.00000000000E+00 -0.00000000000E+00 -0.45593999997E+02  0.45594000000E+02  0.51100000000E-03 0. -1.
    9900012    2    1    2    0    0  0.60799174002E+00  0.32945286910E+02  0.23820241604E+02  0.50528862114E+02  0.30000006882E+02 0.  0.
        -12    1    1    2    0    0 -0.60799174002E+00 -0.32945286910E+02 -0.23820241604E+02  0.40659137886E+02  0.00000000000E+00 0.  1.
         11    1    3    3    0    0 -0.57212103321E+01  0.16022521688E+02  0.10532241582E+02  0.20009536774E+02  0.51100000000E-03 0. -1.
        -11    1    3    3    0    0 -0.35317898015E+01  0.16297021922E+02  0.44409303032E+01  0.17256544409E+02  0.51100000000E-03 0.  1.
        -12    1    3    3    0    0  0.98609918737E+01  0.62574330013E+00  0.88470697191E+01  0.13262780931E+02  0.00000000000E+00 0.  1.
</event>
<event>
 7    1  0.5855569E-013  0.5052886E+02  0.7816164E-02  0.1300439E+00
        -11   -1    0    0    0    0  0.00000000000E+00  0.00000000000E+00  0.45593999997E+02  0.45594000000E+02  0.51100000000E-03 0. -1.
         11   -1    0    0    0    0 -0.00000000000E+00 -0.00000000000E+00 -0.45593999997E+02  0.45594000000E+02  0.51100000000E-03 0.  1.
    9900012    2    1    2    0    0  0.13031068491E+01  0.39723502315E+02  0.85738603492E+01  0.50528858286E+02  0.29999995247E+02 0.  0.
        -12    1    1    2    0    0 -0.13031068491E+01 -0.39723502315E+02 -0.85738603492E+01  0.40659141714E+02  0.00000000000E+00 0.  1.
         11    1    3    3    0    0 -0.32414432893E+01  0.83701243577E+01  0.44759319232E+01  0.10029950309E+02  0.51100000000E-03 0.  1.
        -11    1    3    3    0    0  0.17921510571E+01  0.19809900986E+02  0.14582578014E+02  0.24663648641E+02  0.51100000000E-03 0. -1.
        -12    1    3    3    0    0  0.27523990813E+01  0.11543476971E+02 -0.10484649588E+02  0.15835259337E+02  0.00000000000E+00 0.  1.
</event>
<event>
 7    1  0.5855569E-013  0.5052890E+02  0.7816164E-02  0.1300439E+00
        -11   -1    0    0    0    0  0.00000000000E+00  0.00000000000E+00  0.45593999997E+02  0.45594000000E+02  0.51100000000E-03 0.  1.
         11   -1    0    0    0    0 -0.00000000000E+00 -0.00000000000E+00 -0.45593999997E+02  0.45594000000E+02  0.51100000000E-03 0. -1.
    9900012    2    1    2    0    0  0.25896200974E+02 -0.17557836405E+02 -0.25966737307E+02  0.50528901505E+02  0.30000126613E+02 0.  0.
        -12    1    1    2    0    0 -0.25896200974E+02  0.17557836405E+02  0.25966737307E+02  0.40659098495E+02  0.00000000000E+00 0.  1.
         11    1    3    3    0    0  0.14575369548E+02 -0.89492510677E+01 -0.82017993460E+01  0.18968394895E+02  0.51100000000E-03 0. -1.
        -11    1    3    3    0    0  0.69906521840E+01 -0.11519845482E+02 -0.45657481497E+00  0.13482748930E+02  0.51100000000E-03 0.  1.
        -12    1    3    3    0    0  0.43301792419E+01  0.29112601454E+01 -0.17308363146E+02  0.18077757679E+02  0.00000000000E+00 0.  1.
</event>
<event>
 7    1  0.5855569E-013  0.5052886E+02  0.7816164E-02  0.1300439E+00
        -11   -1    0    0    0    0  0.00000000000E+00  0.00000000000E+00  0.45593999997E+02  0.45594000000E+02  0.51100000000E-03 0.  1.
         11   -1    0    0    0    0 -0.00000000000E+00 -0.00000000000E+00 -0.45593999997E+02  0.45594000000E+02  0.51100000000E-03 0. -1.
    9900012    2    1    2    0    0  0.25497864860E+02 -0.68443880669E+01 -0.30922141961E+02  0.50528860512E+02  0.30000002014E+02 0.  0.
        -12    1    1    2    0    0 -0.25497864860E+02  0.68443880669E+01  0.30922141961E+02  0.40659139488E+02  0.00000000000E+00 0.  1.
         11    1    3    3    0    0  0.12847340203E+02 -0.34062403458E+01 -0.21786357705E+02  0.25520619231E+02  0.51100000000E-03 0. -1.
        -11    1    3    3    0    0  0.58002027668E+01  0.74178755620E+01 -0.75591716035E+01  0.12075110997E+02  0.51100000000E-03 0.  1.
         12    1    3    3    0    0  0.68503218900E+01 -0.10856023283E+02 -0.15766126520E+01  0.12933130285E+02  0.00000000000E+00 0. -1.
</event>
<event>
 7    1  0.5855569E-013  0.5052886E+02  0.7816164E-02  0.1300439E+00
        -11   -1    0    0    0    0  0.00000000000E+00  0.00000000000E+00  0.45593999997E+02  0.45594000000E+02  0.51100000000E-03 0. -1.
         11   -1    0    0    0    0 -0.00000000000E+00 -0.00000000000E+00 -0.45593999997E+02  0.45594000000E+02  0.51100000000E-03 0.  1.
    9900012    2    1    2    0    0 -0.31198347503E+01 -0.97844690139E+01  0.39340771122E+02  0.50528862340E+02  0.30000007570E+02 0.  0.
        -12    1    1    2    0    0  0.31198347503E+01  0.97844690139E+01 -0.39340771122E+02  0.40659137660E+02  0.00000000000E+00 0.  1.
         11    1    3    3    0    0  0.19608420512E+01 -0.30868792900E+01  0.55678519724E+01  0.66614338658E+01  0.51100000000E-03 0. -1.
        -11    1    3    3    0    0 -0.91557872907E+01 -0.12434409204E+02  0.84861839181E+01  0.17619826643E+02  0.51100000000E-03 0.  1.
         12    1    3    3    0    0  0.40751104892E+01  0.57368194803E+01  0.25286735231E+02  0.26247601832E+02  0.00000000000E+00 0. -1.
</event>
<event>
 7    1  0.5855569E-013  0.5052886E+02  0.7816164E-02  0.1300439E+00
        -11   -1    0    0    0    0  0.00000000000E+00  0.00000000000E+00  0.45593999997E+02  0.45594000000E+02  0.51100000000E-03 0.  1.
         11   -1    0    0    0    0 -0.00000000000E+00 -0.00000000000E+00 -0.45593999997E+02  0.45594000000E+02  0.51100000000E-03 0. -1.
    9900012    2    1    2    0    0  0.21314059299E+02 -0.31645303168E+02 -0.14051739366E+02  0.50528859384E+02  0.29999998585E+02 0.  0.
        -12    1    1    2    0    0 -0.21314059299E+02  0.31645303168E+02  0.14051739366E+02  0.40659140616E+02  0.00000000000E+00 0.  1.
         11    1    3    3    0    0  0.50584492446E+01 -0.20302625612E+02 -0.12450442033E+02  0.24347443862E+02  0.51100000000E-03 0. -1.
        -11    1    3    3    0    0  0.22588434698E+01 -0.92013022751E+01 -0.61659530821E+01  0.11304216693E+02  0.51100000000E-03 0.  1.
         12    1    3    3    0    0  0.13996766584E+02 -0.21413752804E+01  0.45646557488E+01  0.14877198830E+02  0.00000000000E+00 0. -1.
</event>
<event>
 7    1  0.5855569E-013  0.5052882E+02  0.7816164E-02  0.1300439E+00
        -11   -1    0    0    0    0  0.00000000000E+00  0.00000000000E+00  0.45593999997E+02  0.45594000000E+02  0.51100000000E-03 0.  1.
         11   -1    0    0    0    0 -0.00000000000E+00 -0.00000000000E+00 -0.45593999997E+02  0.45594000000E+02  0.51100000000E-03 0. -1.
    9900012    2    1    2    0    0 -0.22952082505E+02  0.33516714521E+02 -0.17321357950E+01  0.50528824676E+02  0.29999893086E+02 0.  0.
        -12    1    1    2    0    0  0.22952082505E+02 -0.33516714521E+02  0.17321357950E+01  0.40659175324E+02  0.00000000000E+00 0.  1.
         11    1    3    3    0    0 -0.13379765199E+02  0.66135469503E+01  0.13646225539E+01  0.14987305129E+02  0.51100000000E-03 0. -1.
        -11    1    3    3    0    0 -0.14965496295E+02  0.19033684548E+02  0.27248284203E+01  0.24365383580E+02  0.51100000000E-03 0.  1.
        -12    1    3    3    0    0  0.53931789893E+01  0.78694830223E+01 -0.58215867691E+01  0.11176135967E+02  0.00000000000E+00 0.  1.
</event>
<event>
 7    1  0.5855569E-013  0.5052885E+02  0.7816164E-02  0.1300439E+00
        -11   -1    0    0    0    0  0.00000000000E+00  0.00000000000E+00  0.45593999997E+02  0.45594000000E+02  0.51100000000E-03 0.  1.
         11   -1    0    0    0    0 -0.00000000000E+00 -0.00000000000E+00 -0.45593999997E+02  0.45594000000E+02  0.51100000000E-03 0. -1.
    9900012    2    1    2    0    0  0.30844371036E+02 -0.87627266006E+01 -0.25000111738E+02  0.50528853563E+02  0.29999980891E+02 0.  0.
        -12    1    1    2    0    0 -0.30844371036E+02  0.87627266006E+01  0.25000111738E+02  0.40659146437E+02  0.00000000000E+00 0.  1.
         11    1    3    3    0    0  0.13153356858E+02 -0.53161111595E+01 -0.23774603012E+02  0.27685801110E+02  0.51100000000E-03 0. -1.
        -11    1    3    3    0    0  0.10379176604E+01 -0.29273355413E+01 -0.48811658311E+01  0.57855290659E+01  0.51100000000E-03 0.  1.
        -12    1    3    3    0    0  0.16653096518E+02 -0.51927989973E+00  0.36556571050E+01  0.17057523387E+02  0.00000000000E+00 0.  1.
</event>
<event>
 7    1  0.5855569E-013  0.5052888E+02  0.7816164E-02  0.1300439E+00
        -11   -1    0    0    0    0  0.00000000000E+00  0.00000000000E+00  0.45593999997E+02  0.45594000000E+02  0.51100000000E-03 0.  1.
         11   -1    0    0    0    0 -0.00000000000E+00 -0.00000000000E+00 -0.45593999997E+02  0.45594000000E+02  0.51100000000E-03 0. -1.
    9900012    2    1    2    0    0 -0.38862773597E+02 -0.23981219665E-01 -0.11951923856E+02  0.50528877646E+02  0.30000054094E+02 0.  0.
        -12    1    1    2    0    0  0.38862773597E+02  0.23981219665E-01  0.11951923856E+02  0.40659122354E+02  0.00000000000E+00 0.  1.
         11    1    3    3    0    0 -0.17671855149E+02 -0.75167246040E+01 -0.21510039055E+01  0.19324141151E+02  0.51100000000E-03 0. -1.
        -11    1    3    3    0    0 -0.14422415706E+02  0.16189978879E+00  0.32418609500E+01  0.14783164378E+02  0.51100000000E-03 0.  1.
        -12    1    3    3    0    0 -0.67685027415E+01  0.73308435956E+01 -0.13042780900E+02  0.16421572117E+02  0.00000000000E+00 0.  1.
</event>
<event>
 7    1  0.5855569E-013  0.5052884E+02  0.7816164E-02  0.1300439E+00
        -11   -1    0    0    0    0  0.00000000000E+00  0.00000000000E+00  0.45593999997E+02  0.45594000000E+02  0.51100000000E-03 0.  1.
         11   -1    0    0    0    0 -0.00000000000E+00 -0.00000000000E+00 -0.45593999997E+02  0.45594000000E+02  0.51100000000E-03 0. -1.
    9900012    2    1    2    0    0 -0.17934543405E+02  0.28243622777E+02 -0.23104486041E+02  0.50528839286E+02  0.29999937494E+02 0.  0.
        -12    1    1    2    0    0  0.17934543405E+02 -0.28243622777E+02  0.23104486041E+02  0.40659160714E+02  0.00000000000E+00 0.  1.
         11    1    3    3    0    0 -0.30438019745E+01  0.23986295709E+01 -0.50571687971E+01  0.63712723048E+01  0.51100000000E-03 0. -1.
        -11    1    3    3    0    0 -0.76068513089E+01  0.94012424058E+01 -0.22576339671E+02  0.25611299436E+02  0.51100000000E-03 0.  1.
        -12    1    3    3    0    0 -0.72838901219E+01  0.16443750801E+02  0.45290224274E+01  0.18546267545E+02  0.00000000000E+00 0.  1.
</event>
<event>
 7    1  0.5855569E-013  0.5052886E+02  0.7816164E-02  0.1300439E+00
        -11   -1    0    0    0    0  0.00000000000E+00  0.00000000000E+00  0.45593999997E+02  0.45594000000E+02  0.51100000000E-03 0. -1.
         11   -1    0    0    0    0 -0.00000000000E+00 -0.00000000000E+00 -0.45593999997E+02  0.45594000000E+02  0.51100000000E-03 0.  1.
    9900012    2    1    2    0    0 -0.57511880039E+01  0.40246200604E+02  0.57681550766E+00  0.50528861511E+02  0.30000005049E+02 0.  0.
        -12    1    1    2    0    0  0.57511880039E+01 -0.40246200604E+02 -0.57681550766E+00  0.40659138489E+02  0.00000000000E+00 0.  1.
         11    1    3    3    0    0  0.75659787614E+00  0.16005179109E+02  0.14387430963E+02  0.21534538970E+02  0.51100000000E-03 0. -1.
        -11    1    3    3    0    0  0.66253896523E+00  0.29273093279E+01 -0.18137989201E+01  0.35068453866E+01  0.51100000000E-03 0.  1.
         12    1    3    3    0    0 -0.71703248453E+01  0.21313712167E+02 -0.11996816535E+02  0.25487477155E+02  0.00000000000E+00 0. -1.
</event>
<event>
 7    1  0.5855569E-013  0.5052886E+02  0.7816164E-02  0.1300439E+00
        -11   -1    0    0    0    0  0.00000000000E+00  0.00000000000E+00  0.45593999997E+02  0.45594000000E+02  0.51100000000E-03 0.  1.
         11   -1    0    0    0    0 -0.00000000000E+00 -0.00000000000E+00 -0.45593999997E+02  0.45594000000E+02  0.51100000000E-03 0. -1.
    9900012    2    1    2    0    0 -0.31242174319E+02  0.24917036209E+02 -0.74989266705E+01  0.50528855262E+02  0.29999986054E+02 0.  0.
        -12    1    1    2    0    0  0.31242174319E+02 -0.24917036209E+02  0.74989266705E+01  0.40659144738E+02  0.00000000000E+00 0.  1.
         11    1    3    3    0    0  0.11808785238E+00  0.16197249170E+01 -0.70049917851E+01  0.71907832479E+01  0.51100000000E-03 0. -1.
        -11    1    3    3    0    0 -0.97582056802E+01  0.50050129435E+01 -0.85517788361E+01  0.13907036139E+02  0.51100000000E-03 0.  1.
        -12    1    3    3    0    0 -0.21602056491E+02  0.18292298349E+02  0.80578439507E+01  0.29431035875E+02  0.00000000000E+00 0.  1.
</event>
<event>
 7    1  0.5855569E-013  0.5052884E+02  0.7816164E-02  0.1300439E+00
        -11   -1    0    0    0    0  0.00000000000E+00  0.00000000000E+00  0.45593999997E+02  0.45594000000E+02  0.51100000000E-03 0. -1.
         11   -1    0    0    0    0 -0.00000000000E+00 -0.00000000000E+00 -0.45593999997E+02  0.45594000000E+02  0.51100000000E-03 0.  1.
    9900012    2    1    2    0    0 -0.33105444475E+02 -0.16485356851E+02 -0.16894670221E+02  0.50528839577E+02  0.29999938379E+02 0.  0.
        -12    1    1    2    0    0  0.33105444475E+02  0.16485356851E+02  0.16894670221E+02  0.40659160423E+02  0.00000000000E+00 0.  1.
         11    1    3    3    0    0 -0.41749460376E+01 -0.25340340860E+01 -0.12780706106E+02  0.13682030258E+02  0.51100000000E-03 0. -1.
        -11    1    3    3    0    0 -0.41417056484E+00 -0.33491040126E+01 -0.54318892408E+01  0.63947991312E+01  0.51100000000E-03 0.  1.
         12    1    3    3    0    0 -0.28516327873E+02 -0.10602218752E+02  0.13179251254E+01  0.30452010187E+02  0.00000000000E+00 0. -1.
</event>
<event>
 7    1  0.5855569E-013  0.5052886E+02  0.7816164E-02  0.1300439E+00
        -11   -1    0    0    0    0  0.00000000000E+00  0.00000000000E+00  0.45593999997E+02  0.45594000000E+02  0.51100000000E-03 0.  1.
         11   -1    0    0    0    0 -0.00000000000E+00 -0.00000000000E+00 -0.45593999997E+02  0.45594000000E+02  0.51100000000E-03 0. -1.
    9900012    2    1    2    0    0 -0.37059081820E+02  0.95594970814E+01 -0.13726097925E+02  0.50528864569E+02  0.30000014344E+02 0.  0.
        -12    1    1    2    0    0  0.37059081820E+02 -0.95594970814E+01  0.13726097925E+02  0.40659135431E+02  0.00000000000E+00 0.  1.
         11    1    3    3    0    0 -0.13579030778E+02  0.40375313354E+00 -0.71044443936E+01  0.15330565021E+02  0.51100000000E-03 0. -1.
        -11    1    3    3    0    0 -0.17371360571E+02 -0.58807695839E+01 -0.34796801484E+01  0.18666970648E+02  0.51100000000E-03 0.  1.
         12    1    3    3    0    0 -0.61086904710E+01  0.15036513532E+02 -0.31419733832E+01  0.16531328900E+02  0.00000000000E+00 0. -1.
</event>
<event>
 7    1  0.5855569E-013  0.5052885E+02  0.7816164E-02  0.1300439E+00
        -11   -1    0    0    0    0  0.00000000000E+00  0.00000000000E+00  0.45593999997E+02  0.45594000000E+02  0.51100000000E-03 0. -1.
         11   -1    0    0    0    0 -0.00000000000E+00 -0.00000000000E+00 -0.45593999997E+02  0.45594000000E+02  0.51100000000E-03 0.  1.
    9900012    2    1    2    0    0  0.59729929466E+01  0.24379076258E+02  0.31986720943E+02  0.50528851944E+02  0.29999975970E+02 0.  0.
        -12    1    1    2    0    0 -0.59729929466E+01 -0.24379076258E+02 -0.31986720943E+02  0.40659148056E+02  0.00000000000E+00 0.  1.
         11    1    3    3    0    0 -0.56715205034E+00  0.16766880500E+02  0.13251673788E+02  0.21378886819E+02  0.51100000000E-03 0. -1.
        -11    1    3    3    0    0  0.59860732442E+01  0.13920532857E+02  0.16578506159E+02  0.22460213148E+02  0.51100000000E-03 0.  1.
        -12    1    3    3    0    0  0.55407175277E+00 -0.63083370989E+01  0.21565409954E+01  0.66897519779E+01  0.00000000000E+00 0.  1.
</event>
<event>
 7    1  0.5855569E-013  0.5052886E+02  0.7816164E-02  0.1300439E+00
        -11   -1    0    0    0    0  0.00000000000E+00  0.00000000000E+00  0.45593999997E+02  0.45594000000E+02  0.51100000000E-03 0.  1.
         11   -1    0    0    0    0 -0.00000000000E+00 -0.00000000000E+00 -0.45593999997E+02  0.45594000000E+02  0.51100000000E-03 0. -1.
    9900012    2    1    2    0    0 -0.23113368610E+02  0.24328838679E+02 -0.22957476643E+02  0.50528856701E+02  0.29999990429E+02 0.  0.
        -12    1    1    2    0    0  0.23113368610E+02 -0.24328838679E+02  0.22957476643E+02  0.40659143299E+02  0.00000000000E+00 0.  1.
         11    1    3    3    0    0 -0.11787151975E+02  0.15106291025E+02 -0.50124898774E+01  0.19805606157E+02  0.51100000000E-03 0. -1.
        -11    1    3    3    0    0 -0.10241345833E+02  0.44355312996E+01  0.95016210113E+00  0.11200978112E+02  0.51100000000E-03 0.  1.
        -12    1    3    3    0    0 -0.10848708019E+01  0.47870163547E+01 -0.18895148867E+02  0.19522272433E+02  0.00000000000E+00 0.  1.
</event>
<event>
 7    1  0.5855569E-013  0.5052889E+02  0.7816164E-02  0.1300439E+00
        -11   -1    0    0    0    0  0.00000000000E+00  0.00000000000E+00  0.45593999997E+02  0.45594000000E+02  0.51100000000E-03 0.  1.
         11   -1    0    0    0    0 -0.00000000000E+00 -0.00000000000E+00 -0.45593999997E+02  0.45594000000E+02  0.51100000000E-03 0. -1.
    9900012    2    1    2    0    0  0.32537176998E+01  0.26664536871E+02 -0.30521779891E+02  0.50528889667E+02  0.30000090631E+02 0.  0.
        -12    1    1    2    0    0 -0.32537176998E+01 -0.26664536871E+02  0.30521779891E+02  0.40659110333E+02  0.00000000000E+00 0.  1.
         11    1    3    3    0    0 -0.20403054354E+01 -0.40574914528E+00 -0.59149618144E+01  0.62701078273E+01  0.51100000000E-03 0. -1.
        -11    1    3    3    0    0 -0.40440228575E+01  0.13124053110E+02 -0.23772693815E+02  0.27454250352E+02  0.51100000000E-03 0.  1.
         12    1    3    3    0    0  0.93380459927E+01  0.13946232906E+02 -0.83412426120E+00  0.16804531487E+02  0.00000000000E+00 0. -1.
</event>
<event>
 7    1  0.5855569E-013  0.5052886E+02  0.7816164E-02  0.1300439E+00
        -11   -1    0    0    0    0  0.00000000000E+00  0.00000000000E+00  0.45593999997E+02  0.45594000000E+02  0.51100000000E-03 0.  1.
         11   -1    0    0    0    0 -0.00000000000E+00 -0.00000000000E+00 -0.45593999997E+02  0.45594000000E+02  0.51100000000E-03 0. -1.
    9900012    2    1    2    0    0 -0.32173814686E+02 -0.69022830182E+01 -0.23882415934E+02  0.50528860152E+02  0.30000000919E+02 0.  0.
        -12    1    1    2    0    0  0.32173814686E+02  0.69022830182E+01  0.23882415934E+02  0.40659139848E+02  0.00000000000E+00 0.  1.
         11    1    3    3    0    0 -0.86037375319E+01 -0.81692859441E+01 -0.20933905351E+02  0.24062209497E+02  0.51100000000E-03 0. -1.
        -11    1    3    3    0    0 -0.76835886955E+01  0.55554109292E+01  0.10301506017E+01  0.95373652733E+01  0.51100000000E-03 0.  1.
        -12    1    3    3    0    0 -0.15886488458E+02 -0.42884080033E+01 -0.39786611852E+01  0.16929285382E+02  0.00000000000E+00 0.  1.
</event>
<event>
 7    1  0.5855569E-013  0.5052884E+02  0.7816164E-02  0.1300439E+00
        -11   -1    0    0    0    0  0.00000000000E+00  0.00000000000E+00  0.45593999997E+02  0.45594000000E+02  0.51100000000E-03 0.  1.
         11   -1    0    0    0    0 -0.00000000000E+00 -0.00000000000E+00 -0.45593999997E+02  0.45594000000E+02  0.51100000000E-03 0. -1.
    9900012    2    1    2    0    0 -0.10360499813E+02  0.35869985678E+02 -0.16098811986E+02  0.50528836503E+02  0.29999929033E+02 0.  0.
        -12    1    1    2    0    0  0.10360499813E+02 -0.35869985678E+02  0.16098811986E+02  0.40659163497E+02  0.00000000000E+00 0.  1.
         11    1    3    3    0    0  0.27313910722E+01  0.24403913020E+01 -0.89547789163E+01  0.96749197721E+01  0.51100000000E-03 0. -1.
        -11    1    3    3    0    0  0.10047316063E+01  0.45661557937E+01 -0.73739718075E+01  0.87312498998E+01  0.51100000000E-03 0.  1.
        -12    1    3    3    0    0 -0.14096622492E+02  0.28863438583E+02  0.22993873797E+00  0.32122666831E+02  0.00000000000E+00 0.  1.
</event>
<event>
 7    1  0.5855569E-013  0.5052886E+02  0.7816164E-02  0.1300439E+00
        -11   -1    0    0    0    0  0.00000000000E+00  0.00000000000E+00  0.45593999997E+02  0.45594000000E+02  0.51100000000E-03 0.  1.
         11   -1    0    0    0    0 -0.00000000000E+00 -0.00000000000E+00 -0.45593999997E+02  0.45594000000E+02  0.51100000000E-03 0. -1.
    9900012    2    1    2    0    0  0.26384142942E+02 -0.29583720850E+02 -0.90468687039E+01  0.50528863616E+02  0.30000011448E+02 0.  0.
        -12    1    1    2    0    0 -0.26384142942E+02  0.29583720850E+02  0.90468687039E+01  0.40659136384E+02  0.00000000000E+00 0.  1.
         11    1    3    3    0    0  0.82271422949E+01 -0.73533749524E+01 -0.66935540769E+00  0.11054683643E+02  0.51100000000E-03 0. -1.
        -11    1    3    3    0    0  0.21276646913E+02 -0.25251892858E+02 -0.39227482615E+01  0.33252695394E+02  0.51100000000E-03 0.  1.
        -12    1    3    3    0    0 -0.31196462663E+01  0.30215469598E+01 -0.44547650347E+01  0.62214845794E+01  0.00000000000E+00 0.  1.
</event>
<event>
 7    1  0.5855569E-013  0.5052886E+02  0.7816164E-02  0.1300439E+00
        -11   -1    0    0    0    0  0.00000000000E+00  0.00000000000E+00  0.45593999997E+02  0.45594000000E+02  0.51100000000E-03 0.  1.
         11   -1    0    0    0    0 -0.00000000000E+00 -0.00000000000E+00 -0.45593999997E+02  0.45594000000E+02  0.51100000000E-03 0. -1.
    9900012    2    1    2    0    0  0.81069790532E+01  0.14757386173E+02 -0.37008949958E+02  0.50528856711E+02  0.29999990458E+02 0.  0.
        -12    1    1    2    0    0 -0.81069790532E+01 -0.14757386173E+02  0.37008949958E+02  0.40659143289E+02  0.00000000000E+00 0.  1.
         11    1    3    3    0    0  0.89842519495E+01 -0.85428085774E+00 -0.24326894435E+02  0.25946953039E+02  0.51100000000E-03 0. -1.
        -11    1    3    3    0    0 -0.27539080876E+01 -0.94014648150E+00 -0.59340544949E+01  0.66091518496E+01  0.51100000000E-03 0.  1.
         12    1    3    3    0    0  0.18766351913E+01  0.16551813512E+02 -0.67480010276E+01  0.17972751822E+02  0.00000000000E+00 0. -1.
</event>
<event>
 7    1  0.5855569E-013  0.5052887E+02  0.7816164E-02  0.1300439E+00
        -11   -1    0    0    0    0  0.00000000000E+00  0.00000000000E+00  0.45593999997E+02  0.45594000000E+02  0.51100000000E-03 0.  1.
         11   -1    0    0    0    0 -0.00000000000E+00 -0.00000000000E+00 -0.45593999997E+02  0.45594000000E+02  0.51100000000E-03 0. -1.
    9900012    2    1    2    0    0 -0.32339659982E+02 -0.25385191374E+01 -0.24512594951E+02  0.50528868204E+02  0.30000025394E+02 0.  0.
        -12    1    1    2    0    0  0.32339659982E+02  0.25385191374E+01  0.24512594951E+02  0.40659131796E+02  0.00000000000E+00 0.  1.
         11    1    3    3    0    0 -0.89982559995E+01  0.61798892542E+01 -0.38522240222E+01  0.11575805475E+02  0.51100000000E-03 0. -1.
        -11    1    3    3    0    0 -0.14498145972E+02  0.44875679870E+01 -0.35232065251E+01  0.15580355822E+02  0.51100000000E-03 0.  1.
        -12    1    3    3    0    0 -0.88432580101E+01 -0.13205976379E+02 -0.17137164404E+02  0.23372706907E+02  0.00000000000E+00 0.  1.
</event>
<event>
 7    1  0.5855569E-013  0.5052886E+02  0.7816164E-02  0.1300439E+00
        -11   -1    0    0    0    0  0.00000000000E+00  0.00000000000E+00  0.45593999997E+02  0.45594000000E+02  0.51100000000E-03 0.  1.
         11   -1    0    0    0    0 -0.00000000000E+00 -0.00000000000E+00 -0.45593999997E+02  0.45594000000E+02  0.51100000000E-03 0. -1.
    9900012    2    1    2    0    0 -0.38434739008E+02 -0.65318241009E+01 -0.11544326255E+02  0.50528863789E+02  0.30000011974E+02 0.  0.
        -12    1    1    2    0    0  0.38434739008E+02  0.65318241009E+01  0.11544326255E+02  0.40659136211E+02  0.00000000000E+00 0.  1.
         11    1    3    3    0    0 -0.12630719518E+02 -0.24833301177E+01 -0.22449679632E+01  0.13066823846E+02  0.51100000000E-03 0. -1.
        -11    1    3    3    0    0 -0.14204078192E+02 -0.43878417018E+01  0.78063504455E+01  0.16791310241E+02  0.51100000000E-03 0.  1.
         12    1    3    3    0    0 -0.11599941298E+02  0.33934771864E+00 -0.17105708737E+02  0.20670729702E+02  0.00000000000E+00 0. -1.
</event>
<event>
 7    1  0.5855569E-013  0.5052886E+02  0.7816164E-02  0.1300439E+00
        -11   -1    0    0    0    0  0.00000000000E+00  0.00000000000E+00  0.45593999997E+02  0.45594000000E+02  0.51100000000E-03 0. -1.
         11   -1    0    0    0    0 -0.00000000000E+00 -0.00000000000E+00 -0.45593999997E+02  0.45594000000E+02  0.51100000000E-03 0.  1.
    9900012    2    1    2    0    0  0.38017748423E+02  0.75319603664E+01  0.12291700947E+02  0.50528861614E+02  0.30000005361E+02 0.  0.
        -12    1    1    2    0    0 -0.38017748423E+02 -0.75319603664E+01 -0.12291700947E+02  0.40659138386E+02  0.00000000000E+00 0.  1.
         11    1    3    3    0    0  0.36913233880E+02  0.26902356519E+01  0.11865001602E+01  0.37030149692E+02  0.51100000000E-03 0.  1.
        -11    1    3    3    0    0 -0.16101860286E-01 -0.10448146979E+01  0.21213563666E+00  0.10662545720E+01  0.51100000000E-03 0. -1.
         12    1    3    3    0    0  0.11206164038E+01  0.58865394125E+01  0.10893065151E+02  0.12432457350E+02  0.00000000000E+00 0. -1.
</event>
<event>
 7    1  0.5855569E-013  0.5052886E+02  0.7816164E-02  0.1300439E+00
        -11   -1    0    0    0    0  0.00000000000E+00  0.00000000000E+00  0.45593999997E+02  0.45594000000E+02  0.51100000000E-03 0.  1.
         11   -1    0    0    0    0 -0.00000000000E+00 -0.00000000000E+00 -0.45593999997E+02  0.45594000000E+02  0.51100000000E-03 0. -1.
    9900012    2    1    2    0    0 -0.29002986902E+02 -0.12345606593E+02 -0.25682256340E+02  0.50528861518E+02  0.30000005071E+02 0.  0.
        -12    1    1    2    0    0  0.29002986902E+02  0.12345606593E+02  0.25682256340E+02  0.40659138482E+02  0.00000000000E+00 0.  1.
         11    1    3    3    0    0 -0.13027194773E+02 -0.42380641913E+01 -0.26003693444E+01  0.13943848563E+02  0.51100000000E-03 0. -1.
        -11    1    3    3    0    0 -0.59597232398E+01 -0.47567871838E+01  0.31930036613E+01  0.82668372459E+01  0.51100000000E-03 0.  1.
         12    1    3    3    0    0 -0.10016068889E+02 -0.33507552175E+01 -0.26274890657E+02  0.28318175710E+02  0.00000000000E+00 0. -1.
</event>
<event>
 7    1  0.5855569E-013  0.5052889E+02  0.7816164E-02  0.1300439E+00
        -11   -1    0    0    0    0  0.00000000000E+00  0.00000000000E+00  0.45593999997E+02  0.45594000000E+02  0.51100000000E-03 0.  1.
         11   -1    0    0    0    0 -0.00000000000E+00 -0.00000000000E+00 -0.45593999997E+02  0.45594000000E+02  0.51100000000E-03 0. -1.
    9900012    2    1    2    0    0  0.52469046769E+01  0.43077316540E+01 -0.40088364331E+02  0.50528886440E+02  0.30000080824E+02 0.  0.
        -12    1    1    2    0    0 -0.52469046769E+01 -0.43077316540E+01  0.40088364331E+02  0.40659113560E+02  0.00000000000E+00 0.  1.
         11    1    3    3    0    0  0.91549086853E+00  0.59335278186E+01 -0.42252769948E+02  0.42677177091E+02  0.51100000000E-03 0. -1.
        -11    1    3    3    0    0  0.17353808153E+01  0.17069634130E+01  0.26512443758E+01  0.35992176467E+01  0.51100000000E-03 0.  1.
        -12    1    3    3    0    0  0.25960329931E+01 -0.33327595777E+01 -0.48683875926E+00  0.42524917027E+01  0.00000000000E+00 0.  1.
</event>
<event>
 7    1  0.5855569E-013  0.5052886E+02  0.7816164E-02  0.1300439E+00
        -11   -1    0    0    0    0  0.00000000000E+00  0.00000000000E+00  0.45593999997E+02  0.45594000000E+02  0.51100000000E-03 0.  1.
         11   -1    0    0    0    0 -0.00000000000E+00 -0.00000000000E+00 -0.45593999997E+02  0.45594000000E+02  0.51100000000E-03 0. -1.
    9900012    2    1    2    0    0 -0.20351316129E+02  0.19457575423E+02 -0.29332447127E+02  0.50528858789E+02  0.29999996776E+02 0.  0.
        -12    1    1    2    0    0  0.20351316129E+02 -0.19457575423E+02  0.29332447127E+02  0.40659141211E+02  0.00000000000E+00 0.  1.
         11    1    3    3    0    0 -0.91381047362E+01  0.54097088690E+01 -0.12289134624E+02  0.16241697519E+02  0.51100000000E-03 0. -1.
        -11    1    3    3    0    0 -0.14343188612E+02  0.18835038013E+02 -0.15714197808E+02  0.28415167244E+02  0.51100000000E-03 0.  1.
        -12    1    3    3    0    0  0.31299772193E+01 -0.47871714591E+01 -0.13291146948E+01  0.58719940262E+01  0.00000000000E+00 0.  1.
</event>
<event>
 7    1  0.5855569E-013  0.5052886E+02  0.7816164E-02  0.1300439E+00
        -11   -1    0    0    0    0  0.00000000000E+00  0.00000000000E+00  0.45593999997E+02  0.45594000000E+02  0.51100000000E-03 0. -1.
         11   -1    0    0    0    0 -0.00000000000E+00 -0.00000000000E+00 -0.45593999997E+02  0.45594000000E+02  0.51100000000E-03 0.  1.
    9900012    2    1    2    0    0  0.20424142211E+02 -0.34776365842E+02  0.51599108546E+01  0.50528857286E+02  0.29999992207E+02 0.  0.
        -12    1    1    2    0    0 -0.20424142211E+02  0.34776365842E+02 -0.51599108546E+01  0.40659142714E+02  0.00000000000E+00 0.  1.
         11    1    3    3    0    0  0.11421271219E+02 -0.22069361987E+02  0.24450948863E+00  0.24850793949E+02  0.51100000000E-03 0. -1.
        -11    1    3    3    0    0  0.14643943134E+02 -0.56494202352E+01  0.54810663572E+01  0.16625375429E+02  0.51100000000E-03 0.  1.
         12    1    3    3    0    0 -0.56410721421E+01 -0.70575836198E+01 -0.56566499114E+00  0.90526879072E+01  0.00000000000E+00 0. -1.
</event>
<event>
 7    1  0.5855569E-013  0.5052886E+02  0.7816164E-02  0.1300439E+00
        -11   -1    0    0    0    0  0.00000000000E+00  0.00000000000E+00  0.45593999997E+02  0.45594000000E+02  0.51100000000E-03 0.  1.
         11   -1    0    0    0    0 -0.00000000000E+00 -0.00000000000E+00 -0.45593999997E+02  0.45594000000E+02  0.51100000000E-03 0. -1.
    9900012    2    1    2    0    0  0.14251502924E+02  0.14462523720E+02 -0.35226348979E+02  0.50528860925E+02  0.30000003267E+02 0.  0.
        -12    1    1    2    0    0 -0.14251502924E+02 -0.14462523720E+02  0.35226348979E+02  0.40659139075E+02  0.00000000000E+00 0.  1.
         11    1    3    3    0    0  0.20279416986E+01  0.17314416752E+02 -0.15045318199E+02  0.23027443952E+02  0.51100000000E-03 0. -1.
        -11    1    3    3    0    0 -0.96462734723E+00  0.37940029117E+01 -0.42794645719E+01  0.57998949384E+01  0.51100000000E-03 0.  1.
         12    1    3    3    0    0  0.13188188572E+02 -0.66458959440E+01 -0.15901566209E+02  0.21701522034E+02  0.00000000000E+00 0. -1.
</event>
<event>
 7    1  0.5855569E-013  0.5052886E+02  0.7816164E-02  0.1300439E+00
        -11   -1    0    0    0    0  0.00000000000E+00  0.00000000000E+00  0.45593999997E+02  0.45594000000E+02  0.51100000000E-03 0.  1.
         11   -1    0    0    0    0 -0.00000000000E+00 -0.00000000000E+00 -0.45593999997E+02  0.45594000000E+02  0.51100000000E-03 0. -1.
    9900012    2    1    2    0    0 -0.29101237574E+02 -0.10488647646E+02 -0.26386962265E+02  0.50528861601E+02  0.30000005323E+02 0.  0.
        -12    1    1    2    0    0  0.29101237574E+02  0.10488647646E+02  0.26386962265E+02  0.40659138399E+02  0.00000000000E+00 0.  1.
         11    1    3    3    0    0 -0.21287311939E+02 -0.51552727389E+01 -0.66419756311E+01  0.22887602040E+02  0.51100000000E-03 0. -1.
        -11    1    3    3    0    0 -0.32796099853E+01 -0.75510988263E+00  0.26842439270E+01  0.43047878358E+01  0.51100000000E-03 0.  1.
         12    1    3    3    0    0 -0.45343156498E+01 -0.45782650240E+01 -0.22429230561E+02  0.23336471725E+02  0.00000000000E+00 0. -1.
</event>
<event>
 7    1  0.5855569E-013  0.5052886E+02  0.7816164E-02  0.1300439E+00
        -11   -1    0    0    0    0  0.00000000000E+00  0.00000000000E+00  0.45593999997E+02  0.45594000000E+02  0.51100000000E-03 0.  1.
         11   -1    0    0    0    0 -0.00000000000E+00 -0.00000000000E+00 -0.45593999997E+02  0.45594000000E+02  0.51100000000E-03 0. -1.
    9900012    2    1    2    0    0 -0.25735170788E+02  0.28582983047E+02 -0.13186347994E+02  0.50528859468E+02  0.29999998840E+02 0.  0.
        -12    1    1    2    0    0  0.25735170788E+02 -0.28582983047E+02  0.13186347994E+02  0.40659140532E+02  0.00000000000E+00 0.  1.
         11    1    3    3    0    0 -0.20357637595E+02  0.26815022235E+02 -0.17192710651E+02  0.37803017415E+02  0.51100000000E-03 0. -1.
        -11    1    3    3    0    0  0.18643030515E+01  0.38669010532E+01  0.24499763313E+00  0.42998341508E+01  0.51100000000E-03 0.  1.
        -12    1    3    3    0    0 -0.72418362446E+01 -0.20989402407E+01  0.37613650238E+01  0.84260079024E+01  0.00000000000E+00 0.  1.
</event>
<event>
 7    1  0.5855569E-013  0.5052885E+02  0.7816164E-02  0.1300439E+00
        -11   -1    0    0    0    0  0.00000000000E+00  0.00000000000E+00  0.45593999997E+02  0.45594000000E+02  0.51100000000E-03 0.  1.
         11   -1    0    0    0    0 -0.00000000000E+00 -0.00000000000E+00 -0.45593999997E+02  0.45594000000E+02  0.51100000000E-03 0. -1.
    9900012    2    1    2    0    0  0.12392933454E+02  0.36735697337E+02 -0.12250319008E+02  0.50528848826E+02  0.29999966491E+02 0.  0.
        -12    1    1    2    0    0 -0.12392933454E+02 -0.36735697337E+02  0.12250319008E+02  0.40659151174E+02  0.00000000000E+00 0.  1.
         11    1    3    3    0    0 -0.30472298205E+01  0.89583724215E+01 -0.11443094760E+02  0.14848651925E+02  0.51100000000E-03 0. -1.
        -11    1    3    3    0    0 -0.17301830932E+01  0.28216493104E+01 -0.40325384644E+01  0.52169536221E+01  0.51100000000E-03 0.  1.
         12    1    3    3    0    0  0.17170346368E+02  0.24955675605E+02  0.32253142172E+01  0.30463243279E+02  0.00000000000E+00 0. -1.
</event>
<event>
 7    1  0.5855569E-013  0.5052886E+02  0.7816164E-02  0.1300439E+00
        -11   -1    0    0    0    0  0.00000000000E+00  0.00000000000E+00  0.45593999997E+02  0.45594000000E+02  0.51100000000E-03 0. -1.
         11   -1    0    0    0    0 -0.00000000000E+00 -0.00000000000E+00 -0.45593999997E+02  0.45594000000E+02  0.51100000000E-03 0.  1.
    9900012    2    1    2    0    0 -0.31004387504E+02 -0.25685001105E+02  0.56722300907E+01  0.50528861784E+02  0.30000005878E+02 0.  0.
        -12    1    1    2    0    0  0.31004387504E+02  0.25685001105E+02 -0.56722300907E+01  0.40659138216E+02  0.00000000000E+00 0.  1.
         11    1    3    3    0    0  0.14018685652E+01 -0.63398574685E+01  0.43761087056E+00  0.65077286152E+01  0.51100000000E-03 0. -1.
        -11    1    3    3    0    0 -0.11770045434E+02  0.24796035451E+01 -0.38695337425E+01  0.12635493457E+02  0.51100000000E-03 0.  1.
         12    1    3    3    0    0 -0.20636210635E+02 -0.21824747182E+02  0.91041529626E+01  0.31385639711E+02  0.00000000000E+00 0. -1.
</event>
<event>
 7    1  0.5855569E-013  0.5052886E+02  0.7816164E-02  0.1300439E+00
        -11   -1    0    0    0    0  0.00000000000E+00  0.00000000000E+00  0.45593999997E+02  0.45594000000E+02  0.51100000000E-03 0.  1.
         11   -1    0    0    0    0 -0.00000000000E+00 -0.00000000000E+00 -0.45593999997E+02  0.45594000000E+02  0.51100000000E-03 0. -1.
    9900012    2    1    2    0    0  0.74265523723E+01  0.51939537327E+01 -0.39636279747E+02  0.50528861941E+02  0.30000006357E+02 0.  0.
        -12    1    1    2    0    0 -0.74265523723E+01 -0.51939537327E+01  0.39636279747E+02  0.40659138059E+02  0.00000000000E+00 0.  1.
         11    1    3    3    0    0  0.33644983876E+01 -0.50645019388E+01 -0.91171358407E+01  0.10958612845E+02  0.51100000000E-03 0. -1.
        -11    1    3    3    0    0  0.56297505603E+01 -0.58108535198E+01 -0.15665482069E+02  0.17631433258E+02  0.51100000000E-03 0.  1.
        -12    1    3    3    0    0 -0.15676965756E+01  0.16069309191E+02 -0.14853661837E+02  0.21938815839E+02  0.00000000000E+00 0.  1.
</event>
<event>
 7    1  0.5855569E-013  0.5052886E+02  0.7816164E-02  0.1300439E+00
        -11   -1    0    0    0    0  0.00000000000E+00  0.00000000000E+00  0.45593999997E+02  0.45594000000E+02  0.51100000000E-03 0.  1.
         11   -1    0    0    0    0 -0.00000000000E+00 -0.00000000000E+00 -0.45593999997E+02  0.45594000000E+02  0.51100000000E-03 0. -1.
    9900012    2    1    2    0    0  0.26828743399E+02  0.30420985428E+02 -0.28191534898E+01  0.50528862612E+02  0.30000008395E+02 0.  0.
        -12    1    1    2    0    0 -0.26828743399E+02 -0.30420985428E+02  0.28191534898E+01  0.40659137388E+02  0.00000000000E+00 0.  1.
         11    1    3    3    0    0  0.51031372840E+01 -0.14286043100E+01  0.71679396560E+01  0.89141617434E+01  0.51100000000E-03 0. -1.
        -11    1    3    3    0    0  0.49318194818E+01  0.72021697467E+00 -0.18810401214E+01  0.53272758602E+01  0.51100000000E-03 0.  1.
         12    1    3    3    0    0  0.16793786633E+02  0.31129372763E+02 -0.81060530244E+01  0.36287425008E+02  0.00000000000E+00 0. -1.
</event>
<event>
 7    1  0.5855569E-013  0.5052878E+02  0.7816164E-02  0.1300439E+00
        -11   -1    0    0    0    0  0.00000000000E+00  0.00000000000E+00  0.45593999997E+02  0.45594000000E+02  0.51100000000E-03 0.  1.
         11   -1    0    0    0    0 -0.00000000000E+00 -0.00000000000E+00 -0.45593999997E+02  0.45594000000E+02  0.51100000000E-03 0. -1.
    9900012    2    1    2    0    0 -0.56313744234E+01 -0.34904735855E+02 -0.20077824154E+02  0.50528782279E+02  0.29999764213E+02 0.  0.
        -12    1    1    2    0    0  0.56313744234E+01  0.34904735855E+02  0.20077824154E+02  0.40659217721E+02  0.00000000000E+00 0.  1.
         11    1    3    3    0    0  0.57396187290E+01 -0.60179496377E+01 -0.52983097734E+01  0.98605794816E+01  0.51100000000E-03 0. -1.
        -11    1    3    3    0    0  0.33324818944E+01 -0.12335014960E+02 -0.13355320242E+02  0.18483035700E+02  0.51100000000E-03 0.  1.
         12    1    3    3    0    0 -0.14703475047E+02 -0.16551771257E+02 -0.14241941378E+01  0.22185167097E+02  0.00000000000E+00 0. -1.
</event>
<event>
 7    1  0.5855569E-013  0.5052885E+02  0.7816164E-02  0.1300439E+00
        -11   -1    0    0    0    0  0.00000000000E+00  0.00000000000E+00  0.45593999997E+02  0.45594000000E+02  0.51100000000E-03 0.  1.
         11   -1    0    0    0    0 -0.00000000000E+00 -0.00000000000E+00 -0.45593999997E+02  0.45594000000E+02  0.51100000000E-03 0. -1.
    9900012    2    1    2    0    0 -0.14399328774E+02  0.37172906674E+02 -0.80000679024E+01  0.50528846711E+02  0.29999960063E+02 0.  0.
        -12    1    1    2    0    0  0.14399328774E+02 -0.37172906674E+02  0.80000679024E+01  0.40659153289E+02  0.00000000000E+00 0.  1.
         11    1    3    3    0    0 -0.35195573188E+01  0.15541466732E+02 -0.67053153195E+01  0.17288311823E+02  0.51100000000E-03 0. -1.
        -11    1    3    3    0    0  0.54263237858E+01  0.93803749153E+01  0.49451929179E+01  0.11911815841E+02  0.51100000000E-03 0.  1.
        -12    1    3    3    0    0 -0.16306095241E+02  0.12251065026E+02 -0.62399455008E+01  0.21328719046E+02  0.00000000000E+00 0.  1.
</event>
<event>
 7    1  0.5855569E-013  0.5052886E+02  0.7816164E-02  0.1300439E+00
        -11   -1    0    0    0    0  0.00000000000E+00  0.00000000000E+00  0.45593999997E+02  0.45594000000E+02  0.51100000000E-03 0.  1.
         11   -1    0    0    0    0 -0.00000000000E+00 -0.00000000000E+00 -0.45593999997E+02  0.45594000000E+02  0.51100000000E-03 0. -1.
    9900012    2    1    2    0    0  0.31276116644E+02 -0.16420235229E+02 -0.20133214411E+02  0.50528856872E+02  0.29999990950E+02 0.  0.
        -12    1    1    2    0    0 -0.31276116644E+02  0.16420235229E+02  0.20133214411E+02  0.40659143128E+02  0.00000000000E+00 0.  1.
         11    1    3    3    0    0  0.11842459937E+02 -0.18204859882E+02 -0.16120958282E+02  0.27047108475E+02  0.51100000000E-03 0. -1.
        -11    1    3    3    0    0  0.37747230251E+01 -0.70350975890E+00 -0.63842012087E+01  0.74499318944E+01  0.51100000000E-03 0.  1.
        -12    1    3    3    0    0  0.15658933683E+02  0.24881344122E+01  0.23719450789E+01  0.16031816503E+02  0.00000000000E+00 0.  1.
</event>
<event>
 7    1  0.5855569E-013  0.5052886E+02  0.7816164E-02  0.1300439E+00
        -11   -1    0    0    0    0  0.00000000000E+00  0.00000000000E+00  0.45593999997E+02  0.45594000000E+02  0.51100000000E-03 0. -1.
         11   -1    0    0    0    0 -0.00000000000E+00 -0.00000000000E+00 -0.45593999997E+02  0.45594000000E+02  0.51100000000E-03 0.  1.
    9900012    2    1    2    0    0  0.47107832183E+01 -0.40230066365E+02  0.35378173765E+01  0.50528857485E+02  0.29999992811E+02 0.  0.
        -12    1    1    2    0    0 -0.47107832183E+01  0.40230066365E+02 -0.35378173765E+01  0.40659142515E+02  0.00000000000E+00 0.  1.
         11    1    3    3    0    0 -0.37086495252E+01 -0.11513173717E+02 -0.38166189734E+01  0.12683604811E+02  0.51100000000E-03 0. -1.
        -11    1    3    3    0    0 -0.15783063779E+01  0.32633619905E+00 -0.46083544229E+01  0.48820566450E+01  0.51100000000E-03 0.  1.
        -12    1    3    3    0    0  0.99977391214E+01 -0.29043228847E+02  0.11962790773E+02  0.32963196029E+02  0.00000000000E+00 0.  1.
</event>
<event>
 7    1  0.5855569E-013  0.5052885E+02  0.7816164E-02  0.1300439E+00
        -11   -1    0    0    0    0  0.00000000000E+00  0.00000000000E+00  0.45593999997E+02  0.45594000000E+02  0.51100000000E-03 0. -1.
         11   -1    0    0    0    0 -0.00000000000E+00 -0.00000000000E+00 -0.45593999997E+02  0.45594000000E+02  0.51100000000E-03 0.  1.
    9900012    2    1    2    0    0  0.15986023019E+02 -0.33239942442E+01  0.37236599878E+02  0.50528852933E+02  0.29999978975E+02 0.  0.
        -12    1    1    2    0    0 -0.15986023019E+02  0.33239942442E+01 -0.37236599878E+02  0.40659147067E+02  0.00000000000E+00 0.  1.
         11    1    3    3    0    0  0.25504277287E+01 -0.75392906534E+01  0.16523119106E+01  0.81286973167E+01  0.51100000000E-03 0. -1.
        -11    1    3    3    0    0  0.37237428946E+01  0.12648579593E+01 -0.13021568641E+01  0.41426729973E+01  0.51100000000E-03 0.  1.
         12    1    3    3    0    0  0.97118523961E+01  0.29504384499E+01  0.36886444832E+02  0.38257482619E+02  0.00000000000E+00 0. -1.
</event>
<event>
 7    1  0.5855569E-013  0.5052886E+02  0.7816164E-02  0.1300439E+00
        -11   -1    0    0    0    0  0.00000000000E+00  0.00000000000E+00  0.45593999997E+02  0.45594000000E+02  0.51100000000E-03 0.  1.
         11   -1    0    0    0    0 -0.00000000000E+00 -0.00000000000E+00 -0.45593999997E+02  0.45594000000E+02  0.51100000000E-03 0. -1.
    9900012    2    1    2    0    0  0.58696613056E+01 -0.29326920969E+02 -0.27543496594E+02  0.50528862995E+02  0.30000009560E+02 0.  0.
        -12    1    1    2    0    0 -0.58696613056E+01  0.29326920969E+02  0.27543496594E+02  0.40659137005E+02  0.00000000000E+00 0.  1.
         11    1    3    3    0    0  0.97541044305E+01 -0.22744268710E+02 -0.13807947542E+02  0.28339084812E+02  0.51100000000E-03 0. -1.
        -11    1    3    3    0    0  0.28419299115E+01 -0.93869770943E+01 -0.99755897425E+01  0.13989435141E+02  0.51100000000E-03 0.  1.
        -12    1    3    3    0    0 -0.67263730364E+01  0.28043248350E+01 -0.37599593086E+01  0.82003430420E+01  0.00000000000E+00 0.  1.
</event>
<event>
 7    1  0.5855569E-013  0.5052886E+02  0.7816164E-02  0.1300439E+00
        -11   -1    0    0    0    0  0.00000000000E+00  0.00000000000E+00  0.45593999997E+02  0.45594000000E+02  0.51100000000E-03 0. -1.
         11   -1    0    0    0    0 -0.00000000000E+00 -0.00000000000E+00 -0.45593999997E+02  0.45594000000E+02  0.51100000000E-03 0.  1.
    9900012    2    1    2    0    0  0.38442577188E+02 -0.11952914101E+02  0.56975320981E+01  0.50528858735E+02  0.29999996611E+02 0.  0.
        -12    1    1    2    0    0 -0.38442577188E+02  0.11952914101E+02 -0.56975320981E+01  0.40659141265E+02  0.00000000000E+00 0.  1.
         11    1    3    3    0    0  0.52660129370E+01  0.30581523332E+01  0.27563241346E+01  0.66843482062E+01  0.51100000000E-03 0. -1.
        -11    1    3    3    0    0 -0.22763822176E-01 -0.82987692621E+01 -0.40890703116E+01  0.92515180230E+01  0.51100000000E-03 0.  1.
         12    1    3    3    0    0  0.33199328074E+02 -0.67122971724E+01  0.70302782751E+01  0.34592992506E+02  0.00000000000E+00 0. -1.
</event>
<event>
 7    1  0.5855569E-013  0.5052889E+02  0.7816164E-02  0.1300439E+00
        -11   -1    0    0    0    0  0.00000000000E+00  0.00000000000E+00  0.45593999997E+02  0.45594000000E+02  0.51100000000E-03 0.  1.
         11   -1    0    0    0    0 -0.00000000000E+00 -0.00000000000E+00 -0.45593999997E+02  0.45594000000E+02  0.51100000000E-03 0. -1.
    9900012    2    1    2    0    0 -0.34035302064E+02  0.21625536843E+02  0.52055000024E+01  0.50528894494E+02  0.30000105303E+02 0.  0.
        -12    1    1    2    0    0  0.34035302064E+02 -0.21625536843E+02 -0.52055000024E+01  0.40659105506E+02  0.00000000000E+00 0.  1.
         11    1    3    3    0    0 -0.18346654101E+02  0.11073191943E+02  0.58539987218E+01  0.22214513225E+02  0.51100000000E-03 0. -1.
        -11    1    3    3    0    0 -0.15195208674E+02  0.12096923693E+01  0.64689089998E+01  0.16559121541E+02  0.51100000000E-03 0.  1.
        -12    1    3    3    0    0 -0.49343928772E+00  0.93426525307E+01 -0.71174077192E+01  0.11755259728E+02  0.00000000000E+00 0.  1.
</event>
<event>
 7    1  0.5855569E-013  0.5052886E+02  0.7816164E-02  0.1300439E+00
        -11   -1    0    0    0    0  0.00000000000E+00  0.00000000000E+00  0.45593999997E+02  0.45594000000E+02  0.51100000000E-03 0. -1.
         11   -1    0    0    0    0 -0.00000000000E+00 -0.00000000000E+00 -0.45593999997E+02  0.45594000000E+02  0.51100000000E-03 0.  1.
    9900012    2    1    2    0    0 -0.20594316027E+02  0.37675377581E+01  0.34854627826E+02  0.50528864812E+02  0.30000015082E+02 0.  0.
        -12    1    1    2    0    0  0.20594316027E+02 -0.37675377581E+01 -0.34854627826E+02  0.40659135188E+02  0.00000000000E+00 0.  1.
         11    1    3    3    0    0 -0.29434047457E+00 -0.23393223206E+01  0.13244107926E+02  0.13452340327E+02  0.51100000000E-03 0.  1.
        -11    1    3    3    0    0 -0.81059862162E+01 -0.51226236795E+01  0.17566798622E+02  0.20013512935E+02  0.51100000000E-03 0. -1.
        -12    1    3    3    0    0 -0.12193989336E+02  0.11229483758E+02  0.40437212772E+01  0.17063011550E+02  0.00000000000E+00 0.  1.
</event>
<event>
 7    1  0.5855569E-013  0.5052886E+02  0.7816164E-02  0.1300439E+00
        -11   -1    0    0    0    0  0.00000000000E+00  0.00000000000E+00  0.45593999997E+02  0.45594000000E+02  0.51100000000E-03 0.  1.
         11   -1    0    0    0    0 -0.00000000000E+00 -0.00000000000E+00 -0.45593999997E+02  0.45594000000E+02  0.51100000000E-03 0. -1.
    9900012    2    1    2    0    0  0.50470968680E+01 -0.34270868835E+02 -0.21288493275E+02  0.50528861010E+02  0.30000003526E+02 0.  0.
        -12    1    1    2    0    0 -0.50470968680E+01  0.34270868835E+02  0.21288493275E+02  0.40659138990E+02  0.00000000000E+00 0.  1.
         11    1    3    3    0    0  0.74539388628E+01 -0.10054525120E+02 -0.58840142706E+01  0.13830267682E+02  0.51100000000E-03 0. -1.
        -11    1    3    3    0    0  0.71925208982E+01 -0.21386988280E+02 -0.14097596885E+02  0.26605974193E+02  0.51100000000E-03 0.  1.
        -12    1    3    3    0    0 -0.95993628931E+01 -0.28293554347E+01 -0.13068821200E+01  0.10092619135E+02  0.00000000000E+00 0.  1.
</event>
<event>
 7    1  0.5855569E-013  0.5052888E+02  0.7816164E-02  0.1300439E+00
        -11   -1    0    0    0    0  0.00000000000E+00  0.00000000000E+00  0.45593999997E+02  0.45594000000E+02  0.51100000000E-03 0. -1.
         11   -1    0    0    0    0 -0.00000000000E+00 -0.00000000000E+00 -0.45593999997E+02  0.45594000000E+02  0.51100000000E-03 0.  1.
    9900012    2    1    2    0    0 -0.16905845017E+02  0.21080993149E+02  0.30380066296E+02  0.50528876841E+02  0.30000051646E+02 0.  0.
        -12    1    1    2    0    0  0.16905845017E+02 -0.21080993149E+02 -0.30380066296E+02  0.40659123159E+02  0.00000000000E+00 0.  1.
         11    1    3    3    0    0 -0.20956154542E+01  0.85050036090E+00  0.61913470156E+01  0.65914894465E+01  0.51100000000E-03 0.  1.
        -11    1    3    3    0    0 -0.28628072981E+01 -0.45790815626E+00  0.19344837974E+02  0.19560881933E+02  0.51100000000E-03 0. -1.
        -12    1    3    3    0    0 -0.11947422265E+02  0.20688400944E+02  0.48438813071E+01  0.24376505462E+02  0.00000000000E+00 0.  1.
</event>
<event>
 7    1  0.5855569E-013  0.5052886E+02  0.7816164E-02  0.1300439E+00
        -11   -1    0    0    0    0  0.00000000000E+00  0.00000000000E+00  0.45593999997E+02  0.45594000000E+02  0.51100000000E-03 0. -1.
         11   -1    0    0    0    0 -0.00000000000E+00 -0.00000000000E+00 -0.45593999997E+02  0.45594000000E+02  0.51100000000E-03 0.  1.
    9900012    2    1    2    0    0  0.22798786969E+02 -0.33638186957E+02  0.13615272088E+01  0.50528855083E+02  0.29999985511E+02 0.  0.
        -12    1    1    2    0    0 -0.22798786969E+02  0.33638186957E+02 -0.13615272088E+01  0.40659144917E+02  0.00000000000E+00 0.  1.
         11    1    3    3    0    0  0.47319164211E+01 -0.17965788896E+02  0.28373841926E+01  0.18793917978E+02  0.51100000000E-03 0. -1.
        -11    1    3    3    0    0  0.65434680446E+01 -0.13847197350E+02  0.74632282975E+01  0.17037066220E+02  0.51100000000E-03 0.  1.
        -12    1    3    3    0    0  0.11523402504E+02 -0.18252007115E+01 -0.89390852813E+01  0.14697870885E+02  0.00000000000E+00 0.  1.
</event>
<event>
 7    1  0.5855569E-013  0.5052883E+02  0.7816164E-02  0.1300439E+00
        -11   -1    0    0    0    0  0.00000000000E+00  0.00000000000E+00  0.45593999997E+02  0.45594000000E+02  0.51100000000E-03 0.  1.
         11   -1    0    0    0    0 -0.00000000000E+00 -0.00000000000E+00 -0.45593999997E+02  0.45594000000E+02  0.51100000000E-03 0. -1.
    9900012    2    1    2    0    0 -0.97433717301E+01 -0.33422907568E+02 -0.21003426266E+02  0.50528831811E+02  0.29999914772E+02 0.  0.
        -12    1    1    2    0    0  0.97433717301E+01  0.33422907568E+02  0.21003426266E+02  0.40659168189E+02  0.00000000000E+00 0.  1.
         11    1    3    3    0    0 -0.14551552827E+02 -0.17296015351E+02 -0.70346468505E+01  0.23672475436E+02  0.51100000000E-03 0. -1.
        -11    1    3    3    0    0 -0.49330765420E+01 -0.12296439673E+01 -0.38897271206E+01  0.64013471855E+01  0.51100000000E-03 0.  1.
        -12    1    3    3    0    0  0.97412576386E+01 -0.14897248250E+02 -0.10079052294E+02  0.20455009190E+02  0.00000000000E+00 0.  1.
</event>
<event>
 7    1  0.5855569E-013  0.5052886E+02  0.7816164E-02  0.1300439E+00
        -11   -1    0    0    0    0  0.00000000000E+00  0.00000000000E+00  0.45593999997E+02  0.45594000000E+02  0.51100000000E-03 0. -1.
         11   -1    0    0    0    0 -0.00000000000E+00 -0.00000000000E+00 -0.45593999997E+02  0.45594000000E+02  0.51100000000E-03 0.  1.
    9900012    2    1    2    0    0 -0.20303376598E+02  0.27687321519E+02  0.21779599641E+02  0.50528857920E+02  0.29999994133E+02 0.  0.
        -12    1    1    2    0    0  0.20303376598E+02 -0.27687321519E+02 -0.21779599641E+02  0.40659142080E+02  0.00000000000E+00 0.  1.
         11    1    3    3    0    0 -0.81058183138E+01  0.92038333421E+01  0.21326123659E+02  0.24601186746E+02  0.51100000000E-03 0. -1.
        -11    1    3    3    0    0 -0.27009855565E+01 -0.17973545145E+01 -0.12315350731E+01  0.34702283966E+01  0.51100000000E-03 0.  1.
         12    1    3    3    0    0 -0.94965727278E+01  0.20280842691E+02  0.16850110554E+01  0.22457442777E+02  0.00000000000E+00 0. -1.
</event>
<event>
 7    1  0.5855569E-013  0.5052886E+02  0.7816164E-02  0.1300439E+00
        -11   -1    0    0    0    0  0.00000000000E+00  0.00000000000E+00  0.45593999997E+02  0.45594000000E+02  0.51100000000E-03 0.  1.
         11   -1    0    0    0    0 -0.00000000000E+00 -0.00000000000E+00 -0.45593999997E+02  0.45594000000E+02  0.51100000000E-03 0. -1.
    9900012    2    1    2    0    0  0.37787538678E+02 -0.17975852254E+00 -0.15007844908E+02  0.50528858331E+02  0.29999995384E+02 0.  0.
        -12    1    1    2    0    0 -0.37787538678E+02  0.17975852254E+00  0.15007844908E+02  0.40659141669E+02  0.00000000000E+00 0.  1.
         11    1    3    3    0    0 -0.64864931252E+00  0.47975378780E+01 -0.11021387960E+01  0.49650605040E+01  0.51100000000E-03 0. -1.
        -11    1    3    3    0    0  0.11030100714E+02  0.57517587543E+01  0.11724598044E+01  0.12494819438E+02  0.51100000000E-03 0.  1.
         12    1    3    3    0    0  0.27406087276E+02 -0.10729055155E+02 -0.15078165917E+02  0.33068978390E+02  0.00000000000E+00 0. -1.
</event>
<event>
 7    1  0.5855569E-013  0.5052885E+02  0.7816164E-02  0.1300439E+00
        -11   -1    0    0    0    0  0.00000000000E+00  0.00000000000E+00  0.45593999997E+02  0.45594000000E+02  0.51100000000E-03 0. -1.
         11   -1    0    0    0    0 -0.00000000000E+00 -0.00000000000E+00 -0.45593999997E+02  0.45594000000E+02  0.51100000000E-03 0.  1.
    9900012    2    1    2    0    0  0.34273384710E+02 -0.10508650766E+02  0.19185144204E+02  0.50528850986E+02  0.29999973056E+02 0.  0.
        -12    1    1    2    0    0 -0.34273384710E+02  0.10508650766E+02 -0.19185144204E+02  0.40659149014E+02  0.00000000000E+00 0.  1.
         11    1    3    3    0    0  0.12852200540E+02 -0.76066499314E+01  0.14960311768E+02  0.21138853100E+02  0.51100000000E-03 0. -1.
        -11    1    3    3    0    0  0.13125846513E+02  0.65134733773E+01  0.74435419131E+01  0.16435312549E+02  0.51100000000E-03 0.  1.
        -12    1    3    3    0    0  0.82953376577E+01 -0.94154742115E+01 -0.32187094772E+01  0.12954685337E+02  0.00000000000E+00 0.  1.
</event>
<event>
 7    1  0.5855569E-013  0.5052887E+02  0.7816164E-02  0.1300439E+00
        -11   -1    0    0    0    0  0.00000000000E+00  0.00000000000E+00  0.45593999997E+02  0.45594000000E+02  0.51100000000E-03 0.  1.
         11   -1    0    0    0    0 -0.00000000000E+00 -0.00000000000E+00 -0.45593999997E+02  0.45594000000E+02  0.51100000000E-03 0. -1.
    9900012    2    1    2    0    0 -0.29695405596E+02  0.27299692183E+02 -0.51062942250E+01  0.50528873749E+02  0.30000042247E+02 0.  0.
        -12    1    1    2    0    0  0.29695405596E+02 -0.27299692183E+02  0.51062942250E+01  0.40659126251E+02  0.00000000000E+00 0.  1.
         11    1    3    3    0    0 -0.90200722240E+01  0.15919479515E+01 -0.34469104591E+01  0.97865823034E+01  0.51100000000E-03 0. -1.
        -11    1    3    3    0    0 -0.21792972697E+02  0.91843041819E+01  0.21559979611E+01  0.23747282577E+02  0.51100000000E-03 0.  1.
         12    1    3    3    0    0  0.11176393256E+01  0.16523440050E+02 -0.38153817270E+01  0.16995008869E+02  0.00000000000E+00 0. -1.
</event>
<event>
 7    1  0.5855569E-013  0.5052885E+02  0.7816164E-02  0.1300439E+00
        -11   -1    0    0    0    0  0.00000000000E+00  0.00000000000E+00  0.45593999997E+02  0.45594000000E+02  0.51100000000E-03 0.  1.
         11   -1    0    0    0    0 -0.00000000000E+00 -0.00000000000E+00 -0.45593999997E+02  0.45594000000E+02  0.51100000000E-03 0. -1.
    9900012    2    1    2    0    0  0.35736503613E+02 -0.18568730210E+02 -0.55920265778E+01  0.50528853509E+02  0.29999980727E+02 0.  0.
        -12    1    1    2    0    0 -0.35736503613E+02  0.18568730210E+02  0.55920265778E+01  0.40659146491E+02  0.00000000000E+00 0.  1.
         11    1    3    3    0    0  0.19848421596E+01 -0.98553487325E+01  0.21558011713E+01  0.10281778834E+02  0.51100000000E-03 0. -1.
        -11    1    3    3    0    0  0.65451595483E+01 -0.96575717579E+01  0.85343034338E+00  0.11697698465E+02  0.51100000000E-03 0.  1.
         12    1    3    3    0    0  0.27206501905E+02  0.94419028050E+00 -0.86012580925E+01  0.28549376210E+02  0.00000000000E+00 0. -1.
</event>
<event>
 7    1  0.5855569E-013  0.5052886E+02  0.7816164E-02  0.1300439E+00
        -11   -1    0    0    0    0  0.00000000000E+00  0.00000000000E+00  0.45593999997E+02  0.45594000000E+02  0.51100000000E-03 0. -1.
         11   -1    0    0    0    0 -0.00000000000E+00 -0.00000000000E+00 -0.45593999997E+02  0.45594000000E+02  0.51100000000E-03 0.  1.
    9900012    2    1    2    0    0  0.15470518891E+02  0.31986468467E+02  0.19765984506E+02  0.50528864947E+02  0.30000015494E+02 0.  0.
        -12    1    1    2    0    0 -0.15470518891E+02 -0.31986468467E+02 -0.19765984506E+02  0.40659135053E+02  0.00000000000E+00 0.  1.
         11    1    3    3    0    0  0.19154313481E+02  0.16744027254E+02  0.11195560397E+02  0.27795516662E+02  0.51100000000E-03 0. -1.
        -11    1    3    3    0    0 -0.71571025723E+00  0.81346002547E+01  0.11825597319E+02  0.14371106940E+02  0.51100000000E-03 0.  1.
        -12    1    3    3    0    0 -0.29680843332E+01  0.71078409578E+01 -0.32551732095E+01  0.83622413452E+01  0.00000000000E+00 0.  1.
</event>
<event>
 7    1  0.5855569E-013  0.5052887E+02  0.7816164E-02  0.1300439E+00
        -11   -1    0    0    0    0  0.00000000000E+00  0.00000000000E+00  0.45593999997E+02  0.45594000000E+02  0.51100000000E-03 0.  1.
         11   -1    0    0    0    0 -0.00000000000E+00 -0.00000000000E+00 -0.45593999997E+02  0.45594000000E+02  0.51100000000E-03 0. -1.
    9900012    2    1    2    0    0  0.14310589879E+02  0.24270811868E+01 -0.37980007307E+02  0.50528872355E+02  0.30000038012E+02 0.  0.
        -12    1    1    2    0    0 -0.14310589879E+02 -0.24270811868E+01  0.37980007307E+02  0.40659127645E+02  0.00000000000E+00 0.  1.
         11    1    3    3    0    0  0.43174014232E+01  0.77389496854E+01 -0.34526767623E+01  0.95106400609E+01  0.51100000000E-03 0. -1.
        -11    1    3    3    0    0  0.67781974208E+01  0.34138038558E+01 -0.30214583401E+01  0.81686735645E+01  0.51100000000E-03 0.  1.
        -12    1    3    3    0    0  0.32149910354E+01 -0.87256723543E+01 -0.31505872204E+02  0.32849558730E+02  0.00000000000E+00 0.  1.
</event>
<event>
 7    1  0.5855569E-013  0.5052887E+02  0.7816164E-02  0.1300439E+00
        -11   -1    0    0    0    0  0.00000000000E+00  0.00000000000E+00  0.45593999997E+02  0.45594000000E+02  0.51100000000E-03 0. -1.
         11   -1    0    0    0    0 -0.00000000000E+00 -0.00000000000E+00 -0.45593999997E+02  0.45594000000E+02  0.51100000000E-03 0.  1.
    9900012    2    1    2    0    0  0.90199019200E+00  0.36812684621E+02  0.17238831369E+02  0.50528872583E+02  0.30000038703E+02 0.  0.
        -12    1    1    2    0    0 -0.90199019200E+00 -0.36812684621E+02 -0.17238831369E+02  0.40659127417E+02  0.00000000000E+00 0.  1.
         11    1    3    3    0    0  0.39469986507E+01  0.33332945058E+01  0.17018147291E+01  0.54392852696E+01  0.51100000000E-03 0. -1.
        -11    1    3    3    0    0 -0.19347257023E+01  0.16427155351E+02 -0.60013147413E+01  0.17595748786E+02  0.51100000000E-03 0.  1.
        -12    1    3    3    0    0 -0.11102827564E+01  0.17052234765E+02  0.21538331381E+02  0.27493838527E+02  0.00000000000E+00 0.  1.
</event>
<event>
 7    1  0.5855569E-013  0.5052887E+02  0.7816164E-02  0.1300439E+00
        -11   -1    0    0    0    0  0.00000000000E+00  0.00000000000E+00  0.45593999997E+02  0.45594000000E+02  0.51100000000E-03 0. -1.
         11   -1    0    0    0    0 -0.00000000000E+00 -0.00000000000E+00 -0.45593999997E+02  0.45594000000E+02  0.51100000000E-03 0.  1.
    9900012    2    1    2    0    0  0.26145925692E+01  0.40435092468E+02 -0.33662661726E+01  0.50528873778E+02  0.30000042337E+02 0.  0.
        -12    1    1    2    0    0 -0.26145925692E+01 -0.40435092468E+02  0.33662661726E+01  0.40659126222E+02  0.00000000000E+00 0.  1.
         11    1    3    3    0    0  0.20356517181E+01  0.24244409591E+02 -0.11467965209E+02  0.26897016574E+02  0.51100000000E-03 0. -1.
        -11    1    3    3    0    0  0.36496213827E+01  0.18768609358E+01 -0.31454760197E+01  0.51707216964E+01  0.51100000000E-03 0.  1.
         12    1    3    3    0    0 -0.30706805317E+01  0.14313821941E+02  0.11247175056E+02  0.18461135508E+02  0.00000000000E+00 0. -1.
</event>
<event>
 7    1  0.5855569E-013  0.5052887E+02  0.7816164E-02  0.1300439E+00
        -11   -1    0    0    0    0  0.00000000000E+00  0.00000000000E+00  0.45593999997E+02  0.45594000000E+02  0.51100000000E-03 0.  1.
         11   -1    0    0    0    0 -0.00000000000E+00 -0.00000000000E+00 -0.45593999997E+02  0.45594000000E+02  0.51100000000E-03 0. -1.
    9900012    2    1    2    0    0  0.32285516653E+02 -0.38351432761E+01 -0.24415206624E+02  0.50528865430E+02  0.30000016961E+02 0.  0.
        -12    1    1    2    0    0 -0.32285516653E+02  0.38351432761E+01  0.24415206624E+02  0.40659134570E+02  0.00000000000E+00 0.  1.
         11    1    3    3    0    0  0.55765938167E+01  0.75154208928E+00 -0.17841130774E+02  0.18707462727E+02  0.51100000000E-03 0. -1.
        -11    1    3    3    0    0  0.10475839603E+01 -0.18544814200E+01 -0.56058788027E+01  0.59968667571E+01  0.51100000000E-03 0.  1.
        -12    1    3    3    0    0  0.25661338876E+02 -0.27322039454E+01 -0.96819704708E+00  0.25824535946E+02  0.00000000000E+00 0.  1.
</event>
<event>
 7    1  0.5855569E-013  0.5052887E+02  0.7816164E-02  0.1300439E+00
        -11   -1    0    0    0    0  0.00000000000E+00  0.00000000000E+00  0.45593999997E+02  0.45594000000E+02  0.51100000000E-03 0.  1.
         11   -1    0    0    0    0 -0.00000000000E+00 -0.00000000000E+00 -0.45593999997E+02  0.45594000000E+02  0.51100000000E-03 0. -1.
    9900012    2    1    2    0    0  0.45591425193E+01 -0.83028635422E+01 -0.39540383560E+02  0.50528865041E+02  0.30000015778E+02 0.  0.
        -12    1    1    2    0    0 -0.45591425193E+01  0.83028635422E+01  0.39540383560E+02  0.40659134959E+02  0.00000000000E+00 0.  1.
         11    1    3    3    0    0 -0.70422561190E+01 -0.16477238603E+01 -0.23063922035E+02  0.24171323197E+02  0.51100000000E-03 0. -1.
        -11    1    3    3    0    0 -0.25736233442E+01  0.22691192752E+01 -0.10559995882E+01  0.35899268508E+01  0.51100000000E-03 0.  1.
        -12    1    3    3    0    0  0.14175021983E+02 -0.89242589571E+01 -0.15420461937E+02  0.22767614994E+02  0.00000000000E+00 0.  1.
</event>
<event>
 7    1  0.5855569E-013  0.5052887E+02  0.7816164E-02  0.1300439E+00
        -11   -1    0    0    0    0  0.00000000000E+00  0.00000000000E+00  0.45593999997E+02  0.45594000000E+02  0.51100000000E-03 0. -1.
         11   -1    0    0    0    0 -0.00000000000E+00 -0.00000000000E+00 -0.45593999997E+02  0.45594000000E+02  0.51100000000E-03 0.  1.
    9900012    2    1    2    0    0  0.27199669421E+02 -0.28563071600E+02  0.98739103380E+01  0.50528865956E+02  0.30000018559E+02 0.  0.
        -12    1    1    2    0    0 -0.27199669421E+02  0.28563071600E+02 -0.98739103380E+01  0.40659134044E+02  0.00000000000E+00 0.  1.
         11    1    3    3    0    0  0.18698887190E+02 -0.19379387451E+02 -0.10453362322E+01  0.26949986423E+02  0.51100000000E-03 0. -1.
        -11    1    3    3    0    0  0.10762083185E+02 -0.65109553780E+01  0.50122928750E+00  0.12588336089E+02  0.51100000000E-03 0.  1.
        -12    1    3    3    0    0 -0.22613009537E+01 -0.26727287709E+01  0.10418017283E+02  0.10990543444E+02  0.00000000000E+00 0.  1.
</event>
<event>
 7    1  0.5855569E-013  0.5052884E+02  0.7816164E-02  0.1300439E+00
        -11   -1    0    0    0    0  0.00000000000E+00  0.00000000000E+00  0.45593999997E+02  0.45594000000E+02  0.51100000000E-03 0. -1.
         11   -1    0    0    0    0 -0.00000000000E+00 -0.00000000000E+00 -0.45593999997E+02  0.45594000000E+02  0.51100000000E-03 0.  1.
    9900012    2    1    2    0    0  0.21767854455E+02  0.31838000897E+02  0.12871261139E+02  0.50528841720E+02  0.29999944892E+02 0.  0.
        -12    1    1    2    0    0 -0.21767854455E+02 -0.31838000897E+02 -0.12871261139E+02  0.40659158280E+02  0.00000000000E+00 0.  1.
         11    1    3    3    0    0  0.17337379593E+02  0.20723458603E+02  0.40894708090E+01  0.27327097164E+02  0.51100000000E-03 0. -1.
        -11    1    3    3    0    0 -0.19095265805E+01 -0.86630983059E+00 -0.40346842662E+01  0.45470278065E+01  0.51100000000E-03 0.  1.
         12    1    3    3    0    0  0.63400014422E+01  0.11980852125E+02  0.12816474597E+02  0.18654716750E+02  0.00000000000E+00 0. -1.
</event>
<event>
 7    1  0.5855569E-013  0.5052887E+02  0.7816164E-02  0.1300439E+00
        -11   -1    0    0    0    0  0.00000000000E+00  0.00000000000E+00  0.45593999997E+02  0.45594000000E+02  0.51100000000E-03 0.  1.
         11   -1    0    0    0    0 -0.00000000000E+00 -0.00000000000E+00 -0.45593999997E+02  0.45594000000E+02  0.51100000000E-03 0. -1.
    9900012    2    1    2    0    0 -0.29209634984E+02 -0.27482280613E+02  0.66848005535E+01  0.50528867176E+02  0.30000022267E+02 0.  0.
        -12    1    1    2    0    0  0.29209634984E+02  0.27482280613E+02 -0.66848005535E+01  0.40659132824E+02  0.00000000000E+00 0.  1.
         11    1    3    3    0    0 -0.96893653837E+00  0.18383569519E+01  0.22571011686E+00  0.20902965378E+01  0.51100000000E-03 0. -1.
        -11    1    3    3    0    0 -0.15117953084E+01  0.13062719428E+01 -0.56746121269E+01  0.60160696883E+01  0.51100000000E-03 0.  1.
         12    1    3    3    0    0 -0.26728903137E+02 -0.30626909508E+02  0.12133702564E+02  0.42422500950E+02  0.00000000000E+00 0. -1.
</event>
<event>
 7    1  0.5855569E-013  0.5052887E+02  0.7816164E-02  0.1300439E+00
        -11   -1    0    0    0    0  0.00000000000E+00  0.00000000000E+00  0.45593999997E+02  0.45594000000E+02  0.51100000000E-03 0.  1.
         11   -1    0    0    0    0 -0.00000000000E+00 -0.00000000000E+00 -0.45593999997E+02  0.45594000000E+02  0.51100000000E-03 0. -1.
    9900012    2    1    2    0    0 -0.15509375364E+02  0.34766354253E+02 -0.14280235390E+02  0.50528865294E+02  0.30000016547E+02 0.  0.
        -12    1    1    2    0    0  0.15509375364E+02 -0.34766354253E+02  0.14280235390E+02  0.40659134706E+02  0.00000000000E+00 0.  1.
         11    1    3    3    0    0 -0.39143616207E+01  0.70649310098E+01  0.94623040472E+00  0.81320864058E+01  0.51100000000E-03 0. -1.
        -11    1    3    3    0    0 -0.12449665444E+02  0.32297884190E+02 -0.14975250121E+02  0.37714792976E+02  0.51100000000E-03 0.  1.
        -12    1    3    3    0    0  0.85465170091E+00 -0.45964609465E+01 -0.25121567416E+00  0.46819859117E+01  0.00000000000E+00 0.  1.
</event>
<event>
 7    1  0.5855569E-013  0.5052887E+02  0.7816164E-02  0.1300439E+00
        -11   -1    0    0    0    0  0.00000000000E+00  0.00000000000E+00  0.45593999997E+02  0.45594000000E+02  0.51100000000E-03 0. -1.
         11   -1    0    0    0    0 -0.00000000000E+00 -0.00000000000E+00 -0.45593999997E+02  0.45594000000E+02  0.51100000000E-03 0.  1.
    9900012    2    1    2    0    0  0.37092712881E+02 -0.16637950819E+02 -0.68876620606E+00  0.50528866276E+02  0.30000019531E+02 0.  0.
        -12    1    1    2    0    0 -0.37092712881E+02  0.16637950819E+02  0.68876620606E+00  0.40659133724E+02  0.00000000000E+00 0.  1.
         11    1    3    3    0    0  0.17945800217E+02 -0.39355104943E+01  0.44495172726E+01  0.18903391032E+02  0.51100000000E-03 0. -1.
        -11    1    3    3    0    0  0.24256600954E+01  0.33603743712E+01 -0.72417016071E+01  0.83437512691E+01  0.51100000000E-03 0.  1.
         12    1    3    3    0    0  0.16721252569E+02 -0.16062814696E+02  0.21034181285E+01  0.23281723975E+02  0.00000000000E+00 0. -1.
</event>
<event>
 7    1  0.5855569E-013  0.5052886E+02  0.7816164E-02  0.1300439E+00
        -11   -1    0    0    0    0  0.00000000000E+00  0.00000000000E+00  0.45593999997E+02  0.45594000000E+02  0.51100000000E-03 0.  1.
         11   -1    0    0    0    0 -0.00000000000E+00 -0.00000000000E+00 -0.45593999997E+02  0.45594000000E+02  0.51100000000E-03 0. -1.
    9900012    2    1    2    0    0  0.20032364394E+02 -0.27186066678E+02 -0.22644826539E+02  0.50528855720E+02  0.29999987446E+02 0.  0.
        -12    1    1    2    0    0 -0.20032364394E+02  0.27186066678E+02  0.22644826539E+02  0.40659144280E+02  0.00000000000E+00 0.  1.
         11    1    3    3    0    0  0.21863453673E+02 -0.31352312891E+02 -0.19085404387E+02  0.42722719846E+02  0.51100000000E-03 0. -1.
        -11    1    3    3    0    0  0.12393981947E+00  0.13750489505E+01  0.12830600419E+01  0.18847716114E+01  0.51100000000E-03 0.  1.
        -12    1    3    3    0    0 -0.19550290993E+01  0.27911972625E+01 -0.48424821936E+01  0.59213642628E+01  0.00000000000E+00 0.  1.
</event>
<event>
 7    1  0.5855569E-013  0.5052886E+02  0.7816164E-02  0.1300439E+00
        -11   -1    0    0    0    0  0.00000000000E+00  0.00000000000E+00  0.45593999997E+02  0.45594000000E+02  0.51100000000E-03 0.  1.
         11   -1    0    0    0    0 -0.00000000000E+00 -0.00000000000E+00 -0.45593999997E+02  0.45594000000E+02  0.51100000000E-03 0. -1.
    9900012    2    1    2    0    0 -0.22663756541E+02  0.20181263251E+02 -0.27059871393E+02  0.50528857279E+02  0.29999992187E+02 0.  0.
        -12    1    1    2    0    0  0.22663756541E+02 -0.20181263251E+02  0.27059871393E+02  0.40659142721E+02  0.00000000000E+00 0.  1.
         11    1    3    3    0    0  0.41097948007E+01  0.72877251513E+01 -0.11195816391E+02  0.13976682586E+02  0.51100000000E-03 0. -1.
        -11    1    3    3    0    0  0.32716076866E+00  0.45028285454E+01 -0.15317539553E+01  0.47674699285E+01  0.51100000000E-03 0.  1.
         12    1    3    3    0    0 -0.27100712110E+02  0.83907095544E+01 -0.14332301047E+02  0.31784704765E+02  0.00000000000E+00 0. -1.
</event>
<event>
 7    1  0.5855569E-013  0.5052886E+02  0.7816164E-02  0.1300439E+00
        -11   -1    0    0    0    0  0.00000000000E+00  0.00000000000E+00  0.45593999997E+02  0.45594000000E+02  0.51100000000E-03 0.  1.
         11   -1    0    0    0    0 -0.00000000000E+00 -0.00000000000E+00 -0.45593999997E+02  0.45594000000E+02  0.51100000000E-03 0. -1.
    9900012    2    1    2    0    0  0.23353649235E+02 -0.17091570447E+02 -0.28559605204E+02  0.50528858809E+02  0.29999996837E+02 0.  0.
        -12    1    1    2    0    0 -0.23353649235E+02  0.17091570447E+02  0.28559605204E+02  0.40659141191E+02  0.00000000000E+00 0.  1.
         11    1    3    3    0    0  0.61358932952E+01  0.52184578179E+00 -0.52836338303E+00  0.61806696786E+01  0.51100000000E-03 0. -1.
        -11    1    3    3    0    0 -0.55419446095E+01 -0.74407002284E+01 -0.57684419373E+01  0.10924838332E+02  0.51100000000E-03 0.  1.
         12    1    3    3    0    0  0.22759700549E+02 -0.10172716001E+02 -0.22262799884E+02  0.33423350798E+02  0.00000000000E+00 0. -1.
</event>
<event>
 7    1  0.5855569E-013  0.5052882E+02  0.7816164E-02  0.1300439E+00
        -11   -1    0    0    0    0  0.00000000000E+00  0.00000000000E+00  0.45593999997E+02  0.45594000000E+02  0.51100000000E-03 0.  1.
         11   -1    0    0    0    0 -0.00000000000E+00 -0.00000000000E+00 -0.45593999997E+02  0.45594000000E+02  0.51100000000E-03 0. -1.
    9900012    2    1    2    0    0  0.11802830752E+02  0.54667899594E+01 -0.38522410233E+02  0.50528822729E+02  0.29999887167E+02 0.  0.
        -12    1    1    2    0    0 -0.11802830752E+02 -0.54667899594E+01  0.38522410233E+02  0.40659177271E+02  0.00000000000E+00 0.  1.
         11    1    3    3    0    0  0.10694866092E+02  0.38164729806E+01 -0.31487699621E+02  0.33472688187E+02  0.51100000000E-03 0. -1.
        -11    1    3    3    0    0  0.68403577218E+01 -0.34105217982E+01 -0.50332432481E+01  0.91518135117E+01  0.51100000000E-03 0.  1.
         12    1    3    3    0    0 -0.57323930623E+01  0.50608387770E+01 -0.20014673635E+01  0.79043210306E+01  0.00000000000E+00 0. -1.
</event>
<event>
 7    1  0.5855569E-013  0.5052886E+02  0.7816164E-02  0.1300439E+00
        -11   -1    0    0    0    0  0.00000000000E+00  0.00000000000E+00  0.45593999997E+02  0.45594000000E+02  0.51100000000E-03 0.  1.
         11   -1    0    0    0    0 -0.00000000000E+00 -0.00000000000E+00 -0.45593999997E+02  0.45594000000E+02  0.51100000000E-03 0. -1.
    9900012    2    1    2    0    0 -0.16241269647E+02  0.10446899190E+02 -0.35780571916E+02  0.50528857497E+02  0.29999992849E+02 0.  0.
        -12    1    1    2    0    0  0.16241269647E+02 -0.10446899190E+02  0.35780571916E+02  0.40659142503E+02  0.00000000000E+00 0.  1.
         11    1    3    3    0    0  0.17624949189E+01 -0.11368566525E+01  0.25280290211E+00  0.21125200486E+01  0.51100000000E-03 0. -1.
        -11    1    3    3    0    0 -0.88562048429E+01  0.80721764435E+01 -0.98426962485E+00  0.12023359918E+02  0.51100000000E-03 0.  1.
         12    1    3    3    0    0 -0.91475597234E+01  0.35115793987E+01 -0.35049105193E+02  0.36392977531E+02  0.00000000000E+00 0. -1.
</event>
<event>
 7    1  0.5855569E-013  0.5052885E+02  0.7816164E-02  0.1300439E+00
        -11   -1    0    0    0    0  0.00000000000E+00  0.00000000000E+00  0.45593999997E+02  0.45594000000E+02  0.51100000000E-03 0. -1.
         11   -1    0    0    0    0 -0.00000000000E+00 -0.00000000000E+00 -0.45593999997E+02  0.45594000000E+02  0.51100000000E-03 0.  1.
    9900012    2    1    2    0    0  0.13042535482E+02 -0.36866014893E+02  0.11133524718E+02  0.50528853938E+02  0.29999982029E+02 0.  0.
        -12    1    1    2    0    0 -0.13042535482E+02  0.36866014893E+02 -0.11133524718E+02  0.40659146062E+02  0.00000000000E+00 0.  1.
         11    1    3    3    0    0 -0.16147572850E+01 -0.24845499523E+02  0.68173411298E+01  0.25814384130E+02  0.51100000000E-03 0. -1.
        -11    1    3    3    0    0  0.17135600050E+01 -0.23927916896E+00 -0.47127568489E+01  0.50203206859E+01  0.51100000000E-03 0.  1.
        -12    1    3    3    0    0  0.12943732762E+02 -0.11781236200E+02  0.90289404371E+01  0.19694149122E+02  0.00000000000E+00 0.  1.
</event>
<event>
 7    1  0.5855569E-013  0.5052886E+02  0.7816164E-02  0.1300439E+00
        -11   -1    0    0    0    0  0.00000000000E+00  0.00000000000E+00  0.45593999997E+02  0.45594000000E+02  0.51100000000E-03 0.  1.
         11   -1    0    0    0    0 -0.00000000000E+00 -0.00000000000E+00 -0.45593999997E+02  0.45594000000E+02  0.51100000000E-03 0. -1.
    9900012    2    1    2    0    0 -0.27610949721E+02  0.86434939504E+00 -0.29833774571E+02  0.50528858967E+02  0.29999997317E+02 0.  0.
        -12    1    1    2    0    0  0.27610949721E+02 -0.86434939504E+00  0.29833774571E+02  0.40659141033E+02  0.00000000000E+00 0.  1.
         11    1    3    3    0    0 -0.14650309260E+02  0.50047125971E+01 -0.91954936393E+01  0.18006549173E+02  0.51100000000E-03 0. -1.
        -11    1    3    3    0    0 -0.17429423087E+02  0.13661134301E+01 -0.11381116000E+02  0.20860988872E+02  0.51100000000E-03 0.  1.
        -12    1    3    3    0    0  0.44687826268E+01 -0.55064766322E+01 -0.92571649320E+01  0.11661320922E+02  0.00000000000E+00 0.  1.
</event>
<event>
 7    1  0.5855569E-013  0.5052876E+02  0.7816164E-02  0.1300439E+00
        -11   -1    0    0    0    0  0.00000000000E+00  0.00000000000E+00  0.45593999997E+02  0.45594000000E+02  0.51100000000E-03 0.  1.
         11   -1    0    0    0    0 -0.00000000000E+00 -0.00000000000E+00 -0.45593999997E+02  0.45594000000E+02  0.51100000000E-03 0. -1.
    9900012    2    1    2    0    0 -0.64102227080E+01  0.10476288455E+02 -0.38759906363E+02  0.50528758538E+02  0.29999692052E+02 0.  0.
        -12    1    1    2    0    0  0.64102227080E+01 -0.10476288455E+02  0.38759906363E+02  0.40659241462E+02  0.00000000000E+00 0.  1.
         11    1    3    3    0    0 -0.57915780032E+00  0.99008042425E+00 -0.14090434609E+02  0.14137044625E+02  0.51100000000E-03 0. -1.
        -11    1    3    3    0    0 -0.29493822714E+01 -0.61272665945E+01 -0.17869481317E+02  0.19119639497E+02  0.51100000000E-03 0.  1.
        -12    1    3    3    0    0 -0.28816826363E+01  0.15613474625E+02 -0.67999904373E+01  0.17272074416E+02  0.00000000000E+00 0.  1.
</event>
<event>
 7    1  0.5855569E-013  0.5052886E+02  0.7816164E-02  0.1300439E+00
        -11   -1    0    0    0    0  0.00000000000E+00  0.00000000000E+00  0.45593999997E+02  0.45594000000E+02  0.51100000000E-03 0. -1.
         11   -1    0    0    0    0 -0.00000000000E+00 -0.00000000000E+00 -0.45593999997E+02  0.45594000000E+02  0.51100000000E-03 0.  1.
    9900012    2    1    2    0    0  0.37172530923E+02 -0.54727148237E+01  0.15537637365E+02  0.50528857883E+02  0.29999994021E+02 0.  0.
        -12    1    1    2    0    0 -0.37172530923E+02  0.54727148237E+01 -0.15537637365E+02  0.40659142117E+02  0.00000000000E+00 0.  1.
         11    1    3    3    0    0  0.13684048496E+02  0.78748722788E+00 -0.64884730639E+01  0.15164880558E+02  0.51100000000E-03 0. -1.
        -11    1    3    3    0    0  0.41315779851E+01  0.33975826535E+01  0.15297837247E+01  0.55636088145E+01  0.51100000000E-03 0.  1.
         12    1    3    3    0    0  0.19356904442E+02 -0.96577847051E+01  0.20496326704E+02  0.29800368510E+02  0.00000000000E+00 0. -1.
</event>
<event>
 7    1  0.5855569E-013  0.5052886E+02  0.7816164E-02  0.1300439E+00
        -11   -1    0    0    0    0  0.00000000000E+00  0.00000000000E+00  0.45593999997E+02  0.45594000000E+02  0.51100000000E-03 0.  1.
         11   -1    0    0    0    0 -0.00000000000E+00 -0.00000000000E+00 -0.45593999997E+02  0.45594000000E+02  0.51100000000E-03 0. -1.
    9900012    2    1    2    0    0 -0.29255396223E+02  0.56258102259E+01 -0.27670161507E+02  0.50528858510E+02  0.29999995928E+02 0.  0.
        -12    1    1    2    0    0  0.29255396223E+02 -0.56258102259E+01  0.27670161507E+02  0.40659141490E+02  0.00000000000E+00 0.  1.
         11    1    3    3    0    0 -0.14659284397E+02  0.15419422498E+02 -0.20924627724E+02  0.29841133606E+02  0.51100000000E-03 0. -1.
        -11    1    3    3    0    0 -0.43534118356E+01  0.11816839547E+01 -0.20778223697E+01  0.49664794009E+01  0.51100000000E-03 0.  1.
        -12    1    3    3    0    0 -0.10242699990E+02 -0.10975296227E+02 -0.46677114133E+01  0.15721245504E+02  0.00000000000E+00 0.  1.
</event>
<event>
 7    1  0.5855569E-013  0.5052886E+02  0.7816164E-02  0.1300439E+00
        -11   -1    0    0    0    0  0.00000000000E+00  0.00000000000E+00  0.45593999997E+02  0.45594000000E+02  0.51100000000E-03 0. -1.
         11   -1    0    0    0    0 -0.00000000000E+00 -0.00000000000E+00 -0.45593999997E+02  0.45594000000E+02  0.51100000000E-03 0.  1.
    9900012    2    1    2    0    0 -0.91394548069E+01 -0.82876382633E+01  0.38742110282E+02  0.50528859684E+02  0.29999999495E+02 0.  0.
        -12    1    1    2    0    0  0.91394548069E+01  0.82876382633E+01 -0.38742110282E+02  0.40659140316E+02  0.00000000000E+00 0.  1.
         11    1    3    3    0    0 -0.26363311012E+01  0.83811034562E+00  0.24160524802E+02  0.24318380489E+02  0.51100000000E-03 0. -1.
        -11    1    3    3    0    0 -0.72974871455E+01 -0.12636079955E+02  0.16585773965E+02  0.22090987609E+02  0.51100000000E-03 0.  1.
         12    1    3    3    0    0  0.79436343988E+00  0.35103313462E+01 -0.20041884855E+01  0.41194915852E+01  0.00000000000E+00 0. -1.
</event>
<event>
 7    1  0.5855569E-013  0.5052884E+02  0.7816164E-02  0.1300439E+00
        -11   -1    0    0    0    0  0.00000000000E+00  0.00000000000E+00  0.45593999997E+02  0.45594000000E+02  0.51100000000E-03 0.  1.
         11   -1    0    0    0    0 -0.00000000000E+00 -0.00000000000E+00 -0.45593999997E+02  0.45594000000E+02  0.51100000000E-03 0. -1.
    9900012    2    1    2    0    0 -0.26580848299E+02 -0.26812859151E+02 -0.15089602114E+02  0.50528843540E+02  0.29999950423E+02 0.  0.
        -12    1    1    2    0    0  0.26580848299E+02  0.26812859151E+02  0.15089602114E+02  0.40659156460E+02  0.00000000000E+00 0.  1.
         11    1    3    3    0    0 -0.23663569920E+01 -0.65554318178E+01 -0.31827600442E+01  0.76618074559E+01  0.51100000000E-03 0. -1.
        -11    1    3    3    0    0  0.17675006466E+01 -0.88276695608E+01  0.45175823093E+01  0.10072753278E+02  0.51100000000E-03 0.  1.
         12    1    3    3    0    0 -0.25981991953E+02 -0.11429757772E+02 -0.16424424379E+02  0.32794282806E+02  0.00000000000E+00 0. -1.
</event>
<event>
 7    1  0.5855569E-013  0.5052885E+02  0.7816164E-02  0.1300439E+00
        -11   -1    0    0    0    0  0.00000000000E+00  0.00000000000E+00  0.45593999997E+02  0.45594000000E+02  0.51100000000E-03 0.  1.
         11   -1    0    0    0    0 -0.00000000000E+00 -0.00000000000E+00 -0.45593999997E+02  0.45594000000E+02  0.51100000000E-03 0. -1.
    9900012    2    1    2    0    0  0.33106259522E+02  0.66077922108E+01 -0.22660080256E+02  0.50528848821E+02  0.29999966475E+02 0.  0.
        -12    1    1    2    0    0 -0.33106259522E+02 -0.66077922108E+01  0.22660080256E+02  0.40659151179E+02  0.00000000000E+00 0.  1.
         11    1    3    3    0    0  0.34257253328E+01  0.39220245412E+01  0.43205329509E+01  0.67664522313E+01  0.51100000000E-03 0. -1.
        -11    1    3    3    0    0  0.73886585528E+01  0.22057843289E+00  0.14680133308E+01  0.75363116613E+01  0.51100000000E-03 0.  1.
         12    1    3    3    0    0  0.22291875636E+02  0.24651892367E+01 -0.28448626537E+02  0.36226084928E+02  0.00000000000E+00 0. -1.
</event>
<event>
 7    1  0.5855569E-013  0.5052890E+02  0.7816164E-02  0.1300439E+00
        -11   -1    0    0    0    0  0.00000000000E+00  0.00000000000E+00  0.45593999997E+02  0.45594000000E+02  0.51100000000E-03 0.  1.
         11   -1    0    0    0    0 -0.00000000000E+00 -0.00000000000E+00 -0.45593999997E+02  0.45594000000E+02  0.51100000000E-03 0. -1.
    9900012    2    1    2    0    0  0.45959444688E+01  0.18968131480E+02 -0.35668614505E+02  0.50528895508E+02  0.30000108386E+02 0.  0.
        -12    1    1    2    0    0 -0.45959444688E+01 -0.18968131480E+02  0.35668614505E+02  0.40659104492E+02  0.00000000000E+00 0.  1.
         11    1    3    3    0    0 -0.19970882518E+01  0.87137625682E+01 -0.23412417172E+02  0.25061111262E+02  0.51100000000E-03 0. -1.
        -11    1    3    3    0    0  0.14515344972E+00  0.13272443961E+02 -0.26898204999E+01  0.13543041490E+02  0.51100000000E-03 0.  1.
         12    1    3    3    0    0  0.64478792709E+01 -0.30180750489E+01 -0.95663768331E+01  0.11924742756E+02  0.00000000000E+00 0. -1.
</event>
<event>
 7    1  0.5855569E-013  0.5052887E+02  0.7816164E-02  0.1300439E+00
        -11   -1    0    0    0    0  0.00000000000E+00  0.00000000000E+00  0.45593999997E+02  0.45594000000E+02  0.51100000000E-03 0.  1.
         11   -1    0    0    0    0 -0.00000000000E+00 -0.00000000000E+00 -0.45593999997E+02  0.45594000000E+02  0.51100000000E-03 0. -1.
    9900012    2    1    2    0    0  0.28775456888E+02  0.20136368396E+02 -0.20485708142E+02  0.50528874464E+02  0.30000044420E+02 0.  0.
        -12    1    1    2    0    0 -0.28775456888E+02 -0.20136368396E+02  0.20485708142E+02  0.40659125536E+02  0.00000000000E+00 0.  1.
         11    1    3    3    0    0 -0.45308900650E+01  0.49093698567E+01 -0.32672255961E+01  0.74367762187E+01  0.51100000000E-03 0. -1.
        -11    1    3    3    0    0  0.89887212765E+01  0.11108041778E+02 -0.29249447325E+01  0.14585643773E+02  0.51100000000E-03 0.  1.
         12    1    3    3    0    0  0.24317625677E+02  0.41189567613E+01 -0.14293537813E+02  0.28506454472E+02  0.00000000000E+00 0. -1.
</event>
<event>
 7    1  0.5855569E-013  0.5052885E+02  0.7816164E-02  0.1300439E+00
        -11   -1    0    0    0    0  0.00000000000E+00  0.00000000000E+00  0.45593999997E+02  0.45594000000E+02  0.51100000000E-03 0.  1.
         11   -1    0    0    0    0 -0.00000000000E+00 -0.00000000000E+00 -0.45593999997E+02  0.45594000000E+02  0.51100000000E-03 0. -1.
    9900012    2    1    2    0    0  0.10156072264E+02  0.38144038357E+02 -0.97495115149E+01  0.50528850467E+02  0.29999971478E+02 0.  0.
        -12    1    1    2    0    0 -0.10156072264E+02 -0.38144038357E+02  0.97495115149E+01  0.40659149533E+02  0.00000000000E+00 0.  1.
         11    1    3    3    0    0  0.23352822946E+01  0.30248998200E+01 -0.31841789838E+01  0.49741892182E+01  0.51100000000E-03 0.  1.
        -11    1    3    3    0    0  0.17674131717E+02  0.24553557517E+02 -0.71835500982E+01  0.31094300297E+02  0.51100000000E-03 0. -1.
        -12    1    3    3    0    0 -0.98533417477E+01  0.10565581020E+02  0.61821756711E+00  0.14460360952E+02  0.00000000000E+00 0.  1.
</event>
<event>
 7    1  0.5855569E-013  0.5052886E+02  0.7816164E-02  0.1300439E+00
        -11   -1    0    0    0    0  0.00000000000E+00  0.00000000000E+00  0.45593999997E+02  0.45594000000E+02  0.51100000000E-03 0. -1.
         11   -1    0    0    0    0 -0.00000000000E+00 -0.00000000000E+00 -0.45593999997E+02  0.45594000000E+02  0.51100000000E-03 0.  1.
    9900012    2    1    2    0    0 -0.16002122447E+02  0.69657960199E+00  0.37371284672E+02  0.50528855101E+02  0.29999985564E+02 0.  0.
        -12    1    1    2    0    0  0.16002122447E+02 -0.69657960199E+00 -0.37371284672E+02  0.40659144899E+02  0.00000000000E+00 0.  1.
         11    1    3    3    0    0  0.25583025437E+01 -0.40920496777E+01  0.11176116808E+02  0.12173552055E+02  0.51100000000E-03 0. -1.
        -11    1    3    3    0    0 -0.40503528805E+01  0.10310353510E+02  0.17062985577E+02  0.20343407409E+02  0.51100000000E-03 0.  1.
        -12    1    3    3    0    0 -0.14510072110E+02 -0.55217242299E+01  0.91321822869E+01  0.18011895637E+02  0.00000000000E+00 0.  1.
</event>
<event>
 7    1  0.5855569E-013  0.5052886E+02  0.7816164E-02  0.1300439E+00
        -11   -1    0    0    0    0  0.00000000000E+00  0.00000000000E+00  0.45593999997E+02  0.45594000000E+02  0.51100000000E-03 0.  1.
         11   -1    0    0    0    0 -0.00000000000E+00 -0.00000000000E+00 -0.45593999997E+02  0.45594000000E+02  0.51100000000E-03 0. -1.
    9900012    2    1    2    0    0  0.58798844992E+01  0.39207475420E+02 -0.90203566004E+01  0.50528855841E+02  0.29999987814E+02 0.  0.
        -12    1    1    2    0    0 -0.58798844992E+01 -0.39207475420E+02  0.90203566004E+01  0.40659144159E+02  0.00000000000E+00 0.  1.
         11    1    3    3    0    0  0.76617279238E+01  0.61857992896E+01  0.10509585676E+00  0.98477019162E+01  0.51100000000E-03 0. -1.
        -11    1    3    3    0    0  0.80852743349E+01  0.52222556511E+01  0.53764863638E+00  0.96401598261E+01  0.51100000000E-03 0.  1.
         12    1    3    3    0    0 -0.98671177594E+01  0.27799420480E+02 -0.96631010936E+01  0.31040994099E+02  0.00000000000E+00 0. -1.
</event>
<event>
 7    1  0.5855569E-013  0.5052886E+02  0.7816164E-02  0.1300439E+00
        -11   -1    0    0    0    0  0.00000000000E+00  0.00000000000E+00  0.45593999997E+02  0.45594000000E+02  0.51100000000E-03 0.  1.
         11   -1    0    0    0    0 -0.00000000000E+00 -0.00000000000E+00 -0.45593999997E+02  0.45594000000E+02  0.51100000000E-03 0. -1.
    9900012    2    1    2    0    0 -0.28504518553E+02  0.90539353332E+01 -0.27544231399E+02  0.50528855809E+02  0.29999987716E+02 0.  0.
        -12    1    1    2    0    0  0.28504518553E+02 -0.90539353332E+01  0.27544231399E+02  0.40659144191E+02  0.00000000000E+00 0.  1.
         11    1    3    3    0    0 -0.88911665089E+01  0.26752474268E+01 -0.11215781216E+01  0.93524183198E+01  0.51100000000E-03 0. -1.
        -11    1    3    3    0    0 -0.19873703549E+02  0.83113593888E+01 -0.85159458832E+01  0.23163853785E+02  0.51100000000E-03 0.  1.
        -12    1    3    3    0    0  0.26035150456E+00 -0.19326714824E+01 -0.17906707395E+02  0.18012583704E+02  0.00000000000E+00 0.  1.
</event>
<event>
 7    1  0.5855569E-013  0.5052886E+02  0.7816164E-02  0.1300439E+00
        -11   -1    0    0    0    0  0.00000000000E+00  0.00000000000E+00  0.45593999997E+02  0.45594000000E+02  0.51100000000E-03 0. -1.
         11   -1    0    0    0    0 -0.00000000000E+00 -0.00000000000E+00 -0.45593999997E+02  0.45594000000E+02  0.51100000000E-03 0.  1.
    9900012    2    1    2    0    0 -0.18513999449E+02 -0.31809325501E+02  0.17279020088E+02  0.50528857121E+02  0.29999991706E+02 0.  0.
        -12    1    1    2    0    0  0.18513999449E+02  0.31809325501E+02 -0.17279020088E+02  0.40659142879E+02  0.00000000000E+00 0.  1.
         11    1    3    3    0    0 -0.13113339007E+02 -0.10703331963E+02  0.47661617759E+01  0.17585143542E+02  0.51100000000E-03 0. -1.
        -11    1    3    3    0    0 -0.55129843551E+01  0.42489833987E+00  0.97866234675E+01  0.11240619834E+02  0.51100000000E-03 0.  1.
        -12    1    3    3    0    0  0.11232391312E+00 -0.21530891878E+02  0.27262348443E+01  0.21703093746E+02  0.00000000000E+00 0.  1.
</event>
<event>
 7    1  0.5855569E-013  0.5052886E+02  0.7816164E-02  0.1300439E+00
        -11   -1    0    0    0    0  0.00000000000E+00  0.00000000000E+00  0.45593999997E+02  0.45594000000E+02  0.51100000000E-03 0. -1.
         11   -1    0    0    0    0 -0.00000000000E+00 -0.00000000000E+00 -0.45593999997E+02  0.45594000000E+02  0.51100000000E-03 0.  1.
    9900012    2    1    2    0    0  0.39694411586E+02 -0.88044817057E+01  0.24883911999E-01  0.50528857996E+02  0.29999994366E+02 0.  0.
        -12    1    1    2    0    0 -0.39694411586E+02  0.88044817057E+01 -0.24883911999E-01  0.40659142004E+02  0.00000000000E+00 0.  1.
         11    1    3    3    0    0  0.80182660230E+01 -0.32268936602E+00  0.97790352394E+01  0.12650148178E+02  0.51100000000E-03 0. -1.
        -11    1    3    3    0    0 -0.72112925991E+00 -0.35593206512E+01  0.18236749802E+00  0.36362135626E+01  0.51100000000E-03 0.  1.
         12    1    3    3    0    0  0.32397274823E+02 -0.49224716885E+01 -0.99365188254E+01  0.34242496256E+02  0.00000000000E+00 0. -1.
</event>
<event>
 7    1  0.5855569E-013  0.5052888E+02  0.7816164E-02  0.1300439E+00
        -11   -1    0    0    0    0  0.00000000000E+00  0.00000000000E+00  0.45593999997E+02  0.45594000000E+02  0.51100000000E-03 0.  1.
         11   -1    0    0    0    0 -0.00000000000E+00 -0.00000000000E+00 -0.45593999997E+02  0.45594000000E+02  0.51100000000E-03 0. -1.
    9900012    2    1    2    0    0  0.81622073383E+01 -0.38737637014E+02  0.92702905324E+01  0.50528875112E+02  0.30000046391E+02 0.  0.
        -12    1    1    2    0    0 -0.81622073383E+01  0.38737637014E+02 -0.92702905324E+01  0.40659124888E+02  0.00000000000E+00 0.  1.
         11    1    3    3    0    0 -0.11215019948E+01 -0.99596386201E+01 -0.17999422367E+01  0.10182924947E+02  0.51100000000E-03 0. -1.
        -11    1    3    3    0    0  0.26981730428E+01 -0.22461555604E+01 -0.68233188920E+01  0.76735281021E+01  0.51100000000E-03 0.  1.
        -12    1    3    3    0    0  0.65855362903E+01 -0.26531842834E+02  0.17893551661E+02  0.32672422063E+02  0.00000000000E+00 0.  1.
</event>
<event>
 7    1  0.5855569E-013  0.5052886E+02  0.7816164E-02  0.1300439E+00
        -11   -1    0    0    0    0  0.00000000000E+00  0.00000000000E+00  0.45593999997E+02  0.45594000000E+02  0.51100000000E-03 0.  1.
         11   -1    0    0    0    0 -0.00000000000E+00 -0.00000000000E+00 -0.45593999997E+02  0.45594000000E+02  0.51100000000E-03 0. -1.
    9900012    2    1    2    0    0 -0.27879805039E+02 -0.21092283411E+02 -0.20760486812E+02  0.50528858824E+02  0.29999996882E+02 0.  0.
        -12    1    1    2    0    0  0.27879805039E+02  0.21092283411E+02  0.20760486812E+02  0.40659141176E+02  0.00000000000E+00 0.  1.
         11    1    3    3    0    0 -0.79088285651E+01 -0.28490483613E+00 -0.30453264533E+01  0.84796670634E+01  0.51100000000E-03 0.  1.
        -11    1    3    3    0    0 -0.22712754644E+02 -0.11418999694E+02 -0.48365620402E+01  0.25877695226E+02  0.51100000000E-03 0. -1.
        -12    1    3    3    0    0  0.27417781706E+01 -0.93883788807E+01 -0.12878598318E+02  0.16171496535E+02  0.00000000000E+00 0.  1.
</event>
<event>
 7    1  0.5855569E-013  0.5052886E+02  0.7816164E-02  0.1300439E+00
        -11   -1    0    0    0    0  0.00000000000E+00  0.00000000000E+00  0.45593999997E+02  0.45594000000E+02  0.51100000000E-03 0.  1.
         11   -1    0    0    0    0 -0.00000000000E+00 -0.00000000000E+00 -0.45593999997E+02  0.45594000000E+02  0.51100000000E-03 0. -1.
    9900012    2    1    2    0    0 -0.60684738820E+01  0.31424310749E+02 -0.25076923551E+02  0.50528858641E+02  0.29999996324E+02 0.  0.
        -12    1    1    2    0    0  0.60684738820E+01 -0.31424310749E+02  0.25076923551E+02  0.40659141359E+02  0.00000000000E+00 0.  1.
         11    1    3    3    0    0  0.55283100449E+00  0.88336232440E+01 -0.12779103884E+02  0.15544903283E+02  0.51100000000E-03 0. -1.
        -11    1    3    3    0    0  0.13825457761E+01  0.14640120189E+02 -0.17246595159E+02  0.22664721414E+02  0.51100000000E-03 0.  1.
        -12    1    3    3    0    0 -0.80038506626E+01  0.79505673161E+01  0.49487754916E+01  0.12319233943E+02  0.00000000000E+00 0.  1.
</event>
<event>
 7    1  0.5855569E-013  0.5052886E+02  0.7816164E-02  0.1300439E+00
        -11   -1    0    0    0    0  0.00000000000E+00  0.00000000000E+00  0.45593999997E+02  0.45594000000E+02  0.51100000000E-03 0. -1.
         11   -1    0    0    0    0 -0.00000000000E+00 -0.00000000000E+00 -0.45593999997E+02  0.45594000000E+02  0.51100000000E-03 0.  1.
    9900012    2    1    2    0    0 -0.25623874153E+02 -0.31454259853E+02  0.26855597960E+01  0.50528860549E+02  0.30000002123E+02 0.  0.
        -12    1    1    2    0    0  0.25623874153E+02  0.31454259853E+02 -0.26855597960E+01  0.40659139451E+02  0.00000000000E+00 0.  1.
         11    1    3    3    0    0 -0.14889962965E+02 -0.28723692535E+02 -0.52009245529E+01  0.32769057454E+02  0.51100000000E-03 0. -1.
        -11    1    3    3    0    0 -0.10277367121E+02 -0.54980084521E+01  0.90163821297E+01  0.14735926128E+02  0.51100000000E-03 0.  1.
        -12    1    3    3    0    0 -0.45654406685E+00  0.27674411339E+01 -0.11298977808E+01  0.30238769667E+01  0.00000000000E+00 0.  1.
</event>
<event>
 7    1  0.5855569E-013  0.5052886E+02  0.7816164E-02  0.1300439E+00
        -11   -1    0    0    0    0  0.00000000000E+00  0.00000000000E+00  0.45593999997E+02  0.45594000000E+02  0.51100000000E-03 0.  1.
         11   -1    0    0    0    0 -0.00000000000E+00 -0.00000000000E+00 -0.45593999997E+02  0.45594000000E+02  0.51100000000E-03 0. -1.
    9900012    2    1    2    0    0 -0.14068670004E+02  0.73283819576E+01 -0.37437056158E+02  0.50528857958E+02  0.29999994250E+02 0.  0.
        -12    1    1    2    0    0  0.14068670004E+02 -0.73283819576E+01  0.37437056158E+02  0.40659142042E+02  0.00000000000E+00 0.  1.
         11    1    3    3    0    0 -0.11355886525E+01  0.47865773508E+01 -0.93608934356E+01  0.10574838557E+02  0.51100000000E-03 0. -1.
        -11    1    3    3    0    0 -0.20670332172E+00  0.85124675246E+01  0.44940200213E-01  0.85150953902E+01  0.51100000000E-03 0.  1.
         12    1    3    3    0    0 -0.12726378030E+02 -0.59706629179E+01 -0.28121102922E+02  0.31438924012E+02  0.00000000000E+00 0. -1.
</event>
<event>
 7    1  0.5855569E-013  0.5052891E+02  0.7816164E-02  0.1300439E+00
        -11   -1    0    0    0    0  0.00000000000E+00  0.00000000000E+00  0.45593999997E+02  0.45594000000E+02  0.51100000000E-03 0.  1.
         11   -1    0    0    0    0 -0.00000000000E+00 -0.00000000000E+00 -0.45593999997E+02  0.45594000000E+02  0.51100000000E-03 0. -1.
    9900012    2    1    2    0    0 -0.10208136928E+02 -0.19128018839E+01 -0.39310258530E+02  0.50528913730E+02  0.30000163773E+02 0.  0.
        -12    1    1    2    0    0  0.10208136928E+02  0.19128018839E+01  0.39310258530E+02  0.40659086270E+02  0.00000000000E+00 0.  1.
         11    1    3    3    0    0 -0.24874803182E+01 -0.11456286562E+02 -0.20616544270E+02  0.23716575597E+02  0.51100000000E-03 0. -1.
        -11    1    3    3    0    0 -0.11973645169E+02  0.53829931302E+01 -0.11295366557E+02  0.17318490107E+02  0.51100000000E-03 0.  1.
        -12    1    3    3    0    0  0.42529885591E+01  0.41604915479E+01 -0.73983477035E+01  0.94938480263E+01  0.00000000000E+00 0.  1.
</event>
<event>
 7    1  0.5855569E-013  0.5052886E+02  0.7816164E-02  0.1300439E+00
        -11   -1    0    0    0    0  0.00000000000E+00  0.00000000000E+00  0.45593999997E+02  0.45594000000E+02  0.51100000000E-03 0. -1.
         11   -1    0    0    0    0 -0.00000000000E+00 -0.00000000000E+00 -0.45593999997E+02  0.45594000000E+02  0.51100000000E-03 0.  1.
    9900012    2    1    2    0    0 -0.38254550531E+02 -0.77174121466E+01  0.11410356724E+02  0.50528864162E+02  0.30000013106E+02 0.  0.
        -12    1    1    2    0    0  0.38254550531E+02  0.77174121466E+01 -0.11410356724E+02  0.40659135838E+02  0.00000000000E+00 0.  1.
         11    1    3    3    0    0 -0.48811963007E+01  0.48952937936E+00  0.78972651056E+01  0.92969087738E+01  0.51100000000E-03 0. -1.
        -11    1    3    3    0    0 -0.59226695206E+00  0.46194504667E+01  0.38293890200E+01  0.60294546424E+01  0.51100000000E-03 0.  1.
         12    1    3    3    0    0 -0.32781087278E+02 -0.12826391993E+02 -0.31629740190E+00  0.35202500745E+02  0.00000000000E+00 0. -1.
</event>
<event>
 7    1  0.5855569E-013  0.5052887E+02  0.7816164E-02  0.1300439E+00
        -11   -1    0    0    0    0  0.00000000000E+00  0.00000000000E+00  0.45593999997E+02  0.45594000000E+02  0.51100000000E-03 0. -1.
         11   -1    0    0    0    0 -0.00000000000E+00 -0.00000000000E+00 -0.45593999997E+02  0.45594000000E+02  0.51100000000E-03 0.  1.
    9900012    2    1    2    0    0 -0.31826789007E+02  0.34395236268E+01  0.25067702360E+02  0.50528874052E+02  0.30000043168E+02 0.  0.
        -12    1    1    2    0    0  0.31826789007E+02 -0.34395236268E+01 -0.25067702360E+02  0.40659125948E+02  0.00000000000E+00 0.  1.
         11    1    3    3    0    0 -0.15627538592E+02  0.63412708025E+00  0.13846845192E+02  0.20889164694E+02  0.51100000000E-03 0. -1.
        -11    1    3    3    0    0 -0.20687399313E+02  0.40805241863E+01  0.46697002392E+01  0.21596880991E+02  0.51100000000E-03 0.  1.
        -12    1    3    3    0    0  0.44881488978E+01 -0.12751276398E+01  0.65511569286E+01  0.80428283663E+01  0.00000000000E+00 0.  1.
</event>
<event>
 7    1  0.5855569E-013  0.5052885E+02  0.7816164E-02  0.1300439E+00
        -11   -1    0    0    0    0  0.00000000000E+00  0.00000000000E+00  0.45593999997E+02  0.45594000000E+02  0.51100000000E-03 0.  1.
         11   -1    0    0    0    0 -0.00000000000E+00 -0.00000000000E+00 -0.45593999997E+02  0.45594000000E+02  0.51100000000E-03 0. -1.
    9900012    2    1    2    0    0  0.10683779621E+02  0.20758706102E+02 -0.33288128440E+02  0.50528849479E+02  0.29999968476E+02 0.  0.
        -12    1    1    2    0    0 -0.10683779621E+02 -0.20758706102E+02  0.33288128440E+02  0.40659150521E+02  0.00000000000E+00 0.  1.
         11    1    3    3    0    0  0.11463669079E+01  0.17571582477E+02 -0.17887886356E+02  0.25100819635E+02  0.51100000000E-03 0. -1.
        -11    1    3    3    0    0  0.89217178397E+00  0.92221987686E+01 -0.46356365005E+01  0.10360214604E+02  0.51100000000E-03 0.  1.
        -12    1    3    3    0    0  0.86452409289E+01 -0.60350751433E+01 -0.10764605584E+02  0.15067815239E+02  0.00000000000E+00 0.  1.
</event>
<event>
 7    1  0.5855569E-013  0.5052886E+02  0.7816164E-02  0.1300439E+00
        -11   -1    0    0    0    0  0.00000000000E+00  0.00000000000E+00  0.45593999997E+02  0.45594000000E+02  0.51100000000E-03 0.  1.
         11   -1    0    0    0    0 -0.00000000000E+00 -0.00000000000E+00 -0.45593999997E+02  0.45594000000E+02  0.51100000000E-03 0. -1.
    9900012    2    1    2    0    0 -0.11164490816E+02  0.83326501175E+01 -0.38197994000E+02  0.50528860083E+02  0.30000000709E+02 0.  0.
        -12    1    1    2    0    0  0.11164490816E+02 -0.83326501175E+01  0.38197994000E+02  0.40659139917E+02  0.00000000000E+00 0.  1.
         11    1    3    3    0    0 -0.48973729341E+01  0.90122599055E+01 -0.68599176670E+01  0.12339512183E+02  0.51100000000E-03 0. -1.
        -11    1    3    3    0    0  0.62744147083E+00  0.87277652899E+01 -0.70172842862E+01  0.11216498953E+02  0.51100000000E-03 0.  1.
         12    1    3    3    0    0 -0.68945593525E+01 -0.94073750780E+01 -0.24320792047E+02  0.26972848947E+02  0.00000000000E+00 0. -1.
</event>
<event>
 7    1  0.5855569E-013  0.5052884E+02  0.7816164E-02  0.1300439E+00
        -11   -1    0    0    0    0  0.00000000000E+00  0.00000000000E+00  0.45593999997E+02  0.45594000000E+02  0.51100000000E-03 0.  1.
         11   -1    0    0    0    0 -0.00000000000E+00 -0.00000000000E+00 -0.45593999997E+02  0.45594000000E+02  0.51100000000E-03 0. -1.
    9900012    2    1    2    0    0 -0.13252565605E+02  0.16855920744E+02 -0.34545830876E+02  0.50528843711E+02  0.29999950943E+02 0.  0.
        -12    1    1    2    0    0  0.13252565605E+02 -0.16855920744E+02  0.34545830876E+02  0.40659156289E+02  0.00000000000E+00 0.  1.
         11    1    3    3    0    0 -0.15370951004E+01  0.37024726806E+01 -0.92184227373E+01  0.10052376999E+02  0.51100000000E-03 0. -1.
        -11    1    3    3    0    0 -0.11926434640E+02  0.20665855786E+02 -0.17245061562E+02  0.29439931846E+02  0.51100000000E-03 0.  1.
        -12    1    3    3    0    0  0.21096413497E+00 -0.75124077225E+01 -0.80823465765E+01  0.11036534866E+02  0.00000000000E+00 0.  1.
</event>
<event>
 7    1  0.5855569E-013  0.5052889E+02  0.7816164E-02  0.1300439E+00
        -11   -1    0    0    0    0  0.00000000000E+00  0.00000000000E+00  0.45593999997E+02  0.45594000000E+02  0.51100000000E-03 0.  1.
         11   -1    0    0    0    0 -0.00000000000E+00 -0.00000000000E+00 -0.45593999997E+02  0.45594000000E+02  0.51100000000E-03 0. -1.
    9900012    2    1    2    0    0 -0.68353983526E+01  0.31252268392E+02 -0.25094549221E+02  0.50528888464E+02  0.30000086974E+02 0.  0.
        -12    1    1    2    0    0  0.68353983526E+01 -0.31252268392E+02  0.25094549221E+02  0.40659111536E+02  0.00000000000E+00 0.  1.
         11    1    3    3    0    0 -0.15116511117E+02  0.21536346039E+02 -0.10406950820E+02  0.28295365958E+02  0.51100000000E-03 0. -1.
        -11    1    3    3    0    0 -0.44204530183E+00  0.34910799530E+01 -0.98802342465E+01  0.10488187275E+02  0.51100000000E-03 0.  1.
        -12    1    3    3    0    0  0.87231580667E+01  0.62248424008E+01 -0.48073641548E+01  0.11745335231E+02  0.00000000000E+00 0.  1.
</event>
<event>
 7    1  0.5855569E-013  0.5052887E+02  0.7816164E-02  0.1300439E+00
        -11   -1    0    0    0    0  0.00000000000E+00  0.00000000000E+00  0.45593999997E+02  0.45594000000E+02  0.51100000000E-03 0. -1.
         11   -1    0    0    0    0 -0.00000000000E+00 -0.00000000000E+00 -0.45593999997E+02  0.45594000000E+02  0.51100000000E-03 0.  1.
    9900012    2    1    2    0    0  0.37284378450E+02 -0.14082818751E+02 -0.80445313899E+01  0.50528866393E+02  0.30000019887E+02 0.  0.
        -12    1    1    2    0    0 -0.37284378450E+02  0.14082818751E+02  0.80445313899E+01  0.40659133607E+02  0.00000000000E+00 0.  1.
         11    1    3    3    0    0  0.11362400885E+02 -0.32984325354E+00  0.32395712330E+01  0.11819804249E+02  0.51100000000E-03 0. -1.
        -11    1    3    3    0    0 -0.33910265567E+01 -0.56938324799E+01 -0.20048166823E+01  0.69237330688E+01  0.51100000000E-03 0.  1.
         12    1    3    3    0    0  0.29313004122E+02 -0.80591430180E+01 -0.92792859406E+01  0.31785329075E+02  0.00000000000E+00 0. -1.
</event>
<event>
 7    1  0.5855569E-013  0.5052889E+02  0.7816164E-02  0.1300439E+00
        -11   -1    0    0    0    0  0.00000000000E+00  0.00000000000E+00  0.45593999997E+02  0.45594000000E+02  0.51100000000E-03 0. -1.
         11   -1    0    0    0    0 -0.00000000000E+00 -0.00000000000E+00 -0.45593999997E+02  0.45594000000E+02  0.51100000000E-03 0.  1.
    9900012    2    1    2    0    0 -0.59216888460E+01 -0.37776765832E+02  0.13820734022E+02  0.50528891249E+02  0.30000095440E+02 0.  0.
        -12    1    1    2    0    0  0.59216888460E+01  0.37776765832E+02 -0.13820734022E+02  0.40659108751E+02  0.00000000000E+00 0.  1.
         11    1    3    3    0    0  0.46579178001E+01  0.15976014828E+01  0.33852222693E+01  0.59756387779E+01  0.51100000000E-03 0. -1.
        -11    1    3    3    0    0 -0.68051968488E+01 -0.14175662694E+02  0.10790805437E+02  0.19070962199E+02  0.51100000000E-03 0.  1.
        -12    1    3    3    0    0 -0.37744097973E+01 -0.25198704621E+02 -0.35529368467E+00  0.25482290272E+02  0.00000000000E+00 0.  1.
</event>
<event>
 7    1  0.5855569E-013  0.5052886E+02  0.7816164E-02  0.1300439E+00
        -11   -1    0    0    0    0  0.00000000000E+00  0.00000000000E+00  0.45593999997E+02  0.45594000000E+02  0.51100000000E-03 0. -1.
         11   -1    0    0    0    0 -0.00000000000E+00 -0.00000000000E+00 -0.45593999997E+02  0.45594000000E+02  0.51100000000E-03 0.  1.
    9900012    2    1    2    0    0  0.17997697210E+02  0.35955221269E+02  0.60390637000E+01  0.50528864105E+02  0.30000012932E+02 0.  0.
        -12    1    1    2    0    0 -0.17997697210E+02 -0.35955221269E+02 -0.60390637000E+01  0.40659135895E+02  0.00000000000E+00 0.  1.
         11    1    3    3    0    0  0.15069959147E+02  0.21188702096E+02  0.20446155714E+01  0.26081511043E+02  0.51100000000E-03 0. -1.
        -11    1    3    3    0    0  0.10602449741E+02  0.84848586092E+01  0.50178602033E+01  0.14477005471E+02  0.51100000000E-03 0.  1.
        -12    1    3    3    0    0 -0.76747116785E+01  0.62816605645E+01 -0.10234120747E+01  0.99703475902E+01  0.00000000000E+00 0.  1.
</event>
<event>
 7    1  0.5855569E-013  0.5052885E+02  0.7816164E-02  0.1300439E+00
        -11   -1    0    0    0    0  0.00000000000E+00  0.00000000000E+00  0.45593999997E+02  0.45594000000E+02  0.51100000000E-03 0. -1.
         11   -1    0    0    0    0 -0.00000000000E+00 -0.00000000000E+00 -0.45593999997E+02  0.45594000000E+02  0.51100000000E-03 0.  1.
    9900012    2    1    2    0    0 -0.16494851948E+02  0.30096550137E+02  0.21801002926E+02  0.50528853433E+02  0.29999980496E+02 0.  0.
        -12    1    1    2    0    0  0.16494851948E+02 -0.30096550137E+02 -0.21801002926E+02  0.40659146567E+02  0.00000000000E+00 0.  1.
         11    1    3    3    0    0 -0.99387997430E+00  0.36339646242E+00  0.81704083979E+00  0.13369406820E+01  0.51100000000E-03 0. -1.
        -11    1    3    3    0    0 -0.85343641551E+01  0.10605027536E+02  0.24978036734E+02  0.28446516482E+02  0.51100000000E-03 0.  1.
        -12    1    3    3    0    0 -0.69666078187E+01  0.19128126139E+02 -0.39940746485E+01  0.20745396270E+02  0.00000000000E+00 0.  1.
</event>
<event>
 7    1  0.5855569E-013  0.5052885E+02  0.7816164E-02  0.1300439E+00
        -11   -1    0    0    0    0  0.00000000000E+00  0.00000000000E+00  0.45593999997E+02  0.45594000000E+02  0.51100000000E-03 0.  1.
         11   -1    0    0    0    0 -0.00000000000E+00 -0.00000000000E+00 -0.45593999997E+02  0.45594000000E+02  0.51100000000E-03 0. -1.
    9900012    2    1    2    0    0  0.33257299985E+02 -0.23347207167E+02 -0.14235463350E+01  0.50528848890E+02  0.29999966686E+02 0.  0.
        -12    1    1    2    0    0 -0.33257299985E+02  0.23347207167E+02  0.14235463350E+01  0.40659151110E+02  0.00000000000E+00 0.  1.
         11    1    3    3    0    0  0.30274453357E+02 -0.13454414265E+02 -0.18470406334E+01  0.33180948580E+02  0.51100000000E-03 0. -1.
        -11    1    3    3    0    0  0.12565196940E+01  0.34074430114E+01 -0.12304107009E+01  0.38345039277E+01  0.51100000000E-03 0.  1.
        -12    1    3    3    0    0  0.17263269339E+01 -0.13300235914E+02  0.16539049992E+01  0.13513396382E+02  0.00000000000E+00 0.  1.
</event>
<event>
 7    1  0.5855569E-013  0.5052885E+02  0.7816164E-02  0.1300439E+00
        -11   -1    0    0    0    0  0.00000000000E+00  0.00000000000E+00  0.45593999997E+02  0.45594000000E+02  0.51100000000E-03 0.  1.
         11   -1    0    0    0    0 -0.00000000000E+00 -0.00000000000E+00 -0.45593999997E+02  0.45594000000E+02  0.51100000000E-03 0. -1.
    9900012    2    1    2    0    0 -0.31811017746E+02 -0.10036679124E+02 -0.23248452981E+02  0.50528851658E+02  0.29999975101E+02 0.  0.
        -12    1    1    2    0    0  0.31811017746E+02  0.10036679124E+02  0.23248452981E+02  0.40659148342E+02  0.00000000000E+00 0.  1.
         11    1    3    3    0    0 -0.35881011020E+01  0.17793621543E+01 -0.62545262825E+01  0.74269575516E+01  0.51100000000E-03 0. -1.
        -11    1    3    3    0    0 -0.34583113604E+01 -0.41546899537E+01 -0.16296757174E+02  0.17169905670E+02  0.51100000000E-03 0.  1.
        -12    1    3    3    0    0 -0.24764605283E+02 -0.76613513242E+01 -0.69716952529E+00  0.25931988437E+02  0.00000000000E+00 0.  1.
</event>
<event>
 7    1  0.5855569E-013  0.5052884E+02  0.7816164E-02  0.1300439E+00
        -11   -1    0    0    0    0  0.00000000000E+00  0.00000000000E+00  0.45593999997E+02  0.45594000000E+02  0.51100000000E-03 0.  1.
         11   -1    0    0    0    0 -0.00000000000E+00 -0.00000000000E+00 -0.45593999997E+02  0.45594000000E+02  0.51100000000E-03 0. -1.
    9900012    2    1    2    0    0  0.12783939709E+02 -0.28761484172E+02 -0.25739365223E+02  0.50528843487E+02  0.29999950264E+02 0.  0.
        -12    1    1    2    0    0 -0.12783939709E+02  0.28761484172E+02  0.25739365223E+02  0.40659156513E+02  0.00000000000E+00 0.  1.
         11    1    3    3    0    0  0.57557323637E+01 -0.24089363937E+02 -0.12769924545E+02  0.27865693658E+02  0.51100000000E-03 0. -1.
        -11    1    3    3    0    0  0.82146162104E+01 -0.99161952291E+01 -0.11005560082E+02  0.16939102700E+02  0.51100000000E-03 0.  1.
        -12    1    3    3    0    0 -0.11864088649E+01  0.52440749939E+01 -0.19638805950E+01  0.57240471284E+01  0.00000000000E+00 0.  1.
</event>
<event>
 7    1  0.5855569E-013  0.5052886E+02  0.7816164E-02  0.1300439E+00
        -11   -1    0    0    0    0  0.00000000000E+00  0.00000000000E+00  0.45593999997E+02  0.45594000000E+02  0.51100000000E-03 0.  1.
         11   -1    0    0    0    0 -0.00000000000E+00 -0.00000000000E+00 -0.45593999997E+02  0.45594000000E+02  0.51100000000E-03 0. -1.
    9900012    2    1    2    0    0  0.78999576409E+01 -0.30522289225E+02 -0.25673841401E+02  0.50528860775E+02  0.30000002812E+02 0.  0.
        -12    1    1    2    0    0 -0.78999576409E+01  0.30522289225E+02  0.25673841401E+02  0.40659139225E+02  0.00000000000E+00 0.  1.
         11    1    3    3    0    0 -0.32688860512E+00 -0.13236053518E+02 -0.13842157104E+02  0.19154771793E+02  0.51100000000E-03 0. -1.
        -11    1    3    3    0    0 -0.47774753885E+00 -0.16347388929E+02 -0.14872895098E+02  0.22105844846E+02  0.51100000000E-03 0.  1.
         12    1    3    3    0    0  0.87045937849E+01 -0.93884677808E+00  0.30412108012E+01  0.92682441363E+01  0.00000000000E+00 0. -1.
</event>
<event>
 7    1  0.5855569E-013  0.5052886E+02  0.7816164E-02  0.1300439E+00
        -11   -1    0    0    0    0  0.00000000000E+00  0.00000000000E+00  0.45593999997E+02  0.45594000000E+02  0.51100000000E-03 0.  1.
         11   -1    0    0    0    0 -0.00000000000E+00 -0.00000000000E+00 -0.45593999997E+02  0.45594000000E+02  0.51100000000E-03 0. -1.
    9900012    2    1    2    0    0  0.53413604736E+00  0.10386467391E+02 -0.39306508790E+02  0.50528860321E+02  0.30000001431E+02 0.  0.
        -12    1    1    2    0    0 -0.53413604736E+00 -0.10386467391E+02  0.39306508790E+02  0.40659139679E+02  0.00000000000E+00 0.  1.
         11    1    3    3    0    0 -0.73547224259E+01  0.90000717309E+01 -0.18033525669E+02  0.21454633099E+02  0.51100000000E-03 0. -1.
        -11    1    3    3    0    0 -0.20936540999E+01  0.77048592938E+01 -0.79412989824E+01  0.11261104476E+02  0.51100000000E-03 0.  1.
        -12    1    3    3    0    0  0.99825125731E+01 -0.63184636333E+01 -0.13331684139E+02  0.17813122745E+02  0.00000000000E+00 0.  1.
</event>
<event>
 7    1  0.5855569E-013  0.5052887E+02  0.7816164E-02  0.1300439E+00
        -11   -1    0    0    0    0  0.00000000000E+00  0.00000000000E+00  0.45593999997E+02  0.45594000000E+02  0.51100000000E-03 0.  1.
         11   -1    0    0    0    0 -0.00000000000E+00 -0.00000000000E+00 -0.45593999997E+02  0.45594000000E+02  0.51100000000E-03 0. -1.
    9900012    2    1    2    0    0  0.19616612694E+00  0.30112227216E+02 -0.27319961873E+02  0.50528867867E+02  0.30000024368E+02 0.  0.
        -12    1    1    2    0    0 -0.19616612694E+00 -0.30112227216E+02  0.27319961873E+02  0.40659132133E+02  0.00000000000E+00 0.  1.
         11    1    3    3    0    0  0.45621590984E-01  0.66178238766E+01 -0.62600213900E+01  0.91096400727E+01  0.51100000000E-03 0. -1.
        -11    1    3    3    0    0 -0.13016018567E+02  0.15543570916E+02 -0.11465279652E+02  0.23291027755E+02  0.51100000000E-03 0.  1.
         12    1    3    3    0    0  0.13166563103E+02  0.79508324236E+01 -0.95946608315E+01  0.18128200039E+02  0.00000000000E+00 0. -1.
</event>
<event>
 7    1  0.5855569E-013  0.5052886E+02  0.7816164E-02  0.1300439E+00
        -11   -1    0    0    0    0  0.00000000000E+00  0.00000000000E+00  0.45593999997E+02  0.45594000000E+02  0.51100000000E-03 0.  1.
         11   -1    0    0    0    0 -0.00000000000E+00 -0.00000000000E+00 -0.45593999997E+02  0.45594000000E+02  0.51100000000E-03 0. -1.
    9900012    2    1    2    0    0  0.19124271967E+02  0.19522758750E+02 -0.30104645235E+02  0.50528861394E+02  0.30000004692E+02 0.  0.
        -12    1    1    2    0    0 -0.19124271967E+02 -0.19522758750E+02  0.30104645235E+02  0.40659138606E+02  0.00000000000E+00 0.  1.
         11    1    3    3    0    0 -0.92148726763E+00  0.33036551793E+01 -0.17275204919E+02  0.17612381486E+02  0.51100000000E-03 0.  1.
        -11    1    3    3    0    0  0.44781870984E+01  0.24720688052E+01 -0.10922112117E+02  0.12060589423E+02  0.51100000000E-03 0. -1.
        -12    1    3    3    0    0  0.15567572136E+02  0.13747034766E+02 -0.19073281981E+01  0.20855890485E+02  0.00000000000E+00 0.  1.
</event>
<event>
 7    1  0.5855569E-013  0.5052887E+02  0.7816164E-02  0.1300439E+00
        -11   -1    0    0    0    0  0.00000000000E+00  0.00000000000E+00  0.45593999997E+02  0.45594000000E+02  0.51100000000E-03 0.  1.
         11   -1    0    0    0    0 -0.00000000000E+00 -0.00000000000E+00 -0.45593999997E+02  0.45594000000E+02  0.51100000000E-03 0. -1.
    9900012    2    1    2    0    0 -0.34073717943E+02  0.16084212717E+02 -0.15278898299E+02  0.50528869582E+02  0.30000029580E+02 0.  0.
        -12    1    1    2    0    0  0.34073717943E+02 -0.16084212717E+02  0.15278898299E+02  0.40659130418E+02  0.00000000000E+00 0.  1.
         11    1    3    3    0    0 -0.43387122009E+01 -0.15204525495E+01  0.20862217091E+01  0.50486157309E+01  0.51100000000E-03 0.  1.
        -11    1    3    3    0    0  0.86184106773E+00 -0.35558736778E+01  0.12694238303E+01  0.38727825605E+01  0.51100000000E-03 0. -1.
         12    1    3    3    0    0 -0.30596846809E+02  0.21160538944E+02 -0.18634543838E+02  0.41607471290E+02  0.00000000000E+00 0. -1.
</event>
<event>
 7    1  0.5855569E-013  0.5052887E+02  0.7816164E-02  0.1300439E+00
        -11   -1    0    0    0    0  0.00000000000E+00  0.00000000000E+00  0.45593999997E+02  0.45594000000E+02  0.51100000000E-03 0.  1.
         11   -1    0    0    0    0 -0.00000000000E+00 -0.00000000000E+00 -0.45593999997E+02  0.45594000000E+02  0.51100000000E-03 0. -1.
    9900012    2    1    2    0    0  0.22721832332E+02  0.22067500064E+02  0.25493309078E+02  0.50528867798E+02  0.30000024160E+02 0.  0.
        -12    1    1    2    0    0 -0.22721832332E+02 -0.22067500064E+02 -0.25493309078E+02  0.40659132202E+02  0.00000000000E+00 0.  1.
         11    1    3    3    0    0  0.23372854635E+02  0.64610075904E+01  0.11502960719E+02  0.26839393779E+02  0.51100000000E-03 0. -1.
        -11    1    3    3    0    0  0.27704186226E+01  0.24240317822E+01 -0.60079130840E+00  0.37298927441E+01  0.51100000000E-03 0.  1.
        -12    1    3    3    0    0 -0.34214409249E+01  0.13182460691E+02  0.14591139668E+02  0.19959581276E+02  0.00000000000E+00 0.  1.
</event>
<event>
 7    1  0.5855569E-013  0.5052886E+02  0.7816164E-02  0.1300439E+00
        -11   -1    0    0    0    0  0.00000000000E+00  0.00000000000E+00  0.45593999997E+02  0.45594000000E+02  0.51100000000E-03 0.  1.
         11   -1    0    0    0    0 -0.00000000000E+00 -0.00000000000E+00 -0.45593999997E+02  0.45594000000E+02  0.51100000000E-03 0. -1.
    9900012    2    1    2    0    0 -0.21357295729E+02  0.24442553036E+02 -0.24486596770E+02  0.50528857102E+02  0.29999991648E+02 0.  0.
        -12    1    1    2    0    0  0.21357295729E+02 -0.24442553036E+02  0.24486596770E+02  0.40659142898E+02  0.00000000000E+00 0.  1.
         11    1    3    3    0    0 -0.25541152762E+01  0.11685424865E+02  0.44985282634E+01  0.12779257252E+02  0.51100000000E-03 0. -1.
        -11    1    3    3    0    0 -0.48840081323E+01  0.11774651009E+01 -0.23582983870E+01  0.55499127059E+01  0.51100000000E-03 0.  1.
         12    1    3    3    0    0 -0.13919172321E+02  0.11579663070E+02 -0.26626826647E+02  0.32199687144E+02  0.00000000000E+00 0. -1.
</event>
<event>
 7    1  0.5855569E-013  0.5052886E+02  0.7816164E-02  0.1300439E+00
        -11   -1    0    0    0    0  0.00000000000E+00  0.00000000000E+00  0.45593999997E+02  0.45594000000E+02  0.51100000000E-03 0. -1.
         11   -1    0    0    0    0 -0.00000000000E+00 -0.00000000000E+00 -0.45593999997E+02  0.45594000000E+02  0.51100000000E-03 0.  1.
    9900012    2    1    2    0    0 -0.15203039660E+01 -0.39806231385E+02  0.81436000929E+01  0.50528860760E+02  0.30000002767E+02 0.  0.
        -12    1    1    2    0    0  0.15203039660E+01  0.39806231385E+02 -0.81436000929E+01  0.40659139240E+02  0.00000000000E+00 0.  1.
         11    1    3    3    0    0 -0.72219220725E+01 -0.31531352697E+02  0.10174221216E+02  0.33910133278E+02  0.51100000000E-03 0. -1.
        -11    1    3    3    0    0  0.12402383474E+01 -0.78681604414E+01  0.41529209260E+01  0.89829222622E+01  0.51100000000E-03 0.  1.
        -12    1    3    3    0    0  0.44613797592E+01 -0.40671824724E+00 -0.61835420493E+01  0.76358052204E+01  0.00000000000E+00 0.  1.
</event>
<event>
 7    1  0.5855569E-013  0.5052887E+02  0.7816164E-02  0.1300439E+00
        -11   -1    0    0    0    0  0.00000000000E+00  0.00000000000E+00  0.45593999997E+02  0.45594000000E+02  0.51100000000E-03 0.  1.
         11   -1    0    0    0    0 -0.00000000000E+00 -0.00000000000E+00 -0.45593999997E+02  0.45594000000E+02  0.51100000000E-03 0. -1.
    9900012    2    1    2    0    0  0.40122532425E+01 -0.27589534130E+02 -0.29595338136E+02  0.50528872993E+02  0.30000039949E+02 0.  0.
        -12    1    1    2    0    0 -0.40122532425E+01  0.27589534130E+02  0.29595338136E+02  0.40659127007E+02  0.00000000000E+00 0.  1.
         11    1    3    3    0    0  0.89412988580E+01 -0.57877753429E+01 -0.11200414498E+02  0.15456210851E+02  0.51100000000E-03 0. -1.
        -11    1    3    3    0    0 -0.49880211789E+01 -0.69875022881E+01  0.29610169972E+01  0.90814737475E+01  0.51100000000E-03 0.  1.
         12    1    3    3    0    0  0.58975563428E-01 -0.14814256499E+02 -0.21355940635E+02  0.25991188394E+02  0.00000000000E+00 0. -1.
</event>
<event>
 7    1  0.5855569E-013  0.5052884E+02  0.7816164E-02  0.1300439E+00
        -11   -1    0    0    0    0  0.00000000000E+00  0.00000000000E+00  0.45593999997E+02  0.45594000000E+02  0.51100000000E-03 0.  1.
         11   -1    0    0    0    0 -0.00000000000E+00 -0.00000000000E+00 -0.45593999997E+02  0.45594000000E+02  0.51100000000E-03 0. -1.
    9900012    2    1    2    0    0  0.15117283602E+02 -0.26951040567E+02 -0.26424927577E+02  0.50528835614E+02  0.29999926331E+02 0.  0.
        -12    1    1    2    0    0 -0.15117283602E+02  0.26951040567E+02  0.26424927577E+02  0.40659164386E+02  0.00000000000E+00 0.  1.
         11    1    3    3    0    0  0.20442335743E+02 -0.20534520382E+02 -0.20774713726E+02  0.35653111345E+02  0.51100000000E-03 0. -1.
        -11    1    3    3    0    0  0.34223597127E+01 -0.19351999690E+01 -0.15427301145E+01  0.42234537277E+01  0.51100000000E-03 0.  1.
        -12    1    3    3    0    0 -0.87474118541E+01 -0.44813202164E+01 -0.41074837365E+01  0.10652270541E+02  0.00000000000E+00 0.  1.
</event>
<event>
 7    1  0.5855569E-013  0.5052885E+02  0.7816164E-02  0.1300439E+00
        -11   -1    0    0    0    0  0.00000000000E+00  0.00000000000E+00  0.45593999997E+02  0.45594000000E+02  0.51100000000E-03 0. -1.
         11   -1    0    0    0    0 -0.00000000000E+00 -0.00000000000E+00 -0.45593999997E+02  0.45594000000E+02  0.51100000000E-03 0.  1.
    9900012    2    1    2    0    0 -0.37985877558E+02  0.40801613978E+01  0.13913719883E+02  0.50528853282E+02  0.29999980036E+02 0.  0.
        -12    1    1    2    0    0  0.37985877558E+02 -0.40801613978E+01 -0.13913719883E+02  0.40659146718E+02  0.00000000000E+00 0.  1.
         11    1    3    3    0    0 -0.20572418669E+02  0.64479657092E+01  0.73215510044E+01  0.22768526106E+02  0.51100000000E-03 0. -1.
        -11    1    3    3    0    0 -0.18145271216E+02  0.53153065521E+01  0.66474225900E+01  0.20042244849E+02  0.51100000000E-03 0.  1.
        -12    1    3    3    0    0  0.73181232752E+00 -0.76831108634E+01 -0.55253711115E-01  0.77180823263E+01  0.00000000000E+00 0.  1.
</event>
<event>
 7    1  0.5855569E-013  0.5052887E+02  0.7816164E-02  0.1300439E+00
        -11   -1    0    0    0    0  0.00000000000E+00  0.00000000000E+00  0.45593999997E+02  0.45594000000E+02  0.51100000000E-03 0.  1.
         11   -1    0    0    0    0 -0.00000000000E+00 -0.00000000000E+00 -0.45593999997E+02  0.45594000000E+02  0.51100000000E-03 0. -1.
    9900012    2    1    2    0    0  0.25639393789E+02  0.50257419845E+01 -0.31153301111E+02  0.50528871056E+02  0.30000034061E+02 0.  0.
        -12    1    1    2    0    0 -0.25639393789E+02 -0.50257419845E+01  0.31153301111E+02  0.40659128944E+02  0.00000000000E+00 0.  1.
         11    1    3    3    0    0  0.11478711828E+02  0.73406886619E+01 -0.12663478507E+02  0.18601350043E+02  0.51100000000E-03 0. -1.
        -11    1    3    3    0    0  0.67389389735E+01  0.75869766181E+01 -0.58756464373E+00  0.10164681262E+02  0.51100000000E-03 0.  1.
         12    1    3    3    0    0  0.74217429876E+01 -0.99019232955E+01 -0.17902257960E+02  0.21762839751E+02  0.00000000000E+00 0. -1.
</event>
<event>
 7    1  0.5855569E-013  0.5052885E+02  0.7816164E-02  0.1300439E+00
        -11   -1    0    0    0    0  0.00000000000E+00  0.00000000000E+00  0.45593999997E+02  0.45594000000E+02  0.51100000000E-03 0.  1.
         11   -1    0    0    0    0 -0.00000000000E+00 -0.00000000000E+00 -0.45593999997E+02  0.45594000000E+02  0.51100000000E-03 0. -1.
    9900012    2    1    2    0    0 -0.15610497215E+02 -0.25075701483E+02 -0.27940801454E+02  0.50528845876E+02  0.29999957526E+02 0.  0.
        -12    1    1    2    0    0  0.15610497215E+02  0.25075701483E+02  0.27940801454E+02  0.40659154124E+02  0.00000000000E+00 0.  1.
         11    1    3    3    0    0 -0.62535103326E+00  0.25651497546E+01 -0.44104825306E+00  0.26768602879E+01  0.51100000000E-03 0. -1.
        -11    1    3    3    0    0 -0.20041749852E+02 -0.20923044165E+02 -0.14574266199E+02  0.32432310275E+02  0.51100000000E-03 0.  1.
         12    1    3    3    0    0  0.50566036707E+01 -0.67178070731E+01 -0.12925487001E+02  0.15419675314E+02  0.00000000000E+00 0. -1.
</event>
<event>
 7    1  0.5855569E-013  0.5052885E+02  0.7816164E-02  0.1300439E+00
        -11   -1    0    0    0    0  0.00000000000E+00  0.00000000000E+00  0.45593999997E+02  0.45594000000E+02  0.51100000000E-03 0.  1.
         11   -1    0    0    0    0 -0.00000000000E+00 -0.00000000000E+00 -0.45593999997E+02  0.45594000000E+02  0.51100000000E-03 0. -1.
    9900012    2    1    2    0    0 -0.21613223285E+02 -0.20234421428E+02 -0.27867600286E+02  0.50528851251E+02  0.29999973863E+02 0.  0.
        -12    1    1    2    0    0  0.21613223285E+02  0.20234421428E+02  0.27867600286E+02  0.40659148749E+02  0.00000000000E+00 0.  1.
         11    1    3    3    0    0 -0.72487963828E+01 -0.11955587404E+02 -0.10363793059E+02  0.17403715867E+02  0.51100000000E-03 0. -1.
        -11    1    3    3    0    0 -0.31841681268E+01 -0.14701339678E+02 -0.75153435409E+01  0.16815133178E+02  0.51100000000E-03 0.  1.
         12    1    3    3    0    0 -0.11180258775E+02  0.64225056537E+01 -0.99884636866E+01  0.16310002206E+02  0.00000000000E+00 0. -1.
</event>
<event>
 7    1  0.5855569E-013  0.5052887E+02  0.7816164E-02  0.1300439E+00
        -11   -1    0    0    0    0  0.00000000000E+00  0.00000000000E+00  0.45593999997E+02  0.45594000000E+02  0.51100000000E-03 0.  1.
         11   -1    0    0    0    0 -0.00000000000E+00 -0.00000000000E+00 -0.45593999997E+02  0.45594000000E+02  0.51100000000E-03 0. -1.
    9900012    2    1    2    0    0  0.29294856678E+02 -0.13482983323E+02 -0.24762573229E+02  0.50528874333E+02  0.30000044021E+02 0.  0.
        -12    1    1    2    0    0 -0.29294856678E+02  0.13482983323E+02  0.24762573229E+02  0.40659125667E+02  0.00000000000E+00 0.  1.
         11    1    3    3    0    0  0.84696769312E+01 -0.18122210123E+01 -0.92489980305E+01  0.12671366822E+02  0.51100000000E-03 0. -1.
        -11    1    3    3    0    0  0.25666465893E+02 -0.86795098287E+01 -0.76552817442E+01  0.28155012008E+02  0.51100000000E-03 0.  1.
        -12    1    3    3    0    0 -0.48412861458E+01 -0.29912524822E+01 -0.78582934546E+01  0.97024955025E+01  0.00000000000E+00 0.  1.
</event>
<event>
 7    1  0.5855569E-013  0.5052886E+02  0.7816164E-02  0.1300439E+00
        -11   -1    0    0    0    0  0.00000000000E+00  0.00000000000E+00  0.45593999997E+02  0.45594000000E+02  0.51100000000E-03 0.  1.
         11   -1    0    0    0    0 -0.00000000000E+00 -0.00000000000E+00 -0.45593999997E+02  0.45594000000E+02  0.51100000000E-03 0. -1.
    9900012    2    1    2    0    0  0.33006287544E+02  0.20499604661E+02 -0.11979843407E+02  0.50528862567E+02  0.30000008259E+02 0.  0.
        -12    1    1    2    0    0 -0.33006287544E+02 -0.20499604661E+02  0.11979843407E+02  0.40659137433E+02  0.00000000000E+00 0.  1.
         11    1    3    3    0    0  0.19717246594E+02  0.11381071210E+02 -0.14692496771E+02  0.27095535735E+02  0.51100000000E-03 0. -1.
        -11    1    3    3    0    0  0.92662677882E+01  0.42386623234E+01 -0.66261227386E+01  0.12154648486E+02  0.51100000000E-03 0.  1.
        -12    1    3    3    0    0  0.40227731619E+01  0.48798711282E+01  0.93387761026E+01  0.11278678346E+02  0.00000000000E+00 0.  1.
</event>
<event>
 7    1  0.5855569E-013  0.5052887E+02  0.7816164E-02  0.1300439E+00
        -11   -1    0    0    0    0  0.00000000000E+00  0.00000000000E+00  0.45593999997E+02  0.45594000000E+02  0.51100000000E-03 0. -1.
         11   -1    0    0    0    0 -0.00000000000E+00 -0.00000000000E+00 -0.45593999997E+02  0.45594000000E+02  0.51100000000E-03 0.  1.
    9900012    2    1    2    0    0  0.15066468773E+02  0.34309123191E+01  0.37608446356E+02  0.50528869685E+02  0.30000029896E+02 0.  0.
        -12    1    1    2    0    0 -0.15066468773E+02 -0.34309123191E+01 -0.37608446356E+02  0.40659130315E+02  0.00000000000E+00 0.  1.
         11    1    3    3    0    0  0.30517050097E+01  0.37794276965E+00  0.15374942466E+02  0.15679432397E+02  0.51100000000E-03 0. -1.
        -11    1    3    3    0    0  0.81433620174E+01  0.96133461750E+01  0.23931227035E+02  0.27045043858E+02  0.51100000000E-03 0.  1.
        -12    1    3    3    0    0  0.38714017457E+01 -0.65603766256E+01 -0.16977231442E+01  0.78043934307E+01  0.00000000000E+00 0.  1.
</event>
<event>
 7    1  0.5855569E-013  0.5052887E+02  0.7816164E-02  0.1300439E+00
        -11   -1    0    0    0    0  0.00000000000E+00  0.00000000000E+00  0.45593999997E+02  0.45594000000E+02  0.51100000000E-03 0.  1.
         11   -1    0    0    0    0 -0.00000000000E+00 -0.00000000000E+00 -0.45593999997E+02  0.45594000000E+02  0.51100000000E-03 0. -1.
    9900012    2    1    2    0    0  0.76283207793E+00 -0.25451501136E+02 -0.31698650348E+02  0.50528865027E+02  0.30000015737E+02 0.  0.
        -12    1    1    2    0    0 -0.76283207793E+00  0.25451501136E+02  0.31698650348E+02  0.40659134973E+02  0.00000000000E+00 0.  1.
         11    1    3    3    0    0 -0.63187784612E+01 -0.22187738191E+01 -0.79741294669E+01  0.10413292444E+02  0.51100000000E-03 0. -1.
        -11    1    3    3    0    0 -0.74219726994E+01 -0.49386422557E+01 -0.79038061726E+01  0.11914110053E+02  0.51100000000E-03 0.  1.
        -12    1    3    3    0    0  0.14503583238E+02 -0.18294085061E+02 -0.15820714709E+02  0.28201462530E+02  0.00000000000E+00 0.  1.
</event>
<event>
 7    1  0.5855569E-013  0.5052883E+02  0.7816164E-02  0.1300439E+00
        -11   -1    0    0    0    0  0.00000000000E+00  0.00000000000E+00  0.45593999997E+02  0.45594000000E+02  0.51100000000E-03 0. -1.
         11   -1    0    0    0    0 -0.00000000000E+00 -0.00000000000E+00 -0.45593999997E+02  0.45594000000E+02  0.51100000000E-03 0.  1.
    9900012    2    1    2    0    0  0.18297225551E+01 -0.38083988102E+02  0.14121962925E+02  0.50528832875E+02  0.29999918008E+02 0.  0.
        -12    1    1    2    0    0 -0.18297225551E+01  0.38083988102E+02 -0.14121962925E+02  0.40659167125E+02  0.00000000000E+00 0.  1.
         11    1    3    3    0    0  0.15900276092E+01 -0.18066046532E+02  0.11447429383E+02  0.21446535031E+02  0.51100000000E-03 0. -1.
        -11    1    3    3    0    0 -0.10001492671E+02 -0.12693240334E+02 -0.22544703883E+00  0.16161653148E+02  0.51100000000E-03 0.  1.
         12    1    3    3    0    0  0.10241187617E+02 -0.73247012366E+01  0.28999805810E+01  0.12920644697E+02  0.00000000000E+00 0. -1.
</event>
<event>
 7    1  0.5855569E-013  0.5052887E+02  0.7816164E-02  0.1300439E+00
        -11   -1    0    0    0    0  0.00000000000E+00  0.00000000000E+00  0.45593999997E+02  0.45594000000E+02  0.51100000000E-03 0.  1.
         11   -1    0    0    0    0 -0.00000000000E+00 -0.00000000000E+00 -0.45593999997E+02  0.45594000000E+02  0.51100000000E-03 0. -1.
    9900012    2    1    2    0    0 -0.62272690100E+01  0.21025726195E+02 -0.34238939902E+02  0.50528867607E+02  0.30000023579E+02 0.  0.
        -12    1    1    2    0    0  0.62272690100E+01 -0.21025726195E+02  0.34238939902E+02  0.40659132393E+02  0.00000000000E+00 0.  1.
         11    1    3    3    0    0 -0.21256510390E+01 -0.30345537189E+01 -0.24876120302E+01  0.44626362709E+01  0.51100000000E-03 0. -1.
        -11    1    3    3    0    0  0.42636393664E+01 -0.28253575085E+01 -0.62647569394E+01  0.80875487923E+01  0.51100000000E-03 0.  1.
         12    1    3    3    0    0 -0.83652573374E+01  0.26885637422E+02 -0.25486570932E+02  0.37978682544E+02  0.00000000000E+00 0. -1.
</event>
<event>
 7    1  0.5855569E-013  0.5052885E+02  0.7816164E-02  0.1300439E+00
        -11   -1    0    0    0    0  0.00000000000E+00  0.00000000000E+00  0.45593999997E+02  0.45594000000E+02  0.51100000000E-03 0. -1.
         11   -1    0    0    0    0 -0.00000000000E+00 -0.00000000000E+00 -0.45593999997E+02  0.45594000000E+02  0.51100000000E-03 0.  1.
    9900012    2    1    2    0    0  0.27665839091E+02  0.26364275878E+02  0.13881377520E+02  0.50528851743E+02  0.29999975357E+02 0.  0.
        -12    1    1    2    0    0 -0.27665839091E+02 -0.26364275878E+02 -0.13881377520E+02  0.40659148257E+02  0.00000000000E+00 0.  1.
         11    1    3    3    0    0  0.75501595895E+01  0.12093416657E+00  0.57173109056E+01  0.94713873932E+01  0.51100000000E-03 0. -1.
        -11    1    3    3    0    0  0.31969453207E+01  0.61699908295E+01  0.12642002607E+02  0.14426000014E+02  0.51100000000E-03 0.  1.
         12    1    3    3    0    0  0.16918734181E+02  0.20073350882E+02 -0.44779359931E+01  0.26631464335E+02  0.00000000000E+00 0. -1.
</event>
<event>
 7    1  0.5855569E-013  0.5052895E+02  0.7816164E-02  0.1300438E+00
        -11   -1    0    0    0    0  0.00000000000E+00  0.00000000000E+00  0.45593999997E+02  0.45594000000E+02  0.51100000000E-03 0. -1.
         11   -1    0    0    0    0 -0.00000000000E+00 -0.00000000000E+00 -0.45593999997E+02  0.45594000000E+02  0.51100000000E-03 0.  1.
    9900012    2    1    2    0    0  0.24901088369E+02  0.17174523264E+01 -0.32095869585E+02  0.50528945794E+02  0.30000261235E+02 0.  0.
        -12    1    1    2    0    0 -0.24901088369E+02 -0.17174523264E+01  0.32095869585E+02  0.40659054206E+02  0.00000000000E+00 0.  1.
         11    1    3    3    0    0 -0.34982124884E+01  0.53521978532E+00 -0.19147586499E+01  0.40237111950E+01  0.51100000000E-03 0. -1.
        -11    1    3    3    0    0  0.16451980076E+02  0.99065891606E+01 -0.23286207102E+02  0.30183697565E+02  0.51100000000E-03 0.  1.
         12    1    3    3    0    0  0.11947320782E+02 -0.87243566196E+01 -0.68949038334E+01  0.16321537034E+02  0.00000000000E+00 0. -1.
</event>
<event>
 7    1  0.5855569E-013  0.5052886E+02  0.7816164E-02  0.1300439E+00
        -11   -1    0    0    0    0  0.00000000000E+00  0.00000000000E+00  0.45593999997E+02  0.45594000000E+02  0.51100000000E-03 0.  1.
         11   -1    0    0    0    0 -0.00000000000E+00 -0.00000000000E+00 -0.45593999997E+02  0.45594000000E+02  0.51100000000E-03 0. -1.
    9900012    2    1    2    0    0  0.36287604456E+02 -0.16326581556E+02 -0.83557377500E+01  0.50528857660E+02  0.29999993344E+02 0.  0.
        -12    1    1    2    0    0 -0.36287604456E+02  0.16326581556E+02  0.83557377500E+01  0.40659142340E+02  0.00000000000E+00 0.  1.
         11    1    3    3    0    0  0.44599301846E+01  0.32682646309E+01  0.20202544953E+00  0.55329328111E+01  0.51100000000E-03 0. -1.
        -11    1    3    3    0    0 -0.33589464366E+01 -0.22766248419E+00  0.13503643886E+01  0.36273731010E+01  0.51100000000E-03 0.  1.
         12    1    3    3    0    0  0.35186620708E+02 -0.19367183703E+02 -0.99081275881E+01  0.41368551748E+02  0.00000000000E+00 0. -1.
</event>
<event>
 7    1  0.5855569E-013  0.5052886E+02  0.7816164E-02  0.1300439E+00
        -11   -1    0    0    0    0  0.00000000000E+00  0.00000000000E+00  0.45593999997E+02  0.45594000000E+02  0.51100000000E-03 0.  1.
         11   -1    0    0    0    0 -0.00000000000E+00 -0.00000000000E+00 -0.45593999997E+02  0.45594000000E+02  0.51100000000E-03 0. -1.
    9900012    2    1    2    0    0  0.19335464092E+02  0.93694073444E+01 -0.34518395417E+02  0.50528860955E+02  0.30000003360E+02 0.  0.
        -12    1    1    2    0    0 -0.19335464092E+02 -0.93694073444E+01  0.34518395417E+02  0.40659139045E+02  0.00000000000E+00 0.  1.
         11    1    3    3    0    0 -0.18529359165E+01 -0.99464701629E+00  0.45401483970E+00  0.21514701796E+01  0.51100000000E-03 0. -1.
        -11    1    3    3    0    0  0.56750937622E+01 -0.42094903139E+01  0.41918089824E+00  0.70782915169E+01  0.51100000000E-03 0.  1.
         12    1    3    3    0    0  0.15513306247E+02  0.14573544675E+02 -0.35391591155E+02  0.41299099259E+02  0.00000000000E+00 0. -1.
</event>
<event>
 7    1  0.5855569E-013  0.5052899E+02  0.7816164E-02  0.1300438E+00
        -11   -1    0    0    0    0  0.00000000000E+00  0.00000000000E+00  0.45593999997E+02  0.45594000000E+02  0.51100000000E-03 0.  1.
         11   -1    0    0    0    0 -0.00000000000E+00 -0.00000000000E+00 -0.45593999997E+02  0.45594000000E+02  0.51100000000E-03 0. -1.
    9900012    2    1    2    0    0 -0.26223381144E+02  0.17623134635E+02 -0.25591300508E+02  0.50528988026E+02  0.30000389601E+02 0.  0.
        -12    1    1    2    0    0  0.26223381144E+02 -0.17623134635E+02  0.25591300508E+02  0.40659011974E+02  0.00000000000E+00 0.  1.
         11    1    3    3    0    0 -0.29999684228E+02  0.88595528348E+01 -0.25527142228E+02  0.40374592516E+02  0.51100000000E-03 0. -1.
        -11    1    3    3    0    0  0.25348615552E+01  0.52814791891E+01 -0.17173136386E+01  0.61048105559E+01  0.51100000000E-03 0.  1.
        -12    1    3    3    0    0  0.12414415282E+01  0.34821026113E+01  0.16531553589E+01  0.40495849546E+01  0.00000000000E+00 0.  1.
</event>
<event>
 7    1  0.5855569E-013  0.5052888E+02  0.7816164E-02  0.1300439E+00
        -11   -1    0    0    0    0  0.00000000000E+00  0.00000000000E+00  0.45593999997E+02  0.45594000000E+02  0.51100000000E-03 0. -1.
         11   -1    0    0    0    0 -0.00000000000E+00 -0.00000000000E+00 -0.45593999997E+02  0.45594000000E+02  0.51100000000E-03 0.  1.
    9900012    2    1    2    0    0  0.25820921038E+02  0.31112172733E+02 -0.42984847299E+01  0.50528877697E+02  0.30000054249E+02 0.  0.
        -12    1    1    2    0    0 -0.25820921038E+02 -0.31112172733E+02  0.42984847299E+01  0.40659122303E+02  0.00000000000E+00 0.  1.
         11    1    3    3    0    0 -0.12140060979E+01  0.36610505628E+01  0.35995688531E+01  0.52757936103E+01  0.51100000000E-03 0. -1.
        -11    1    3    3    0    0 -0.15526276620E+01  0.11914751144E+02 -0.17878452935E+01  0.12147770928E+02  0.51100000000E-03 0.  1.
        -12    1    3    3    0    0  0.28587554798E+02  0.15536371027E+02 -0.61102082895E+01  0.33105313159E+02  0.00000000000E+00 0.  1.
</event>
<event>
 7    1  0.5855569E-013  0.5052887E+02  0.7816164E-02  0.1300439E+00
        -11   -1    0    0    0    0  0.00000000000E+00  0.00000000000E+00  0.45593999997E+02  0.45594000000E+02  0.51100000000E-03 0.  1.
         11   -1    0    0    0    0 -0.00000000000E+00 -0.00000000000E+00 -0.45593999997E+02  0.45594000000E+02  0.51100000000E-03 0. -1.
    9900012    2    1    2    0    0 -0.11718578663E+02 -0.14236844986E+02 -0.36237440156E+02  0.50528869290E+02  0.30000028695E+02 0.  0.
        -12    1    1    2    0    0  0.11718578663E+02  0.14236844986E+02  0.36237440156E+02  0.40659130710E+02  0.00000000000E+00 0.  1.
         11    1    3    3    0    0  0.68498270807E+01 -0.47849429352E+01 -0.17350773348E+02  0.19257859329E+02  0.51100000000E-03 0. -1.
        -11    1    3    3    0    0 -0.31715800071E+01 -0.67094225714E+01 -0.12161832940E+02  0.14247296294E+02  0.51100000000E-03 0.  1.
        -12    1    3    3    0    0 -0.15396825736E+02 -0.27424794798E+01 -0.67248338681E+01  0.17023713667E+02  0.00000000000E+00 0.  1.
</event>
<event>
 7    1  0.5855569E-013  0.5052879E+02  0.7816164E-02  0.1300439E+00
        -11   -1    0    0    0    0  0.00000000000E+00  0.00000000000E+00  0.45593999997E+02  0.45594000000E+02  0.51100000000E-03 0. -1.
         11   -1    0    0    0    0 -0.00000000000E+00 -0.00000000000E+00 -0.45593999997E+02  0.45594000000E+02  0.51100000000E-03 0.  1.
    9900012    2    1    2    0    0  0.24770001561E+02  0.27372276495E+02  0.17040437955E+02  0.50528794111E+02  0.29999800180E+02 0.  0.
        -12    1    1    2    0    0 -0.24770001561E+02 -0.27372276495E+02 -0.17040437955E+02  0.40659205889E+02  0.00000000000E+00 0.  1.
         11    1    3    3    0    0  0.17248078308E+02  0.21068681846E+02  0.16942401054E+02  0.32069152059E+02  0.51100000000E-03 0. -1.
        -11    1    3    3    0    0  0.35630227275E+00  0.69101806376E+01  0.59985238216E+01  0.91575016273E+01  0.51100000000E-03 0.  1.
        -12    1    3    3    0    0  0.71656209794E+01 -0.60658598879E+00 -0.59004869209E+01  0.93021404250E+01  0.00000000000E+00 0.  1.
</event>
<event>
 7    1  0.5855569E-013  0.5052887E+02  0.7816164E-02  0.1300439E+00
        -11   -1    0    0    0    0  0.00000000000E+00  0.00000000000E+00  0.45593999997E+02  0.45594000000E+02  0.51100000000E-03 0. -1.
         11   -1    0    0    0    0 -0.00000000000E+00 -0.00000000000E+00 -0.45593999997E+02  0.45594000000E+02  0.51100000000E-03 0.  1.
    9900012    2    1    2    0    0 -0.28549722538E+02  0.12232009166E+02  0.26238442006E+02  0.50528873791E+02  0.30000042374E+02 0.  0.
        -12    1    1    2    0    0  0.28549722538E+02 -0.12232009166E+02 -0.26238442006E+02  0.40659126209E+02  0.00000000000E+00 0.  1.
         11    1    3    3    0    0 -0.17721488832E+02 -0.47997735719E+00  0.67633136992E+01  0.18974297277E+02  0.51100000000E-03 0. -1.
        -11    1    3    3    0    0 -0.14391201860E+02  0.37044699972E+01  0.14057553048E+02  0.20455918139E+02  0.51100000000E-03 0.  1.
        -12    1    3    3    0    0  0.35629681548E+01  0.90075165261E+01  0.54175752588E+01  0.11098658375E+02  0.00000000000E+00 0.  1.
</event>
<event>
 7    1  0.5855569E-013  0.5052885E+02  0.7816164E-02  0.1300439E+00
        -11   -1    0    0    0    0  0.00000000000E+00  0.00000000000E+00  0.45593999997E+02  0.45594000000E+02  0.51100000000E-03 0. -1.
         11   -1    0    0    0    0 -0.00000000000E+00 -0.00000000000E+00 -0.45593999997E+02  0.45594000000E+02  0.51100000000E-03 0.  1.
    9900012    2    1    2    0    0 -0.22561021162E+02  0.29645553779E+02 -0.16288268168E+02  0.50528853248E+02  0.29999979931E+02 0.  0.
        -12    1    1    2    0    0  0.22561021162E+02 -0.29645553779E+02  0.16288268168E+02  0.40659146752E+02  0.00000000000E+00 0.  1.
         11    1    3    3    0    0 -0.12583167507E+02  0.19338882217E+02  0.80628399529E+00  0.23086328510E+02  0.51100000000E-03 0. -1.
        -11    1    3    3    0    0 -0.84357444488E+01  0.12968181668E+02 -0.71681508696E+01  0.17050451822E+02  0.51100000000E-03 0.  1.
        -12    1    3    3    0    0 -0.15421092060E+01 -0.26615101064E+01 -0.99264012934E+01  0.10392072916E+02  0.00000000000E+00 0.  1.
</event>
<event>
 7    1  0.5855569E-013  0.5052887E+02  0.7816164E-02  0.1300439E+00
        -11   -1    0    0    0    0  0.00000000000E+00  0.00000000000E+00  0.45593999997E+02  0.45594000000E+02  0.51100000000E-03 0.  1.
         11   -1    0    0    0    0 -0.00000000000E+00 -0.00000000000E+00 -0.45593999997E+02  0.45594000000E+02  0.51100000000E-03 0. -1.
    9900012    2    1    2    0    0 -0.41235784604E+01  0.22369486236E+01 -0.40387583192E+02  0.50528871695E+02  0.30000036004E+02 0.  0.
        -12    1    1    2    0    0  0.41235784604E+01 -0.22369486236E+01  0.40387583192E+02  0.40659128305E+02  0.00000000000E+00 0.  1.
         11    1    3    3    0    0 -0.85104851714E+01  0.24151973412E+01 -0.10571698759E+02  0.13784859483E+02  0.51100000000E-03 0. -1.
        -11    1    3    3    0    0 -0.61598559027E+01  0.63494161451E+01 -0.15075909342E+02  0.17479758376E+02  0.51100000000E-03 0.  1.
         12    1    3    3    0    0  0.10546762614E+02 -0.65276648627E+01 -0.14739975090E+02  0.19264253836E+02  0.00000000000E+00 0. -1.
</event>
<event>
 7    1  0.5855569E-013  0.5052886E+02  0.7816164E-02  0.1300439E+00
        -11   -1    0    0    0    0  0.00000000000E+00  0.00000000000E+00  0.45593999997E+02  0.45594000000E+02  0.51100000000E-03 0.  1.
         11   -1    0    0    0    0 -0.00000000000E+00 -0.00000000000E+00 -0.45593999997E+02  0.45594000000E+02  0.51100000000E-03 0. -1.
    9900012    2    1    2    0    0 -0.29864971030E+02 -0.27361599125E+02  0.35484939514E+01  0.50528863134E+02  0.30000009983E+02 0.  0.
        -12    1    1    2    0    0  0.29864971030E+02  0.27361599125E+02 -0.35484939514E+01  0.40659136866E+02  0.00000000000E+00 0.  1.
         11    1    3    3    0    0 -0.96898918901E+01 -0.21346551103E+01 -0.74927894085E+01  0.12433529292E+02  0.51100000000E-03 0. -1.
        -11    1    3    3    0    0 -0.44969682743E+00 -0.12884812011E+02  0.16283144660E+01  0.12995076608E+02  0.51100000000E-03 0.  1.
        -12    1    3    3    0    0 -0.19725382313E+02 -0.12342132005E+02  0.94129688939E+01  0.25100257234E+02  0.00000000000E+00 0.  1.
</event>
<event>
 7    1  0.5855569E-013  0.5052886E+02  0.7816164E-02  0.1300439E+00
        -11   -1    0    0    0    0  0.00000000000E+00  0.00000000000E+00  0.45593999997E+02  0.45594000000E+02  0.51100000000E-03 0. -1.
         11   -1    0    0    0    0 -0.00000000000E+00 -0.00000000000E+00 -0.45593999997E+02  0.45594000000E+02  0.51100000000E-03 0.  1.
    9900012    2    1    2    0    0  0.32416717416E+02  0.20311470766E+02  0.13775554869E+02  0.50528864193E+02  0.30000013200E+02 0.  0.
        -12    1    1    2    0    0 -0.32416717416E+02 -0.20311470766E+02 -0.13775554869E+02  0.40659135807E+02  0.00000000000E+00 0.  1.
         11    1    3    3    0    0  0.21467254985E+02  0.19311172350E+01  0.15033474496E+02  0.26278843317E+02  0.51100000000E-03 0. -1.
        -11    1    3    3    0    0  0.51539166111E+01  0.50710142680E+01  0.46291354538E+01  0.85852744541E+01  0.51100000000E-03 0.  1.
        -12    1    3    3    0    0  0.57955458190E+01  0.13309339262E+02 -0.58870550807E+01  0.15664746422E+02  0.00000000000E+00 0.  1.
</event>
<event>
 7    1  0.5855569E-013  0.5052885E+02  0.7816164E-02  0.1300439E+00
        -11   -1    0    0    0    0  0.00000000000E+00  0.00000000000E+00  0.45593999997E+02  0.45594000000E+02  0.51100000000E-03 0.  1.
         11   -1    0    0    0    0 -0.00000000000E+00 -0.00000000000E+00 -0.45593999997E+02  0.45594000000E+02  0.51100000000E-03 0. -1.
    9900012    2    1    2    0    0 -0.27341119033E+02 -0.24219882692E+02 -0.17861323361E+02  0.50528851217E+02  0.29999973758E+02 0.  0.
        -12    1    1    2    0    0  0.27341119033E+02  0.24219882692E+02  0.17861323361E+02  0.40659148783E+02  0.00000000000E+00 0.  1.
         11    1    3    3    0    0 -0.80910279260E+01 -0.17705232024E+02 -0.83752603748E+01  0.21191624774E+02  0.51100000000E-03 0.  1.
        -11    1    3    3    0    0  0.62837640472E+00 -0.34332050311E+01  0.38543606489E+01  0.51997932617E+01  0.51100000000E-03 0. -1.
         12    1    3    3    0    0 -0.19878467512E+02 -0.30814456360E+01 -0.13340423635E+02  0.24137433181E+02  0.00000000000E+00 0. -1.
</event>
<event>
 7    1  0.5855569E-013  0.5052888E+02  0.7816164E-02  0.1300439E+00
        -11   -1    0    0    0    0  0.00000000000E+00  0.00000000000E+00  0.45593999997E+02  0.45594000000E+02  0.51100000000E-03 0.  1.
         11   -1    0    0    0    0 -0.00000000000E+00 -0.00000000000E+00 -0.45593999997E+02  0.45594000000E+02  0.51100000000E-03 0. -1.
    9900012    2    1    2    0    0  0.37092787766E+01  0.39292589738E+02  0.97722987517E+01  0.50528878265E+02  0.30000055973E+02 0.  0.
        -12    1    1    2    0    0 -0.37092787766E+01 -0.39292589738E+02 -0.97722987517E+01  0.40659121735E+02  0.00000000000E+00 0.  1.
         11    1    3    3    0    0  0.51303363274E+00 -0.14458052473E+01 -0.32240276029E+01  0.35704216231E+01  0.51100000000E-03 0. -1.
        -11    1    3    3    0    0 -0.61161779663E+01  0.42123565356E+01  0.19287922533E+01  0.76727974244E+01  0.51100000000E-03 0.  1.
         12    1    3    3    0    0  0.93124231101E+01  0.36526038450E+02  0.11067534101E+02  0.39285659217E+02  0.00000000000E+00 0. -1.
</event>
<event>
 7    1  0.5855569E-013  0.5052886E+02  0.7816164E-02  0.1300439E+00
        -11   -1    0    0    0    0  0.00000000000E+00  0.00000000000E+00  0.45593999997E+02  0.45594000000E+02  0.51100000000E-03 0.  1.
         11   -1    0    0    0    0 -0.00000000000E+00 -0.00000000000E+00 -0.45593999997E+02  0.45594000000E+02  0.51100000000E-03 0. -1.
    9900012    2    1    2    0    0 -0.23975317112E+02  0.53082110382E+01 -0.32406370019E+02  0.50528858926E+02  0.29999997193E+02 0.  0.
        -12    1    1    2    0    0  0.23975317112E+02 -0.53082110382E+01  0.32406370019E+02  0.40659141074E+02  0.00000000000E+00 0.  1.
         11    1    3    3    0    0 -0.11777853256E+02 -0.81205524221E+01 -0.10852667652E+02  0.17956658775E+02  0.51100000000E-03 0. -1.
        -11    1    3    3    0    0  0.35520535902E+00 -0.25673577670E+01  0.42947901671E+00  0.26271561121E+01  0.51100000000E-03 0.  1.
        -12    1    3    3    0    0 -0.12552669215E+02  0.15996121227E+02 -0.21983181384E+02  0.29945044039E+02  0.00000000000E+00 0.  1.
</event>
<event>
 7    1  0.5855569E-013  0.5052885E+02  0.7816164E-02  0.1300439E+00
        -11   -1    0    0    0    0  0.00000000000E+00  0.00000000000E+00  0.45593999997E+02  0.45594000000E+02  0.51100000000E-03 0. -1.
         11   -1    0    0    0    0 -0.00000000000E+00 -0.00000000000E+00 -0.45593999997E+02  0.45594000000E+02  0.51100000000E-03 0.  1.
    9900012    2    1    2    0    0 -0.16829830068E+02  0.14803459884E+02  0.33923163290E+02  0.50528848358E+02  0.29999965069E+02 0.  0.
        -12    1    1    2    0    0  0.16829830068E+02 -0.14803459884E+02 -0.33923163290E+02  0.40659151642E+02  0.00000000000E+00 0.  1.
         11    1    3    3    0    0 -0.25240377690E+01 -0.49443672436E+01  0.10075972975E+02  0.11504032586E+02  0.51100000000E-03 0.  1.
        -11    1    3    3    0    0 -0.14378466968E+01 -0.23183401956E+01  0.91638186455E+01  0.95612591647E+01  0.51100000000E-03 0. -1.
        -12    1    3    3    0    0 -0.12867945602E+02  0.22066167323E+02  0.14683371670E+02  0.29463556607E+02  0.00000000000E+00 0.  1.
</event>
<event>
 7    1  0.5855569E-013  0.5052886E+02  0.7816164E-02  0.1300439E+00
        -11   -1    0    0    0    0  0.00000000000E+00  0.00000000000E+00  0.45593999997E+02  0.45594000000E+02  0.51100000000E-03 0.  1.
         11   -1    0    0    0    0 -0.00000000000E+00 -0.00000000000E+00 -0.45593999997E+02  0.45594000000E+02  0.51100000000E-03 0. -1.
    9900012    2    1    2    0    0 -0.27222684208E+01 -0.21737100838E+02 -0.34252786314E+02  0.50528859964E+02  0.30000000347E+02 0.  0.
        -12    1    1    2    0    0  0.27222684208E+01  0.21737100838E+02  0.34252786314E+02  0.40659140036E+02  0.00000000000E+00 0.  1.
         11    1    3    3    0    0 -0.15534639708E+00 -0.83567779476E+01 -0.19101459315E+02  0.20850074782E+02  0.51100000000E-03 0. -1.
        -11    1    3    3    0    0  0.73310529004E+01 -0.35896622968E+01 -0.13340057773E+02  0.15639282390E+02  0.51100000000E-03 0.  1.
         12    1    3    3    0    0 -0.98979749241E+01 -0.97906605932E+01 -0.18112692259E+01  0.14039502792E+02  0.00000000000E+00 0. -1.
</event>
<event>
 7    1  0.5855569E-013  0.5052887E+02  0.7816164E-02  0.1300439E+00
        -11   -1    0    0    0    0  0.00000000000E+00  0.00000000000E+00  0.45593999997E+02  0.45594000000E+02  0.51100000000E-03 0.  1.
         11   -1    0    0    0    0 -0.00000000000E+00 -0.00000000000E+00 -0.45593999997E+02  0.45594000000E+02  0.51100000000E-03 0. -1.
    9900012    2    1    2    0    0 -0.30659560355E+02  0.97961354699E+01 -0.24843345278E+02  0.50528871678E+02  0.30000035951E+02 0.  0.
        -12    1    1    2    0    0  0.30659560355E+02 -0.97961354699E+01  0.24843345278E+02  0.40659128322E+02  0.00000000000E+00 0.  1.
         11    1    3    3    0    0  0.63835597620E+00 -0.50436426890E+01  0.10971921890E+00  0.50850632734E+01  0.51100000000E-03 0. -1.
        -11    1    3    3    0    0 -0.15087569018E+02  0.64921426953E+01 -0.26522441241E+01  0.16637820014E+02  0.51100000000E-03 0.  1.
         12    1    3    3    0    0 -0.16210347313E+02  0.83476354636E+01 -0.22300820373E+02  0.28805988390E+02  0.00000000000E+00 0. -1.
</event>
<event>
 7    1  0.5855569E-013  0.5052886E+02  0.7816164E-02  0.1300439E+00
        -11   -1    0    0    0    0  0.00000000000E+00  0.00000000000E+00  0.45593999997E+02  0.45594000000E+02  0.51100000000E-03 0.  1.
         11   -1    0    0    0    0 -0.00000000000E+00 -0.00000000000E+00 -0.45593999997E+02  0.45594000000E+02  0.51100000000E-03 0. -1.
    9900012    2    1    2    0    0  0.25297981925E+02  0.30624296082E+02 -0.86793093274E+01  0.50528858219E+02  0.29999995041E+02 0.  0.
        -12    1    1    2    0    0 -0.25297981925E+02 -0.30624296082E+02  0.86793093274E+01  0.40659141781E+02  0.00000000000E+00 0.  1.
         11    1    3    3    0    0  0.13819850416E+02  0.24908940150E+02  0.12362269619E+01  0.28512660736E+02  0.51100000000E-03 0. -1.
        -11    1    3    3    0    0  0.74000111041E+01  0.91180270300E+01 -0.11924805296E+01  0.11803414393E+02  0.51100000000E-03 0.  1.
        -12    1    3    3    0    0  0.40781204053E+01 -0.34026710979E+01 -0.87230557596E+01  0.10212783089E+02  0.00000000000E+00 0.  1.
</event>
<event>
 7    1  0.5855569E-013  0.5052885E+02  0.7816164E-02  0.1300439E+00
        -11   -1    0    0    0    0  0.00000000000E+00  0.00000000000E+00  0.45593999997E+02  0.45594000000E+02  0.51100000000E-03 0.  1.
         11   -1    0    0    0    0 -0.00000000000E+00 -0.00000000000E+00 -0.45593999997E+02  0.45594000000E+02  0.51100000000E-03 0. -1.
    9900012    2    1    2    0    0  0.28362274413E+02 -0.26153015480E+02  0.12836181463E+02  0.50528851176E+02  0.29999973635E+02 0.  0.
        -12    1    1    2    0    0 -0.28362274413E+02  0.26153015480E+02 -0.12836181463E+02  0.40659148824E+02  0.00000000000E+00 0.  1.
         11    1    3    3    0    0  0.79062799521E+01 -0.21413763442E+02  0.10152912813E+01  0.22849274476E+02  0.51100000000E-03 0. -1.
        -11    1    3    3    0    0  0.48016599126E+01 -0.59041938368E+01 -0.64044103447E+00  0.76371203839E+01  0.51100000000E-03 0.  1.
        -12    1    3    3    0    0  0.15654334548E+02  0.11649417986E+01  0.12461331216E+02  0.20042456316E+02  0.00000000000E+00 0.  1.
</event>
<event>
 7    1  0.5973828E-013  0.5052887E+02  0.7816164E-02  0.1300439E+00
        -11   -1    0    0    0    0  0.00000000000E+00  0.00000000000E+00  0.45593999997E+02  0.45594000000E+02  0.51100000000E-03 0.  1.
         11   -1    0    0    0    0 -0.00000000000E+00 -0.00000000000E+00 -0.45593999997E+02  0.45594000000E+02  0.51100000000E-03 0. -1.
    9900012    2    1    2    0    0 -0.17569943193E+02  0.16113811533E+02 -0.32936414338E+02  0.50528865536E+02  0.30000017283E+02 0.  0.
        -12    1    1    2    0    0  0.17569943193E+02 -0.16113811533E+02  0.32936414338E+02  0.40659134464E+02  0.00000000000E+00 0.  1.
         11    1    3    3    0    0 -0.75674527352E+01  0.71096986235E+01 -0.23114629365E+02  0.25339697046E+02  0.51100000000E-03 0. -1.
        -11    1    3    3    0    0 -0.13290941920E+02  0.63717280143E+01 -0.13202714340E+02  0.19787868031E+02  0.51100000000E-03 0.  1.
        -12    1    3    3    0    0  0.32884514625E+01  0.26323848955E+01  0.33809293674E+01  0.54013004588E+01  0.00000000000E+00 0.  1.
</event>
<event>
 7    1  0.5855569E-013  0.5052886E+02  0.7816164E-02  0.1300439E+00
        -11   -1    0    0    0    0  0.00000000000E+00  0.00000000000E+00  0.45593999997E+02  0.45594000000E+02  0.51100000000E-03 0.  1.
         11   -1    0    0    0    0 -0.00000000000E+00 -0.00000000000E+00 -0.45593999997E+02  0.45594000000E+02  0.51100000000E-03 0. -1.
    9900012    2    1    2    0    0  0.39968740433E+02 -0.69441255920E+01  0.27284977514E+01  0.50528858444E+02  0.29999995727E+02 0.  0.
        -12    1    1    2    0    0 -0.39968740433E+02  0.69441255920E+01 -0.27284977514E+01  0.40659141556E+02  0.00000000000E+00 0.  1.
         11    1    3    3    0    0  0.25565590064E+02  0.20308426985E+01  0.73688493261E+01  0.26683771436E+02  0.51100000000E-03 0.  1.
        -11    1    3    3    0    0  0.12696679487E+02 -0.41232654341E+01  0.38720517166E+01  0.13899632103E+02  0.51100000000E-03 0. -1.
        -12    1    3    3    0    0  0.17064708819E+01 -0.48517028564E+01 -0.85124032913E+01  0.99454549051E+01  0.00000000000E+00 0.  1.
</event>
<event>
 7    1  0.5855569E-013  0.5052883E+02  0.7816164E-02  0.1300439E+00
        -11   -1    0    0    0    0  0.00000000000E+00  0.00000000000E+00  0.45593999997E+02  0.45594000000E+02  0.51100000000E-03 0. -1.
         11   -1    0    0    0    0 -0.00000000000E+00 -0.00000000000E+00 -0.45593999997E+02  0.45594000000E+02  0.51100000000E-03 0.  1.
    9900012    2    1    2    0    0 -0.36082701817E+02 -0.17853760438E+02 -0.56964668478E+01  0.50528832931E+02  0.29999918176E+02 0.  0.
        -12    1    1    2    0    0  0.36082701817E+02  0.17853760438E+02  0.56964668478E+01  0.40659167069E+02  0.00000000000E+00 0.  1.
         11    1    3    3    0    0 -0.75044403124E+01 -0.93552744902E+01 -0.93769754261E+01  0.15223844902E+02  0.51100000000E-03 0. -1.
        -11    1    3    3    0    0 -0.12279404096E+02 -0.22355734676E+01 -0.75095974740E+01  0.14566248939E+02  0.51100000000E-03 0.  1.
         12    1    3    3    0    0 -0.16298857409E+02 -0.62629124804E+01  0.11190106052E+02  0.20738739090E+02  0.00000000000E+00 0. -1.
</event>
<event>
 7    1  0.5855569E-013  0.5052886E+02  0.7816164E-02  0.1300439E+00
        -11   -1    0    0    0    0  0.00000000000E+00  0.00000000000E+00  0.45593999997E+02  0.45594000000E+02  0.51100000000E-03 0.  1.
         11   -1    0    0    0    0 -0.00000000000E+00 -0.00000000000E+00 -0.45593999997E+02  0.45594000000E+02  0.51100000000E-03 0. -1.
    9900012    2    1    2    0    0 -0.39707540425E+02  0.84543430887E+01  0.22362909457E+01  0.50528859812E+02  0.29999999883E+02 0.  0.
        -12    1    1    2    0    0  0.39707540425E+02 -0.84543430887E+01 -0.22362909457E+01  0.40659140188E+02  0.00000000000E+00 0.  1.
         11    1    3    3    0    0 -0.65005708465E+01 -0.37189542015E+01  0.69177310252E+01  0.10195246171E+02  0.51100000000E-03 0. -1.
        -11    1    3    3    0    0  0.39401126057E+00  0.58333271976E+01 -0.22927954769E+00  0.58511127523E+01  0.51100000000E-03 0.  1.
         12    1    3    3    0    0 -0.33600980839E+02  0.63399700926E+01 -0.44521605319E+01  0.34482500889E+02  0.00000000000E+00 0. -1.
</event>
<event>
 7    1  0.5855569E-013  0.5052886E+02  0.7816164E-02  0.1300439E+00
        -11   -1    0    0    0    0  0.00000000000E+00  0.00000000000E+00  0.45593999997E+02  0.45594000000E+02  0.51100000000E-03 0.  1.
         11   -1    0    0    0    0 -0.00000000000E+00 -0.00000000000E+00 -0.45593999997E+02  0.45594000000E+02  0.51100000000E-03 0. -1.
    9900012    2    1    2    0    0 -0.16539410914E+02  0.30885278288E+02  0.20632819740E+02  0.50528858608E+02  0.29999996225E+02 0.  0.
        -12    1    1    2    0    0  0.16539410914E+02 -0.30885278288E+02 -0.20632819740E+02  0.40659141392E+02  0.00000000000E+00 0.  1.
         11    1    3    3    0    0 -0.16852560250E+02  0.18036202859E+02  0.11524201982E+02  0.27241891126E+02  0.51100000000E-03 0. -1.
        -11    1    3    3    0    0 -0.10689482839E+01  0.11877177013E+02  0.13836451703E+02  0.18266290817E+02  0.51100000000E-03 0.  1.
         12    1    3    3    0    0  0.13820976195E+01  0.97189841671E+00 -0.47278339450E+01  0.50206766649E+01  0.00000000000E+00 0. -1.
</event>
<event>
 7    1  0.5855569E-013  0.5052886E+02  0.7816164E-02  0.1300439E+00
        -11   -1    0    0    0    0  0.00000000000E+00  0.00000000000E+00  0.45593999997E+02  0.45594000000E+02  0.51100000000E-03 0. -1.
         11   -1    0    0    0    0 -0.00000000000E+00 -0.00000000000E+00 -0.45593999997E+02  0.45594000000E+02  0.51100000000E-03 0.  1.
    9900012    2    1    2    0    0 -0.17907276431E+02  0.21571285357E+02  0.29447826487E+02  0.50528863438E+02  0.30000010908E+02 0.  0.
        -12    1    1    2    0    0  0.17907276431E+02 -0.21571285357E+02 -0.29447826487E+02  0.40659136562E+02  0.00000000000E+00 0.  1.
         11    1    3    3    0    0 -0.13905607465E+02 -0.15608428140E+01  0.16814468536E+02  0.21875294322E+02  0.51100000000E-03 0. -1.
        -11    1    3    3    0    0 -0.59705306611E+01  0.11600545382E+02  0.10533255283E+02  0.16768105339E+02  0.51100000000E-03 0.  1.
        -12    1    3    3    0    0  0.19688616954E+01  0.11531582789E+02  0.21001026678E+01  0.11885463778E+02  0.00000000000E+00 0.  1.
</event>
<event>
 7    1  0.5855569E-013  0.5052888E+02  0.7816164E-02  0.1300439E+00
        -11   -1    0    0    0    0  0.00000000000E+00  0.00000000000E+00  0.45593999997E+02  0.45594000000E+02  0.51100000000E-03 0.  1.
         11   -1    0    0    0    0 -0.00000000000E+00 -0.00000000000E+00 -0.45593999997E+02  0.45594000000E+02  0.51100000000E-03 0. -1.
    9900012    2    1    2    0    0  0.31564127569E+02 -0.25362342026E+02 -0.36907648026E+01  0.50528876951E+02  0.30000051981E+02 0.  0.
        -12    1    1    2    0    0 -0.31564127569E+02  0.25362342026E+02  0.36907648026E+01  0.40659123049E+02  0.00000000000E+00 0.  1.
         11    1    3    3    0    0 -0.19617909053E+01 -0.70038504986E+01 -0.10766131554E+00  0.72742103752E+01  0.51100000000E-03 0. -1.
        -11    1    3    3    0    0  0.56292997720E+00 -0.18886850373E+01  0.50391473074E+01  0.54108249996E+01  0.51100000000E-03 0.  1.
         12    1    3    3    0    0  0.32962988497E+02 -0.16469806490E+02 -0.86222507945E+01  0.37843841576E+02  0.00000000000E+00 0. -1.
</event>
<event>
 7    1  0.5855569E-013  0.5052886E+02  0.7816164E-02  0.1300439E+00
        -11   -1    0    0    0    0  0.00000000000E+00  0.00000000000E+00  0.45593999997E+02  0.45594000000E+02  0.51100000000E-03 0.  1.
         11   -1    0    0    0    0 -0.00000000000E+00 -0.00000000000E+00 -0.45593999997E+02  0.45594000000E+02  0.51100000000E-03 0. -1.
    9900012    2    1    2    0    0  0.23264222050E+02  0.15039221478E+01 -0.33311858440E+02  0.50528859304E+02  0.29999998339E+02 0.  0.
        -12    1    1    2    0    0 -0.23264222050E+02 -0.15039221478E+01  0.33311858440E+02  0.40659140696E+02  0.00000000000E+00 0.  1.
         11    1    3    3    0    0  0.12192766314E+01  0.41001815420E+01  0.50683710468E+00  0.43075524713E+01  0.51100000000E-03 0. -1.
        -11    1    3    3    0    0  0.77788604311E+01  0.72972134855E+01 -0.33957482582E+01  0.11193350738E+02  0.51100000000E-03 0.  1.
         12    1    3    3    0    0  0.14266084988E+02 -0.98934728797E+01 -0.30422947287E+02  0.35027956094E+02  0.00000000000E+00 0. -1.
</event>
<event>
 7    1  0.5855569E-013  0.5052876E+02  0.7816164E-02  0.1300439E+00
        -11   -1    0    0    0    0  0.00000000000E+00  0.00000000000E+00  0.45593999997E+02  0.45594000000E+02  0.51100000000E-03 0.  1.
         11   -1    0    0    0    0 -0.00000000000E+00 -0.00000000000E+00 -0.45593999997E+02  0.45594000000E+02  0.51100000000E-03 0. -1.
    9900012    2    1    2    0    0 -0.19035249606E+02  0.30921977699E+02 -0.18293826382E+02  0.50528763459E+02  0.29999707009E+02 0.  0.
        -12    1    1    2    0    0  0.19035249606E+02 -0.30921977699E+02  0.18293826382E+02  0.40659236541E+02  0.00000000000E+00 0.  1.
         11    1    3    3    0    0 -0.15754023337E+02  0.10050544330E+02 -0.12382066445E+02  0.22416919109E+02  0.51100000000E-03 0. -1.
        -11    1    3    3    0    0 -0.60339188495E+01 -0.35054556463E+00 -0.19303621457E+01  0.63448685683E+01  0.51100000000E-03 0.  1.
        -12    1    3    3    0    0  0.27526925812E+01  0.21221978934E+02 -0.39813977918E+01  0.21766975782E+02  0.00000000000E+00 0.  1.
</event>
<event>
 7    1  0.5855569E-013  0.5052886E+02  0.7816164E-02  0.1300439E+00
        -11   -1    0    0    0    0  0.00000000000E+00  0.00000000000E+00  0.45593999997E+02  0.45594000000E+02  0.51100000000E-03 0.  1.
         11   -1    0    0    0    0 -0.00000000000E+00 -0.00000000000E+00 -0.45593999997E+02  0.45594000000E+02  0.51100000000E-03 0. -1.
    9900012    2    1    2    0    0  0.25258852689E+01 -0.40476881053E+02 -0.28995772139E+01  0.50528861493E+02  0.30000004993E+02 0.  0.
        -12    1    1    2    0    0 -0.25258852689E+01  0.40476881053E+02  0.28995772139E+01  0.40659138507E+02  0.00000000000E+00 0.  1.
         11    1    3    3    0    0  0.20049196514E+01 -0.65431794913E+01 -0.53214302208E+01  0.86689399883E+01  0.51100000000E-03 0. -1.
        -11    1    3    3    0    0 -0.17786549760E+01 -0.85223717865E+01 -0.10186124652E+02  0.13399685447E+02  0.51100000000E-03 0.  1.
         12    1    3    3    0    0  0.22996205935E+01 -0.25411329775E+02  0.12607977659E+02  0.28460236057E+02  0.00000000000E+00 0. -1.
</event>
<event>
 7    1  0.5855569E-013  0.5052886E+02  0.7816164E-02  0.1300439E+00
        -11   -1    0    0    0    0  0.00000000000E+00  0.00000000000E+00  0.45593999997E+02  0.45594000000E+02  0.51100000000E-03 0. -1.
         11   -1    0    0    0    0 -0.00000000000E+00 -0.00000000000E+00 -0.45593999997E+02  0.45594000000E+02  0.51100000000E-03 0.  1.
    9900012    2    1    2    0    0 -0.16609432367E+00 -0.34462332415E+02  0.21575115507E+02  0.50528861397E+02  0.30000004701E+02 0.  0.
        -12    1    1    2    0    0  0.16609432367E+00  0.34462332415E+02 -0.21575115507E+02  0.40659138603E+02  0.00000000000E+00 0.  1.
         11    1    3    3    0    0 -0.40636318539E+01 -0.21124083238E+01  0.24719747654E+01  0.52044242978E+01  0.51100000000E-03 0. -1.
        -11    1    3    3    0    0 -0.10087748607E+02 -0.19542869257E+02  0.12154864550E+02  0.25128214088E+02  0.51100000000E-03 0.  1.
        -12    1    3    3    0    0  0.13985286137E+02 -0.12807054834E+02  0.69482761917E+01  0.20196223011E+02  0.00000000000E+00 0.  1.
</event>
<event>
 7    1  0.5855569E-013  0.5052886E+02  0.7816164E-02  0.1300439E+00
        -11   -1    0    0    0    0  0.00000000000E+00  0.00000000000E+00  0.45593999997E+02  0.45594000000E+02  0.51100000000E-03 0. -1.
         11   -1    0    0    0    0 -0.00000000000E+00 -0.00000000000E+00 -0.45593999997E+02  0.45594000000E+02  0.51100000000E-03 0.  1.
    9900012    2    1    2    0    0 -0.19246202710E+02 -0.13043305634E+02  0.33355985456E+02  0.50528857039E+02  0.29999991455E+02 0.  0.
        -12    1    1    2    0    0  0.19246202710E+02  0.13043305634E+02 -0.33355985456E+02  0.40659142961E+02  0.00000000000E+00 0.  1.
         11    1    3    3    0    0 -0.20620501857E+02 -0.14184955021E+02  0.18975371359E+02  0.31408323168E+02  0.51100000000E-03 0.  1.
        -11    1    3    3    0    0 -0.40390781002E+01  0.55325918371E+00  0.37545524019E+00  0.40940462286E+01  0.51100000000E-03 0. -1.
         12    1    3    3    0    0  0.54133772469E+01  0.58839020307E+00  0.14005158857E+02  0.15026487642E+02  0.00000000000E+00 0. -1.
</event>
<event>
 7    1  0.5855569E-013  0.5052885E+02  0.7816164E-02  0.1300439E+00
        -11   -1    0    0    0    0  0.00000000000E+00  0.00000000000E+00  0.45593999997E+02  0.45594000000E+02  0.51100000000E-03 0. -1.
         11   -1    0    0    0    0 -0.00000000000E+00 -0.00000000000E+00 -0.45593999997E+02  0.45594000000E+02  0.51100000000E-03 0.  1.
    9900012    2    1    2    0    0 -0.24759587286E+02  0.23207275721E+02  0.22395348952E+02  0.50528850185E+02  0.29999970623E+02 0.  0.
        -12    1    1    2    0    0  0.24759587286E+02 -0.23207275721E+02 -0.22395348952E+02  0.40659149815E+02  0.00000000000E+00 0.  1.
         11    1    3    3    0    0  0.24244350479E+01  0.40375996459E+00  0.26406604116E+00  0.24719705794E+01  0.51100000000E-03 0. -1.
        -11    1    3    3    0    0 -0.50621302603E+01 -0.74825528631E+00  0.13756238689E+02  0.14677164300E+02  0.51100000000E-03 0.  1.
         12    1    3    3    0    0 -0.22121892074E+02  0.23551771043E+02  0.83750442215E+01  0.33379715306E+02  0.00000000000E+00 0. -1.
</event>
<event>
 7    1  0.5855569E-013  0.5052890E+02  0.7816164E-02  0.1300439E+00
        -11   -1    0    0    0    0  0.00000000000E+00  0.00000000000E+00  0.45593999997E+02  0.45594000000E+02  0.51100000000E-03 0.  1.
         11   -1    0    0    0    0 -0.00000000000E+00 -0.00000000000E+00 -0.45593999997E+02  0.45594000000E+02  0.51100000000E-03 0. -1.
    9900012    2    1    2    0    0  0.18041490312E+02  0.33622220204E+02 -0.14043270440E+02  0.50528898820E+02  0.30000118453E+02 0.  0.
        -12    1    1    2    0    0 -0.18041490312E+02 -0.33622220204E+02  0.14043270440E+02  0.40659101180E+02  0.00000000000E+00 0.  1.
         11    1    3    3    0    0  0.87741414490E+01  0.65496350157E+01  0.30066382435E+01  0.11354433090E+02  0.51100000000E-03 0. -1.
        -11    1    3    3    0    0  0.10514710756E+02  0.58922601786E+01 -0.15763166298E+00  0.12054157801E+02  0.51100000000E-03 0.  1.
        -12    1    3    3    0    0 -0.12473618931E+01  0.21180325010E+02 -0.16892277021E+02  0.27120307929E+02  0.00000000000E+00 0.  1.
</event>
<event>
 7    1  0.5855569E-013  0.5052886E+02  0.7816164E-02  0.1300439E+00
        -11   -1    0    0    0    0  0.00000000000E+00  0.00000000000E+00  0.45593999997E+02  0.45594000000E+02  0.51100000000E-03 0.  1.
         11   -1    0    0    0    0 -0.00000000000E+00 -0.00000000000E+00 -0.45593999997E+02  0.45594000000E+02  0.51100000000E-03 0. -1.
    9900012    2    1    2    0    0 -0.18785735964E+02 -0.35958660698E+02 -0.26900976812E+01  0.50528858587E+02  0.29999996162E+02 0.  0.
        -12    1    1    2    0    0  0.18785735964E+02  0.35958660698E+02  0.26900976812E+01  0.40659141413E+02  0.00000000000E+00 0.  1.
         11    1    3    3    0    0 -0.58077195514E+01 -0.68808499505E+01 -0.55682131703E+01  0.10586817303E+02  0.51100000000E-03 0. -1.
        -11    1    3    3    0    0 -0.76762912400E+01 -0.43432669568E+01 -0.84596524254E+01  0.12221093833E+02  0.51100000000E-03 0.  1.
         12    1    3    3    0    0 -0.53017251722E+01 -0.24734543791E+02  0.11337767915E+02  0.27720947452E+02  0.00000000000E+00 0. -1.
</event>
<event>
 7    1  0.5855569E-013  0.5052885E+02  0.7816164E-02  0.1300439E+00
        -11   -1    0    0    0    0  0.00000000000E+00  0.00000000000E+00  0.45593999997E+02  0.45594000000E+02  0.51100000000E-03 0. -1.
         11   -1    0    0    0    0 -0.00000000000E+00 -0.00000000000E+00 -0.45593999997E+02  0.45594000000E+02  0.51100000000E-03 0.  1.
    9900012    2    1    2    0    0 -0.10759298029E+02  0.14266213610E+01  0.39183778034E+02  0.50528853383E+02  0.29999980344E+02 0.  0.
        -12    1    1    2    0    0  0.10759298029E+02 -0.14266213610E+01 -0.39183778034E+02  0.40659146617E+02  0.00000000000E+00 0.  1.
         11    1    3    3    0    0 -0.13559488302E+02 -0.20482680704E+01  0.23994775319E+02  0.27637010836E+02  0.51100000000E-03 0. -1.
        -11    1    3    3    0    0 -0.41904575873E+01 -0.12550223778E+01  0.13622046162E+02  0.14307171554E+02  0.51100000000E-03 0.  1.
        -12    1    3    3    0    0  0.69906478602E+01  0.47299118091E+01  0.15669565527E+01  0.85846709934E+01  0.00000000000E+00 0.  1.
</event>
<event>
 7    1  0.5855569E-013  0.5052886E+02  0.7816164E-02  0.1300439E+00
        -11   -1    0    0    0    0  0.00000000000E+00  0.00000000000E+00  0.45593999997E+02  0.45594000000E+02  0.51100000000E-03 0.  1.
         11   -1    0    0    0    0 -0.00000000000E+00 -0.00000000000E+00 -0.45593999997E+02  0.45594000000E+02  0.51100000000E-03 0. -1.
    9900012    2    1    2    0    0  0.72736147683E+01  0.16767645453E+02 -0.36319500659E+02  0.50528861618E+02  0.30000005373E+02 0.  0.
        -12    1    1    2    0    0 -0.72736147683E+01 -0.16767645453E+02  0.36319500659E+02  0.40659138382E+02  0.00000000000E+00 0.  1.
         11    1    3    3    0    0  0.12860417479E+02  0.22295402150E+01 -0.13653677409E+02  0.18888729294E+02  0.51100000000E-03 0. -1.
        -11    1    3    3    0    0  0.27193917108E+01  0.93935130643E+01 -0.39878204082E+01  0.10561055385E+02  0.51100000000E-03 0.  1.
        -12    1    3    3    0    0 -0.83061944218E+01  0.51445921739E+01 -0.18678002843E+02  0.21079076939E+02  0.00000000000E+00 0.  1.
</event>
<event>
 7    1  0.5855569E-013  0.5052886E+02  0.7816164E-02  0.1300439E+00
        -11   -1    0    0    0    0  0.00000000000E+00  0.00000000000E+00  0.45593999997E+02  0.45594000000E+02  0.51100000000E-03 0. -1.
         11   -1    0    0    0    0 -0.00000000000E+00 -0.00000000000E+00 -0.45593999997E+02  0.45594000000E+02  0.51100000000E-03 0.  1.
    9900012    2    1    2    0    0  0.40123712880E+02  0.54941218156E+01  0.36149580813E+01  0.50528860416E+02  0.30000001721E+02 0.  0.
        -12    1    1    2    0    0 -0.40123712880E+02 -0.54941218156E+01 -0.36149580813E+01  0.40659139584E+02  0.00000000000E+00 0.  1.
         11    1    3    3    0    0  0.17896520351E+01  0.92929343876E+01  0.79664636865E+00  0.94971642945E+01  0.51100000000E-03 0. -1.
        -11    1    3    3    0    0  0.17747231066E+02 -0.16547998441E+01  0.82377982857E+01  0.19635780960E+02  0.51100000000E-03 0.  1.
        -12    1    3    3    0    0  0.20586829779E+02 -0.21440127278E+01 -0.54194865730E+01  0.21395915162E+02  0.00000000000E+00 0.  1.
</event>
<event>
 7    1  0.5855569E-013  0.5052886E+02  0.7816164E-02  0.1300439E+00
        -11   -1    0    0    0    0  0.00000000000E+00  0.00000000000E+00  0.45593999997E+02  0.45594000000E+02  0.51100000000E-03 0. -1.
         11   -1    0    0    0    0 -0.00000000000E+00 -0.00000000000E+00 -0.45593999997E+02  0.45594000000E+02  0.51100000000E-03 0.  1.
    9900012    2    1    2    0    0 -0.33977968521E+02  0.11984571916E+02  0.18842322263E+02  0.50528863056E+02  0.30000009744E+02 0.  0.
        -12    1    1    2    0    0  0.33977968521E+02 -0.11984571916E+02 -0.18842322263E+02  0.40659136944E+02  0.00000000000E+00 0.  1.
         11    1    3    3    0    0 -0.34523686622E+01  0.14726924585E+00  0.13027552058E+00  0.34579632130E+01  0.51100000000E-03 0. -1.
        -11    1    3    3    0    0  0.34877893749E+01  0.40508762458E+01  0.96315064582E+01  0.11015452328E+02  0.51100000000E-03 0.  1.
        -12    1    3    3    0    0 -0.34013389233E+02  0.77864264246E+01  0.90805402839E+01  0.36055447514E+02  0.00000000000E+00 0.  1.
</event>
<event>
 7    1  0.5855569E-013  0.5052893E+02  0.7816164E-02  0.1300439E+00
        -11   -1    0    0    0    0  0.00000000000E+00  0.00000000000E+00  0.45593999997E+02  0.45594000000E+02  0.51100000000E-03 0.  1.
         11   -1    0    0    0    0 -0.00000000000E+00 -0.00000000000E+00 -0.45593999997E+02  0.45594000000E+02  0.51100000000E-03 0. -1.
    9900012    2    1    2    0    0 -0.22045842425E+02 -0.22551872862E+02 -0.25662297649E+02  0.50528933872E+02  0.30000224995E+02 0.  0.
        -12    1    1    2    0    0  0.22045842425E+02  0.22551872862E+02  0.25662297649E+02  0.40659066128E+02  0.00000000000E+00 0.  1.
         11    1    3    3    0    0 -0.18005301249E+01 -0.71886138695E+01 -0.14004057648E+02  0.15843980212E+02  0.51100000000E-03 0. -1.
        -11    1    3    3    0    0 -0.14006263091E+02 -0.19100454287E+02 -0.38185167086E+01  0.23991328222E+02  0.51100000000E-03 0.  1.
         12    1    3    3    0    0 -0.62390492093E+01  0.37371952940E+01 -0.78397232923E+01  0.10693625438E+02  0.00000000000E+00 0. -1.
</event>
<event>
 7    1  0.5855569E-013  0.5052885E+02  0.7816164E-02  0.1300439E+00
        -11   -1    0    0    0    0  0.00000000000E+00  0.00000000000E+00  0.45593999997E+02  0.45594000000E+02  0.51100000000E-03 0.  1.
         11   -1    0    0    0    0 -0.00000000000E+00 -0.00000000000E+00 -0.45593999997E+02  0.45594000000E+02  0.51100000000E-03 0. -1.
    9900012    2    1    2    0    0 -0.15189633361E+01 -0.31150667974E+01 -0.40511178003E+02  0.50528850551E+02  0.29999971734E+02 0.  0.
        -12    1    1    2    0    0  0.15189633361E+01  0.31150667974E+01  0.40511178003E+02  0.40659149449E+02  0.00000000000E+00 0.  1.
         11    1    3    3    0    0 -0.49685166802E+01  0.41142160429E+01 -0.15898719940E+02  0.17157570564E+02  0.51100000000E-03 0. -1.
        -11    1    3    3    0    0 -0.43712899192E+01 -0.45042031114E+01  0.10872045780E+01  0.63700891110E+01  0.51100000000E-03 0.  1.
         12    1    3    3    0    0  0.78208432633E+01 -0.27250797289E+01 -0.25699662641E+02  0.27001190876E+02  0.00000000000E+00 0. -1.
</event>
<event>
 7    1  0.5855569E-013  0.5052888E+02  0.7816164E-02  0.1300439E+00
        -11   -1    0    0    0    0  0.00000000000E+00  0.00000000000E+00  0.45593999997E+02  0.45594000000E+02  0.51100000000E-03 0. -1.
         11   -1    0    0    0    0 -0.00000000000E+00 -0.00000000000E+00 -0.45593999997E+02  0.45594000000E+02  0.51100000000E-03 0.  1.
    9900012    2    1    2    0    0 -0.37185127171E+02  0.83217998304E+01  0.14183728101E+02  0.50528878293E+02  0.30000056059E+02 0.  0.
        -12    1    1    2    0    0  0.37185127171E+02 -0.83217998304E+01 -0.14183728101E+02  0.40659121707E+02  0.00000000000E+00 0.  1.
         11    1    3    3    0    0 -0.29407448497E+00 -0.60903627129E+00 -0.55053553799E+01  0.55467416654E+01  0.51100000000E-03 0.  1.
        -11    1    3    3    0    0 -0.12780807722E+02  0.91115269205E+01  0.39391647853E+01  0.16182891840E+02  0.51100000000E-03 0. -1.
        -12    1    3    3    0    0 -0.24110244964E+02 -0.18069081877E+00  0.15749918696E+02  0.28799244787E+02  0.00000000000E+00 0.  1.
</event>
<event>
 7    1  0.5855569E-013  0.5052887E+02  0.7816164E-02  0.1300439E+00
        -11   -1    0    0    0    0  0.00000000000E+00  0.00000000000E+00  0.45593999997E+02  0.45594000000E+02  0.51100000000E-03 0.  1.
         11   -1    0    0    0    0 -0.00000000000E+00 -0.00000000000E+00 -0.45593999997E+02  0.45594000000E+02  0.51100000000E-03 0. -1.
    9900012    2    1    2    0    0 -0.39713054085E+02 -0.86917096508E+01  0.70148726951E+00  0.50528873523E+02  0.30000041562E+02 0.  0.
        -12    1    1    2    0    0  0.39713054085E+02  0.86917096508E+01 -0.70148726951E+00  0.40659126477E+02  0.00000000000E+00 0.  1.
         11    1    3    3    0    0 -0.85085960419E+01 -0.48958054848E+01  0.66087654337E+01  0.11833887728E+02  0.51100000000E-03 0. -1.
        -11    1    3    3    0    0 -0.27087334814E+02 -0.21440881886E+01  0.43513654352E+01  0.27518270347E+02  0.51100000000E-03 0.  1.
        -12    1    3    3    0    0 -0.41171232300E+01 -0.16518159774E+01 -0.10258643599E+02  0.11176715448E+02  0.00000000000E+00 0.  1.
</event>
<event>
 7    1  0.5855569E-013  0.5052886E+02  0.7816164E-02  0.1300439E+00
        -11   -1    0    0    0    0  0.00000000000E+00  0.00000000000E+00  0.45593999997E+02  0.45594000000E+02  0.51100000000E-03 0. -1.
         11   -1    0    0    0    0 -0.00000000000E+00 -0.00000000000E+00 -0.45593999997E+02  0.45594000000E+02  0.51100000000E-03 0.  1.
    9900012    2    1    2    0    0  0.39354728545E+01  0.42228686672E+01  0.40247300203E+02  0.50528859084E+02  0.29999997673E+02 0.  0.
        -12    1    1    2    0    0 -0.39354728545E+01 -0.42228686672E+01 -0.40247300203E+02  0.40659140916E+02  0.00000000000E+00 0.  1.
         11    1    3    3    0    0 -0.29519897031E+01 -0.26671926833E+01  0.16870128950E+02  0.17332899673E+02  0.51100000000E-03 0. -1.
        -11    1    3    3    0    0  0.29997599418E+00 -0.41973749605E+01  0.19175833672E+02  0.19632130282E+02  0.51100000000E-03 0.  1.
        -12    1    3    3    0    0  0.65874865634E+01  0.11087436311E+02  0.42013375810E+01  0.13563829129E+02  0.00000000000E+00 0.  1.
</event>
<event>
 7    1  0.5855569E-013  0.5052887E+02  0.7816164E-02  0.1300439E+00
        -11   -1    0    0    0    0  0.00000000000E+00  0.00000000000E+00  0.45593999997E+02  0.45594000000E+02  0.51100000000E-03 0.  1.
         11   -1    0    0    0    0 -0.00000000000E+00 -0.00000000000E+00 -0.45593999997E+02  0.45594000000E+02  0.51100000000E-03 0. -1.
    9900012    2    1    2    0    0  0.23299444682E+02  0.29512529293E+02  0.15469698521E+02  0.50528867200E+02  0.30000022340E+02 0.  0.
        -12    1    1    2    0    0 -0.23299444682E+02 -0.29512529293E+02 -0.15469698521E+02  0.40659132800E+02  0.00000000000E+00 0.  1.
         11    1    3    3    0    0 -0.28272919110E+01  0.71114308541E+01  0.55798039348E+01  0.94710210935E+01  0.51100000000E-03 0. -1.
        -11    1    3    3    0    0 -0.20325824462E+01 -0.16509581671E+01 -0.33295875047E+00  0.26396810528E+01  0.51100000000E-03 0.  1.
        -12    1    3    3    0    0  0.28159319039E+02  0.24052056606E+02  0.10222853336E+02  0.38418165053E+02  0.00000000000E+00 0.  1.
</event>
<event>
 7    1  0.5855569E-013  0.5052887E+02  0.7816164E-02  0.1300439E+00
        -11   -1    0    0    0    0  0.00000000000E+00  0.00000000000E+00  0.45593999997E+02  0.45594000000E+02  0.51100000000E-03 0. -1.
         11   -1    0    0    0    0 -0.00000000000E+00 -0.00000000000E+00 -0.45593999997E+02  0.45594000000E+02  0.51100000000E-03 0.  1.
    9900012    2    1    2    0    0  0.20915221126E+02 -0.22244605096E+02  0.26849501215E+02  0.50528872536E+02  0.30000038561E+02 0.  0.
        -12    1    1    2    0    0 -0.20915221126E+02  0.22244605096E+02 -0.26849501215E+02  0.40659127464E+02  0.00000000000E+00 0.  1.
         11    1    3    3    0    0  0.14280888763E+02 -0.62671172706E+01  0.20204953731E+02  0.25523728142E+02  0.51100000000E-03 0. -1.
        -11    1    3    3    0    0  0.49337535416E+01 -0.67720855759E+01  0.11680877537E+02  0.14375185819E+02  0.51100000000E-03 0.  1.
        -12    1    3    3    0    0  0.17005788212E+01 -0.92054022494E+01 -0.50363300522E+01  0.10629958574E+02  0.00000000000E+00 0.  1.
</event>
<event>
 7    1  0.5855569E-013  0.5052887E+02  0.7816164E-02  0.1300439E+00
        -11   -1    0    0    0    0  0.00000000000E+00  0.00000000000E+00  0.45593999997E+02  0.45594000000E+02  0.51100000000E-03 0.  1.
         11   -1    0    0    0    0 -0.00000000000E+00 -0.00000000000E+00 -0.45593999997E+02  0.45594000000E+02  0.51100000000E-03 0. -1.
    9900012    2    1    2    0    0 -0.33066626248E+02 -0.14885316329E+02 -0.18389960184E+02  0.50528867579E+02  0.30000023494E+02 0.  0.
        -12    1    1    2    0    0  0.33066626248E+02  0.14885316329E+02  0.18389960184E+02  0.40659132421E+02  0.00000000000E+00 0.  1.
         11    1    3    3    0    0 -0.33303193891E+01  0.26418738352E+01 -0.10242818046E+02  0.11089898393E+02  0.51100000000E-03 0. -1.
        -11    1    3    3    0    0 -0.80449468079E+01  0.19223179431E+01  0.21369287990E+01  0.85430053477E+01  0.51100000000E-03 0.  1.
         12    1    3    3    0    0 -0.21691360051E+02 -0.19449508107E+02 -0.10284070937E+02  0.30895963838E+02  0.00000000000E+00 0. -1.
</event>
<event>
 7    1  0.5855569E-013  0.5052886E+02  0.7816164E-02  0.1300439E+00
        -11   -1    0    0    0    0  0.00000000000E+00  0.00000000000E+00  0.45593999997E+02  0.45594000000E+02  0.51100000000E-03 0.  1.
         11   -1    0    0    0    0 -0.00000000000E+00 -0.00000000000E+00 -0.45593999997E+02  0.45594000000E+02  0.51100000000E-03 0. -1.
    9900012    2    1    2    0    0  0.17715836200E+02  0.35692867597E+02 -0.80829542793E+01  0.50528858354E+02  0.29999995451E+02 0.  0.
        -12    1    1    2    0    0 -0.17715836200E+02 -0.35692867597E+02  0.80829542793E+01  0.40659141646E+02  0.00000000000E+00 0.  1.
         11    1    3    3    0    0  0.13122327029E+02  0.14169306019E+02  0.36943115415E+01  0.19662467743E+02  0.51100000000E-03 0. -1.
        -11    1    3    3    0    0  0.99548969476E-01 -0.28919432035E+01 -0.38289680774E+01  0.47994002008E+01  0.51100000000E-03 0.  1.
        -12    1    3    3    0    0  0.44939602021E+01  0.24415504781E+02 -0.79482977434E+01  0.26066990410E+02  0.00000000000E+00 0.  1.
</event>
<event>
 7    1  0.5855569E-013  0.5052886E+02  0.7816164E-02  0.1300439E+00
        -11   -1    0    0    0    0  0.00000000000E+00  0.00000000000E+00  0.45593999997E+02  0.45594000000E+02  0.51100000000E-03 0.  1.
         11   -1    0    0    0    0 -0.00000000000E+00 -0.00000000000E+00 -0.45593999997E+02  0.45594000000E+02  0.51100000000E-03 0. -1.
    9900012    2    1    2    0    0  0.32652656548E+02 -0.18143447972E+02 -0.16055687084E+02  0.50528858695E+02  0.29999996488E+02 0.  0.
        -12    1    1    2    0    0 -0.32652656548E+02  0.18143447972E+02  0.16055687084E+02  0.40659141305E+02  0.00000000000E+00 0.  1.
         11    1    3    3    0    0  0.19771977842E+02 -0.67022030989E+01 -0.19990357772E+02  0.28904412090E+02  0.51100000000E-03 0. -1.
        -11    1    3    3    0    0  0.12153271508E+02 -0.77082540655E+01 -0.20466040414E+01  0.14536429322E+02  0.51100000000E-03 0.  1.
        -12    1    3    3    0    0  0.72740719811E+00 -0.37329908071E+01  0.59812747296E+01  0.70880172819E+01  0.00000000000E+00 0.  1.
</event>
<event>
 7    1  0.5855569E-013  0.5052892E+02  0.7816164E-02  0.1300439E+00
        -11   -1    0    0    0    0  0.00000000000E+00  0.00000000000E+00  0.45593999997E+02  0.45594000000E+02  0.51100000000E-03 0.  1.
         11   -1    0    0    0    0 -0.00000000000E+00 -0.00000000000E+00 -0.45593999997E+02  0.45594000000E+02  0.51100000000E-03 0. -1.
    9900012    2    1    2    0    0 -0.21192147206E+00  0.57768188716E+01 -0.40246041671E+02  0.50528924541E+02  0.30000196634E+02 0.  0.
        -12    1    1    2    0    0  0.21192147206E+00 -0.57768188716E+01  0.40246041671E+02  0.40659075459E+02  0.00000000000E+00 0.  1.
         11    1    3    3    0    0 -0.30554529380E+01  0.36939080160E+01 -0.51810268747E+01  0.70585968028E+01  0.51100000000E-03 0. -1.
        -11    1    3    3    0    0  0.52686966813E+01  0.11179190608E+02 -0.30698836406E+02  0.33093081216E+02  0.51100000000E-03 0.  1.
        -12    1    3    3    0    0 -0.24251652153E+01 -0.90962797524E+01 -0.43661783901E+01  0.10377246523E+02  0.00000000000E+00 0.  1.
</event>
<event>
 7    1  0.5855569E-013  0.5052884E+02  0.7816164E-02  0.1300439E+00
        -11   -1    0    0    0    0  0.00000000000E+00  0.00000000000E+00  0.45593999997E+02  0.45594000000E+02  0.51100000000E-03 0. -1.
         11   -1    0    0    0    0 -0.00000000000E+00 -0.00000000000E+00 -0.45593999997E+02  0.45594000000E+02  0.51100000000E-03 0.  1.
    9900012    2    1    2    0    0  0.26337827057E+02 -0.24486737634E+02 -0.18970656905E+02  0.50528840178E+02  0.29999940204E+02 0.  0.
        -12    1    1    2    0    0 -0.26337827057E+02  0.24486737634E+02  0.18970656905E+02  0.40659159822E+02  0.00000000000E+00 0.  1.
         11    1    3    3    0    0  0.36492081031E+01 -0.86116282528E+01 -0.24723759039E+01  0.96741668280E+01  0.51100000000E-03 0. -1.
        -11    1    3    3    0    0 -0.17669284634E+01 -0.12441941230E+02 -0.40780411177E+01  0.13211902110E+02  0.51100000000E-03 0.  1.
         12    1    3    3    0    0  0.24455547417E+02 -0.34331681519E+01 -0.12420239884E+02  0.27642771239E+02  0.00000000000E+00 0. -1.
</event>
<event>
 7    1  0.5855569E-013  0.5052886E+02  0.7816164E-02  0.1300439E+00
        -11   -1    0    0    0    0  0.00000000000E+00  0.00000000000E+00  0.45593999997E+02  0.45594000000E+02  0.51100000000E-03 0.  1.
         11   -1    0    0    0    0 -0.00000000000E+00 -0.00000000000E+00 -0.45593999997E+02  0.45594000000E+02  0.51100000000E-03 0. -1.
    9900012    2    1    2    0    0  0.17991794065E+02  0.54999074235E+01 -0.36044587030E+02  0.50528857246E+02  0.29999992085E+02 0.  0.
        -12    1    1    2    0    0 -0.17991794065E+02 -0.54999074235E+01  0.36044587030E+02  0.40659142754E+02  0.00000000000E+00 0.  1.
         11    1    3    3    0    0  0.48332073554E+01 -0.19417064133E+01 -0.30382987158E+01  0.60300395093E+01  0.51100000000E-03 0. -1.
        -11    1    3    3    0    0  0.19684907825E+02  0.78746944478E+01 -0.16893110295E+02  0.27108736312E+02  0.51100000000E-03 0.  1.
        -12    1    3    3    0    0 -0.65263211153E+01 -0.43308061103E+00 -0.16113178018E+02  0.17390081425E+02  0.00000000000E+00 0.  1.
</event>
<event>
 7    1  0.5855569E-013  0.5052884E+02  0.7816164E-02  0.1300439E+00
        -11   -1    0    0    0    0  0.00000000000E+00  0.00000000000E+00  0.45593999997E+02  0.45594000000E+02  0.51100000000E-03 0.  1.
         11   -1    0    0    0    0 -0.00000000000E+00 -0.00000000000E+00 -0.45593999997E+02  0.45594000000E+02  0.51100000000E-03 0. -1.
    9900012    2    1    2    0    0 -0.12263334140E+02 -0.21398508059E+01 -0.38706570623E+02  0.50528844388E+02  0.29999953003E+02 0.  0.
        -12    1    1    2    0    0  0.12263334140E+02  0.21398508059E+01  0.38706570623E+02  0.40659155612E+02  0.00000000000E+00 0.  1.
         11    1    3    3    0    0 -0.23852764554E+01  0.19345465574E+01  0.26058896249E+01  0.40277382176E+01  0.51100000000E-03 0. -1.
        -11    1    3    3    0    0 -0.19185717164E+01  0.49185817833E+01 -0.24405766937E+01  0.58163372537E+01  0.51100000000E-03 0.  1.
         12    1    3    3    0    0 -0.79594859681E+01 -0.89929791466E+01 -0.38871883554E+02  0.40684768917E+02  0.00000000000E+00 0. -1.
</event>
<event>
 7    1  0.5855569E-013  0.5052883E+02  0.7816164E-02  0.1300439E+00
        -11   -1    0    0    0    0  0.00000000000E+00  0.00000000000E+00  0.45593999997E+02  0.45594000000E+02  0.51100000000E-03 0.  1.
         11   -1    0    0    0    0 -0.00000000000E+00 -0.00000000000E+00 -0.45593999997E+02  0.45594000000E+02  0.51100000000E-03 0. -1.
    9900012    2    1    2    0    0  0.24793710321E+02  0.19502412645E+02 -0.25653384549E+02  0.50528827489E+02  0.29999901636E+02 0.  0.
        -12    1    1    2    0    0 -0.24793710321E+02 -0.19502412645E+02  0.25653384549E+02  0.40659172511E+02  0.00000000000E+00 0.  1.
         11    1    3    3    0    0  0.13664213238E+02  0.63864166739E+01 -0.52804023132E+01  0.15980603562E+02  0.51100000000E-03 0. -1.
        -11    1    3    3    0    0  0.13250946913E+02  0.27965175100E+01 -0.19811496255E+02  0.23997989258E+02  0.51100000000E-03 0.  1.
         12    1    3    3    0    0 -0.21214498298E+01  0.10319478461E+02 -0.56148598081E+00  0.10550234670E+02  0.00000000000E+00 0. -1.
</event>
<event>
 7    1  0.5855569E-013  0.5052886E+02  0.7816164E-02  0.1300439E+00
        -11   -1    0    0    0    0  0.00000000000E+00  0.00000000000E+00  0.45593999997E+02  0.45594000000E+02  0.51100000000E-03 0. -1.
         11   -1    0    0    0    0 -0.00000000000E+00 -0.00000000000E+00 -0.45593999997E+02  0.45594000000E+02  0.51100000000E-03 0.  1.
    9900012    2    1    2    0    0 -0.21198889734E+02  0.23373099709E+02  0.25641202646E+02  0.50528856021E+02  0.29999988363E+02 0.  0.
        -12    1    1    2    0    0  0.21198889734E+02 -0.23373099709E+02 -0.25641202646E+02  0.40659143979E+02  0.00000000000E+00 0.  1.
         11    1    3    3    0    0  0.58618895256E-03  0.28015956354E+01  0.57872128737E+01  0.64296789620E+01  0.51100000000E-03 0. -1.
        -11    1    3    3    0    0 -0.17936289933E+02  0.91051274357E+01  0.24147491715E+02  0.31427936594E+02  0.51100000000E-03 0.  1.
         12    1    3    3    0    0 -0.32631859904E+01  0.11466376638E+02 -0.42935019429E+01  0.12671240466E+02  0.00000000000E+00 0. -1.
</event>
<event>
 7    1  0.5855569E-013  0.5052885E+02  0.7816164E-02  0.1300439E+00
        -11   -1    0    0    0    0  0.00000000000E+00  0.00000000000E+00  0.45593999997E+02  0.45594000000E+02  0.51100000000E-03 0.  1.
         11   -1    0    0    0    0 -0.00000000000E+00 -0.00000000000E+00 -0.45593999997E+02  0.45594000000E+02  0.51100000000E-03 0. -1.
    9900012    2    1    2    0    0 -0.25134188206E+02  0.30786137184E+02 -0.85821405030E+01  0.50528846110E+02  0.29999958235E+02 0.  0.
        -12    1    1    2    0    0  0.25134188206E+02 -0.30786137184E+02  0.85821405030E+01  0.40659153890E+02  0.00000000000E+00 0.  1.
         11    1    3    3    0    0 -0.99450840184E+01  0.68303942807E+01 -0.68235624243E+01  0.13860735427E+02  0.51100000000E-03 0. -1.
        -11    1    3    3    0    0 -0.17040891062E+02  0.63954061912E+01 -0.46234841034E+01  0.18779504627E+02  0.51100000000E-03 0.  1.
        -12    1    3    3    0    0  0.18517868745E+01  0.17560336712E+02  0.28649060246E+01  0.17888606055E+02  0.00000000000E+00 0.  1.
</event>
<event>
 7    1  0.5855569E-013  0.5052887E+02  0.7816164E-02  0.1300439E+00
        -11   -1    0    0    0    0  0.00000000000E+00  0.00000000000E+00  0.45593999997E+02  0.45594000000E+02  0.51100000000E-03 0.  1.
         11   -1    0    0    0    0 -0.00000000000E+00 -0.00000000000E+00 -0.45593999997E+02  0.45594000000E+02  0.51100000000E-03 0. -1.
    9900012    2    1    2    0    0 -0.32126060419E+02 -0.19110843427E+02  0.15995527580E+02  0.50528868220E+02  0.30000025443E+02 0.  0.
        -12    1    1    2    0    0  0.32126060419E+02  0.19110843427E+02 -0.15995527580E+02  0.40659131780E+02  0.00000000000E+00 0.  1.
         11    1    3    3    0    0  0.46355464788E+00 -0.35686090447E+01  0.46684271962E+01  0.58944097391E+01  0.51100000000E-03 0. -1.
        -11    1    3    3    0    0  0.14919936061E+01 -0.93486883431E+00  0.70990364852E+01  0.73141194916E+01  0.51100000000E-03 0.  1.
         12    1    3    3    0    0 -0.34081608673E+02 -0.14607365548E+02  0.42280638984E+01  0.37320338990E+02  0.00000000000E+00 0. -1.
</event>
<event>
 7    1  0.5855569E-013  0.5052887E+02  0.7816164E-02  0.1300439E+00
        -11   -1    0    0    0    0  0.00000000000E+00  0.00000000000E+00  0.45593999997E+02  0.45594000000E+02  0.51100000000E-03 0.  1.
         11   -1    0    0    0    0 -0.00000000000E+00 -0.00000000000E+00 -0.45593999997E+02  0.45594000000E+02  0.51100000000E-03 0. -1.
    9900012    2    1    2    0    0  0.55870607457E+01 -0.39746747623E+02  0.64919989344E+01  0.50528865177E+02  0.30000016193E+02 0.  0.
        -12    1    1    2    0    0 -0.55870607457E+01  0.39746747623E+02 -0.64919989344E+01  0.40659134823E+02  0.00000000000E+00 0.  1.
         11    1    3    3    0    0  0.22562422914E+01 -0.11263967782E+02 -0.19781322340E+00  0.11489418166E+02  0.51100000000E-03 0. -1.
        -11    1    3    3    0    0  0.22186578883E+01 -0.15681153088E+02 -0.94242201179E+01  0.18429241170E+02  0.51100000000E-03 0.  1.
        -12    1    3    3    0    0  0.11121605661E+01 -0.12801626752E+02  0.16114032276E+02  0.20610205841E+02  0.00000000000E+00 0.  1.
</event>
<event>
 7    1  0.5855569E-013  0.5052887E+02  0.7816164E-02  0.1300439E+00
        -11   -1    0    0    0    0  0.00000000000E+00  0.00000000000E+00  0.45593999997E+02  0.45594000000E+02  0.51100000000E-03 0.  1.
         11   -1    0    0    0    0 -0.00000000000E+00 -0.00000000000E+00 -0.45593999997E+02  0.45594000000E+02  0.51100000000E-03 0. -1.
    9900012    2    1    2    0    0  0.11414427774E+02  0.72408338211E+01 -0.38346396450E+02  0.50528868719E+02  0.30000026958E+02 0.  0.
        -12    1    1    2    0    0 -0.11414427774E+02 -0.72408338211E+01  0.38346396450E+02  0.40659131281E+02  0.00000000000E+00 0.  1.
         11    1    3    3    0    0  0.83420094896E+01 -0.54605661435E+01 -0.85059661213E+01  0.13105661557E+02  0.51100000000E-03 0. -1.
        -11    1    3    3    0    0 -0.54301667668E+01  0.90430230373E+00 -0.17517938735E+02  0.18362533909E+02  0.51100000000E-03 0.  1.
         12    1    3    3    0    0  0.85025850510E+01  0.11797097661E+02 -0.12322491594E+02  0.19060673253E+02  0.00000000000E+00 0. -1.
</event>
<event>
 7    1  0.5855569E-013  0.5052887E+02  0.7816164E-02  0.1300439E+00
        -11   -1    0    0    0    0  0.00000000000E+00  0.00000000000E+00  0.45593999997E+02  0.45594000000E+02  0.51100000000E-03 0.  1.
         11   -1    0    0    0    0 -0.00000000000E+00 -0.00000000000E+00 -0.45593999997E+02  0.45594000000E+02  0.51100000000E-03 0. -1.
    9900012    2    1    2    0    0  0.14191633734E+02  0.12761169097E+02 -0.35901464690E+02  0.50528867303E+02  0.30000022654E+02 0.  0.
        -12    1    1    2    0    0 -0.14191633734E+02 -0.12761169097E+02  0.35901464690E+02  0.40659132697E+02  0.00000000000E+00 0.  1.
         11    1    3    3    0    0 -0.40508072684E+01 -0.36273169451E+01 -0.33579511242E+01  0.63907983663E+01  0.51100000000E-03 0.  1.
        -11    1    3    3    0    0  0.48211752302E+00  0.97584685675E+01 -0.17065660489E+02  0.19664610708E+02  0.51100000000E-03 0. -1.
        -12    1    3    3    0    0  0.17760323480E+02  0.66300174746E+01 -0.15477853077E+02  0.24473458229E+02  0.00000000000E+00 0.  1.
</event>
<event>
 7    1  0.5855569E-013  0.5052886E+02  0.7816164E-02  0.1300439E+00
        -11   -1    0    0    0    0  0.00000000000E+00  0.00000000000E+00  0.45593999997E+02  0.45594000000E+02  0.51100000000E-03 0. -1.
         11   -1    0    0    0    0 -0.00000000000E+00 -0.00000000000E+00 -0.45593999997E+02  0.45594000000E+02  0.51100000000E-03 0.  1.
    9900012    2    1    2    0    0 -0.19377985761E+02 -0.35742778785E+02 -0.33669105340E+00  0.50528856769E+02  0.29999990635E+02 0.  0.
        -12    1    1    2    0    0  0.19377985761E+02  0.35742778785E+02  0.33669105340E+00  0.40659143231E+02  0.00000000000E+00 0.  1.
         11    1    3    3    0    0 -0.93105507587E+01 -0.68019834141E+01  0.57035436638E+01  0.12864048522E+02  0.51100000000E-03 0. -1.
        -11    1    3    3    0    0 -0.10761674790E+02 -0.59771803324E+01  0.34855869677E+01  0.12794125440E+02  0.51100000000E-03 0.  1.
        -12    1    3    3    0    0  0.69423978704E+00 -0.22963615038E+02 -0.95258216849E+01  0.24870682807E+02  0.00000000000E+00 0.  1.
</event>
<event>
 7    1  0.5855569E-013  0.5052886E+02  0.7816164E-02  0.1300439E+00
        -11   -1    0    0    0    0  0.00000000000E+00  0.00000000000E+00  0.45593999997E+02  0.45594000000E+02  0.51100000000E-03 0. -1.
         11   -1    0    0    0    0 -0.00000000000E+00 -0.00000000000E+00 -0.45593999997E+02  0.45594000000E+02  0.51100000000E-03 0.  1.
    9900012    2    1    2    0    0  0.31055956402E+02 -0.69597889382E+01  0.25303250657E+02  0.50528861003E+02  0.30000003506E+02 0.  0.
        -12    1    1    2    0    0 -0.31055956402E+02  0.69597889382E+01 -0.25303250657E+02  0.40659138997E+02  0.00000000000E+00 0.  1.
         11    1    3    3    0    0 -0.91716035528E+00  0.47434568066E+00  0.43420555838E+01  0.44631417070E+01  0.51100000000E-03 0. -1.
        -11    1    3    3    0    0 -0.19231310125E+01 -0.18249160261E+01  0.94756250618E+01  0.98395234624E+01  0.51100000000E-03 0.  1.
         12    1    3    3    0    0  0.33896247770E+02 -0.56092185928E+01  0.11485570012E+02  0.36226195834E+02  0.00000000000E+00 0. -1.
</event>
<event>
 7    1  0.5855569E-013  0.5052886E+02  0.7816164E-02  0.1300439E+00
        -11   -1    0    0    0    0  0.00000000000E+00  0.00000000000E+00  0.45593999997E+02  0.45594000000E+02  0.51100000000E-03 0.  1.
         11   -1    0    0    0    0 -0.00000000000E+00 -0.00000000000E+00 -0.45593999997E+02  0.45594000000E+02  0.51100000000E-03 0. -1.
    9900012    2    1    2    0    0  0.17811793880E+02  0.36148016435E+02 -0.54061677449E+01  0.50528859047E+02  0.29999997558E+02 0.  0.
        -12    1    1    2    0    0 -0.17811793880E+02 -0.36148016435E+02  0.54061677449E+01  0.40659140953E+02  0.00000000000E+00 0.  1.
         11    1    3    3    0    0  0.14546262150E+02  0.10413394720E+02 -0.10932272004E+02  0.20965378689E+02  0.51100000000E-03 0. -1.
        -11    1    3    3    0    0  0.25139232832E+01 -0.66432852887E+00  0.90098278293E+00  0.27518926040E+01  0.51100000000E-03 0.  1.
        -12    1    3    3    0    0  0.75160844685E+00  0.26398950244E+02  0.46251214758E+01  0.26811587754E+02  0.00000000000E+00 0.  1.
</event>
<event>
 7    1  0.5855569E-013  0.5052884E+02  0.7816164E-02  0.1300439E+00
        -11   -1    0    0    0    0  0.00000000000E+00  0.00000000000E+00  0.45593999997E+02  0.45594000000E+02  0.51100000000E-03 0. -1.
         11   -1    0    0    0    0 -0.00000000000E+00 -0.00000000000E+00 -0.45593999997E+02  0.45594000000E+02  0.51100000000E-03 0.  1.
    9900012    2    1    2    0    0  0.39538403918E+02 -0.40169971742E+00 -0.94720917256E+01  0.50528840286E+02  0.29999940532E+02 0.  0.
        -12    1    1    2    0    0 -0.39538403918E+02  0.40169971742E+00  0.94720917256E+01  0.40659159714E+02  0.00000000000E+00 0.  1.
         11    1    3    3    0    0  0.23263250923E+02 -0.15929207195E+01 -0.12050310148E+02  0.26247403964E+02  0.51100000000E-03 0. -1.
        -11    1    3    3    0    0  0.15876411315E+02 -0.56626054917E+01  0.38723721021E+01  0.17295109227E+02  0.51100000000E-03 0.  1.
        -12    1    3    3    0    0  0.39874167997E+00  0.68538264939E+01 -0.12941536793E+01  0.69863270952E+01  0.00000000000E+00 0.  1.
</event>
<event>
 7    1  0.5855569E-013  0.5052885E+02  0.7816164E-02  0.1300439E+00
        -11   -1    0    0    0    0  0.00000000000E+00  0.00000000000E+00  0.45593999997E+02  0.45594000000E+02  0.51100000000E-03 0.  1.
         11   -1    0    0    0    0 -0.00000000000E+00 -0.00000000000E+00 -0.45593999997E+02  0.45594000000E+02  0.51100000000E-03 0. -1.
    9900012    2    1    2    0    0  0.34043590521E+02 -0.20033401006E+02  0.96365566372E+01  0.50528850535E+02  0.29999971686E+02 0.  0.
        -12    1    1    2    0    0 -0.34043590521E+02  0.20033401006E+02 -0.96365566372E+01  0.40659149465E+02  0.00000000000E+00 0.  1.
         11    1    3    3    0    0  0.93728429848E+00 -0.72272213010E+01  0.10654624125E+01  0.73652182591E+01  0.51100000000E-03 0. -1.
        -11    1    3    3    0    0 -0.33352570857E+01  0.21445740982E+00 -0.59582170512E+00  0.33948395505E+01  0.51100000000E-03 0.  1.
        -12    1    3    3    0    0  0.36441563308E+02 -0.13020637115E+02  0.91669159298E+01  0.39768792726E+02  0.00000000000E+00 0.  1.
</event>
<event>
 7    1  0.5855569E-013  0.5052887E+02  0.7816164E-02  0.1300439E+00
        -11   -1    0    0    0    0  0.00000000000E+00  0.00000000000E+00  0.45593999997E+02  0.45594000000E+02  0.51100000000E-03 0.  1.
         11   -1    0    0    0    0 -0.00000000000E+00 -0.00000000000E+00 -0.45593999997E+02  0.45594000000E+02  0.51100000000E-03 0. -1.
    9900012    2    1    2    0    0 -0.30646920522E+02 -0.24847482697E+02 -0.98251523513E+01  0.50528871227E+02  0.30000034581E+02 0.  0.
        -12    1    1    2    0    0  0.30646920522E+02  0.24847482697E+02  0.98251523513E+01  0.40659128773E+02  0.00000000000E+00 0.  1.
         11    1    3    3    0    0  0.32501026447E+00  0.14124694025E+01 -0.14936050004E+01  0.20812394488E+01  0.51100000000E-03 0.  1.
        -11    1    3    3    0    0 -0.13765116567E+02 -0.55433036202E+01 -0.14578132186E+02  0.20802129396E+02  0.51100000000E-03 0. -1.
        -12    1    3    3    0    0 -0.17206814220E+02 -0.20716648480E+02  0.62465848354E+01  0.27645502382E+02  0.00000000000E+00 0.  1.
</event>
<event>
 7    1  0.5855569E-013  0.5052886E+02  0.7816164E-02  0.1300439E+00
        -11   -1    0    0    0    0  0.00000000000E+00  0.00000000000E+00  0.45593999997E+02  0.45594000000E+02  0.51100000000E-03 0.  1.
         11   -1    0    0    0    0 -0.00000000000E+00 -0.00000000000E+00 -0.45593999997E+02  0.45594000000E+02  0.51100000000E-03 0. -1.
    9900012    2    1    2    0    0 -0.43269983785E+01  0.17989065982E+02 -0.36205478109E+02  0.50528855211E+02  0.29999985900E+02 0.  0.
        -12    1    1    2    0    0  0.43269983785E+01 -0.17989065982E+02  0.36205478109E+02  0.40659144789E+02  0.00000000000E+00 0.  1.
         11    1    3    3    0    0 -0.95744914847E+01  0.15191072176E+02 -0.20708031362E+02  0.27409161319E+02  0.51100000000E-03 0. -1.
        -11    1    3    3    0    0 -0.46850986334E+01  0.51366153291E+01 -0.62439957163E+01  0.93446481480E+01  0.51100000000E-03 0.  1.
         12    1    3    3    0    0  0.99325917397E+01 -0.23386215225E+01 -0.92534510304E+01  0.13775045745E+02  0.00000000000E+00 0. -1.
</event>
<event>
 7    1  0.5855569E-013  0.5052884E+02  0.7816164E-02  0.1300439E+00
        -11   -1    0    0    0    0  0.00000000000E+00  0.00000000000E+00  0.45593999997E+02  0.45594000000E+02  0.51100000000E-03 0. -1.
         11   -1    0    0    0    0 -0.00000000000E+00 -0.00000000000E+00 -0.45593999997E+02  0.45594000000E+02  0.51100000000E-03 0.  1.
    9900012    2    1    2    0    0 -0.97886100006E+01 -0.39386528019E+02  0.24599654329E+01  0.50528844757E+02  0.29999954123E+02 0.  0.
        -12    1    1    2    0    0  0.97886100006E+01  0.39386528019E+02 -0.24599654329E+01  0.40659155243E+02  0.00000000000E+00 0.  1.
         11    1    3    3    0    0  0.23227318810E+01 -0.59929657022E+01  0.10219627970E+02  0.12072759312E+02  0.51100000000E-03 0. -1.
        -11    1    3    3    0    0 -0.10410551462E+01  0.22878633007E+00  0.15251573176E+01  0.18607106456E+01  0.51100000000E-03 0.  1.
         12    1    3    3    0    0 -0.11070286735E+02 -0.33622348647E+02 -0.92848198550E+01  0.36595374799E+02  0.00000000000E+00 0. -1.
</event>
<event>
 7    1  0.5855569E-013  0.5052886E+02  0.7816164E-02  0.1300439E+00
        -11   -1    0    0    0    0  0.00000000000E+00  0.00000000000E+00  0.45593999997E+02  0.45594000000E+02  0.51100000000E-03 0.  1.
         11   -1    0    0    0    0 -0.00000000000E+00 -0.00000000000E+00 -0.45593999997E+02  0.45594000000E+02  0.51100000000E-03 0. -1.
    9900012    2    1    2    0    0 -0.37645988258E+02  0.11056438476E+02 -0.10663031900E+02  0.50528861876E+02  0.30000006157E+02 0.  0.
        -12    1    1    2    0    0  0.37645988258E+02 -0.11056438476E+02  0.10663031900E+02  0.40659138124E+02  0.00000000000E+00 0.  1.
         11    1    3    3    0    0 -0.27336381990E+02  0.12543525879E+02 -0.38620285013E+01  0.30323803953E+02  0.51100000000E-03 0. -1.
        -11    1    3    3    0    0 -0.13327272930E+01  0.66346749576E+01 -0.12261009184E+01  0.68773830454E+01  0.51100000000E-03 0.  1.
         12    1    3    3    0    0 -0.89768789755E+01 -0.81217623598E+01 -0.55749024808E+01  0.13327674877E+02  0.00000000000E+00 0. -1.
</event>
<event>
 7    1  0.5855569E-013  0.5052887E+02  0.7816164E-02  0.1300439E+00
        -11   -1    0    0    0    0  0.00000000000E+00  0.00000000000E+00  0.45593999997E+02  0.45594000000E+02  0.51100000000E-03 0.  1.
         11   -1    0    0    0    0 -0.00000000000E+00 -0.00000000000E+00 -0.45593999997E+02  0.45594000000E+02  0.51100000000E-03 0. -1.
    9900012    2    1    2    0    0  0.40617763295E+02 -0.18530078838E+00 -0.18242097546E+01  0.50528870980E+02  0.30000033831E+02 0.  0.
        -12    1    1    2    0    0 -0.40617763295E+02  0.18530078838E+00  0.18242097546E+01  0.40659129020E+02  0.00000000000E+00 0.  1.
         11    1    3    3    0    0  0.76094578137E+01  0.36967716712E+01  0.66573077889E+01  0.10765208603E+02  0.51100000000E-03 0. -1.
        -11    1    3    3    0    0  0.20018522015E+01 -0.66818760031E+01 -0.46799596048E+01  0.83998155528E+01  0.51100000000E-03 0.  1.
        -12    1    3    3    0    0  0.31006453279E+02  0.27998035434E+01 -0.38015579387E+01  0.31363846824E+02  0.00000000000E+00 0.  1.
</event>
<event>
 7    1  0.5855569E-013  0.5052886E+02  0.7816164E-02  0.1300439E+00
        -11   -1    0    0    0    0  0.00000000000E+00  0.00000000000E+00  0.45593999997E+02  0.45594000000E+02  0.51100000000E-03 0.  1.
         11   -1    0    0    0    0 -0.00000000000E+00 -0.00000000000E+00 -0.45593999997E+02  0.45594000000E+02  0.51100000000E-03 0. -1.
    9900012    2    1    2    0    0 -0.38031360197E+02  0.12121806026E+02 -0.77358410315E+01  0.50528858638E+02  0.29999996317E+02 0.  0.
        -12    1    1    2    0    0  0.38031360197E+02 -0.12121806026E+02  0.77358410315E+01  0.40659141362E+02  0.00000000000E+00 0.  1.
         11    1    3    3    0    0 -0.26544525626E+02 -0.38910372765E+01 -0.87220206025E+01  0.28210382051E+02  0.51100000000E-03 0. -1.
        -11    1    3    3    0    0 -0.53071487391E+01  0.26827987243E+01  0.41974147140E+01  0.72788410669E+01  0.51100000000E-03 0.  1.
         12    1    3    3    0    0 -0.61796858319E+01  0.13330044579E+02 -0.32112351430E+01  0.15039635520E+02  0.00000000000E+00 0. -1.
</event>
<event>
 7    1  0.5855569E-013  0.5052886E+02  0.7816164E-02  0.1300439E+00
        -11   -1    0    0    0    0  0.00000000000E+00  0.00000000000E+00  0.45593999997E+02  0.45594000000E+02  0.51100000000E-03 0.  1.
         11   -1    0    0    0    0 -0.00000000000E+00 -0.00000000000E+00 -0.45593999997E+02  0.45594000000E+02  0.51100000000E-03 0. -1.
    9900012    2    1    2    0    0 -0.31983751889E+02 -0.79393981314E+01 -0.23815360328E+02  0.50528858160E+02  0.29999994864E+02 0.  0.
        -12    1    1    2    0    0  0.31983751889E+02  0.79393981314E+01  0.23815360328E+02  0.40659141840E+02  0.00000000000E+00 0.  1.
         11    1    3    3    0    0 -0.12112226322E+02 -0.38665135609E+01 -0.12177794876E+01  0.12772585515E+02  0.51100000000E-03 0. -1.
        -11    1    3    3    0    0 -0.82451047581E+01 -0.11895265082E+02 -0.51145902493E+01  0.15350508706E+02  0.51100000000E-03 0.  1.
        -12    1    3    3    0    0 -0.11626420809E+02  0.78223805119E+01 -0.17482990591E+02  0.22405763939E+02  0.00000000000E+00 0.  1.
</event>
<event>
 7    1  0.5855569E-013  0.5052884E+02  0.7816164E-02  0.1300439E+00
        -11   -1    0    0    0    0  0.00000000000E+00  0.00000000000E+00  0.45593999997E+02  0.45594000000E+02  0.51100000000E-03 0.  1.
         11   -1    0    0    0    0 -0.00000000000E+00 -0.00000000000E+00 -0.45593999997E+02  0.45594000000E+02  0.51100000000E-03 0. -1.
    9900012    2    1    2    0    0 -0.26796421930E+02  0.30025173453E+02 -0.57972599001E+01  0.50528837546E+02  0.29999932204E+02 0.  0.
        -12    1    1    2    0    0  0.26796421930E+02 -0.30025173453E+02  0.57972599001E+01  0.40659162454E+02  0.00000000000E+00 0.  1.
         11    1    3    3    0    0 -0.43504212171E+01 -0.17984459440E+01  0.13409262069E+01  0.48947580055E+01  0.51100000000E-03 0. -1.
        -11    1    3    3    0    0 -0.54900952486E+01  0.24692864445E+01  0.67104381381E+01  0.90149044171E+01  0.51100000000E-03 0.  1.
        -12    1    3    3    0    0 -0.16955905465E+02  0.29354332952E+02 -0.13848624245E+02  0.36619175123E+02  0.00000000000E+00 0.  1.
</event>
<event>
 7    1  0.5855569E-013  0.5052887E+02  0.7816164E-02  0.1300439E+00
        -11   -1    0    0    0    0  0.00000000000E+00  0.00000000000E+00  0.45593999997E+02  0.45594000000E+02  0.51100000000E-03 0. -1.
         11   -1    0    0    0    0 -0.00000000000E+00 -0.00000000000E+00 -0.45593999997E+02  0.45594000000E+02  0.51100000000E-03 0.  1.
    9900012    2    1    2    0    0  0.27040484954E+02 -0.15202879808E+02  0.26284019772E+02  0.50528867246E+02  0.30000022479E+02 0.  0.
        -12    1    1    2    0    0 -0.27040484954E+02  0.15202879808E+02 -0.26284019772E+02  0.40659132754E+02  0.00000000000E+00 0.  1.
         11    1    3    3    0    0  0.48213432887E+00 -0.17447673408E+01  0.74419391523E+01  0.76589245454E+01  0.51100000000E-03 0. -1.
        -11    1    3    3    0    0  0.10832724194E+01 -0.12975811312E+02  0.59964992784E+01  0.14335381481E+02  0.51100000000E-03 0.  1.
        -12    1    3    3    0    0  0.25475078205E+02 -0.48230115474E+00  0.12845581341E+02  0.28534561219E+02  0.00000000000E+00 0.  1.
</event>
<event>
 7    1  0.5855569E-013  0.5052886E+02  0.7816164E-02  0.1300439E+00
        -11   -1    0    0    0    0  0.00000000000E+00  0.00000000000E+00  0.45593999997E+02  0.45594000000E+02  0.51100000000E-03 0. -1.
         11   -1    0    0    0    0 -0.00000000000E+00 -0.00000000000E+00 -0.45593999997E+02  0.45594000000E+02  0.51100000000E-03 0.  1.
    9900012    2    1    2    0    0  0.38312378437E+01 -0.35572373242E+02  0.19315627971E+02  0.50528860740E+02  0.30000002704E+02 0.  0.
        -12    1    1    2    0    0 -0.38312378437E+01  0.35572373242E+02 -0.19315627971E+02  0.40659139260E+02  0.00000000000E+00 0.  1.
         11    1    3    3    0    0  0.39613304346E+01 -0.23607277872E+02  0.11059508607E+02  0.26368701868E+02  0.51100000000E-03 0. -1.
        -11    1    3    3    0    0  0.42200598030E+01 -0.15336362868E+02  0.94869063487E+01  0.18520645861E+02  0.51100000000E-03 0.  1.
        -12    1    3    3    0    0 -0.43501523939E+01  0.33712674981E+01 -0.12307869847E+01  0.56395130105E+01  0.00000000000E+00 0.  1.
</event>
<event>
 7    1  0.5855569E-013  0.5052886E+02  0.7816164E-02  0.1300439E+00
        -11   -1    0    0    0    0  0.00000000000E+00  0.00000000000E+00  0.45593999997E+02  0.45594000000E+02  0.51100000000E-03 0. -1.
         11   -1    0    0    0    0 -0.00000000000E+00 -0.00000000000E+00 -0.45593999997E+02  0.45594000000E+02  0.51100000000E-03 0.  1.
    9900012    2    1    2    0    0 -0.21575827754E+02 -0.17100334115E+02  0.29920360005E+02  0.50528859418E+02  0.29999998686E+02 0.  0.
        -12    1    1    2    0    0  0.21575827754E+02  0.17100334115E+02 -0.29920360005E+02  0.40659140582E+02  0.00000000000E+00 0.  1.
         11    1    3    3    0    0 -0.27889516988E+00 -0.78502028641E+01  0.14176035390E+02  0.16206895050E+02  0.51100000000E-03 0. -1.
        -11    1    3    3    0    0 -0.21222264097E+01 -0.10947226298E+02  0.71073216323E+01  0.13223449989E+02  0.51100000000E-03 0.  1.
        -12    1    3    3    0    0 -0.19174706174E+02  0.16970950480E+01  0.86370029819E+01  0.21098514378E+02  0.00000000000E+00 0.  1.
</event>
<event>
 7    1  0.5855569E-013  0.5052887E+02  0.7816164E-02  0.1300439E+00
        -11   -1    0    0    0    0  0.00000000000E+00  0.00000000000E+00  0.45593999997E+02  0.45594000000E+02  0.51100000000E-03 0. -1.
         11   -1    0    0    0    0 -0.00000000000E+00 -0.00000000000E+00 -0.45593999997E+02  0.45594000000E+02  0.51100000000E-03 0.  1.
    9900012    2    1    2    0    0 -0.23396367556E+02 -0.12639587705E+01  0.33229166942E+02  0.50528866435E+02  0.30000020015E+02 0.  0.
        -12    1    1    2    0    0  0.23396367556E+02  0.12639587705E+01 -0.33229166942E+02  0.40659133565E+02  0.00000000000E+00 0.  1.
         11    1    3    3    0    0 -0.16334148027E+02 -0.53722934352E+01  0.21727739678E+02  0.27708493288E+02  0.51100000000E-03 0. -1.
        -11    1    3    3    0    0 -0.85874780225E+01  0.13406859342E+00  0.15016968414E+02  0.17299482471E+02  0.51100000000E-03 0.  1.
        -12    1    3    3    0    0  0.15252584925E+01  0.39742660713E+01 -0.35155411498E+01  0.55208906755E+01  0.00000000000E+00 0.  1.
</event>
<event>
 7    1  0.5855569E-013  0.5052885E+02  0.7816164E-02  0.1300439E+00
        -11   -1    0    0    0    0  0.00000000000E+00  0.00000000000E+00  0.45593999997E+02  0.45594000000E+02  0.51100000000E-03 0.  1.
         11   -1    0    0    0    0 -0.00000000000E+00 -0.00000000000E+00 -0.45593999997E+02  0.45594000000E+02  0.51100000000E-03 0. -1.
    9900012    2    1    2    0    0 -0.39724096928E+02  0.71271214720E+01  0.49362654901E+01  0.50528850301E+02  0.29999970975E+02 0.  0.
        -12    1    1    2    0    0  0.39724096928E+02 -0.71271214720E+01 -0.49362654901E+01  0.40659149699E+02  0.00000000000E+00 0.  1.
         11    1    3    3    0    0 -0.14639643248E+02  0.61687383538E+01  0.27999365325E+01  0.16131092094E+02  0.51100000000E-03 0. -1.
        -11    1    3    3    0    0 -0.57011476191E+01  0.13505502127E+01  0.11470717559E+02  0.12880389421E+02  0.51100000000E-03 0.  1.
        -12    1    3    3    0    0 -0.19383306062E+02 -0.39216709449E+00 -0.93343886018E+01  0.21517368786E+02  0.00000000000E+00 0.  1.
</event>
<event>
 7    1  0.5855569E-013  0.5052885E+02  0.7816164E-02  0.1300439E+00
        -11   -1    0    0    0    0  0.00000000000E+00  0.00000000000E+00  0.45593999997E+02  0.45594000000E+02  0.51100000000E-03 0.  1.
         11   -1    0    0    0    0 -0.00000000000E+00 -0.00000000000E+00 -0.45593999997E+02  0.45594000000E+02  0.51100000000E-03 0. -1.
    9900012    2    1    2    0    0  0.26542722123E+02  0.86776905414E+01 -0.29552461833E+02  0.50528850830E+02  0.29999972584E+02 0.  0.
        -12    1    1    2    0    0 -0.26542722123E+02 -0.86776905414E+01  0.29552461833E+02  0.40659149170E+02  0.00000000000E+00 0.  1.
         11    1    3    3    0    0  0.96762132223E+01 -0.16322893354E+01 -0.13842245714E+02  0.16967652680E+02  0.51100000000E-03 0. -1.
        -11    1    3    3    0    0  0.63113738938E+01  0.39440414345E+01  0.53452965708E+01  0.91630289182E+01  0.51100000000E-03 0.  1.
         12    1    3    3    0    0  0.10555135007E+02  0.63659384422E+01 -0.21055512690E+02  0.24398169232E+02  0.00000000000E+00 0. -1.
</event>
<event>
 7    1  0.5855569E-013  0.5052883E+02  0.7816164E-02  0.1300439E+00
        -11   -1    0    0    0    0  0.00000000000E+00  0.00000000000E+00  0.45593999997E+02  0.45594000000E+02  0.51100000000E-03 0. -1.
         11   -1    0    0    0    0 -0.00000000000E+00 -0.00000000000E+00 -0.45593999997E+02  0.45594000000E+02  0.51100000000E-03 0.  1.
    9900012    2    1    2    0    0  0.37834543905E+02  0.73500344563E+00 -0.14871946994E+02  0.50528834367E+02  0.29999922543E+02 0.  0.
        -12    1    1    2    0    0 -0.37834543905E+02 -0.73500344563E+00  0.14871946994E+02  0.40659165633E+02  0.00000000000E+00 0.  1.
         11    1    3    3    0    0 -0.33390589571E+00 -0.26404874877E+01  0.51446220286E+01  0.57923055339E+01  0.51100000000E-03 0. -1.
        -11    1    3    3    0    0  0.23088339696E+01 -0.19917786828E+01  0.47761546543E+00  0.30864240496E+01  0.51100000000E-03 0.  1.
         12    1    3    3    0    0  0.35859615831E+02  0.53672696161E+01 -0.20494184488E+02  0.41650104784E+02  0.00000000000E+00 0. -1.
</event>
<event>
 7    1  0.5855569E-013  0.5052886E+02  0.7816164E-02  0.1300439E+00
        -11   -1    0    0    0    0  0.00000000000E+00  0.00000000000E+00  0.45593999997E+02  0.45594000000E+02  0.51100000000E-03 0.  1.
         11   -1    0    0    0    0 -0.00000000000E+00 -0.00000000000E+00 -0.45593999997E+02  0.45594000000E+02  0.51100000000E-03 0. -1.
    9900012    2    1    2    0    0  0.11323470190E+02  0.38761150037E+02  0.47453408137E+01  0.50528856025E+02  0.29999988375E+02 0.  0.
        -12    1    1    2    0    0 -0.11323470190E+02 -0.38761150037E+02 -0.47453408137E+01  0.40659143975E+02  0.00000000000E+00 0.  1.
         11    1    3    3    0    0 -0.26858020870E+01  0.15263033048E+02  0.66939552229E+01  0.16881432033E+02  0.51100000000E-03 0.  1.
        -11    1    3    3    0    0 -0.15662862352E+01  0.14851742621E+02  0.28372277412E+01  0.15201229324E+02  0.51100000000E-03 0. -1.
        -12    1    3    3    0    0  0.15575558512E+02  0.86463743676E+01 -0.47858421504E+01  0.18446194669E+02  0.00000000000E+00 0.  1.
</event>
<event>
 7    1  0.5855569E-013  0.5052886E+02  0.7816164E-02  0.1300439E+00
        -11   -1    0    0    0    0  0.00000000000E+00  0.00000000000E+00  0.45593999997E+02  0.45594000000E+02  0.51100000000E-03 0. -1.
         11   -1    0    0    0    0 -0.00000000000E+00 -0.00000000000E+00 -0.45593999997E+02  0.45594000000E+02  0.51100000000E-03 0.  1.
    9900012    2    1    2    0    0  0.28341543524E+02 -0.22340811254E+02 -0.18729932319E+02  0.50528864477E+02  0.30000014065E+02 0.  0.
        -12    1    1    2    0    0 -0.28341543524E+02  0.22340811254E+02  0.18729932319E+02  0.40659135523E+02  0.00000000000E+00 0.  1.
         11    1    3    3    0    0  0.12320138077E+01 -0.41268772725E+01 -0.18243459554E+01  0.46773082506E+01  0.51100000000E-03 0. -1.
        -11    1    3    3    0    0 -0.16900288382E+01  0.51532816146E+01 -0.32959527322E+01  0.63463228366E+01  0.51100000000E-03 0.  1.
        -12    1    3    3    0    0  0.28799558554E+02 -0.23367215596E+02 -0.13609633631E+02  0.39505233390E+02  0.00000000000E+00 0.  1.
</event>
<event>
 7    1  0.5855569E-013  0.5052888E+02  0.7816164E-02  0.1300439E+00
        -11   -1    0    0    0    0  0.00000000000E+00  0.00000000000E+00  0.45593999997E+02  0.45594000000E+02  0.51100000000E-03 0.  1.
         11   -1    0    0    0    0 -0.00000000000E+00 -0.00000000000E+00 -0.45593999997E+02  0.45594000000E+02  0.51100000000E-03 0. -1.
    9900012    2    1    2    0    0 -0.39251221512E+02 -0.80053427718E+01  0.69584861181E+01  0.50528875168E+02  0.30000046561E+02 0.  0.
        -12    1    1    2    0    0  0.39251221512E+02  0.80053427718E+01 -0.69584861181E+01  0.40659124832E+02  0.00000000000E+00 0.  1.
         11    1    3    3    0    0 -0.10893214198E+01 -0.20267999504E+01 -0.74812814434E+00  0.24195526810E+01  0.51100000000E-03 0. -1.
        -11    1    3    3    0    0 -0.19000693262E+02 -0.39258896349E+01  0.17821929294E+02  0.26345020742E+02  0.51100000000E-03 0.  1.
         12    1    3    3    0    0 -0.19161206830E+02 -0.20526531866E+01 -0.10115315031E+02  0.21764301745E+02  0.00000000000E+00 0. -1.
</event>
<event>
 7    1  0.5855569E-013  0.5052886E+02  0.7816164E-02  0.1300439E+00
        -11   -1    0    0    0    0  0.00000000000E+00  0.00000000000E+00  0.45593999997E+02  0.45594000000E+02  0.51100000000E-03 0. -1.
         11   -1    0    0    0    0 -0.00000000000E+00 -0.00000000000E+00 -0.45593999997E+02  0.45594000000E+02  0.51100000000E-03 0.  1.
    9900012    2    1    2    0    0  0.39132613705E+02  0.31841234610E+01  0.10567187699E+02  0.50528861378E+02  0.30000004646E+02 0.  0.
        -12    1    1    2    0    0 -0.39132613705E+02 -0.31841234610E+01 -0.10567187699E+02  0.40659138622E+02  0.00000000000E+00 0.  1.
         11    1    3    3    0    0  0.34246907225E+02  0.98127071178E+01  0.97227290460E+01  0.36927920816E+02  0.51100000000E-03 0. -1.
        -11    1    3    3    0    0  0.13079419218E+01  0.22517166592E+01  0.28060031062E+01  0.38281318782E+01  0.51100000000E-03 0.  1.
         12    1    3    3    0    0  0.35777645583E+01 -0.88803003160E+01 -0.19615444530E+01  0.97728086842E+01  0.00000000000E+00 0. -1.
</event>
<event>
 7    1  0.5855569E-013  0.5052886E+02  0.7816164E-02  0.1300439E+00
        -11   -1    0    0    0    0  0.00000000000E+00  0.00000000000E+00  0.45593999997E+02  0.45594000000E+02  0.51100000000E-03 0.  1.
         11   -1    0    0    0    0 -0.00000000000E+00 -0.00000000000E+00 -0.45593999997E+02  0.45594000000E+02  0.51100000000E-03 0. -1.
    9900012    2    1    2    0    0  0.19078408650E+02  0.19495182746E+02 -0.30151580913E+02  0.50528860087E+02  0.30000000721E+02 0.  0.
        -12    1    1    2    0    0 -0.19078408650E+02 -0.19495182746E+02  0.30151580913E+02  0.40659139913E+02  0.00000000000E+00 0.  1.
         11    1    3    3    0    0  0.86046954524E+01  0.94402796715E+00 -0.11592868100E+02  0.14468122327E+02  0.51100000000E-03 0. -1.
        -11    1    3    3    0    0  0.10856216303E+02  0.11464720813E+02 -0.22844762849E+02  0.27770135859E+02  0.51100000000E-03 0.  1.
        -12    1    3    3    0    0 -0.38250310591E+00  0.70864339651E+01  0.42860500357E+01  0.82906019007E+01  0.00000000000E+00 0.  1.
</event>
<event>
 7    1  0.5855569E-013  0.5052886E+02  0.7816164E-02  0.1300439E+00
        -11   -1    0    0    0    0  0.00000000000E+00  0.00000000000E+00  0.45593999997E+02  0.45594000000E+02  0.51100000000E-03 0. -1.
         11   -1    0    0    0    0 -0.00000000000E+00 -0.00000000000E+00 -0.45593999997E+02  0.45594000000E+02  0.51100000000E-03 0.  1.
    9900012    2    1    2    0    0 -0.23662738078E+02 -0.30047151101E+02  0.13798891205E+02  0.50528857595E+02  0.29999993145E+02 0.  0.
        -12    1    1    2    0    0  0.23662738078E+02  0.30047151101E+02 -0.13798891205E+02  0.40659142405E+02  0.00000000000E+00 0.  1.
         11    1    3    3    0    0 -0.16324348248E+01 -0.11697835207E+00  0.43628724299E+01  0.46597407109E+01  0.51100000000E-03 0. -1.
        -11    1    3    3    0    0 -0.54018522165E+01  0.32751616137E+01 -0.25997323636E+01  0.68312004500E+01  0.51100000000E-03 0.  1.
         12    1    3    3    0    0 -0.16628451037E+02 -0.33205334363E+02  0.12035751138E+02  0.39037916434E+02  0.00000000000E+00 0. -1.
</event>
<event>
 7    1  0.5855569E-013  0.5052886E+02  0.7816164E-02  0.1300439E+00
        -11   -1    0    0    0    0  0.00000000000E+00  0.00000000000E+00  0.45593999997E+02  0.45594000000E+02  0.51100000000E-03 0. -1.
         11   -1    0    0    0    0 -0.00000000000E+00 -0.00000000000E+00 -0.45593999997E+02  0.45594000000E+02  0.51100000000E-03 0.  1.
    9900012    2    1    2    0    0  0.23518085693E+02  0.21227948466E+02  0.25484099312E+02  0.50528862424E+02  0.30000007823E+02 0.  0.
        -12    1    1    2    0    0 -0.23518085693E+02 -0.21227948466E+02 -0.25484099312E+02  0.40659137576E+02  0.00000000000E+00 0.  1.
         11    1    3    3    0    0  0.19330361722E+02  0.86104990841E+01  0.73041247279E+01  0.22386465042E+02  0.51100000000E-03 0. -1.
        -11    1    3    3    0    0  0.57175414553E+01  0.57638036637E+01 -0.55205886998E+00  0.81373510569E+01  0.51100000000E-03 0.  1.
        -12    1    3    3    0    0 -0.15298174837E+01  0.68536457177E+01  0.18732033454E+02  0.20005046325E+02  0.00000000000E+00 0.  1.
</event>
<event>
 7    1  0.5855569E-013  0.5052891E+02  0.7816164E-02  0.1300439E+00
        -11   -1    0    0    0    0  0.00000000000E+00  0.00000000000E+00  0.45593999997E+02  0.45594000000E+02  0.51100000000E-03 0.  1.
         11   -1    0    0    0    0 -0.00000000000E+00 -0.00000000000E+00 -0.45593999997E+02  0.45594000000E+02  0.51100000000E-03 0. -1.
    9900012    2    1    2    0    0  0.28291243748E+01 -0.11697536865E+02 -0.38837167009E+02  0.50528906863E+02  0.30000142902E+02 0.  0.
        -12    1    1    2    0    0 -0.28291243748E+01  0.11697536865E+02  0.38837167009E+02  0.40659093137E+02  0.00000000000E+00 0.  1.
         11    1    3    3    0    0 -0.96909961900E+00 -0.13122392737E+02 -0.99235595616E+01  0.16480697190E+02  0.51100000000E-03 0. -1.
        -11    1    3    3    0    0 -0.18765169387E+01 -0.60857834302E+01 -0.42689640705E+01  0.76669505200E+01  0.51100000000E-03 0.  1.
        -12    1    3    3    0    0  0.56747409325E+01  0.75106393025E+01 -0.24644643377E+02  0.26381259154E+02  0.00000000000E+00 0.  1.
</event>
<event>
 7    1  0.5855569E-013  0.5052886E+02  0.7816164E-02  0.1300439E+00
        -11   -1    0    0    0    0  0.00000000000E+00  0.00000000000E+00  0.45593999997E+02  0.45594000000E+02  0.51100000000E-03 0.  1.
         11   -1    0    0    0    0 -0.00000000000E+00 -0.00000000000E+00 -0.45593999997E+02  0.45594000000E+02  0.51100000000E-03 0. -1.
    9900012    2    1    2    0    0 -0.91632029097E+01 -0.17315267053E+02 -0.35628399459E+02  0.50528860699E+02  0.30000002581E+02 0.  0.
        -12    1    1    2    0    0  0.91632029097E+01  0.17315267053E+02  0.35628399459E+02  0.40659139301E+02  0.00000000000E+00 0.  1.
         11    1    3    3    0    0 -0.59690868597E+01 -0.11681547125E+02 -0.14168946789E+02  0.19309261885E+02  0.51100000000E-03 0. -1.
        -11    1    3    3    0    0 -0.78142422416E+01  0.48028455525E+01 -0.32541451065E+01  0.97323772968E+01  0.51100000000E-03 0.  1.
         12    1    3    3    0    0  0.46201261916E+01 -0.10436565481E+02 -0.18205307563E+02  0.21487221517E+02  0.00000000000E+00 0. -1.
</event>
<event>
 7    1  0.5855569E-013  0.5052887E+02  0.7816164E-02  0.1300439E+00
        -11   -1    0    0    0    0  0.00000000000E+00  0.00000000000E+00  0.45593999997E+02  0.45594000000E+02  0.51100000000E-03 0.  1.
         11   -1    0    0    0    0 -0.00000000000E+00 -0.00000000000E+00 -0.45593999997E+02  0.45594000000E+02  0.51100000000E-03 0. -1.
    9900012    2    1    2    0    0 -0.25114280686E+02  0.28120413834E+02 -0.15221045907E+02  0.50528868097E+02  0.30000025068E+02 0.  0.
        -12    1    1    2    0    0  0.25114280686E+02 -0.28120413834E+02  0.15221045907E+02  0.40659131903E+02  0.00000000000E+00 0.  1.
         11    1    3    3    0    0  0.56408507312E+01  0.20183588173E+01 -0.59881542491E+00  0.60209259638E+01  0.51100000000E-03 0. -1.
        -11    1    3    3    0    0 -0.21999507563E+01 -0.22387761149E+00  0.12624852696E+01  0.25463255551E+01  0.51100000000E-03 0.  1.
        -12    1    3    3    0    0 -0.28555180661E+02  0.26325932629E+02 -0.15884715752E+02  0.41961616578E+02  0.00000000000E+00 0.  1.
</event>
<event>
 7    1  0.5855569E-013  0.5052886E+02  0.7816164E-02  0.1300439E+00
        -11   -1    0    0    0    0  0.00000000000E+00  0.00000000000E+00  0.45593999997E+02  0.45594000000E+02  0.51100000000E-03 0.  1.
         11   -1    0    0    0    0 -0.00000000000E+00 -0.00000000000E+00 -0.45593999997E+02  0.45594000000E+02  0.51100000000E-03 0. -1.
    9900012    2    1    2    0    0 -0.29120550746E+02 -0.61681984256E+01 -0.27696792570E+02  0.50528862451E+02  0.30000007906E+02 0.  0.
        -12    1    1    2    0    0  0.29120550746E+02  0.61681984256E+01  0.27696792570E+02  0.40659137549E+02  0.00000000000E+00 0.  1.
         11    1    3    3    0    0 -0.12061618630E+02  0.51920455939E+01 -0.10003743360E+02  0.16508024197E+02  0.51100000000E-03 0. -1.
        -11    1    3    3    0    0 -0.19432103677E+02 -0.14810641747E+02 -0.17026809506E+02  0.29780429891E+02  0.51100000000E-03 0.  1.
         12    1    3    3    0    0  0.23731715614E+01  0.34503977276E+01 -0.66623970373E+00  0.42404083625E+01  0.00000000000E+00 0. -1.
</event>
<event>
 7    1  0.5855569E-013  0.5052885E+02  0.7816164E-02  0.1300439E+00
        -11   -1    0    0    0    0  0.00000000000E+00  0.00000000000E+00  0.45593999997E+02  0.45594000000E+02  0.51100000000E-03 0.  1.
         11   -1    0    0    0    0 -0.00000000000E+00 -0.00000000000E+00 -0.45593999997E+02  0.45594000000E+02  0.51100000000E-03 0. -1.
    9900012    2    1    2    0    0  0.75017758950E+01  0.23869186826E+02  0.32049203426E+02  0.50528853900E+02  0.29999981915E+02 0.  0.
        -12    1    1    2    0    0 -0.75017758950E+01 -0.23869186826E+02 -0.32049203426E+02  0.40659146100E+02  0.00000000000E+00 0.  1.
         11    1    3    3    0    0  0.18096600872E+00  0.82906156298E+01  0.18415969224E+02  0.20196905182E+02  0.51100000000E-03 0.  1.
        -11    1    3    3    0    0  0.34822245821E+00 -0.25314413325E+01 -0.35756205396E+01  0.43948283931E+01  0.51100000000E-03 0. -1.
         12    1    3    3    0    0  0.69725874281E+01  0.18110012528E+02  0.17208854742E+02  0.25937120325E+02  0.00000000000E+00 0. -1.
</event>
<event>
 7    1  0.5855569E-013  0.5052882E+02  0.7816164E-02  0.1300439E+00
        -11   -1    0    0    0    0  0.00000000000E+00  0.00000000000E+00  0.45593999997E+02  0.45594000000E+02  0.51100000000E-03 0. -1.
         11   -1    0    0    0    0 -0.00000000000E+00 -0.00000000000E+00 -0.45593999997E+02  0.45594000000E+02  0.51100000000E-03 0.  1.
    9900012    2    1    2    0    0  0.23345438192E+02  0.67930592045E+01  0.32588547734E+02  0.50528824146E+02  0.29999891475E+02 0.  0.
        -12    1    1    2    0    0 -0.23345438192E+02 -0.67930592045E+01 -0.32588547734E+02  0.40659175854E+02  0.00000000000E+00 0.  1.
         11    1    3    3    0    0  0.29457780087E+01 -0.77055549937E+01  0.46340144992E+01  0.94618854610E+01  0.51100000000E-03 0. -1.
        -11    1    3    3    0    0  0.30865656754E+01 -0.36496433020E+01  0.27765063595E+01  0.55277275372E+01  0.51100000000E-03 0.  1.
        -12    1    3    3    0    0  0.17313094507E+02  0.18148257500E+02  0.25178026875E+02  0.35539211148E+02  0.00000000000E+00 0.  1.
</event>
<event>
 7    1  0.5855569E-013  0.5052886E+02  0.7816164E-02  0.1300439E+00
        -11   -1    0    0    0    0  0.00000000000E+00  0.00000000000E+00  0.45593999997E+02  0.45594000000E+02  0.51100000000E-03 0. -1.
         11   -1    0    0    0    0 -0.00000000000E+00 -0.00000000000E+00 -0.45593999997E+02  0.45594000000E+02  0.51100000000E-03 0.  1.
    9900012    2    1    2    0    0  0.14647515671E+02  0.28255434876E+02  0.25303090077E+02  0.50528859788E+02  0.29999999811E+02 0.  0.
        -12    1    1    2    0    0 -0.14647515671E+02 -0.28255434876E+02 -0.25303090077E+02  0.40659140212E+02  0.00000000000E+00 0.  1.
         11    1    3    3    0    0  0.24730073230E+01  0.10078641597E+02 -0.76278201244E+00  0.10405605139E+02  0.51100000000E-03 0. -1.
        -11    1    3    3    0    0  0.21835034020E+01  0.15008431553E+02  0.39853456461E+01  0.15681316430E+02  0.51100000000E-03 0.  1.
         12    1    3    3    0    0  0.99910049455E+01  0.31683617260E+01  0.22080526444E+02  0.24441938219E+02  0.00000000000E+00 0. -1.
</event>
<event>
 7    1  0.5855569E-013  0.5052884E+02  0.7816164E-02  0.1300439E+00
        -11   -1    0    0    0    0  0.00000000000E+00  0.00000000000E+00  0.45593999997E+02  0.45594000000E+02  0.51100000000E-03 0. -1.
         11   -1    0    0    0    0 -0.00000000000E+00 -0.00000000000E+00 -0.45593999997E+02  0.45594000000E+02  0.51100000000E-03 0.  1.
    9900012    2    1    2    0    0  0.22646841139E+02  0.79941626048E+01  0.32808246439E+02  0.50528842560E+02  0.29999947445E+02 0.  0.
        -12    1    1    2    0    0 -0.22646841139E+02 -0.79941626048E+01 -0.32808246439E+02  0.40659157440E+02  0.00000000000E+00 0.  1.
         11    1    3    3    0    0 -0.28058116447E+01 -0.54489719775E+01  0.14268298077E+02  0.15528947320E+02  0.51100000000E-03 0. -1.
        -11    1    3    3    0    0  0.39319640122E+01  0.16946486887E+01  0.62434274084E+01  0.75705060093E+01  0.51100000000E-03 0.  1.
        -12    1    3    3    0    0  0.21520688772E+02  0.11748485894E+02  0.12296520954E+02  0.27429389231E+02  0.00000000000E+00 0.  1.
</event>
<event>
 7    1  0.5855569E-013  0.5052886E+02  0.7816164E-02  0.1300439E+00
        -11   -1    0    0    0    0  0.00000000000E+00  0.00000000000E+00  0.45593999997E+02  0.45594000000E+02  0.51100000000E-03 0. -1.
         11   -1    0    0    0    0 -0.00000000000E+00 -0.00000000000E+00 -0.45593999997E+02  0.45594000000E+02  0.51100000000E-03 0.  1.
    9900012    2    1    2    0    0  0.11096372512E+02 -0.35292645394E+00  0.39114086371E+02  0.50528858437E+02  0.29999995704E+02 0.  0.
        -12    1    1    2    0    0 -0.11096372512E+02  0.35292645394E+00 -0.39114086371E+02  0.40659141563E+02  0.00000000000E+00 0.  1.
         11    1    3    3    0    0 -0.43310316726E+01  0.24927549234E+01 -0.80378559969E+00  0.50613964485E+01  0.51100000000E-03 0. -1.
        -11    1    3    3    0    0  0.35267296728E+01  0.97143926667E+00  0.20207076699E-01  0.36581313565E+01  0.51100000000E-03 0.  1.
         12    1    3    3    0    0  0.11900674512E+02 -0.38171206440E+01  0.39897664894E+02  0.41809330632E+02  0.00000000000E+00 0. -1.
</event>
<event>
 7    1  0.5855569E-013  0.5052886E+02  0.7816164E-02  0.1300439E+00
        -11   -1    0    0    0    0  0.00000000000E+00  0.00000000000E+00  0.45593999997E+02  0.45594000000E+02  0.51100000000E-03 0.  1.
         11   -1    0    0    0    0 -0.00000000000E+00 -0.00000000000E+00 -0.45593999997E+02  0.45594000000E+02  0.51100000000E-03 0. -1.
    9900012    2    1    2    0    0 -0.11733328314E+01  0.25301821922E+02 -0.31805768161E+02  0.50528858459E+02  0.29999995772E+02 0.  0.
        -12    1    1    2    0    0  0.11733328314E+01 -0.25301821922E+02  0.31805768161E+02  0.40659141541E+02  0.00000000000E+00 0.  1.
         11    1    3    3    0    0  0.36260377322E+00  0.19581643849E+02 -0.34643256126E+02  0.39796073331E+02  0.51100000000E-03 0. -1.
        -11    1    3    3    0    0  0.14713129041E+01  0.73678425924E-01 -0.21601965100E+01  0.26146968075E+01  0.51100000000E-03 0.  1.
        -12    1    3    3    0    0 -0.30072495087E+01  0.56464996470E+01  0.49976844742E+01  0.81180883202E+01  0.00000000000E+00 0.  1.
</event>
<event>
 7    1  0.5855569E-013  0.5052885E+02  0.7816164E-02  0.1300439E+00
        -11   -1    0    0    0    0  0.00000000000E+00  0.00000000000E+00  0.45593999997E+02  0.45594000000E+02  0.51100000000E-03 0.  1.
         11   -1    0    0    0    0 -0.00000000000E+00 -0.00000000000E+00 -0.45593999997E+02  0.45594000000E+02  0.51100000000E-03 0. -1.
    9900012    2    1    2    0    0 -0.11280825015E+01  0.36942045687E+02 -0.16946362440E+02  0.50528849620E+02  0.29999968904E+02 0.  0.
        -12    1    1    2    0    0  0.11280825015E+01 -0.36942045687E+02  0.16946362440E+02  0.40659150380E+02  0.00000000000E+00 0.  1.
         11    1    3    3    0    0  0.57312734323E+01  0.31976470200E+01 -0.17736884960E+01  0.67984125179E+01  0.51100000000E-03 0. -1.
        -11    1    3    3    0    0  0.70636878062E+01  0.69289898535E+01  0.56371319632E-01  0.98949362707E+01  0.51100000000E-03 0.  1.
         12    1    3    3    0    0 -0.13923043740E+02  0.26815408814E+02 -0.15229045264E+02  0.33835500831E+02  0.00000000000E+00 0. -1.
</event>
<event>
 7    1  0.5855569E-013  0.5052886E+02  0.7816164E-02  0.1300439E+00
        -11   -1    0    0    0    0  0.00000000000E+00  0.00000000000E+00  0.45593999997E+02  0.45594000000E+02  0.51100000000E-03 0.  1.
         11   -1    0    0    0    0 -0.00000000000E+00 -0.00000000000E+00 -0.45593999997E+02  0.45594000000E+02  0.51100000000E-03 0. -1.
    9900012    2    1    2    0    0 -0.10703358374E+02 -0.14031478814E+02 -0.36629513251E+02  0.50528861799E+02  0.30000005925E+02 0.  0.
        -12    1    1    2    0    0  0.10703358374E+02  0.14031478814E+02  0.36629513251E+02  0.40659138201E+02  0.00000000000E+00 0.  1.
         11    1    3    3    0    0 -0.17923622673E+01 -0.28069331129E+00 -0.12152904670E+02  0.12287572722E+02  0.51100000000E-03 0. -1.
        -11    1    3    3    0    0 -0.16946183243E+02 -0.12664181260E+02 -0.16116981323E+02  0.26595332311E+02  0.51100000000E-03 0.  1.
         12    1    3    3    0    0  0.80351871367E+01 -0.10866042433E+01 -0.83596272585E+01  0.11645956766E+02  0.00000000000E+00 0. -1.
</event>
<event>
 7    1  0.5855569E-013  0.5052887E+02  0.7816164E-02  0.1300439E+00
        -11   -1    0    0    0    0  0.00000000000E+00  0.00000000000E+00  0.45593999997E+02  0.45594000000E+02  0.51100000000E-03 0.  1.
         11   -1    0    0    0    0 -0.00000000000E+00 -0.00000000000E+00 -0.45593999997E+02  0.45594000000E+02  0.51100000000E-03 0. -1.
    9900012    2    1    2    0    0 -0.20096114808E+01  0.34311477323E+02 -0.21722090855E+02  0.50528865165E+02  0.30000016157E+02 0.  0.
        -12    1    1    2    0    0  0.20096114808E+01 -0.34311477323E+02  0.21722090855E+02  0.40659134835E+02  0.00000000000E+00 0.  1.
         11    1    3    3    0    0 -0.56018316747E+01  0.14233089080E+01  0.28785107087E+00  0.57869840902E+01  0.51100000000E-03 0. -1.
        -11    1    3    3    0    0 -0.40232431300E-01 -0.20495386028E+01  0.14421232770E+01  0.25063812439E+01  0.51100000000E-03 0.  1.
         12    1    3    3    0    0  0.36324526252E+01  0.34937707018E+02 -0.23452065203E+02  0.42235499831E+02  0.00000000000E+00 0. -1.
</event>
<event>
 7    1  0.5855569E-013  0.5052886E+02  0.7816164E-02  0.1300439E+00
        -11   -1    0    0    0    0  0.00000000000E+00  0.00000000000E+00  0.45593999997E+02  0.45594000000E+02  0.51100000000E-03 0.  1.
         11   -1    0    0    0    0 -0.00000000000E+00 -0.00000000000E+00 -0.45593999997E+02  0.45594000000E+02  0.51100000000E-03 0. -1.
    9900012    2    1    2    0    0 -0.11750530857E+02 -0.34476993410E+02 -0.18067306303E+02  0.50528860719E+02  0.30000002641E+02 0.  0.
        -12    1    1    2    0    0  0.11750530857E+02  0.34476993410E+02  0.18067306303E+02  0.40659139281E+02  0.00000000000E+00 0.  1.
         11    1    3    3    0    0 -0.17684291271E+01 -0.15530253409E+02 -0.17781266093E+02  0.23674660223E+02  0.51100000000E-03 0. -1.
        -11    1    3    3    0    0 -0.12084898140E+02 -0.16084731399E+02 -0.52106779184E+01  0.20782553064E+02  0.51100000000E-03 0.  1.
        -12    1    3    3    0    0  0.21027964101E+01 -0.28620086022E+01  0.49246377083E+01  0.60716474321E+01  0.00000000000E+00 0.  1.
</event>
<event>
 7    1  0.5855569E-013  0.5052886E+02  0.7816164E-02  0.1300439E+00
        -11   -1    0    0    0    0  0.00000000000E+00  0.00000000000E+00  0.45593999997E+02  0.45594000000E+02  0.51100000000E-03 0. -1.
         11   -1    0    0    0    0 -0.00000000000E+00 -0.00000000000E+00 -0.45593999997E+02  0.45594000000E+02  0.51100000000E-03 0.  1.
    9900012    2    1    2    0    0 -0.14802934339E+02 -0.16422677840E+02  0.34122343358E+02  0.50528861683E+02  0.30000005570E+02 0.  0.
        -12    1    1    2    0    0  0.14802934339E+02  0.16422677840E+02 -0.34122343358E+02  0.40659138317E+02  0.00000000000E+00 0.  1.
         11    1    3    3    0    0  0.18312861415E+01 -0.52368389109E+01  0.35540106837E+01  0.65885569673E+01  0.51100000000E-03 0.  1.
        -11    1    3    3    0    0  0.23342830454E+01 -0.68936566646E+01  0.21080046167E+02  0.22301114910E+02  0.51100000000E-03 0. -1.
         12    1    3    3    0    0 -0.18968503526E+02 -0.42921822640E+01  0.94882865074E+01  0.21639189806E+02  0.00000000000E+00 0. -1.
</event>
<event>
 7    1  0.5855569E-013  0.5052885E+02  0.7816164E-02  0.1300439E+00
        -11   -1    0    0    0    0  0.00000000000E+00  0.00000000000E+00  0.45593999997E+02  0.45594000000E+02  0.51100000000E-03 0.  1.
         11   -1    0    0    0    0 -0.00000000000E+00 -0.00000000000E+00 -0.45593999997E+02  0.45594000000E+02  0.51100000000E-03 0. -1.
    9900012    2    1    2    0    0  0.37715119245E+01  0.18726720940E+02 -0.35892233473E+02  0.50528846012E+02  0.29999957937E+02 0.  0.
        -12    1    1    2    0    0 -0.37715119245E+01 -0.18726720940E+02  0.35892233473E+02  0.40659153988E+02  0.00000000000E+00 0.  1.
         11    1    3    3    0    0  0.41259517125E+01  0.38297648506E+01 -0.18849320834E+02  0.19671997166E+02  0.51100000000E-03 0. -1.
        -11    1    3    3    0    0 -0.46857385900E+01  0.76496014772E+01 -0.19992991035E+02  0.21913289112E+02  0.51100000000E-03 0.  1.
        -12    1    3    3    0    0  0.43312988020E+01  0.72473546118E+01  0.29500783956E+01  0.89435597344E+01  0.00000000000E+00 0.  1.
</event>
<event>
 7    1  0.5855569E-013  0.5052885E+02  0.7816164E-02  0.1300439E+00
        -11   -1    0    0    0    0  0.00000000000E+00  0.00000000000E+00  0.45593999997E+02  0.45594000000E+02  0.51100000000E-03 0.  1.
         11   -1    0    0    0    0 -0.00000000000E+00 -0.00000000000E+00 -0.45593999997E+02  0.45594000000E+02  0.51100000000E-03 0. -1.
    9900012    2    1    2    0    0 -0.27170343674E+02 -0.59460422948E+00 -0.30242113379E+02  0.50528849109E+02  0.29999967352E+02 0.  0.
        -12    1    1    2    0    0  0.27170343674E+02  0.59460422948E+00  0.30242113379E+02  0.40659150891E+02  0.00000000000E+00 0.  1.
         11    1    3    3    0    0 -0.53648134532E+01 -0.32722652524E+01  0.26012787537E+00  0.62894045857E+01  0.51100000000E-03 0. -1.
        -11    1    3    3    0    0  0.23632672827E+01 -0.26443789002E+01  0.14436738154E+01  0.38290947186E+01  0.51100000000E-03 0.  1.
         12    1    3    3    0    0 -0.24168797504E+02  0.53220399232E+01 -0.31945915069E+02  0.40410349805E+02  0.00000000000E+00 0. -1.
</event>
<event>
 7    1  0.5855569E-013  0.5052888E+02  0.7816164E-02  0.1300439E+00
        -11   -1    0    0    0    0  0.00000000000E+00  0.00000000000E+00  0.45593999997E+02  0.45594000000E+02  0.51100000000E-03 0. -1.
         11   -1    0    0    0    0 -0.00000000000E+00 -0.00000000000E+00 -0.45593999997E+02  0.45594000000E+02  0.51100000000E-03 0.  1.
    9900012    2    1    2    0    0  0.82669026954E+01 -0.36012957603E+02  0.16967308668E+02  0.50528876067E+02  0.30000049294E+02 0.  0.
        -12    1    1    2    0    0 -0.82669026954E+01  0.36012957603E+02 -0.16967308668E+02  0.40659123933E+02  0.00000000000E+00 0.  1.
         11    1    3    3    0    0 -0.84137425502E+00 -0.42190996449E+01 -0.65407127050E+00  0.43516114186E+01  0.51100000000E-03 0. -1.
        -11    1    3    3    0    0 -0.69097416758E+01 -0.23094589385E+02  0.12932246683E+02  0.27355942561E+02  0.51100000000E-03 0.  1.
        -12    1    3    3    0    0  0.16018018626E+02 -0.86992685733E+01  0.46891332563E+01  0.18821322087E+02  0.00000000000E+00 0.  1.
</event>
<event>
 7    1  0.5855569E-013  0.5052886E+02  0.7816164E-02  0.1300439E+00
        -11   -1    0    0    0    0  0.00000000000E+00  0.00000000000E+00  0.45593999997E+02  0.45594000000E+02  0.51100000000E-03 0. -1.
         11   -1    0    0    0    0 -0.00000000000E+00 -0.00000000000E+00 -0.45593999997E+02  0.45594000000E+02  0.51100000000E-03 0.  1.
    9900012    2    1    2    0    0  0.14236069070E+02 -0.34389412505E+02  0.16366674696E+02  0.50528863320E+02  0.30000010546E+02 0.  0.
        -12    1    1    2    0    0 -0.14236069070E+02  0.34389412505E+02 -0.16366674696E+02  0.40659136680E+02  0.00000000000E+00 0.  1.
         11    1    3    3    0    0  0.70943734809E+01 -0.57763449087E+01 -0.74112212047E+01  0.11773805485E+02  0.51100000000E-03 0. -1.
        -11    1    3    3    0    0  0.34182827976E+01 -0.26610089895E+01  0.25999754020E+01  0.50522765640E+01  0.51100000000E-03 0.  1.
         12    1    3    3    0    0  0.37234127915E+01 -0.25952058606E+02  0.21177920499E+02  0.33702781271E+02  0.00000000000E+00 0. -1.
</event>
<event>
 7    1  0.5855569E-013  0.5052886E+02  0.7816164E-02  0.1300439E+00
        -11   -1    0    0    0    0  0.00000000000E+00  0.00000000000E+00  0.45593999997E+02  0.45594000000E+02  0.51100000000E-03 0.  1.
         11   -1    0    0    0    0 -0.00000000000E+00 -0.00000000000E+00 -0.45593999997E+02  0.45594000000E+02  0.51100000000E-03 0. -1.
    9900012    2    1    2    0    0  0.24827359056E+02 -0.12616222549E+02 -0.29624288670E+02  0.50528864393E+02  0.30000013809E+02 0.  0.
        -12    1    1    2    0    0 -0.24827359056E+02  0.12616222549E+02  0.29624288670E+02  0.40659135607E+02  0.00000000000E+00 0.  1.
         11    1    3    3    0    0  0.46440594020E+01 -0.28586558557E+01 -0.74050398070E+01  0.91964023311E+01  0.51100000000E-03 0. -1.
        -11    1    3    3    0    0  0.13861578874E+02  0.93820591600E-02 -0.25690333240E+02  0.29191380220E+02  0.51100000000E-03 0.  1.
        -12    1    3    3    0    0  0.63217207799E+01 -0.97669487525E+01  0.34710843764E+01  0.12141081842E+02  0.00000000000E+00 0.  1.
</event>
<event>
 7    1  0.5855569E-013  0.5052886E+02  0.7816164E-02  0.1300439E+00
        -11   -1    0    0    0    0  0.00000000000E+00  0.00000000000E+00  0.45593999997E+02  0.45594000000E+02  0.51100000000E-03 0.  1.
         11   -1    0    0    0    0 -0.00000000000E+00 -0.00000000000E+00 -0.45593999997E+02  0.45594000000E+02  0.51100000000E-03 0. -1.
    9900012    2    1    2    0    0 -0.16618841410E+02  0.36046799894E+02 -0.88095177859E+01  0.50528864790E+02  0.30000015017E+02 0.  0.
        -12    1    1    2    0    0  0.16618841410E+02 -0.36046799894E+02  0.88095177859E+01  0.40659135210E+02  0.00000000000E+00 0.  1.
         11    1    3    3    0    0 -0.19593375417E+02  0.18178120394E+02 -0.40071155739E+01  0.27025939332E+02  0.51100000000E-03 0.  1.
        -11    1    3    3    0    0 -0.49423320805E+01  0.29474196660E+01 -0.30718953832E+01  0.65230721740E+01  0.51100000000E-03 0. -1.
         12    1    3    3    0    0  0.79168660876E+01  0.14921259834E+02 -0.17305068288E+01  0.16979853284E+02  0.00000000000E+00 0. -1.
</event>
<event>
 7    1  0.5855569E-013  0.5052887E+02  0.7816164E-02  0.1300439E+00
        -11   -1    0    0    0    0  0.00000000000E+00  0.00000000000E+00  0.45593999997E+02  0.45594000000E+02  0.51100000000E-03 0.  1.
         11   -1    0    0    0    0 -0.00000000000E+00 -0.00000000000E+00 -0.45593999997E+02  0.45594000000E+02  0.51100000000E-03 0. -1.
    9900012    2    1    2    0    0 -0.89579324679E+01  0.26614010966E+02 -0.29404338086E+02  0.50528865331E+02  0.30000016659E+02 0.  0.
        -12    1    1    2    0    0  0.89579324679E+01 -0.26614010966E+02  0.29404338086E+02  0.40659134669E+02  0.00000000000E+00 0.  1.
         11    1    3    3    0    0  0.24641037580E+01  0.19322185765E+02 -0.69759732579E+01  0.20690163683E+02  0.51100000000E-03 0. -1.
        -11    1    3    3    0    0 -0.74293825345E+00  0.82952476020E+01 -0.13595886043E+02  0.15944002245E+02  0.51100000000E-03 0.  1.
        -12    1    3    3    0    0 -0.10679097972E+02 -0.10034224006E+01 -0.88324787850E+01  0.13894699403E+02  0.00000000000E+00 0.  1.
</event>
<event>
 7    1  0.5855569E-013  0.5052887E+02  0.7816164E-02  0.1300439E+00
        -11   -1    0    0    0    0  0.00000000000E+00  0.00000000000E+00  0.45593999997E+02  0.45594000000E+02  0.51100000000E-03 0. -1.
         11   -1    0    0    0    0 -0.00000000000E+00 -0.00000000000E+00 -0.45593999997E+02  0.45594000000E+02  0.51100000000E-03 0.  1.
    9900012    2    1    2    0    0  0.15490597993E+02  0.26423056345E+02  0.26740019490E+02  0.50528866031E+02  0.30000018788E+02 0.  0.
        -12    1    1    2    0    0 -0.15490597993E+02 -0.26423056345E+02 -0.26740019490E+02  0.40659133969E+02  0.00000000000E+00 0.  1.
         11    1    3    3    0    0  0.23049582881E+01  0.53089391957E+01  0.76084447587E+01  0.95596077326E+01  0.51100000000E-03 0. -1.
        -11    1    3    3    0    0 -0.22703061573E+01  0.98044813458E+01  0.19356106529E+02  0.21816072166E+02  0.51100000000E-03 0.  1.
        -12    1    3    3    0    0  0.15455945862E+02  0.11309635804E+02 -0.22453179802E+00  0.19153186133E+02  0.00000000000E+00 0.  1.
</event>
<event>
 7    1  0.5855569E-013  0.5052885E+02  0.7816164E-02  0.1300439E+00
        -11   -1    0    0    0    0  0.00000000000E+00  0.00000000000E+00  0.45593999997E+02  0.45594000000E+02  0.51100000000E-03 0. -1.
         11   -1    0    0    0    0 -0.00000000000E+00 -0.00000000000E+00 -0.45593999997E+02  0.45594000000E+02  0.51100000000E-03 0.  1.
    9900012    2    1    2    0    0 -0.22432108914E+02 -0.26342495663E+02 -0.21355084930E+02  0.50528852930E+02  0.29999978967E+02 0.  0.
        -12    1    1    2    0    0  0.22432108914E+02  0.26342495663E+02  0.21355084930E+02  0.40659147070E+02  0.00000000000E+00 0.  1.
         11    1    3    3    0    0 -0.78019712947E+01 -0.20896199433E+02 -0.24707218489E+01  0.22441621456E+02  0.51100000000E-03 0. -1.
        -11    1    3    3    0    0 -0.80240673748E+01 -0.68912677156E+01 -0.32693379336E+01  0.11070853569E+02  0.51100000000E-03 0.  1.
        -12    1    3    3    0    0 -0.66060702440E+01  0.14449714859E+01 -0.15615025148E+02  0.17016377906E+02  0.00000000000E+00 0.  1.
</event>
<event>
 7    1  0.5855569E-013  0.5052886E+02  0.7816164E-02  0.1300439E+00
        -11   -1    0    0    0    0  0.00000000000E+00  0.00000000000E+00  0.45593999997E+02  0.45594000000E+02  0.51100000000E-03 0. -1.
         11   -1    0    0    0    0 -0.00000000000E+00 -0.00000000000E+00 -0.45593999997E+02  0.45594000000E+02  0.51100000000E-03 0.  1.
    9900012    2    1    2    0    0  0.34878703152E+02 -0.12794000824E+02  0.16521364898E+02  0.50528857255E+02  0.29999992112E+02 0.  0.
        -12    1    1    2    0    0 -0.34878703152E+02  0.12794000824E+02 -0.16521364898E+02  0.40659142745E+02  0.00000000000E+00 0.  1.
         11    1    3    3    0    0 -0.13037808318E+01  0.66966376720E+00 -0.12739012462E+01  0.19419368333E+01  0.51100000000E-03 0. -1.
        -11    1    3    3    0    0  0.47002185093E+01  0.41424224133E+01 -0.30049884326E+01  0.69485015094E+01  0.51100000000E-03 0.  1.
         12    1    3    3    0    0  0.31482265475E+02 -0.17606087005E+02  0.20800254577E+02  0.41638418912E+02  0.00000000000E+00 0. -1.
</event>
<event>
 7    1  0.5876989E-013  0.5052893E+02  0.7816164E-02  0.1300439E+00
        -11   -1    0    0    0    0  0.00000000000E+00  0.00000000000E+00  0.45593999997E+02  0.45594000000E+02  0.51100000000E-03 0. -1.
         11   -1    0    0    0    0 -0.00000000000E+00 -0.00000000000E+00 -0.45593999997E+02  0.45594000000E+02  0.51100000000E-03 0.  1.
    9900012    2    1    2    0    0 -0.32718091356E+02 -0.10618690127E+02  0.21677863801E+02  0.50528931382E+02  0.30000217427E+02 0.  0.
        -12    1    1    2    0    0  0.32718091356E+02  0.10618690127E+02 -0.21677863801E+02  0.40659068618E+02  0.00000000000E+00 0.  1.
         11    1    3    3    0    0 -0.76948829636E+01  0.41167316710E+01 -0.33773829123E+01  0.93576396101E+01  0.51100000000E-03 0. -1.
        -11    1    3    3    0    0  0.64280494702E+00 -0.35995536028E+01  0.63929191330E-01  0.36570577712E+01  0.51100000000E-03 0.  1.
         12    1    3    3    0    0 -0.25666013339E+02 -0.11135868195E+02  0.24991317522E+02  0.37514234000E+02  0.00000000000E+00 0. -1.
</event>
<event>
 7    1  0.5855569E-013  0.5052886E+02  0.7816164E-02  0.1300439E+00
        -11   -1    0    0    0    0  0.00000000000E+00  0.00000000000E+00  0.45593999997E+02  0.45594000000E+02  0.51100000000E-03 0.  1.
         11   -1    0    0    0    0 -0.00000000000E+00 -0.00000000000E+00 -0.45593999997E+02  0.45594000000E+02  0.51100000000E-03 0. -1.
    9900012    2    1    2    0    0  0.13851777656E+02 -0.11125306897E+02 -0.36572141087E+02  0.50528859558E+02  0.29999999113E+02 0.  0.
        -12    1    1    2    0    0 -0.13851777656E+02  0.11125306897E+02  0.36572141087E+02  0.40659140442E+02  0.00000000000E+00 0.  1.
         11    1    3    3    0    0  0.33782336714E+01 -0.11332820098E+00 -0.16172411282E+02  0.16521870141E+02  0.51100000000E-03 0. -1.
        -11    1    3    3    0    0  0.42280236404E+01 -0.72697181213E+00 -0.21500156873E+02  0.21923991830E+02  0.51100000000E-03 0.  1.
        -12    1    3    3    0    0  0.62455203447E+01 -0.10285006884E+02  0.11004270682E+01  0.12082997588E+02  0.00000000000E+00 0.  1.
</event>
<event>
 7    1  0.5855569E-013  0.5052886E+02  0.7816164E-02  0.1300439E+00
        -11   -1    0    0    0    0  0.00000000000E+00  0.00000000000E+00  0.45593999997E+02  0.45594000000E+02  0.51100000000E-03 0. -1.
         11   -1    0    0    0    0 -0.00000000000E+00 -0.00000000000E+00 -0.45593999997E+02  0.45594000000E+02  0.51100000000E-03 0.  1.
    9900012    2    1    2    0    0 -0.35720959431E+02  0.19404580700E+02 -0.80052381581E+00  0.50528861628E+02  0.30000005403E+02 0.  0.
        -12    1    1    2    0    0  0.35720959431E+02 -0.19404580700E+02  0.80052381581E+00  0.40659138372E+02  0.00000000000E+00 0.  1.
         11    1    3    3    0    0 -0.12615230384E+02  0.26231242061E+01  0.49637851211E+01  0.13808112877E+02  0.51100000000E-03 0. -1.
        -11    1    3    3    0    0 -0.13252591610E+02 -0.33021094186E+01 -0.15861127554E+00  0.13658706703E+02  0.51100000000E-03 0.  1.
        -12    1    3    3    0    0 -0.98531374365E+01  0.20083565913E+02 -0.56056976613E+01  0.23062042047E+02  0.00000000000E+00 0.  1.
</event>
<event>
 7    1  0.5855569E-013  0.5052886E+02  0.7816164E-02  0.1300439E+00
        -11   -1    0    0    0    0  0.00000000000E+00  0.00000000000E+00  0.45593999997E+02  0.45594000000E+02  0.51100000000E-03 0.  1.
         11   -1    0    0    0    0 -0.00000000000E+00 -0.00000000000E+00 -0.45593999997E+02  0.45594000000E+02  0.51100000000E-03 0. -1.
    9900012    2    1    2    0    0 -0.13324649517E+02  0.26926075247E+02 -0.27397187067E+02  0.50528859919E+02  0.30000000209E+02 0.  0.
        -12    1    1    2    0    0  0.13324649517E+02 -0.26926075247E+02  0.27397187067E+02  0.40659140081E+02  0.00000000000E+00 0.  1.
         11    1    3    3    0    0 -0.78706512466E+00  0.94537625225E+00 -0.62692287675E+01  0.63887743245E+01  0.51100000000E-03 0. -1.
        -11    1    3    3    0    0 -0.13319469699E+02  0.21311829084E+01 -0.13510363398E+02  0.19091362787E+02  0.51100000000E-03 0.  1.
         12    1    3    3    0    0  0.78188530728E+00  0.23849516086E+02 -0.76175949015E+01  0.25048722807E+02  0.00000000000E+00 0. -1.
</event>
<event>
 7    1  0.5855569E-013  0.5052886E+02  0.7816164E-02  0.1300439E+00
        -11   -1    0    0    0    0  0.00000000000E+00  0.00000000000E+00  0.45593999997E+02  0.45594000000E+02  0.51100000000E-03 0.  1.
         11   -1    0    0    0    0 -0.00000000000E+00 -0.00000000000E+00 -0.45593999997E+02  0.45594000000E+02  0.51100000000E-03 0. -1.
    9900012    2    1    2    0    0 -0.25389149584E+02  0.31280226964E+02 -0.54867436120E+01  0.50528857473E+02  0.29999992776E+02 0.  0.
        -12    1    1    2    0    0  0.25389149584E+02 -0.31280226964E+02  0.54867436120E+01  0.40659142527E+02  0.00000000000E+00 0.  1.
         11    1    3    3    0    0 -0.14043415188E+02  0.78382123854E+01 -0.51090096338E+01  0.16874746317E+02  0.51100000000E-03 0. -1.
        -11    1    3    3    0    0 -0.17671252253E+02  0.17963970500E+02  0.75415983103E+00  0.25210040651E+02  0.51100000000E-03 0.  1.
        -12    1    3    3    0    0  0.63255178582E+01  0.54780440796E+01 -0.11318938092E+01  0.84440705058E+01  0.00000000000E+00 0.  1.
</event>
<event>
 7    1  0.5855569E-013  0.5052888E+02  0.7816164E-02  0.1300439E+00
        -11   -1    0    0    0    0  0.00000000000E+00  0.00000000000E+00  0.45593999997E+02  0.45594000000E+02  0.51100000000E-03 0. -1.
         11   -1    0    0    0    0 -0.00000000000E+00 -0.00000000000E+00 -0.45593999997E+02  0.45594000000E+02  0.51100000000E-03 0.  1.
    9900012    2    1    2    0    0 -0.29845415142E+02 -0.25965734452E+02  0.93912574989E+01  0.50528881859E+02  0.30000066897E+02 0.  0.
        -12    1    1    2    0    0  0.29845415142E+02  0.25965734452E+02 -0.93912574989E+01  0.40659118141E+02  0.00000000000E+00 0.  1.
         11    1    3    3    0    0 -0.12322252486E+02 -0.12683107326E+02  0.14801536787E+02  0.23060455531E+02  0.51100000000E-03 0. -1.
        -11    1    3    3    0    0 -0.69503298310E+01  0.29553687688E+01 -0.16265733541E+01  0.77257381820E+01  0.51100000000E-03 0.  1.
         12    1    3    3    0    0 -0.10572832824E+02 -0.16237995895E+02 -0.37837059340E+01  0.19742688146E+02  0.00000000000E+00 0. -1.
</event>
<event>
 7    1  0.5855569E-013  0.5052889E+02  0.7816164E-02  0.1300439E+00
        -11   -1    0    0    0    0  0.00000000000E+00  0.00000000000E+00  0.45593999997E+02  0.45594000000E+02  0.51100000000E-03 0.  1.
         11   -1    0    0    0    0 -0.00000000000E+00 -0.00000000000E+00 -0.45593999997E+02  0.45594000000E+02  0.51100000000E-03 0. -1.
    9900012    2    1    2    0    0 -0.22386539459E+02 -0.18711784439E+02 -0.28317396219E+02  0.50528893339E+02  0.30000101793E+02 0.  0.
        -12    1    1    2    0    0  0.22386539459E+02  0.18711784439E+02  0.28317396219E+02  0.40659106661E+02  0.00000000000E+00 0.  1.
         11    1    3    3    0    0 -0.14527209071E+02 -0.19653267878E+02 -0.86361989628E+01  0.25920545412E+02  0.51100000000E-03 0. -1.
        -11    1    3    3    0    0  0.76882273062E+00 -0.41357819885E+01 -0.30481502267E+01  0.51949014536E+01  0.51100000000E-03 0.  1.
        -12    1    3    3    0    0 -0.86281531191E+01  0.50772654280E+01 -0.16633047030E+02  0.19413446473E+02  0.00000000000E+00 0.  1.
</event>
<event>
 7    1  0.5855569E-013  0.5052886E+02  0.7816164E-02  0.1300439E+00
        -11   -1    0    0    0    0  0.00000000000E+00  0.00000000000E+00  0.45593999997E+02  0.45594000000E+02  0.51100000000E-03 0.  1.
         11   -1    0    0    0    0 -0.00000000000E+00 -0.00000000000E+00 -0.45593999997E+02  0.45594000000E+02  0.51100000000E-03 0. -1.
    9900012    2    1    2    0    0  0.36459609537E+02  0.10246284930E+02 -0.14794463674E+02  0.50528860341E+02  0.30000001491E+02 0.  0.
        -12    1    1    2    0    0 -0.36459609537E+02 -0.10246284930E+02  0.14794463674E+02  0.40659139659E+02  0.00000000000E+00 0.  1.
         11    1    3    3    0    0  0.94863339476E+01  0.95564633147E+00 -0.12171177372E+02  0.15460962149E+02  0.51100000000E-03 0. -1.
        -11    1    3    3    0    0 -0.96559568212E+00 -0.39396378398E+01 -0.34932615099E+00  0.40712590621E+01  0.51100000000E-03 0.  1.
        -12    1    3    3    0    0  0.27938871272E+02  0.13230276438E+02 -0.22739601501E+01  0.30996639130E+02  0.00000000000E+00 0.  1.
</event>
<event>
 7    1  0.5855569E-013  0.5052886E+02  0.7816164E-02  0.1300439E+00
        -11   -1    0    0    0    0  0.00000000000E+00  0.00000000000E+00  0.45593999997E+02  0.45594000000E+02  0.51100000000E-03 0.  1.
         11   -1    0    0    0    0 -0.00000000000E+00 -0.00000000000E+00 -0.45593999997E+02  0.45594000000E+02  0.51100000000E-03 0. -1.
    9900012    2    1    2    0    0 -0.33894062590E+01  0.28433566833E+02 -0.28865373618E+02  0.50528860908E+02  0.30000003215E+02 0.  0.
        -12    1    1    2    0    0  0.33894062590E+01 -0.28433566833E+02  0.28865373618E+02  0.40659139092E+02  0.00000000000E+00 0.  1.
         11    1    3    3    0    0  0.30531211024E+01  0.87930406720E+01 -0.21729512234E+02  0.23639179659E+02  0.51100000000E-03 0. -1.
        -11    1    3    3    0    0 -0.39007506309E+01 -0.18252374234E+01 -0.10296871416E+01  0.44280473131E+01  0.51100000000E-03 0.  1.
        -12    1    3    3    0    0 -0.25417767305E+01  0.21465763584E+02 -0.61061742423E+01  0.22461633936E+02  0.00000000000E+00 0.  1.
</event>
<event>
 7    1  0.5855569E-013  0.5052886E+02  0.7816164E-02  0.1300439E+00
        -11   -1    0    0    0    0  0.00000000000E+00  0.00000000000E+00  0.45593999997E+02  0.45594000000E+02  0.51100000000E-03 0. -1.
         11   -1    0    0    0    0 -0.00000000000E+00 -0.00000000000E+00 -0.45593999997E+02  0.45594000000E+02  0.51100000000E-03 0.  1.
    9900012    2    1    2    0    0  0.27218051235E+02  0.21372671985E+02  0.21343673375E+02  0.50528858174E+02  0.29999994907E+02 0.  0.
        -12    1    1    2    0    0 -0.27218051235E+02 -0.21372671985E+02 -0.21343673375E+02  0.40659141826E+02  0.00000000000E+00 0.  1.
         11    1    3    3    0    0 -0.38998490643E+00 -0.10619481655E+01  0.64107747630E+01  0.65098276057E+01  0.51100000000E-03 0. -1.
        -11    1    3    3    0    0  0.94071357462E+01 -0.30174311429E+01  0.16058594342E+01  0.10008889970E+02  0.51100000000E-03 0.  1.
         12    1    3    3    0    0  0.18200900396E+02  0.25452051294E+02  0.13327039178E+02  0.34010140598E+02  0.00000000000E+00 0. -1.
</event>
<event>
 7    1  0.5855569E-013  0.5052886E+02  0.7816164E-02  0.1300439E+00
        -11   -1    0    0    0    0  0.00000000000E+00  0.00000000000E+00  0.45593999997E+02  0.45594000000E+02  0.51100000000E-03 0. -1.
         11   -1    0    0    0    0 -0.00000000000E+00 -0.00000000000E+00 -0.45593999997E+02  0.45594000000E+02  0.51100000000E-03 0.  1.
    9900012    2    1    2    0    0 -0.33834753275E+02 -0.45001319689E+01  0.22093534702E+02  0.50528855979E+02  0.29999988233E+02 0.  0.
        -12    1    1    2    0    0  0.33834753275E+02  0.45001319689E+01 -0.22093534702E+02  0.40659144021E+02  0.00000000000E+00 0.  1.
         11    1    3    3    0    0 -0.61530389218E+01 -0.63559089381E+01 -0.16872755260E+01  0.90057962094E+01  0.51100000000E-03 0. -1.
        -11    1    3    3    0    0 -0.13878614222E+02 -0.78420358022E+01  0.60524014431E+01  0.17051246926E+02  0.51100000000E-03 0.  1.
         12    1    3    3    0    0 -0.13803100131E+02  0.96978127714E+01  0.17728408785E+02  0.24471812843E+02  0.00000000000E+00 0. -1.
</event>
<event>
 7    1  0.5855569E-013  0.5052886E+02  0.7816164E-02  0.1300439E+00
        -11   -1    0    0    0    0  0.00000000000E+00  0.00000000000E+00  0.45593999997E+02  0.45594000000E+02  0.51100000000E-03 0.  1.
         11   -1    0    0    0    0 -0.00000000000E+00 -0.00000000000E+00 -0.45593999997E+02  0.45594000000E+02  0.51100000000E-03 0. -1.
    9900012    2    1    2    0    0 -0.21055322172E+02  0.33903881779E+01 -0.34617105547E+02  0.50528864246E+02  0.30000013363E+02 0.  0.
        -12    1    1    2    0    0  0.21055322172E+02 -0.33903881779E+01  0.34617105547E+02  0.40659135754E+02  0.00000000000E+00 0.  1.
         11    1    3    3    0    0 -0.11198773415E+02  0.43380589285E+00 -0.18153767609E+02  0.21334478954E+02  0.51100000000E-03 0. -1.
        -11    1    3    3    0    0 -0.33742233355E+01 -0.47658076422E+01 -0.18065166147E+02  0.18985482185E+02  0.51100000000E-03 0.  1.
        -12    1    3    3    0    0 -0.64823254208E+01  0.77223899272E+01  0.16018282091E+01  0.10208903108E+02  0.00000000000E+00 0.  1.
</event>
<event>
 7    1  0.5855569E-013  0.5052885E+02  0.7816164E-02  0.1300439E+00
        -11   -1    0    0    0    0  0.00000000000E+00  0.00000000000E+00  0.45593999997E+02  0.45594000000E+02  0.51100000000E-03 0.  1.
         11   -1    0    0    0    0 -0.00000000000E+00 -0.00000000000E+00 -0.45593999997E+02  0.45594000000E+02  0.51100000000E-03 0. -1.
    9900012    2    1    2    0    0  0.14767937486E+02 -0.27331661878E+02 -0.26230797654E+02  0.50528850179E+02  0.29999970605E+02 0.  0.
        -12    1    1    2    0    0 -0.14767937486E+02  0.27331661878E+02  0.26230797654E+02  0.40659149821E+02  0.00000000000E+00 0.  1.
         11    1    3    3    0    0  0.13925102415E+02 -0.55126983823E+01 -0.43047930607E+01  0.15582989581E+02  0.51100000000E-03 0. -1.
        -11    1    3    3    0    0 -0.39552404434E+01 -0.30981044841E+01 -0.12442278012E+02  0.13418362819E+02  0.51100000000E-03 0.  1.
        -12    1    3    3    0    0  0.47980755145E+01 -0.18720859011E+02 -0.94837265811E+01  0.21527497779E+02  0.00000000000E+00 0.  1.
</event>
<event>
 7    1  0.5855569E-013  0.5052886E+02  0.7816164E-02  0.1300439E+00
        -11   -1    0    0    0    0  0.00000000000E+00  0.00000000000E+00  0.45593999997E+02  0.45594000000E+02  0.51100000000E-03 0.  1.
         11   -1    0    0    0    0 -0.00000000000E+00 -0.00000000000E+00 -0.45593999997E+02  0.45594000000E+02  0.51100000000E-03 0. -1.
    9900012    2    1    2    0    0 -0.37285740735E+02  0.15165209121E+02 -0.57406997862E+01  0.50528860021E+02  0.30000000518E+02 0.  0.
        -12    1    1    2    0    0  0.37285740735E+02 -0.15165209121E+02  0.57406997862E+01  0.40659139979E+02  0.00000000000E+00 0.  1.
         11    1    3    3    0    0 -0.11238735357E+02  0.76604551335E+01 -0.95394732229E+01  0.16613045925E+02  0.51100000000E-03 0. -1.
        -11    1    3    3    0    0 -0.16333103624E+02 -0.10895737559E+01 -0.62360695375E+01  0.17517020537E+02  0.51100000000E-03 0.  1.
        -12    1    3    3    0    0 -0.97139017537E+01  0.85943277439E+01  0.10034842974E+02  0.16398793558E+02  0.00000000000E+00 0.  1.
</event>
<event>
 7    1  0.5855569E-013  0.5052886E+02  0.7816164E-02  0.1300439E+00
        -11   -1    0    0    0    0  0.00000000000E+00  0.00000000000E+00  0.45593999997E+02  0.45594000000E+02  0.51100000000E-03 0. -1.
         11   -1    0    0    0    0 -0.00000000000E+00 -0.00000000000E+00 -0.45593999997E+02  0.45594000000E+02  0.51100000000E-03 0.  1.
    9900012    2    1    2    0    0  0.33140702492E+02  0.22486817274E+02 -0.70144636330E+01  0.50528858188E+02  0.29999994949E+02 0.  0.
        -12    1    1    2    0    0 -0.33140702492E+02 -0.22486817274E+02  0.70144636330E+01  0.40659141812E+02  0.00000000000E+00 0.  1.
         11    1    3    3    0    0 -0.12888685083E+01  0.13408781700E+01 -0.62311334505E+01  0.65027809925E+01  0.51100000000E-03 0.  1.
        -11    1    3    3    0    0  0.20463651048E+02  0.33843877838E+01 -0.42341695987E+01  0.21169395063E+02  0.51100000000E-03 0. -1.
        -12    1    3    3    0    0  0.13965919953E+02  0.17761551320E+02  0.34508394161E+01  0.22856682133E+02  0.00000000000E+00 0.  1.
</event>
<event>
 7    1  0.5855569E-013  0.5052886E+02  0.7816164E-02  0.1300439E+00
        -11   -1    0    0    0    0  0.00000000000E+00  0.00000000000E+00  0.45593999997E+02  0.45594000000E+02  0.51100000000E-03 0.  1.
         11   -1    0    0    0    0 -0.00000000000E+00 -0.00000000000E+00 -0.45593999997E+02  0.45594000000E+02  0.51100000000E-03 0. -1.
    9900012    2    1    2    0    0  0.25845455882E+02  0.77253377806E+01 -0.30421984971E+02  0.50528860767E+02  0.30000002787E+02 0.  0.
        -12    1    1    2    0    0 -0.25845455882E+02 -0.77253377806E+01  0.30421984971E+02  0.40659139233E+02  0.00000000000E+00 0.  1.
         11    1    3    3    0    0  0.15795668152E+00 -0.34873334628E+01  0.14753692253E+01  0.37898759355E+01  0.51100000000E-03 0. -1.
        -11    1    3    3    0    0  0.81685731487E+01  0.13114540058E+02 -0.91219993288E+01  0.17942341548E+02  0.51100000000E-03 0.  1.
         12    1    3    3    0    0  0.17518926052E+02 -0.19018688148E+01 -0.22775354868E+02  0.28796643283E+02  0.00000000000E+00 0. -1.
</event>
<event>
 7    1  0.5855569E-013  0.5052886E+02  0.7816164E-02  0.1300439E+00
        -11   -1    0    0    0    0  0.00000000000E+00  0.00000000000E+00  0.45593999997E+02  0.45594000000E+02  0.51100000000E-03 0.  1.
         11   -1    0    0    0    0 -0.00000000000E+00 -0.00000000000E+00 -0.45593999997E+02  0.45594000000E+02  0.51100000000E-03 0. -1.
    9900012    2    1    2    0    0 -0.28269208190E+02  0.25621829882E+02 -0.14054857955E+02  0.50528864123E+02  0.30000012987E+02 0.  0.
        -12    1    1    2    0    0  0.28269208190E+02 -0.25621829882E+02  0.14054857955E+02  0.40659135877E+02  0.00000000000E+00 0.  1.
         11    1    3    3    0    0 -0.15188695142E+02  0.42699779503E+01 -0.69806684295E+01  0.17252794086E+02  0.51100000000E-03 0. -1.
        -11    1    3    3    0    0 -0.13188833692E+02  0.11258955941E+02 -0.12908213389E+02  0.21617849019E+02  0.51100000000E-03 0.  1.
        -12    1    3    3    0    0  0.10832064404E+00  0.10092895991E+02  0.58340238644E+01  0.11658221017E+02  0.00000000000E+00 0.  1.
</event>
<event>
 7    1  0.5855569E-013  0.5052886E+02  0.7816164E-02  0.1300439E+00
        -11   -1    0    0    0    0  0.00000000000E+00  0.00000000000E+00  0.45593999997E+02  0.45594000000E+02  0.51100000000E-03 0.  1.
         11   -1    0    0    0    0 -0.00000000000E+00 -0.00000000000E+00 -0.45593999997E+02  0.45594000000E+02  0.51100000000E-03 0. -1.
    9900012    2    1    2    0    0 -0.31187537172E+02  0.28172053656E+01 -0.25933883661E+02  0.50528862740E+02  0.30000008786E+02 0.  0.
        -12    1    1    2    0    0  0.31187537172E+02 -0.28172053656E+01  0.25933883661E+02  0.40659137260E+02  0.00000000000E+00 0.  1.
         11    1    3    3    0    0  0.22228962649E+01  0.40533609932E+01 -0.19298234977E+01  0.50095131639E+01  0.51100000000E-03 0. -1.
        -11    1    3    3    0    0  0.37954915961E+00  0.31381736056E-01 -0.81752233973E+01  0.81840894567E+01  0.51100000000E-03 0.  1.
         12    1    3    3    0    0 -0.33789982597E+02 -0.12675373637E+01 -0.15828836766E+02  0.37335260120E+02  0.00000000000E+00 0. -1.
</event>
<event>
 7    1  0.5855569E-013  0.5052886E+02  0.7816164E-02  0.1300439E+00
        -11   -1    0    0    0    0  0.00000000000E+00  0.00000000000E+00  0.45593999997E+02  0.45594000000E+02  0.51100000000E-03 0. -1.
         11   -1    0    0    0    0 -0.00000000000E+00 -0.00000000000E+00 -0.45593999997E+02  0.45594000000E+02  0.51100000000E-03 0.  1.
    9900012    2    1    2    0    0 -0.25149834775E+02  0.19103829026E+02  0.25606547039E+02  0.50528859282E+02  0.29999998274E+02 0.  0.
        -12    1    1    2    0    0  0.25149834775E+02 -0.19103829026E+02 -0.25606547039E+02  0.40659140718E+02  0.00000000000E+00 0.  1.
         11    1    3    3    0    0 -0.10380451856E+02  0.10064844273E+02  0.18730159364E+02  0.23661651275E+02  0.51100000000E-03 0. -1.
        -11    1    3    3    0    0 -0.72215631260E+01  0.15426921003E+00  0.12100363727E+02  0.14092323284E+02  0.51100000000E-03 0.  1.
         12    1    3    3    0    0 -0.75478197926E+01  0.88847155432E+01 -0.52239760516E+01  0.12774884723E+02  0.00000000000E+00 0. -1.
</event>
<event>
 7    1  0.5855569E-013  0.5052886E+02  0.7816164E-02  0.1300439E+00
        -11   -1    0    0    0    0  0.00000000000E+00  0.00000000000E+00  0.45593999997E+02  0.45594000000E+02  0.51100000000E-03 0.  1.
         11   -1    0    0    0    0 -0.00000000000E+00 -0.00000000000E+00 -0.45593999997E+02  0.45594000000E+02  0.51100000000E-03 0. -1.
    9900012    2    1    2    0    0  0.13265249877E+02  0.26456933593E+02 -0.27878833211E+02  0.50528861658E+02  0.30000005496E+02 0.  0.
        -12    1    1    2    0    0 -0.13265249877E+02 -0.26456933593E+02  0.27878833211E+02  0.40659138342E+02  0.00000000000E+00 0.  1.
         11    1    3    3    0    0  0.50177389504E+01  0.39016940060E+01  0.34523481150E+01  0.72332308175E+01  0.51100000000E-03 0. -1.
        -11    1    3    3    0    0 -0.32270673740E+01  0.64201251857E+01 -0.12652637510E+01  0.72960855160E+01  0.51100000000E-03 0.  1.
         12    1    3    3    0    0  0.11474578301E+02  0.16135114401E+02 -0.30065917575E+02  0.35999545325E+02  0.00000000000E+00 0. -1.
</event>
<event>
 7    1  0.5855569E-013  0.5052888E+02  0.7816164E-02  0.1300439E+00
        -11   -1    0    0    0    0  0.00000000000E+00  0.00000000000E+00  0.45593999997E+02  0.45594000000E+02  0.51100000000E-03 0.  1.
         11   -1    0    0    0    0 -0.00000000000E+00 -0.00000000000E+00 -0.45593999997E+02  0.45594000000E+02  0.51100000000E-03 0. -1.
    9900012    2    1    2    0    0 -0.58364727561E+00  0.37310029418E+02  0.16148854360E+02  0.50528875114E+02  0.30000046397E+02 0.  0.
        -12    1    1    2    0    0  0.58364727561E+00 -0.37310029418E+02 -0.16148854360E+02  0.40659124886E+02  0.00000000000E+00 0.  1.
         11    1    3    3    0    0 -0.11419276313E+02  0.29433207865E+02  0.10554547188E+02  0.33288317220E+02  0.51100000000E-03 0. -1.
        -11    1    3    3    0    0  0.20752560447E+01  0.13488056269E+01 -0.25955758594E+01  0.35864994874E+01  0.51100000000E-03 0.  1.
        -12    1    3    3    0    0  0.87603729928E+01  0.65280159262E+01  0.81898830310E+01  0.13654058406E+02  0.00000000000E+00 0.  1.
</event>
<event>
 7    1  0.5855569E-013  0.5052887E+02  0.7816164E-02  0.1300439E+00
        -11   -1    0    0    0    0  0.00000000000E+00  0.00000000000E+00  0.45593999997E+02  0.45594000000E+02  0.51100000000E-03 0. -1.
         11   -1    0    0    0    0 -0.00000000000E+00 -0.00000000000E+00 -0.45593999997E+02  0.45594000000E+02  0.51100000000E-03 0.  1.
    9900012    2    1    2    0    0 -0.26352720638E+02  0.30918905784E+02  0.16494096419E+01  0.50528866069E+02  0.30000018903E+02 0.  0.
        -12    1    1    2    0    0  0.26352720638E+02 -0.30918905784E+02 -0.16494096419E+01  0.40659133931E+02  0.00000000000E+00 0.  1.
         11    1    3    3    0    0 -0.70445824977E+00  0.37567065428E+01 -0.77913786779E+01  0.86784035074E+01  0.51100000000E-03 0. -1.
        -11    1    3    3    0    0 -0.73898132391E+01  0.10132344900E+02 -0.44155449794E+01  0.13295517689E+02  0.51100000000E-03 0.  1.
         12    1    3    3    0    0 -0.18258449149E+02  0.17029854341E+02  0.13856333299E+02  0.28554944873E+02  0.00000000000E+00 0. -1.
</event>
<event>
 7    1  0.5855569E-013  0.5052886E+02  0.7816164E-02  0.1300439E+00
        -11   -1    0    0    0    0  0.00000000000E+00  0.00000000000E+00  0.45593999997E+02  0.45594000000E+02  0.51100000000E-03 0.  1.
         11   -1    0    0    0    0 -0.00000000000E+00 -0.00000000000E+00 -0.45593999997E+02  0.45594000000E+02  0.51100000000E-03 0. -1.
    9900012    2    1    2    0    0 -0.19686179983E+02  0.19228148354E+02 -0.29931566046E+02  0.50528855673E+02  0.29999987305E+02 0.  0.
        -12    1    1    2    0    0  0.19686179983E+02 -0.19228148354E+02  0.29931566046E+02  0.40659144327E+02  0.00000000000E+00 0.  1.
         11    1    3    3    0    0 -0.14250284718E+02  0.11992870662E+02 -0.21230879575E+02  0.28242694791E+02  0.51100000000E-03 0. -1.
        -11    1    3    3    0    0 -0.40161453360E+01  0.77462635941E+01 -0.14154310853E+02  0.16627643820E+02  0.51100000000E-03 0.  1.
        -12    1    3    3    0    0 -0.14197499286E+01 -0.51098590212E+00  0.54536243817E+01  0.56585170626E+01  0.00000000000E+00 0.  1.
</event>
<event>
 7    1  0.5855569E-013  0.5052885E+02  0.7816164E-02  0.1300439E+00
        -11   -1    0    0    0    0  0.00000000000E+00  0.00000000000E+00  0.45593999997E+02  0.45594000000E+02  0.51100000000E-03 0.  1.
         11   -1    0    0    0    0 -0.00000000000E+00 -0.00000000000E+00 -0.45593999997E+02  0.45594000000E+02  0.51100000000E-03 0. -1.
    9900012    2    1    2    0    0 -0.11792463744E+01 -0.22226952175E+02 -0.34025550965E+02  0.50528854122E+02  0.29999982591E+02 0.  0.
        -12    1    1    2    0    0  0.11792463744E+01  0.22226952175E+02  0.34025550965E+02  0.40659145878E+02  0.00000000000E+00 0.  1.
         11    1    3    3    0    0  0.50463310510E+01 -0.31008180989E+01 -0.80709853308E+01  0.10011060605E+02  0.51100000000E-03 0. -1.
        -11    1    3    3    0    0 -0.14362864696E+02 -0.17578882990E+02 -0.17325909695E+02  0.28556893327E+02  0.51100000000E-03 0.  1.
        -12    1    3    3    0    0  0.81372872711E+01 -0.15472510860E+01 -0.86286559399E+01  0.11960900191E+02  0.00000000000E+00 0.  1.
</event>
<event>
 7    1  0.5855569E-013  0.5052886E+02  0.7816164E-02  0.1300439E+00
        -11   -1    0    0    0    0  0.00000000000E+00  0.00000000000E+00  0.45593999997E+02  0.45594000000E+02  0.51100000000E-03 0.  1.
         11   -1    0    0    0    0 -0.00000000000E+00 -0.00000000000E+00 -0.45593999997E+02  0.45594000000E+02  0.51100000000E-03 0. -1.
    9900012    2    1    2    0    0 -0.32611137927E+02  0.15977016467E+02 -0.18286999339E+02  0.50528859368E+02  0.29999998535E+02 0.  0.
        -12    1    1    2    0    0  0.32611137927E+02 -0.15977016467E+02  0.18286999339E+02  0.40659140632E+02  0.00000000000E+00 0.  1.
         11    1    3    3    0    0 -0.17092747187E+02  0.94082027972E+01 -0.11288271689E+02  0.22541103883E+02  0.51100000000E-03 0. -1.
        -11    1    3    3    0    0 -0.99812573995E+01 -0.82386012992E+00  0.62735702789E+01  0.11817864828E+02  0.51100000000E-03 0.  1.
         12    1    3    3    0    0 -0.55371333411E+01  0.73926737993E+01 -0.13272297929E+02  0.16169890657E+02  0.00000000000E+00 0. -1.
</event>
<event>
 7    1  0.5855569E-013  0.5052886E+02  0.7816164E-02  0.1300439E+00
        -11   -1    0    0    0    0  0.00000000000E+00  0.00000000000E+00  0.45593999997E+02  0.45594000000E+02  0.51100000000E-03 0. -1.
         11   -1    0    0    0    0 -0.00000000000E+00 -0.00000000000E+00 -0.45593999997E+02  0.45594000000E+02  0.51100000000E-03 0.  1.
    9900012    2    1    2    0    0 -0.20904198256E+02  0.34427898977E+02  0.55587576583E+01  0.50528861798E+02  0.30000005920E+02 0.  0.
        -12    1    1    2    0    0  0.20904198256E+02 -0.34427898977E+02 -0.55587576583E+01  0.40659138202E+02  0.00000000000E+00 0.  1.
         11    1    3    3    0    0 -0.43505547564E+01  0.73128501106E+01 -0.21188764463E+01  0.87689646529E+01  0.51100000000E-03 0. -1.
        -11    1    3    3    0    0  0.55943671146E+01  0.13080524144E+02 -0.67142053725E+00  0.14242466819E+02  0.51100000000E-03 0.  1.
         12    1    3    3    0    0 -0.22148010614E+02  0.14034524722E+02  0.83490546419E+01  0.27517430326E+02  0.00000000000E+00 0. -1.
</event>
<event>
 7    1  0.5855569E-013  0.5052886E+02  0.7816164E-02  0.1300439E+00
        -11   -1    0    0    0    0  0.00000000000E+00  0.00000000000E+00  0.45593999997E+02  0.45594000000E+02  0.51100000000E-03 0.  1.
         11   -1    0    0    0    0 -0.00000000000E+00 -0.00000000000E+00 -0.45593999997E+02  0.45594000000E+02  0.51100000000E-03 0. -1.
    9900012    2    1    2    0    0  0.21132583443E+02 -0.27926249476E+02 -0.20656817897E+02  0.50528860580E+02  0.30000002219E+02 0.  0.
        -12    1    1    2    0    0 -0.21132583443E+02  0.27926249476E+02  0.20656817897E+02  0.40659139420E+02  0.00000000000E+00 0.  1.
         11    1    3    3    0    0  0.11334527173E+02 -0.16661647301E+02 -0.11205559229E+02  0.23057462023E+02  0.51100000000E-03 0. -1.
        -11    1    3    3    0    0  0.33226555611E+01 -0.12059993301E+02  0.34827671367E+01  0.12985112460E+02  0.51100000000E-03 0.  1.
         12    1    3    3    0    0  0.64754007087E+01  0.79539112669E+00 -0.12934025805E+02  0.14486286097E+02  0.00000000000E+00 0. -1.
</event>
<event>
 7    1  0.5855569E-013  0.5052887E+02  0.7816164E-02  0.1300439E+00
        -11   -1    0    0    0    0  0.00000000000E+00  0.00000000000E+00  0.45593999997E+02  0.45594000000E+02  0.51100000000E-03 0.  1.
         11   -1    0    0    0    0 -0.00000000000E+00 -0.00000000000E+00 -0.45593999997E+02  0.45594000000E+02  0.51100000000E-03 0. -1.
    9900012    2    1    2    0    0 -0.20917602296E+02 -0.56466552673E+01 -0.34405437703E+02  0.50528868860E+02  0.30000027386E+02 0.  0.
        -12    1    1    2    0    0  0.20917602296E+02  0.56466552673E+01  0.34405437703E+02  0.40659131140E+02  0.00000000000E+00 0.  1.
         11    1    3    3    0    0  0.26176023489E+01 -0.99316370634E+00 -0.15406588513E+01  0.31955979349E+01  0.51100000000E-03 0. -1.
        -11    1    3    3    0    0 -0.44446496105E+01 -0.58084308770E+01  0.19867120234E+01  0.75789052202E+01  0.51100000000E-03 0.  1.
         12    1    3    3    0    0 -0.19090555034E+02  0.11549393160E+01 -0.34851490875E+02  0.39754365705E+02  0.00000000000E+00 0. -1.
</event>
<event>
 7    1  0.5855569E-013  0.5052887E+02  0.7816164E-02  0.1300439E+00
        -11   -1    0    0    0    0  0.00000000000E+00  0.00000000000E+00  0.45593999997E+02  0.45594000000E+02  0.51100000000E-03 0. -1.
         11   -1    0    0    0    0 -0.00000000000E+00 -0.00000000000E+00 -0.45593999997E+02  0.45594000000E+02  0.51100000000E-03 0.  1.
    9900012    2    1    2    0    0 -0.38269035612E+02 -0.55929739297E+01 -0.12544512470E+02  0.50528865267E+02  0.30000016467E+02 0.  0.
        -12    1    1    2    0    0  0.38269035612E+02  0.55929739297E+01  0.12544512470E+02  0.40659134733E+02  0.00000000000E+00 0.  1.
         11    1    3    3    0    0 -0.14439284097E+02 -0.15926905375E+01  0.19787154919E+01  0.14660999408E+02  0.51100000000E-03 0. -1.
        -11    1    3    3    0    0 -0.11594554162E+02  0.74866677231E+01 -0.19815671528E+00  0.13803012213E+02  0.51100000000E-03 0.  1.
         12    1    3    3    0    0 -0.12235197353E+02 -0.11486951115E+02 -0.14325071247E+02  0.22064853646E+02  0.00000000000E+00 0. -1.
</event>
<event>
 7    1  0.5855569E-013  0.5052886E+02  0.7816164E-02  0.1300439E+00
        -11   -1    0    0    0    0  0.00000000000E+00  0.00000000000E+00  0.45593999997E+02  0.45594000000E+02  0.51100000000E-03 0. -1.
         11   -1    0    0    0    0 -0.00000000000E+00 -0.00000000000E+00 -0.45593999997E+02  0.45594000000E+02  0.51100000000E-03 0.  1.
    9900012    2    1    2    0    0  0.29519319025E+01 -0.76999410204E+01  0.39814102272E+02  0.50528859166E+02  0.29999997920E+02 0.  0.
        -12    1    1    2    0    0 -0.29519319025E+01  0.76999410204E+01 -0.39814102272E+02  0.40659140834E+02  0.00000000000E+00 0.  1.
         11    1    3    3    0    0 -0.79271797687E+01 -0.12247420629E+02  0.31778479338E+02  0.34967288148E+02  0.51100000000E-03 0. -1.
        -11    1    3    3    0    0  0.22798171852E+01  0.12570658212E+01  0.53834108083E+01  0.59798740011E+01  0.51100000000E-03 0.  1.
        -12    1    3    3    0    0  0.85992944861E+01  0.32904137878E+01  0.26522121255E+01  0.95816970163E+01  0.00000000000E+00 0.  1.
</event>
<event>
 7    1  0.5855569E-013  0.5052887E+02  0.7816164E-02  0.1300439E+00
        -11   -1    0    0    0    0  0.00000000000E+00  0.00000000000E+00  0.45593999997E+02  0.45594000000E+02  0.51100000000E-03 0.  1.
         11   -1    0    0    0    0 -0.00000000000E+00 -0.00000000000E+00 -0.45593999997E+02  0.45594000000E+02  0.51100000000E-03 0. -1.
    9900012    2    1    2    0    0  0.17575929026E+02  0.11983391940E+02 -0.34650392231E+02  0.50528872547E+02  0.30000038593E+02 0.  0.
        -12    1    1    2    0    0 -0.17575929026E+02 -0.11983391940E+02  0.34650392231E+02  0.40659127453E+02  0.00000000000E+00 0.  1.
         11    1    3    3    0    0  0.42489560133E+01  0.72753179550E+01 -0.56384324119E+01  0.10137839951E+02  0.51100000000E-03 0. -1.
        -11    1    3    3    0    0  0.66407413957E+01  0.14044670552E+02 -0.11022265301E+02  0.19048426440E+02  0.51100000000E-03 0.  1.
         12    1    3    3    0    0  0.66862316169E+01 -0.93365965666E+01 -0.17989694518E+02  0.21342606156E+02  0.00000000000E+00 0. -1.
</event>
<event>
 7    1  0.5855569E-013  0.5052883E+02  0.7816164E-02  0.1300439E+00
        -11   -1    0    0    0    0  0.00000000000E+00  0.00000000000E+00  0.45593999997E+02  0.45594000000E+02  0.51100000000E-03 0.  1.
         11   -1    0    0    0    0 -0.00000000000E+00 -0.00000000000E+00 -0.45593999997E+02  0.45594000000E+02  0.51100000000E-03 0. -1.
    9900012    2    1    2    0    0  0.13686584340E+02 -0.38279698222E+02 -0.71421106787E+00  0.50528831486E+02  0.29999913784E+02 0.  0.
        -12    1    1    2    0    0 -0.13686584340E+02  0.38279698222E+02  0.71421106787E+00  0.40659168514E+02  0.00000000000E+00 0.  1.
         11    1    3    3    0    0  0.69261694950E+01 -0.21502938775E+02  0.51246437650E+01  0.23164847804E+02  0.51100000000E-03 0. -1.
        -11    1    3    3    0    0  0.44732147068E+01  0.75094823576E+00  0.49033293525E+01  0.66795368152E+01  0.51100000000E-03 0.  1.
         12    1    3    3    0    0  0.22872001385E+01 -0.17527707683E+02 -0.10742184185E+02  0.20684446866E+02  0.00000000000E+00 0. -1.
</event>
<event>
 7    1  0.5855569E-013  0.5052886E+02  0.7816164E-02  0.1300439E+00
        -11   -1    0    0    0    0  0.00000000000E+00  0.00000000000E+00  0.45593999997E+02  0.45594000000E+02  0.51100000000E-03 0.  1.
         11   -1    0    0    0    0 -0.00000000000E+00 -0.00000000000E+00 -0.45593999997E+02  0.45594000000E+02  0.51100000000E-03 0. -1.
    9900012    2    1    2    0    0 -0.17941361948E+01  0.40555651969E+02  0.22772099083E+01  0.50528861836E+02  0.30000006036E+02 0.  0.
        -12    1    1    2    0    0  0.17941361948E+01 -0.40555651969E+02 -0.22772099083E+01  0.40659138164E+02  0.00000000000E+00 0.  1.
         11    1    3    3    0    0  0.78535634282E+00  0.60607634815E+00  0.23706604873E+01  0.25698530176E+01  0.51100000000E-03 0. -1.
        -11    1    3    3    0    0 -0.81250154265E+01  0.87355086935E+01  0.90383425640E+01  0.14967184918E+02  0.51100000000E-03 0.  1.
         12    1    3    3    0    0  0.55455228888E+01  0.31214066927E+02 -0.91317931430E+01  0.32991823900E+02  0.00000000000E+00 0. -1.
</event>
<event>
 7    1  0.5855569E-013  0.5052886E+02  0.7816164E-02  0.1300439E+00
        -11   -1    0    0    0    0  0.00000000000E+00  0.00000000000E+00  0.45593999997E+02  0.45594000000E+02  0.51100000000E-03 0.  1.
         11   -1    0    0    0    0 -0.00000000000E+00 -0.00000000000E+00 -0.45593999997E+02  0.45594000000E+02  0.51100000000E-03 0. -1.
    9900012    2    1    2    0    0  0.38057365912E+01 -0.29319456606E+02 -0.27911491179E+02  0.50528861955E+02  0.30000006399E+02 0.  0.
        -12    1    1    2    0    0 -0.38057365912E+01  0.29319456606E+02  0.27911491179E+02  0.40659138045E+02  0.00000000000E+00 0.  1.
         11    1    3    3    0    0 -0.64759394968E+01 -0.20744343676E+01 -0.42922062454E+01  0.80413994445E+01  0.51100000000E-03 0. -1.
        -11    1    3    3    0    0  0.23308712582E+01 -0.69213983947E+01  0.31465590176E+01  0.79523298770E+01  0.51100000000E-03 0.  1.
         12    1    3    3    0    0  0.79508048297E+01 -0.20323623844E+02 -0.26765843952E+02  0.34535132634E+02  0.00000000000E+00 0. -1.
</event>
<event>
 7    1  0.5855569E-013  0.5052888E+02  0.7816164E-02  0.1300439E+00
        -11   -1    0    0    0    0  0.00000000000E+00  0.00000000000E+00  0.45593999997E+02  0.45594000000E+02  0.51100000000E-03 0. -1.
         11   -1    0    0    0    0 -0.00000000000E+00 -0.00000000000E+00 -0.45593999997E+02  0.45594000000E+02  0.51100000000E-03 0.  1.
    9900012    2    1    2    0    0  0.14708135553E+02  0.16522369562E+02  0.34115193299E+02  0.50528876040E+02  0.30000049211E+02 0.  0.
        -12    1    1    2    0    0 -0.14708135553E+02 -0.16522369562E+02 -0.34115193299E+02  0.40659123960E+02  0.00000000000E+00 0.  1.
         11    1    3    3    0    0 -0.13364031968E+01  0.56926966986E+01  0.13153983969E+02  0.14395140282E+02  0.51100000000E-03 0. -1.
        -11    1    3    3    0    0 -0.46742449356E+01  0.67973846568E+01  0.47496721491E+01  0.95190540326E+01  0.51100000000E-03 0.  1.
        -12    1    3    3    0    0  0.20718783686E+02  0.40322882062E+01  0.16211537180E+02  0.26614681726E+02  0.00000000000E+00 0.  1.
</event>
<event>
 7    1  0.5855569E-013  0.5052886E+02  0.7816164E-02  0.1300439E+00
        -11   -1    0    0    0    0  0.00000000000E+00  0.00000000000E+00  0.45593999997E+02  0.45594000000E+02  0.51100000000E-03 0. -1.
         11   -1    0    0    0    0 -0.00000000000E+00 -0.00000000000E+00 -0.45593999997E+02  0.45594000000E+02  0.51100000000E-03 0.  1.
    9900012    2    1    2    0    0 -0.24721629353E+02 -0.13785597583E+02  0.29188428422E+02  0.50528855736E+02  0.29999987494E+02 0.  0.
        -12    1    1    2    0    0  0.24721629353E+02  0.13785597583E+02 -0.29188428422E+02  0.40659144264E+02  0.00000000000E+00 0.  1.
         11    1    3    3    0    0 -0.37108790543E+01  0.25444208864E+01  0.18292863752E+02  0.18838088160E+02  0.51100000000E-03 0. -1.
        -11    1    3    3    0    0 -0.61127025824E+00 -0.27348805152E+01  0.60980206209E+01  0.67111160410E+01  0.51100000000E-03 0.  1.
         12    1    3    3    0    0 -0.20399480040E+02 -0.13595137954E+02  0.47975440492E+01  0.24979651535E+02  0.00000000000E+00 0. -1.
</event>
<event>
 7    1  0.5855569E-013  0.5052886E+02  0.7816164E-02  0.1300439E+00
        -11   -1    0    0    0    0  0.00000000000E+00  0.00000000000E+00  0.45593999997E+02  0.45594000000E+02  0.51100000000E-03 0.  1.
         11   -1    0    0    0    0 -0.00000000000E+00 -0.00000000000E+00 -0.45593999997E+02  0.45594000000E+02  0.51100000000E-03 0. -1.
    9900012    2    1    2    0    0 -0.16339332331E+02 -0.36026648607E+02  0.93953515822E+01  0.50528858073E+02  0.29999994600E+02 0.  0.
        -12    1    1    2    0    0  0.16339332331E+02  0.36026648607E+02 -0.93953515822E+01  0.40659141927E+02  0.00000000000E+00 0.  1.
         11    1    3    3    0    0 -0.12722612627E+02 -0.30435940081E+02 -0.25938963300E+01  0.33089871851E+02  0.51100000000E-03 0. -1.
        -11    1    3    3    0    0  0.29836844927E+01 -0.49201179632E+01  0.37826234381E+01  0.68860855542E+01  0.51100000000E-03 0.  1.
        -12    1    3    3    0    0 -0.66004041965E+01 -0.67059056269E+00  0.82066244742E+01  0.10552900669E+02  0.00000000000E+00 0.  1.
</event>
<event>
 7    1  0.5855569E-013  0.5052885E+02  0.7816164E-02  0.1300439E+00
        -11   -1    0    0    0    0  0.00000000000E+00  0.00000000000E+00  0.45593999997E+02  0.45594000000E+02  0.51100000000E-03 0.  1.
         11   -1    0    0    0    0 -0.00000000000E+00 -0.00000000000E+00 -0.45593999997E+02  0.45594000000E+02  0.51100000000E-03 0. -1.
    9900012    2    1    2    0    0 -0.19447814831E+02  0.25736250538E+02 -0.24750636128E+02  0.50528854876E+02  0.29999984882E+02 0.  0.
        -12    1    1    2    0    0  0.19447814831E+02 -0.25736250538E+02  0.24750636128E+02  0.40659145124E+02  0.00000000000E+00 0.  1.
         11    1    3    3    0    0 -0.30458033122E+01  0.85108955650E+01 -0.18582971441E+01  0.92285171979E+01  0.51100000000E-03 0. -1.
        -11    1    3    3    0    0  0.38382689974E+01  0.46939515043E+01  0.24416683252E+01  0.65366072310E+01  0.51100000000E-03 0.  1.
        -12    1    3    3    0    0 -0.20240280516E+02  0.12531403468E+02 -0.25334007309E+02  0.34763730447E+02  0.00000000000E+00 0.  1.
</event>
<event>
 7    1  0.5855569E-013  0.5052886E+02  0.7816164E-02  0.1300439E+00
        -11   -1    0    0    0    0  0.00000000000E+00  0.00000000000E+00  0.45593999997E+02  0.45594000000E+02  0.51100000000E-03 0.  1.
         11   -1    0    0    0    0 -0.00000000000E+00 -0.00000000000E+00 -0.45593999997E+02  0.45594000000E+02  0.51100000000E-03 0. -1.
    9900012    2    1    2    0    0 -0.12703396373E+02 -0.38491514565E+02  0.31925885148E+01  0.50528860876E+02  0.30000003118E+02 0.  0.
        -12    1    1    2    0    0  0.12703396373E+02  0.38491514565E+02 -0.31925885148E+01  0.40659139124E+02  0.00000000000E+00 0.  1.
         11    1    3    3    0    0 -0.20521156410E+00 -0.79550248324E+01 -0.85486623771E+01  0.11679219176E+02  0.51100000000E-03 0. -1.
        -11    1    3    3    0    0  0.28866667171E+01 -0.10349521820E+02  0.75323239445E+01  0.13121789166E+02  0.51100000000E-03 0.  1.
         12    1    3    3    0    0 -0.15384851526E+02 -0.20186967912E+02  0.42089269474E+01  0.25727852534E+02  0.00000000000E+00 0. -1.
</event>
<event>
 7    1  0.5855569E-013  0.5052887E+02  0.7816164E-02  0.1300439E+00
        -11   -1    0    0    0    0  0.00000000000E+00  0.00000000000E+00  0.45593999997E+02  0.45594000000E+02  0.51100000000E-03 0. -1.
         11   -1    0    0    0    0 -0.00000000000E+00 -0.00000000000E+00 -0.45593999997E+02  0.45594000000E+02  0.51100000000E-03 0.  1.
    9900012    2    1    2    0    0 -0.31009865127E+02 -0.26287749630E+02  0.71244928156E+00  0.50528866958E+02  0.30000021605E+02 0.  0.
        -12    1    1    2    0    0  0.31009865127E+02  0.26287749630E+02 -0.71244928156E+00  0.40659133042E+02  0.00000000000E+00 0.  1.
         11    1    3    3    0    0  0.73976185890E+00 -0.64008963789E+01 -0.48989319879E+01  0.80943348673E+01  0.51100000000E-03 0. -1.
        -11    1    3    3    0    0 -0.11320149961E+01 -0.96024095078E+01  0.24961661045E+01  0.99859186752E+01  0.51100000000E-03 0.  1.
         12    1    3    3    0    0 -0.30617611989E+02 -0.10284443743E+02  0.31152151650E+01  0.32448613415E+02  0.00000000000E+00 0. -1.
</event>
<event>
 7    1  0.5855569E-013  0.5052888E+02  0.7816164E-02  0.1300439E+00
        -11   -1    0    0    0    0  0.00000000000E+00  0.00000000000E+00  0.45593999997E+02  0.45594000000E+02  0.51100000000E-03 0.  1.
         11   -1    0    0    0    0 -0.00000000000E+00 -0.00000000000E+00 -0.45593999997E+02  0.45594000000E+02  0.51100000000E-03 0. -1.
    9900012    2    1    2    0    0 -0.19517988964E+02 -0.29235274109E+02 -0.20433076669E+02  0.50528883340E+02  0.30000071399E+02 0.  0.
        -12    1    1    2    0    0  0.19517988964E+02  0.29235274109E+02  0.20433076669E+02  0.40659116660E+02  0.00000000000E+00 0.  1.
         11    1    3    3    0    0 -0.13604105590E+02 -0.14276606094E+02 -0.14487898023E+02  0.24470234160E+02  0.51100000000E-03 0. -1.
        -11    1    3    3    0    0  0.63212978517E+01 -0.75006534289E+01 -0.64173605138E+01  0.11721822581E+02  0.51100000000E-03 0.  1.
         12    1    3    3    0    0 -0.12235181227E+02 -0.74580145864E+01  0.47218186741E+00  0.14336826599E+02  0.00000000000E+00 0. -1.
</event>
<event>
 7    1  0.5855569E-013  0.5052886E+02  0.7816164E-02  0.1300439E+00
        -11   -1    0    0    0    0  0.00000000000E+00  0.00000000000E+00  0.45593999997E+02  0.45594000000E+02  0.51100000000E-03 0.  1.
         11   -1    0    0    0    0 -0.00000000000E+00 -0.00000000000E+00 -0.45593999997E+02  0.45594000000E+02  0.51100000000E-03 0. -1.
    9900012    2    1    2    0    0  0.57354008889E+01  0.47017643337E+01 -0.39977041887E+02  0.50528864627E+02  0.30000014522E+02 0.  0.
        -12    1    1    2    0    0 -0.57354008889E+01 -0.47017643337E+01  0.39977041887E+02  0.40659135373E+02  0.00000000000E+00 0.  1.
         11    1    3    3    0    0  0.86151608805E+01 -0.26575467341E+01 -0.25257883359E+01  0.93628606002E+01  0.51100000000E-03 0.  1.
        -11    1    3    3    0    0 -0.16694207708E+01  0.54170208500E+01 -0.25941162036E+01  0.62338206373E+01  0.51100000000E-03 0. -1.
         12    1    3    3    0    0 -0.12103392207E+01  0.19422902177E+01 -0.34857137348E+02  0.34932183390E+02  0.00000000000E+00 0. -1.
</event>
<event>
 7    1  0.5855569E-013  0.5052885E+02  0.7816164E-02  0.1300439E+00
        -11   -1    0    0    0    0  0.00000000000E+00  0.00000000000E+00  0.45593999997E+02  0.45594000000E+02  0.51100000000E-03 0.  1.
         11   -1    0    0    0    0 -0.00000000000E+00 -0.00000000000E+00 -0.45593999997E+02  0.45594000000E+02  0.51100000000E-03 0. -1.
    9900012    2    1    2    0    0 -0.20504724725E+02  0.22966648114E+02 -0.26556654029E+02  0.50528849310E+02  0.29999967961E+02 0.  0.
        -12    1    1    2    0    0  0.20504724725E+02 -0.22966648114E+02  0.26556654029E+02  0.40659150690E+02  0.00000000000E+00 0.  1.
         11    1    3    3    0    0  0.48370648342E+01  0.60121723450E+01 -0.44539130636E+01  0.89095877770E+01  0.51100000000E-03 0.  1.
        -11    1    3    3    0    0 -0.84851713847E+01  0.13635882529E+02 -0.37746050223E+01  0.16497971667E+02  0.51100000000E-03 0. -1.
        -12    1    3    3    0    0 -0.16856618175E+02  0.33185932399E+01 -0.18328135943E+02  0.25121289866E+02  0.00000000000E+00 0.  1.
</event>
<event>
 7    1  0.5855569E-013  0.5052884E+02  0.7816164E-02  0.1300439E+00
        -11   -1    0    0    0    0  0.00000000000E+00  0.00000000000E+00  0.45593999997E+02  0.45594000000E+02  0.51100000000E-03 0.  1.
         11   -1    0    0    0    0 -0.00000000000E+00 -0.00000000000E+00 -0.45593999997E+02  0.45594000000E+02  0.51100000000E-03 0. -1.
    9900012    2    1    2    0    0  0.22479869566E+02  0.30193004917E+02 -0.15368971909E+02  0.50528838927E+02  0.29999936403E+02 0.  0.
        -12    1    1    2    0    0 -0.22479869566E+02 -0.30193004917E+02  0.15368971909E+02  0.40659161073E+02  0.00000000000E+00 0.  1.
         11    1    3    3    0    0 -0.94425464703E+00 -0.86464309127E+00 -0.18117494681E+01  0.22184816677E+01  0.51100000000E-03 0. -1.
        -11    1    3    3    0    0  0.28619793262E+01  0.63710394189E+01  0.72229595242E+01  0.10047497872E+02  0.51100000000E-03 0.  1.
         12    1    3    3    0    0  0.20562144887E+02  0.24686608589E+02 -0.20780181965E+02  0.38262859387E+02  0.00000000000E+00 0. -1.
</event>
<event>
 7    1  0.5855569E-013  0.5052885E+02  0.7816164E-02  0.1300439E+00
        -11   -1    0    0    0    0  0.00000000000E+00  0.00000000000E+00  0.45593999997E+02  0.45594000000E+02  0.51100000000E-03 0.  1.
         11   -1    0    0    0    0 -0.00000000000E+00 -0.00000000000E+00 -0.45593999997E+02  0.45594000000E+02  0.51100000000E-03 0. -1.
    9900012    2    1    2    0    0 -0.18535239336E+01 -0.40590025136E+02 -0.14768706853E+01  0.50528845575E+02  0.29999956611E+02 0.  0.
        -12    1    1    2    0    0  0.18535239336E+01  0.40590025136E+02  0.14768706853E+01  0.40659154425E+02  0.00000000000E+00 0.  1.
         11    1    3    3    0    0 -0.35068823415E+01 -0.22378667967E+02 -0.10733112253E+02  0.25065967020E+02  0.51100000000E-03 0. -1.
        -11    1    3    3    0    0 -0.65984646913E+01 -0.69595299321E+01  0.22565688477E+01  0.98522533658E+01  0.51100000000E-03 0.  1.
         12    1    3    3    0    0  0.82518230992E+01 -0.11251827237E+02  0.69996727203E+01  0.15610625190E+02  0.00000000000E+00 0. -1.
</event>
<event>
 7    1  0.5855569E-013  0.5052886E+02  0.7816164E-02  0.1300439E+00
        -11   -1    0    0    0    0  0.00000000000E+00  0.00000000000E+00  0.45593999997E+02  0.45594000000E+02  0.51100000000E-03 0.  1.
         11   -1    0    0    0    0 -0.00000000000E+00 -0.00000000000E+00 -0.45593999997E+02  0.45594000000E+02  0.51100000000E-03 0. -1.
    9900012    2    1    2    0    0  0.11583562358E+01 -0.35344144292E+01 -0.40488663717E+02  0.50528858788E+02  0.29999996773E+02 0.  0.
        -12    1    1    2    0    0 -0.11583562358E+01  0.35344144292E+01  0.40488663717E+02  0.40659141212E+02  0.00000000000E+00 0.  1.
         11    1    3    3    0    0 -0.10002838941E+02 -0.38151673302E+01 -0.10872004788E+02  0.15258203597E+02  0.51100000000E-03 0. -1.
        -11    1    3    3    0    0  0.52253802038E+01  0.14960541339E+01 -0.28618454015E+02  0.29130030668E+02  0.51100000000E-03 0.  1.
        -12    1    3    3    0    0  0.59358149730E+01 -0.12153012330E+01 -0.99820491298E+00  0.61406245227E+01  0.00000000000E+00 0.  1.
</event>
<event>
 7    1  0.5855569E-013  0.5052887E+02  0.7816164E-02  0.1300439E+00
        -11   -1    0    0    0    0  0.00000000000E+00  0.00000000000E+00  0.45593999997E+02  0.45594000000E+02  0.51100000000E-03 0.  1.
         11   -1    0    0    0    0 -0.00000000000E+00 -0.00000000000E+00 -0.45593999997E+02  0.45594000000E+02  0.51100000000E-03 0. -1.
    9900012    2    1    2    0    0  0.26540351388E+02  0.94670009333E+01 -0.29311272095E+02  0.50528867812E+02  0.30000024201E+02 0.  0.
        -12    1    1    2    0    0 -0.26540351388E+02 -0.94670009333E+01  0.29311272095E+02  0.40659132188E+02  0.00000000000E+00 0.  1.
         11    1    3    3    0    0  0.29669905428E+01  0.85514918923E+01 -0.42544455127E+01  0.10001567545E+02  0.51100000000E-03 0. -1.
        -11    1    3    3    0    0  0.67046767547E+00 -0.23062591266E+01 -0.15195858730E+02  0.15384488320E+02  0.51100000000E-03 0.  1.
        -12    1    3    3    0    0  0.22902893169E+02  0.32217681676E+01 -0.98609678528E+01  0.25142811948E+02  0.00000000000E+00 0.  1.
</event>
<event>
 7    1  0.5855569E-013  0.5052886E+02  0.7816164E-02  0.1300439E+00
        -11   -1    0    0    0    0  0.00000000000E+00  0.00000000000E+00  0.45593999997E+02  0.45594000000E+02  0.51100000000E-03 0.  1.
         11   -1    0    0    0    0 -0.00000000000E+00 -0.00000000000E+00 -0.45593999997E+02  0.45594000000E+02  0.51100000000E-03 0. -1.
    9900012    2    1    2    0    0  0.27756100591E+01  0.13178606908E+02 -0.38363867396E+02  0.50528855730E+02  0.29999987476E+02 0.  0.
        -12    1    1    2    0    0 -0.27756100591E+01 -0.13178606908E+02  0.38363867396E+02  0.40659144270E+02  0.00000000000E+00 0.  1.
         11    1    3    3    0    0  0.63355523988E+01  0.53134556800E+01 -0.10280537026E+02  0.13193236042E+02  0.51100000000E-03 0. -1.
        -11    1    3    3    0    0  0.55601697927E+01  0.29487032109E+01  0.10807535785E+01  0.63857941799E+01  0.51100000000E-03 0.  1.
         12    1    3    3    0    0 -0.91201121324E+01  0.49164480170E+01 -0.29164083948E+02  0.30949825507E+02  0.00000000000E+00 0. -1.
</event>
<event>
 7    1  0.5855569E-013  0.5052887E+02  0.7816164E-02  0.1300439E+00
        -11   -1    0    0    0    0  0.00000000000E+00  0.00000000000E+00  0.45593999997E+02  0.45594000000E+02  0.51100000000E-03 0.  1.
         11   -1    0    0    0    0 -0.00000000000E+00 -0.00000000000E+00 -0.45593999997E+02  0.45594000000E+02  0.51100000000E-03 0. -1.
    9900012    2    1    2    0    0 -0.56146106640E+00 -0.18338411169E+02 -0.36284329522E+02  0.50528866567E+02  0.30000020416E+02 0.  0.
        -12    1    1    2    0    0  0.56146106640E+00  0.18338411169E+02  0.36284329522E+02  0.40659133433E+02  0.00000000000E+00 0.  1.
         11    1    3    3    0    0 -0.83695424595E+01 -0.64568359025E+01 -0.22705660588E+02  0.25045698110E+02  0.51100000000E-03 0. -1.
        -11    1    3    3    0    0  0.40921607857E+01 -0.13747967592E+02 -0.15309211604E+02  0.20979140902E+02  0.51100000000E-03 0.  1.
        -12    1    3    3    0    0  0.37159206074E+01  0.18663923257E+01  0.17305426699E+01  0.45040275539E+01  0.00000000000E+00 0.  1.
</event>
<event>
 7    1  0.5855569E-013  0.5052885E+02  0.7816164E-02  0.1300439E+00
        -11   -1    0    0    0    0  0.00000000000E+00  0.00000000000E+00  0.45593999997E+02  0.45594000000E+02  0.51100000000E-03 0.  1.
         11   -1    0    0    0    0 -0.00000000000E+00 -0.00000000000E+00 -0.45593999997E+02  0.45594000000E+02  0.51100000000E-03 0. -1.
    9900012    2    1    2    0    0 -0.30413176109E+02  0.12325639349E+02 -0.24005915243E+02  0.50528848102E+02  0.29999964291E+02 0.  0.
        -12    1    1    2    0    0  0.30413176109E+02 -0.12325639349E+02  0.24005915243E+02  0.40659151898E+02  0.00000000000E+00 0.  1.
         11    1    3    3    0    0 -0.23203750628E+02  0.12157495640E+02 -0.90303098537E+01  0.27708577007E+02  0.51100000000E-03 0. -1.
        -11    1    3    3    0    0 -0.65259918501E+01  0.69550967262E+01 -0.50928237844E+01  0.10811974586E+02  0.51100000000E-03 0.  1.
        -12    1    3    3    0    0 -0.68343363066E+00 -0.67869530165E+01 -0.98827816053E+01  0.12008296508E+02  0.00000000000E+00 0.  1.
</event>
<event>
 7    1  0.5855569E-013  0.5052886E+02  0.7816164E-02  0.1300439E+00
        -11   -1    0    0    0    0  0.00000000000E+00  0.00000000000E+00  0.45593999997E+02  0.45594000000E+02  0.51100000000E-03 0. -1.
         11   -1    0    0    0    0 -0.00000000000E+00 -0.00000000000E+00 -0.45593999997E+02  0.45594000000E+02  0.51100000000E-03 0.  1.
    9900012    2    1    2    0    0  0.13448811489E+02 -0.31799806510E+02 -0.21472485913E+02  0.50528857414E+02  0.29999992596E+02 0.  0.
        -12    1    1    2    0    0 -0.13448811489E+02  0.31799806510E+02  0.21472485913E+02  0.40659142586E+02  0.00000000000E+00 0.  1.
         11    1    3    3    0    0  0.11420583096E+02 -0.18538732578E+02 -0.15288028625E+02  0.26605227745E+02  0.51100000000E-03 0. -1.
        -11    1    3    3    0    0  0.83493265848E+01 -0.21310126236E+01 -0.69941977463E+01  0.11098255340E+02  0.51100000000E-03 0.  1.
        -12    1    3    3    0    0 -0.63210981915E+01 -0.11130061308E+02  0.80974045822E+00  0.12825374329E+02  0.00000000000E+00 0.  1.
</event>
<event>
 7    1  0.5855569E-013  0.5052886E+02  0.7816164E-02  0.1300439E+00
        -11   -1    0    0    0    0  0.00000000000E+00  0.00000000000E+00  0.45593999997E+02  0.45594000000E+02  0.51100000000E-03 0.  1.
         11   -1    0    0    0    0 -0.00000000000E+00 -0.00000000000E+00 -0.45593999997E+02  0.45594000000E+02  0.51100000000E-03 0. -1.
    9900012    2    1    2    0    0  0.17006316008E+02 -0.70732109539E+01 -0.36248043200E+02  0.50528859168E+02  0.29999997928E+02 0.  0.
        -12    1    1    2    0    0 -0.17006316008E+02  0.70732109539E+01  0.36248043200E+02  0.40659140832E+02  0.00000000000E+00 0.  1.
         11    1    3    3    0    0  0.82756551050E+01 -0.12941872475E+02 -0.28459112196E+02  0.32340371022E+02  0.51100000000E-03 0. -1.
        -11    1    3    3    0    0  0.12210051576E+01 -0.34226675892E+01 -0.45257703672E+01  0.58041454753E+01  0.51100000000E-03 0.  1.
        -12    1    3    3    0    0  0.75096557456E+01  0.92913291102E+01 -0.32631606361E+01  0.12384342671E+02  0.00000000000E+00 0.  1.
</event>
<event>
 7    1  0.5855569E-013  0.5052886E+02  0.7816164E-02  0.1300439E+00
        -11   -1    0    0    0    0  0.00000000000E+00  0.00000000000E+00  0.45593999997E+02  0.45594000000E+02  0.51100000000E-03 0.  1.
         11   -1    0    0    0    0 -0.00000000000E+00 -0.00000000000E+00 -0.45593999997E+02  0.45594000000E+02  0.51100000000E-03 0. -1.
    9900012    2    1    2    0    0  0.28693680740E+02  0.27920973335E+02 -0.70892551643E+01  0.50528860742E+02  0.30000002713E+02 0.  0.
        -12    1    1    2    0    0 -0.28693680740E+02 -0.27920973335E+02  0.70892551643E+01  0.40659139258E+02  0.00000000000E+00 0.  1.
         11    1    3    3    0    0  0.88160099013E+01  0.15576168267E+01 -0.10065195288E+02  0.13470573752E+02  0.51100000000E-03 0.  1.
        -11    1    3    3    0    0  0.53851302782E+01  0.36915661609E+01 -0.58227136736E+01  0.87482160250E+01  0.51100000000E-03 0. -1.
        -12    1    3    3    0    0  0.14492540561E+02  0.22671790347E+02  0.87986537970E+01  0.28310070966E+02  0.00000000000E+00 0.  1.
</event>
<event>
 7    1  0.5855569E-013  0.5052886E+02  0.7816164E-02  0.1300439E+00
        -11   -1    0    0    0    0  0.00000000000E+00  0.00000000000E+00  0.45593999997E+02  0.45594000000E+02  0.51100000000E-03 0.  1.
         11   -1    0    0    0    0 -0.00000000000E+00 -0.00000000000E+00 -0.45593999997E+02  0.45594000000E+02  0.51100000000E-03 0. -1.
    9900012    2    1    2    0    0 -0.30757013057E+02 -0.26107374753E+02  0.50573136455E+01  0.50528864619E+02  0.30000014495E+02 0.  0.
        -12    1    1    2    0    0  0.30757013057E+02  0.26107374753E+02 -0.50573136455E+01  0.40659135381E+02  0.00000000000E+00 0.  1.
         11    1    3    3    0    0 -0.60362268763E+01  0.80641282646E+00 -0.51990288869E+01  0.80072615904E+01  0.51100000000E-03 0. -1.
        -11    1    3    3    0    0  0.21694368086E+01 -0.80401854335E+01  0.31885358070E+01  0.89172752971E+01  0.51100000000E-03 0.  1.
         12    1    3    3    0    0 -0.26890222989E+02 -0.18873602146E+02  0.70678067254E+01  0.33604327731E+02  0.00000000000E+00 0. -1.
</event>
<event>
 7    1  0.5855569E-013  0.5052884E+02  0.7816164E-02  0.1300439E+00
        -11   -1    0    0    0    0  0.00000000000E+00  0.00000000000E+00  0.45593999997E+02  0.45594000000E+02  0.51100000000E-03 0.  1.
         11   -1    0    0    0    0 -0.00000000000E+00 -0.00000000000E+00 -0.45593999997E+02  0.45594000000E+02  0.51100000000E-03 0. -1.
    9900012    2    1    2    0    0  0.83817338428E+01 -0.27646167842E+02 -0.28611242330E+02  0.50528840562E+02  0.29999941372E+02 0.  0.
        -12    1    1    2    0    0 -0.83817338428E+01  0.27646167842E+02  0.28611242330E+02  0.40659159438E+02  0.00000000000E+00 0.  1.
         11    1    3    3    0    0  0.64610242549E+01 -0.42683451224E+01  0.23321816265E+01  0.80871920904E+01  0.51100000000E-03 0. -1.
        -11    1    3    3    0    0 -0.85132768607E-01 -0.60675726238E+01  0.90717443619E+00  0.61356051740E+01  0.51100000000E-03 0.  1.
        -12    1    3    3    0    0  0.20058423565E+01 -0.17310250095E+02 -0.31850598393E+02  0.36306043297E+02  0.00000000000E+00 0.  1.
</event>
<event>
 7    1  0.5855569E-013  0.5052886E+02  0.7816164E-02  0.1300439E+00
        -11   -1    0    0    0    0  0.00000000000E+00  0.00000000000E+00  0.45593999997E+02  0.45594000000E+02  0.51100000000E-03 0.  1.
         11   -1    0    0    0    0 -0.00000000000E+00 -0.00000000000E+00 -0.45593999997E+02  0.45594000000E+02  0.51100000000E-03 0. -1.
    9900012    2    1    2    0    0 -0.31497313422E+02 -0.45325561315E+01 -0.25308909618E+02  0.50528859281E+02  0.29999998271E+02 0.  0.
        -12    1    1    2    0    0  0.31497313422E+02  0.45325561315E+01  0.25308909618E+02  0.40659140719E+02  0.00000000000E+00 0.  1.
         11    1    3    3    0    0 -0.41978441580E+01  0.51273123703E+01  0.11981691239E+01  0.67340060312E+01  0.51100000000E-03 0. -1.
        -11    1    3    3    0    0  0.46768810367E-01 -0.30370675413E+01 -0.11523688386E+02  0.11917271535E+02  0.51100000000E-03 0.  1.
         12    1    3    3    0    0 -0.27346238075E+02 -0.66228009605E+01 -0.14983390357E+02  0.31877581715E+02  0.00000000000E+00 0. -1.
</event>
<event>
 7    1  0.5855569E-013  0.5052884E+02  0.7816164E-02  0.1300439E+00
        -11   -1    0    0    0    0  0.00000000000E+00  0.00000000000E+00  0.45593999997E+02  0.45594000000E+02  0.51100000000E-03 0. -1.
         11   -1    0    0    0    0 -0.00000000000E+00 -0.00000000000E+00 -0.45593999997E+02  0.45594000000E+02  0.51100000000E-03 0.  1.
    9900012    2    1    2    0    0  0.30210338624E+02  0.20634927976E+02  0.17739850802E+02  0.50528842128E+02  0.29999946133E+02 0.  0.
        -12    1    1    2    0    0 -0.30210338624E+02 -0.20634927976E+02 -0.17739850802E+02  0.40659157872E+02  0.00000000000E+00 0.  1.
         11    1    3    3    0    0  0.27237787723E+02  0.15420017182E+02  0.15390309600E+02  0.34878870965E+02  0.51100000000E-03 0. -1.
        -11    1    3    3    0    0  0.78882302850E+00  0.99482712795E+01  0.11956457886E+00  0.99802123810E+01  0.51100000000E-03 0.  1.
        -12    1    3    3    0    0  0.21837278720E+01 -0.47333604854E+01  0.22299766237E+01  0.56697587820E+01  0.00000000000E+00 0.  1.
</event>
<event>
 7    1  0.5855569E-013  0.5052886E+02  0.7816164E-02  0.1300439E+00
        -11   -1    0    0    0    0  0.00000000000E+00  0.00000000000E+00  0.45593999997E+02  0.45594000000E+02  0.51100000000E-03 0. -1.
         11   -1    0    0    0    0 -0.00000000000E+00 -0.00000000000E+00 -0.45593999997E+02  0.45594000000E+02  0.51100000000E-03 0.  1.
    9900012    2    1    2    0    0  0.17345644093E+02 -0.28067941599E+02  0.23758899223E+02  0.50528855803E+02  0.29999987698E+02 0.  0.
        -12    1    1    2    0    0 -0.17345644093E+02  0.28067941599E+02 -0.23758899223E+02  0.40659144197E+02  0.00000000000E+00 0.  1.
         11    1    3    3    0    0 -0.41266867826E+00  0.29617121177E+01  0.50424387268E+00  0.30325395711E+01  0.51100000000E-03 0. -1.
        -11    1    3    3    0    0 -0.86035002811E+00 -0.11428383199E+02 -0.55171561945E+00  0.11473993860E+02  0.51100000000E-03 0.  1.
         12    1    3    3    0    0  0.18618662799E+02 -0.19601270518E+02  0.23806370970E+02  0.36022322372E+02  0.00000000000E+00 0. -1.
</event>
<event>
 7    1  0.5855569E-013  0.5052886E+02  0.7816164E-02  0.1300439E+00
        -11   -1    0    0    0    0  0.00000000000E+00  0.00000000000E+00  0.45593999997E+02  0.45594000000E+02  0.51100000000E-03 0.  1.
         11   -1    0    0    0    0 -0.00000000000E+00 -0.00000000000E+00 -0.45593999997E+02  0.45594000000E+02  0.51100000000E-03 0. -1.
    9900012    2    1    2    0    0 -0.29247032429E+02 -0.28226257751E+02 -0.10271031377E+01  0.50528862363E+02  0.30000007639E+02 0.  0.
        -12    1    1    2    0    0  0.29247032429E+02  0.28226257751E+02  0.10271031377E+01  0.40659137637E+02  0.00000000000E+00 0.  1.
         11    1    3    3    0    0 -0.16233226026E+02 -0.10745174757E+02  0.14846427438E+01  0.19523846242E+02  0.51100000000E-03 0.  1.
        -11    1    3    3    0    0 -0.17914290512E+02 -0.15072424007E+02  0.25618845530E+01  0.23551284948E+02  0.51100000000E-03 0. -1.
         12    1    3    3    0    0  0.49004841084E+01 -0.24086589874E+01 -0.50736304344E+01  0.74537311730E+01  0.00000000000E+00 0. -1.
</event>
<event>
 7    1  0.5855569E-013  0.5052887E+02  0.7816164E-02  0.1300439E+00
        -11   -1    0    0    0    0  0.00000000000E+00  0.00000000000E+00  0.45593999997E+02  0.45594000000E+02  0.51100000000E-03 0.  1.
         11   -1    0    0    0    0 -0.00000000000E+00 -0.00000000000E+00 -0.45593999997E+02  0.45594000000E+02  0.51100000000E-03 0. -1.
    9900012    2    1    2    0    0 -0.34421158144E+02 -0.21454138629E+02  0.28405976752E+01  0.50528865880E+02  0.30000018327E+02 0.  0.
        -12    1    1    2    0    0  0.34421158144E+02  0.21454138629E+02 -0.28405976752E+01  0.40659134120E+02  0.00000000000E+00 0.  1.
         11    1    3    3    0    0 -0.27245403636E+02 -0.18444334116E+02  0.82946853408E+00  0.32911905119E+02  0.51100000000E-03 0. -1.
        -11    1    3    3    0    0 -0.18884933745E+01 -0.26369377337E+01  0.85821882749E+01  0.91746282586E+01  0.51100000000E-03 0.  1.
        -12    1    3    3    0    0 -0.52872611336E+01 -0.37286677899E+00 -0.65710591337E+01  0.84423325016E+01  0.00000000000E+00 0.  1.
</event>
<event>
 7    1  0.5855569E-013  0.5052886E+02  0.7816164E-02  0.1300439E+00
        -11   -1    0    0    0    0  0.00000000000E+00  0.00000000000E+00  0.45593999997E+02  0.45594000000E+02  0.51100000000E-03 0.  1.
         11   -1    0    0    0    0 -0.00000000000E+00 -0.00000000000E+00 -0.45593999997E+02  0.45594000000E+02  0.51100000000E-03 0. -1.
    9900012    2    1    2    0    0  0.18649126408E+02 -0.35790182837E+02  0.49435483347E+01  0.50528858674E+02  0.29999996424E+02 0.  0.
        -12    1    1    2    0    0 -0.18649126408E+02  0.35790182837E+02 -0.49435483347E+01  0.40659141326E+02  0.00000000000E+00 0.  1.
         11    1    3    3    0    0  0.10474493219E+00 -0.38417068545E+00  0.28541433369E+01  0.28817864364E+01  0.51100000000E-03 0. -1.
        -11    1    3    3    0    0  0.14553267925E+02 -0.16648947289E+02  0.12932307241E+02  0.25616979212E+02  0.51100000000E-03 0.  1.
         12    1    3    3    0    0  0.39911135509E+01 -0.18757064863E+02 -0.10842902243E+02  0.22030093025E+02  0.00000000000E+00 0. -1.
</event>
<event>
 7    1  0.5855569E-013  0.5052886E+02  0.7816164E-02  0.1300439E+00
        -11   -1    0    0    0    0  0.00000000000E+00  0.00000000000E+00  0.45593999997E+02  0.45594000000E+02  0.51100000000E-03 0. -1.
         11   -1    0    0    0    0 -0.00000000000E+00 -0.00000000000E+00 -0.45593999997E+02  0.45594000000E+02  0.51100000000E-03 0.  1.
    9900012    2    1    2    0    0  0.26640365676E+02  0.88900034913E+01  0.29401094052E+02  0.50528861090E+02  0.30000003770E+02 0.  0.
        -12    1    1    2    0    0 -0.26640365676E+02 -0.88900034913E+01 -0.29401094052E+02  0.40659138910E+02  0.00000000000E+00 0.  1.
         11    1    3    3    0    0  0.46669068744E+01 -0.22383829835E+01 -0.76718675756E+00  0.52324902234E+01  0.51100000000E-03 0. -1.
        -11    1    3    3    0    0  0.10293995282E+02 -0.38228411232E+01  0.17389047201E+01  0.11117744510E+02  0.51100000000E-03 0.  1.
         12    1    3    3    0    0  0.11679463520E+02  0.14951227598E+02  0.28429376089E+02  0.34178626357E+02  0.00000000000E+00 0. -1.
</event>
<event>
 7    1  0.5855569E-013  0.5052885E+02  0.7816164E-02  0.1300439E+00
        -11   -1    0    0    0    0  0.00000000000E+00  0.00000000000E+00  0.45593999997E+02  0.45594000000E+02  0.51100000000E-03 0.  1.
         11   -1    0    0    0    0 -0.00000000000E+00 -0.00000000000E+00 -0.45593999997E+02  0.45594000000E+02  0.51100000000E-03 0. -1.
    9900012    2    1    2    0    0  0.34099404619E+02 -0.14396883643E+02  0.16826379973E+02  0.50528847070E+02  0.29999961153E+02 0.  0.
        -12    1    1    2    0    0 -0.34099404619E+02  0.14396883643E+02 -0.16826379973E+02  0.40659152930E+02  0.00000000000E+00 0.  1.
         11    1    3    3    0    0  0.61628478441E+01 -0.11032171732E+02  0.48441893593E+00  0.12646112788E+02  0.51100000000E-03 0. -1.
        -11    1    3    3    0    0  0.17962887922E+02 -0.32139406602E+00 -0.61478165471E+00  0.17976278630E+02  0.51100000000E-03 0.  1.
        -12    1    3    3    0    0  0.99736688534E+01 -0.30433178442E+01  0.16956742692E+02  0.19906455652E+02  0.00000000000E+00 0.  1.
</event>
<event>
 7    1  0.5855569E-013  0.5052883E+02  0.7816164E-02  0.1300439E+00
        -11   -1    0    0    0    0  0.00000000000E+00  0.00000000000E+00  0.45593999997E+02  0.45594000000E+02  0.51100000000E-03 0.  1.
         11   -1    0    0    0    0 -0.00000000000E+00 -0.00000000000E+00 -0.45593999997E+02  0.45594000000E+02  0.51100000000E-03 0. -1.
    9900012    2    1    2    0    0 -0.13625871918E+02 -0.38241969870E+02 -0.22483981300E+01  0.50528832040E+02  0.29999915467E+02 0.  0.
        -12    1    1    2    0    0  0.13625871918E+02  0.38241969870E+02  0.22483981300E+01  0.40659167960E+02  0.00000000000E+00 0.  1.
         11    1    3    3    0    0 -0.32199738028E+01 -0.66780947188E+01  0.80096765848E+01  0.10914215483E+02  0.51100000000E-03 0. -1.
        -11    1    3    3    0    0 -0.77109524966E+00  0.83057270267E+00  0.30792905283E+01  0.32812298483E+01  0.51100000000E-03 0.  1.
         12    1    3    3    0    0 -0.96348028654E+01 -0.32394447854E+02 -0.13337365243E+02  0.36333386708E+02  0.00000000000E+00 0. -1.
</event>
<event>
 7    1  0.5855569E-013  0.5052884E+02  0.7816164E-02  0.1300439E+00
        -11   -1    0    0    0    0  0.00000000000E+00  0.00000000000E+00  0.45593999997E+02  0.45594000000E+02  0.51100000000E-03 0.  1.
         11   -1    0    0    0    0 -0.00000000000E+00 -0.00000000000E+00 -0.45593999997E+02  0.45594000000E+02  0.51100000000E-03 0. -1.
    9900012    2    1    2    0    0 -0.61909329180E+01  0.48674304792E+01 -0.39889189404E+02  0.50528844067E+02  0.29999952025E+02 0.  0.
        -12    1    1    2    0    0  0.61909329180E+01 -0.48674304792E+01  0.39889189404E+02  0.40659155933E+02  0.00000000000E+00 0.  1.
         11    1    3    3    0    0 -0.35888572984E+01  0.42386614090E+01 -0.37105206720E+02  0.37518562249E+02  0.51100000000E-03 0. -1.
        -11    1    3    3    0    0 -0.48003231220E+01 -0.67489814268E+00 -0.67389914499E+01  0.83013610693E+01  0.51100000000E-03 0.  1.
         12    1    3    3    0    0  0.21982475024E+01  0.13036672129E+01  0.39550087653E+01  0.47089207487E+01  0.00000000000E+00 0. -1.
</event>
<event>
 7    1  0.5855569E-013  0.5052887E+02  0.7816164E-02  0.1300439E+00
        -11   -1    0    0    0    0  0.00000000000E+00  0.00000000000E+00  0.45593999997E+02  0.45594000000E+02  0.51100000000E-03 0.  1.
         11   -1    0    0    0    0 -0.00000000000E+00 -0.00000000000E+00 -0.45593999997E+02  0.45594000000E+02  0.51100000000E-03 0. -1.
    9900012    2    1    2    0    0  0.10631837769E+02  0.13628103323E+02 -0.36802229171E+02  0.50528865153E+02  0.30000016119E+02 0.  0.
        -12    1    1    2    0    0 -0.10631837769E+02 -0.13628103323E+02  0.36802229171E+02  0.40659134847E+02  0.00000000000E+00 0.  1.
         11    1    3    3    0    0  0.17495207045E+01 -0.62746885984E+01 -0.63044969713E+01  0.90652756177E+01  0.51100000000E-03 0. -1.
        -11    1    3    3    0    0  0.11255455824E+02  0.39240274442E+01 -0.13671786005E+02  0.18138384989E+02  0.51100000000E-03 0.  1.
        -12    1    3    3    0    0 -0.23731387589E+01  0.15978764477E+02 -0.16825946195E+02  0.23325204547E+02  0.00000000000E+00 0.  1.
</event>
<event>
 7    1  0.5855569E-013  0.5052886E+02  0.7816164E-02  0.1300439E+00
        -11   -1    0    0    0    0  0.00000000000E+00  0.00000000000E+00  0.45593999997E+02  0.45594000000E+02  0.51100000000E-03 0. -1.
         11   -1    0    0    0    0 -0.00000000000E+00 -0.00000000000E+00 -0.45593999997E+02  0.45594000000E+02  0.51100000000E-03 0.  1.
    9900012    2    1    2    0    0  0.12767578875E+02  0.32294217683E+02  0.21148011112E+02  0.50528856624E+02  0.29999990196E+02 0.  0.
        -12    1    1    2    0    0 -0.12767578875E+02 -0.32294217683E+02 -0.21148011112E+02  0.40659143376E+02  0.00000000000E+00 0.  1.
         11    1    3    3    0    0 -0.61108112393E+01  0.29259499316E+01 -0.26536100726E+01  0.72763207518E+01  0.51100000000E-03 0. -1.
        -11    1    3    3    0    0  0.93065214288E+00  0.56110915536E+01  0.10581290566E+01  0.57853348387E+01  0.51100000000E-03 0.  1.
        -12    1    3    3    0    0  0.17947737971E+02  0.23757176197E+02  0.22743492128E+02  0.37467201034E+02  0.00000000000E+00 0.  1.
</event>
<event>
 7    1  0.5855569E-013  0.5052886E+02  0.7816164E-02  0.1300439E+00
        -11   -1    0    0    0    0  0.00000000000E+00  0.00000000000E+00  0.45593999997E+02  0.45594000000E+02  0.51100000000E-03 0.  1.
         11   -1    0    0    0    0 -0.00000000000E+00 -0.00000000000E+00 -0.45593999997E+02  0.45594000000E+02  0.51100000000E-03 0. -1.
    9900012    2    1    2    0    0 -0.39605396178E+02 -0.40345215787E+00 -0.91877923889E+01  0.50528859465E+02  0.29999998829E+02 0.  0.
        -12    1    1    2    0    0  0.39605396178E+02  0.40345215787E+00  0.91877923889E+01  0.40659140535E+02  0.00000000000E+00 0.  1.
         11    1    3    3    0    0  0.22971252837E+01  0.15336250386E+00 -0.72272555407E+00  0.24130141140E+01  0.51100000000E-03 0.  1.
        -11    1    3    3    0    0 -0.30062385330E+02 -0.80495217942E+01  0.11162556772E+01  0.31141416792E+02  0.51100000000E-03 0. -1.
         12    1    3    3    0    0 -0.11840136132E+02  0.74927071325E+01 -0.95813225120E+01  0.16974428558E+02  0.00000000000E+00 0. -1.
</event>
<event>
 7    1  0.5855569E-013  0.5052886E+02  0.7816164E-02  0.1300439E+00
        -11   -1    0    0    0    0  0.00000000000E+00  0.00000000000E+00  0.45593999997E+02  0.45594000000E+02  0.51100000000E-03 0.  1.
         11   -1    0    0    0    0 -0.00000000000E+00 -0.00000000000E+00 -0.45593999997E+02  0.45594000000E+02  0.51100000000E-03 0. -1.
    9900012    2    1    2    0    0 -0.33305505015E+02  0.82925952152E+01 -0.21797748962E+02  0.50528860074E+02  0.30000000682E+02 0.  0.
        -12    1    1    2    0    0  0.33305505015E+02 -0.82925952152E+01  0.21797748962E+02  0.40659139926E+02  0.00000000000E+00 0.  1.
         11    1    3    3    0    0 -0.18818799521E+02 -0.99097101349E+00 -0.22677550180E+02  0.29485598542E+02  0.51100000000E-03 0. -1.
        -11    1    3    3    0    0 -0.63884815291E+01  0.51321638853E+01 -0.55530463515E+01  0.98988952129E+01  0.51100000000E-03 0.  1.
         12    1    3    3    0    0 -0.80982239645E+01  0.41514023434E+01  0.64328475697E+01  0.11144366319E+02  0.00000000000E+00 0. -1.
</event>
<event>
 7    1  0.5855569E-013  0.5052882E+02  0.7816164E-02  0.1300439E+00
        -11   -1    0    0    0    0  0.00000000000E+00  0.00000000000E+00  0.45593999997E+02  0.45594000000E+02  0.51100000000E-03 0. -1.
         11   -1    0    0    0    0 -0.00000000000E+00 -0.00000000000E+00 -0.45593999997E+02  0.45594000000E+02  0.51100000000E-03 0.  1.
    9900012    2    1    2    0    0  0.17414128572E+01 -0.30568818448E+02  0.26752270921E+02  0.50528816787E+02  0.29999869107E+02 0.  0.
        -12    1    1    2    0    0 -0.17414128572E+01  0.30568818448E+02 -0.26752270921E+02  0.40659183213E+02  0.00000000000E+00 0.  1.
         11    1    3    3    0    0  0.18328900516E+01 -0.88542611816E+01 -0.33659391644E+00  0.90482441799E+01  0.51100000000E-03 0. -1.
        -11    1    3    3    0    0 -0.87799755351E+01 -0.13301348848E+01  0.10782586730E+02  0.13968586401E+02  0.51100000000E-03 0.  1.
         12    1    3    3    0    0  0.86884983407E+01 -0.20384422382E+02  0.16306278108E+02  0.27511986206E+02  0.00000000000E+00 0. -1.
</event>
<event>
 7    1  0.5855569E-013  0.5052886E+02  0.7816164E-02  0.1300439E+00
        -11   -1    0    0    0    0  0.00000000000E+00  0.00000000000E+00  0.45593999997E+02  0.45594000000E+02  0.51100000000E-03 0.  1.
         11   -1    0    0    0    0 -0.00000000000E+00 -0.00000000000E+00 -0.45593999997E+02  0.45594000000E+02  0.51100000000E-03 0. -1.
    9900012    2    1    2    0    0 -0.33609197588E+02  0.22847290965E+02  0.12603983692E+01  0.50528862392E+02  0.30000007728E+02 0.  0.
        -12    1    1    2    0    0  0.33609197588E+02 -0.22847290965E+02 -0.12603983692E+01  0.40659137608E+02  0.00000000000E+00 0.  1.
         11    1    3    3    0    0 -0.91174822834E+01  0.11876006448E+02  0.80998272184E+01  0.17022785130E+02  0.51100000000E-03 0. -1.
        -11    1    3    3    0    0 -0.88738066009E+01 -0.32841761936E+01  0.33447060271E+01  0.10035801688E+02  0.51100000000E-03 0.  1.
         12    1    3    3    0    0 -0.15617908704E+02  0.14255460710E+02 -0.10184134876E+02  0.23470275574E+02  0.00000000000E+00 0. -1.
</event>
<event>
 7    1  0.5855569E-013  0.5052883E+02  0.7816164E-02  0.1300439E+00
        -11   -1    0    0    0    0  0.00000000000E+00  0.00000000000E+00  0.45593999997E+02  0.45594000000E+02  0.51100000000E-03 0.  1.
         11   -1    0    0    0    0 -0.00000000000E+00 -0.00000000000E+00 -0.45593999997E+02  0.45594000000E+02  0.51100000000E-03 0. -1.
    9900012    2    1    2    0    0 -0.37344712227E+02 -0.36773389983E+01 -0.15653048460E+02  0.50528827855E+02  0.29999902747E+02 0.  0.
        -12    1    1    2    0    0  0.37344712227E+02  0.36773389983E+01  0.15653048460E+02  0.40659172145E+02  0.00000000000E+00 0.  1.
         11    1    3    3    0    0 -0.29751270085E+02 -0.73018690201E+01 -0.89145753085E+01  0.31904937174E+02  0.51100000000E-03 0. -1.
        -11    1    3    3    0    0 -0.47125170081E+00 -0.53761434192E+01 -0.42749559072E+01  0.68847835478E+01  0.51100000000E-03 0.  1.
        -12    1    3    3    0    0 -0.71221904409E+01  0.90006734410E+01 -0.24635172448E+01  0.11739107133E+02  0.00000000000E+00 0.  1.
</event>
<event>
 7    1  0.5855569E-013  0.5052886E+02  0.7816164E-02  0.1300439E+00
        -11   -1    0    0    0    0  0.00000000000E+00  0.00000000000E+00  0.45593999997E+02  0.45594000000E+02  0.51100000000E-03 0.  1.
         11   -1    0    0    0    0 -0.00000000000E+00 -0.00000000000E+00 -0.45593999997E+02  0.45594000000E+02  0.51100000000E-03 0. -1.
    9900012    2    1    2    0    0  0.24108145876E+02 -0.52412448708E+01 -0.32318607305E+02  0.50528859287E+02  0.29999998289E+02 0.  0.
        -12    1    1    2    0    0 -0.24108145876E+02  0.52412448708E+01  0.32318607305E+02  0.40659140713E+02  0.00000000000E+00 0.  1.
         11    1    3    3    0    0 -0.31202183323E+01 -0.64057221089E+01 -0.97240166628E+01  0.12055104251E+02  0.51100000000E-03 0. -1.
        -11    1    3    3    0    0  0.11035591903E+02 -0.17240450797E+01 -0.84020404409E+00  0.11201007240E+02  0.51100000000E-03 0.  1.
        -12    1    3    3    0    0  0.16192772305E+02  0.28885223177E+01 -0.21754386599E+02  0.27272747797E+02  0.00000000000E+00 0.  1.
</event>
<event>
 7    1  0.5855569E-013  0.5052886E+02  0.7816164E-02  0.1300439E+00
        -11   -1    0    0    0    0  0.00000000000E+00  0.00000000000E+00  0.45593999997E+02  0.45594000000E+02  0.51100000000E-03 0. -1.
         11   -1    0    0    0    0 -0.00000000000E+00 -0.00000000000E+00 -0.45593999997E+02  0.45594000000E+02  0.51100000000E-03 0.  1.
    9900012    2    1    2    0    0  0.57261801890E+01  0.26585602947E+02  0.30225522380E+02  0.50528860477E+02  0.30000001906E+02 0.  0.
        -12    1    1    2    0    0 -0.57261801890E+01 -0.26585602947E+02 -0.30225522380E+02  0.40659139523E+02  0.00000000000E+00 0.  1.
         11    1    3    3    0    0 -0.28163245174E+00  0.20381924495E+02  0.14532559655E+02  0.25033926047E+02  0.51100000000E-03 0. -1.
        -11    1    3    3    0    0 -0.55356814933E+01  0.77493803305E+00  0.43432560793E+00  0.56065084986E+01  0.51100000000E-03 0.  1.
        -12    1    3    3    0    0  0.11543494134E+02  0.54287404190E+01  0.15258637117E+02  0.19888425931E+02  0.00000000000E+00 0.  1.
</event>
<event>
 7    1  0.5855569E-013  0.5052888E+02  0.7816164E-02  0.1300439E+00
        -11   -1    0    0    0    0  0.00000000000E+00  0.00000000000E+00  0.45593999997E+02  0.45594000000E+02  0.51100000000E-03 0.  1.
         11   -1    0    0    0    0 -0.00000000000E+00 -0.00000000000E+00 -0.45593999997E+02  0.45594000000E+02  0.51100000000E-03 0. -1.
    9900012    2    1    2    0    0  0.28824565386E+02  0.18139355774E+02 -0.22209737313E+02  0.50528877664E+02  0.30000054149E+02 0.  0.
        -12    1    1    2    0    0 -0.28824565386E+02 -0.18139355774E+02  0.22209737313E+02  0.40659122336E+02  0.00000000000E+00 0.  1.
         11    1    3    3    0    0  0.15800276099E+02  0.15310169385E+02 -0.39372303893E+01  0.22350655355E+02  0.51100000000E-03 0. -1.
        -11    1    3    3    0    0  0.51368563212E+01  0.39789998151E+01  0.16640021530E+01  0.67073568430E+01  0.51100000000E-03 0.  1.
         12    1    3    3    0    0  0.78874329659E+01 -0.11498134263E+01 -0.19936509077E+02  0.21470865466E+02  0.00000000000E+00 0. -1.
</event>
<event>
 7    1  0.5855569E-013  0.5052888E+02  0.7816164E-02  0.1300439E+00
        -11   -1    0    0    0    0  0.00000000000E+00  0.00000000000E+00  0.45593999997E+02  0.45594000000E+02  0.51100000000E-03 0. -1.
         11   -1    0    0    0    0 -0.00000000000E+00 -0.00000000000E+00 -0.45593999997E+02  0.45594000000E+02  0.51100000000E-03 0.  1.
    9900012    2    1    2    0    0  0.21131102520E+02  0.30268954264E+02 -0.17042046146E+02  0.50528875282E+02  0.30000046907E+02 0.  0.
        -12    1    1    2    0    0 -0.21131102520E+02 -0.30268954264E+02  0.17042046146E+02  0.40659124718E+02  0.00000000000E+00 0.  1.
         11    1    3    3    0    0 -0.11473837541E+01  0.18010027817E+01 -0.51267262685E+01  0.55536855324E+01  0.51100000000E-03 0. -1.
        -11    1    3    3    0    0 -0.38580677292E+01 -0.76474108381E+00  0.18522072672E+00  0.39374893659E+01  0.51100000000E-03 0.  1.
         12    1    3    3    0    0  0.26136554004E+02  0.29232692566E+02 -0.12100540604E+02  0.41037700384E+02  0.00000000000E+00 0. -1.
</event>
<event>
 7    1  0.5855569E-013  0.5052886E+02  0.7816164E-02  0.1300439E+00
        -11   -1    0    0    0    0  0.00000000000E+00  0.00000000000E+00  0.45593999997E+02  0.45594000000E+02  0.51100000000E-03 0.  1.
         11   -1    0    0    0    0 -0.00000000000E+00 -0.00000000000E+00 -0.45593999997E+02  0.45594000000E+02  0.51100000000E-03 0. -1.
    9900012    2    1    2    0    0  0.13246661763E+02 -0.91574810970E+01 -0.37334056839E+02  0.50528864397E+02  0.30000013821E+02 0.  0.
        -12    1    1    2    0    0 -0.13246661763E+02  0.91574810970E+01  0.37334056839E+02  0.40659135603E+02  0.00000000000E+00 0.  1.
         11    1    3    3    0    0  0.19824160847E+01  0.18003919743E+01  0.39307378705E+01  0.47562679973E+01  0.51100000000E-03 0. -1.
        -11    1    3    3    0    0  0.12071878230E+01 -0.49946166456E+01 -0.34441959092E+01  0.61859505008E+01  0.51100000000E-03 0.  1.
         12    1    3    3    0    0  0.10057057855E+02 -0.59632564258E+01 -0.37820598801E+02  0.39586645899E+02  0.00000000000E+00 0. -1.
</event>
<event>
 7    1  0.5855569E-013  0.5052886E+02  0.7816164E-02  0.1300439E+00
        -11   -1    0    0    0    0  0.00000000000E+00  0.00000000000E+00  0.45593999997E+02  0.45594000000E+02  0.51100000000E-03 0. -1.
         11   -1    0    0    0    0 -0.00000000000E+00 -0.00000000000E+00 -0.45593999997E+02  0.45594000000E+02  0.51100000000E-03 0.  1.
    9900012    2    1    2    0    0 -0.98947775588E+01 -0.38856068269E+02  0.67427573706E+01  0.50528862759E+02  0.30000008841E+02 0.  0.
        -12    1    1    2    0    0  0.98947775588E+01  0.38856068269E+02 -0.67427573706E+01  0.40659137241E+02  0.00000000000E+00 0.  1.
         11    1    3    3    0    0 -0.37107453613E+01 -0.16986454320E+01  0.43320575558E+01  0.59516174582E+01  0.51100000000E-03 0. -1.
        -11    1    3    3    0    0 -0.53708928796E+01  0.14035828966E+01  0.22964090362E+01  0.60074978147E+01  0.51100000000E-03 0.  1.
         12    1    3    3    0    0 -0.81313931789E+00 -0.38561005734E+02  0.11429077860E+00  0.38569747486E+02  0.00000000000E+00 0. -1.
</event>
<event>
 7    1  0.5855569E-013  0.5052886E+02  0.7816164E-02  0.1300439E+00
        -11   -1    0    0    0    0  0.00000000000E+00  0.00000000000E+00  0.45593999997E+02  0.45594000000E+02  0.51100000000E-03 0. -1.
         11   -1    0    0    0    0 -0.00000000000E+00 -0.00000000000E+00 -0.45593999997E+02  0.45594000000E+02  0.51100000000E-03 0.  1.
    9900012    2    1    2    0    0 -0.14648078980E+01 -0.34317947673E+02  0.21755429048E+02  0.50528857267E+02  0.29999992150E+02 0.  0.
        -12    1    1    2    0    0  0.14648078980E+01  0.34317947673E+02 -0.21755429048E+02  0.40659142733E+02  0.00000000000E+00 0.  1.
         11    1    3    3    0    0 -0.55728983498E+00 -0.28310937138E+02  0.17201479422E+02  0.33131716348E+02  0.51100000000E-03 0. -1.
        -11    1    3    3    0    0  0.41341927606E+01 -0.64418813511E+01 -0.30695962789E+01  0.82469271065E+01  0.51100000000E-03 0.  1.
         12    1    3    3    0    0 -0.50417108236E+01  0.43487081588E+00  0.76235459046E+01  0.91502138125E+01  0.00000000000E+00 0. -1.
</event>
<event>
 7    1  0.5855569E-013  0.5052886E+02  0.7816164E-02  0.1300439E+00
        -11   -1    0    0    0    0  0.00000000000E+00  0.00000000000E+00  0.45593999997E+02  0.45594000000E+02  0.51100000000E-03 0.  1.
         11   -1    0    0    0    0 -0.00000000000E+00 -0.00000000000E+00 -0.45593999997E+02  0.45594000000E+02  0.51100000000E-03 0. -1.
    9900012    2    1    2    0    0 -0.22664857467E+02 -0.13755502046E+02 -0.30826224201E+02  0.50528859589E+02  0.29999999205E+02 0.  0.
        -12    1    1    2    0    0  0.22664857467E+02  0.13755502046E+02  0.30826224201E+02  0.40659140411E+02  0.00000000000E+00 0.  1.
         11    1    3    3    0    0 -0.72664040542E+01  0.45720908413E+01 -0.88783265037E+00  0.86309263476E+01  0.51100000000E-03 0. -1.
        -11    1    3    3    0    0 -0.11392820240E+02 -0.91986548184E+00 -0.10962509686E+02  0.15837270105E+02  0.51100000000E-03 0.  1.
         12    1    3    3    0    0 -0.40056331727E+01 -0.17407727405E+02 -0.18975881865E+02  0.26060663136E+02  0.00000000000E+00 0. -1.
</event>
<event>
 7    1  0.5855569E-013  0.5052885E+02  0.7816164E-02  0.1300439E+00
        -11   -1    0    0    0    0  0.00000000000E+00  0.00000000000E+00  0.45593999997E+02  0.45594000000E+02  0.51100000000E-03 0.  1.
         11   -1    0    0    0    0 -0.00000000000E+00 -0.00000000000E+00 -0.45593999997E+02  0.45594000000E+02  0.51100000000E-03 0. -1.
    9900012    2    1    2    0    0 -0.19972136871E+01  0.36413726793E+02 -0.17978270742E+02  0.50528848751E+02  0.29999966262E+02 0.  0.
        -12    1    1    2    0    0  0.19972136871E+01 -0.36413726793E+02  0.17978270742E+02  0.40659151249E+02  0.00000000000E+00 0.  1.
         11    1    3    3    0    0 -0.59265620607E+00  0.54684162135E+01  0.50231998201E+01  0.74489834177E+01  0.51100000000E-03 0. -1.
        -11    1    3    3    0    0 -0.14106256796E+01 -0.67445417203E+00 -0.78740383754E+01  0.80277788856E+01  0.51100000000E-03 0.  1.
         12    1    3    3    0    0  0.60681986202E-02  0.31619764751E+02 -0.15127432187E+02  0.35052086447E+02  0.00000000000E+00 0. -1.
</event>
<event>
 7    1  0.5855569E-013  0.5052887E+02  0.7816164E-02  0.1300439E+00
        -11   -1    0    0    0    0  0.00000000000E+00  0.00000000000E+00  0.45593999997E+02  0.45594000000E+02  0.51100000000E-03 0.  1.
         11   -1    0    0    0    0 -0.00000000000E+00 -0.00000000000E+00 -0.45593999997E+02  0.45594000000E+02  0.51100000000E-03 0. -1.
    9900012    2    1    2    0    0 -0.11089335942E+02  0.15603690119E+02 -0.35870828418E+02  0.50528870049E+02  0.30000031001E+02 0.  0.
        -12    1    1    2    0    0  0.11089335942E+02 -0.15603690119E+02  0.35870828418E+02  0.40659129951E+02  0.00000000000E+00 0.  1.
         11    1    3    3    0    0 -0.25577277656E+01  0.87662534396E+00  0.11362428393E+00  0.27061696280E+01  0.51100000000E-03 0. -1.
        -11    1    3    3    0    0  0.53394119302E+01 -0.46586930082E+01 -0.47475210706E+01  0.85294605270E+01  0.51100000000E-03 0.  1.
         12    1    3    3    0    0 -0.13871020106E+02  0.19385757783E+02 -0.31236931631E+02  0.39293239894E+02  0.00000000000E+00 0. -1.
</event>
<event>
 7    1  0.5855569E-013  0.5052886E+02  0.7816164E-02  0.1300439E+00
        -11   -1    0    0    0    0  0.00000000000E+00  0.00000000000E+00  0.45593999997E+02  0.45594000000E+02  0.51100000000E-03 0.  1.
         11   -1    0    0    0    0 -0.00000000000E+00 -0.00000000000E+00 -0.45593999997E+02  0.45594000000E+02  0.51100000000E-03 0. -1.
    9900012    2    1    2    0    0  0.21598450736E+02  0.30326073470E+02 -0.16340188227E+02  0.50528861327E+02  0.30000004490E+02 0.  0.
        -12    1    1    2    0    0 -0.21598450736E+02 -0.30326073470E+02  0.16340188227E+02  0.40659138673E+02  0.00000000000E+00 0.  1.
         11    1    3    3    0    0  0.31910008815E+01  0.44251116245E+01 -0.74201631497E+01  0.92099359902E+01  0.51100000000E-03 0. -1.
        -11    1    3    3    0    0  0.13585544815E+02  0.52088628795E+01 -0.13200331737E+02  0.19645560278E+02  0.51100000000E-03 0.  1.
        -12    1    3    3    0    0  0.48219050400E+01  0.20692098967E+02  0.42803066602E+01  0.21673365059E+02  0.00000000000E+00 0.  1.
</event>
<event>
 7    1  0.5855569E-013  0.5052886E+02  0.7816164E-02  0.1300439E+00
        -11   -1    0    0    0    0  0.00000000000E+00  0.00000000000E+00  0.45593999997E+02  0.45594000000E+02  0.51100000000E-03 0.  1.
         11   -1    0    0    0    0 -0.00000000000E+00 -0.00000000000E+00 -0.45593999997E+02  0.45594000000E+02  0.51100000000E-03 0. -1.
    9900012    2    1    2    0    0 -0.22038028778E+02  0.21308012826E+02 -0.26710665120E+02  0.50528858910E+02  0.29999997143E+02 0.  0.
        -12    1    1    2    0    0  0.22038028778E+02 -0.21308012826E+02  0.26710665120E+02  0.40659141090E+02  0.00000000000E+00 0.  1.
         11    1    3    3    0    0  0.25301226138E+01  0.81364131124E+01 -0.22187100108E+01  0.88048516825E+01  0.51100000000E-03 0. -1.
        -11    1    3    3    0    0 -0.44109702267E+01  0.12702335773E+02 -0.77736736063E+01  0.15531773692E+02  0.51100000000E-03 0.  1.
        -12    1    3    3    0    0 -0.20157181165E+02  0.46926394099E+00 -0.16718281503E+02  0.26192233535E+02  0.00000000000E+00 0.  1.
</event>
<event>
 7    1  0.5855569E-013  0.5052886E+02  0.7816164E-02  0.1300439E+00
        -11   -1    0    0    0    0  0.00000000000E+00  0.00000000000E+00  0.45593999997E+02  0.45594000000E+02  0.51100000000E-03 0. -1.
         11   -1    0    0    0    0 -0.00000000000E+00 -0.00000000000E+00 -0.45593999997E+02  0.45594000000E+02  0.51100000000E-03 0.  1.
    9900012    2    1    2    0    0  0.70101137050E+01  0.38326811971E+01  0.39866459384E+02  0.50528859291E+02  0.29999998302E+02 0.  0.
        -12    1    1    2    0    0 -0.70101137050E+01 -0.38326811971E+01 -0.39866459384E+02  0.40659140709E+02  0.00000000000E+00 0.  1.
         11    1    3    3    0    0  0.37835910341E+01  0.66247583331E+01  0.11289154648E+02  0.13625270530E+02  0.51100000000E-03 0. -1.
        -11    1    3    3    0    0 -0.85736859390E+01  0.16455425314E+01  0.19510863097E+02  0.21374977891E+02  0.51100000000E-03 0.  1.
        -12    1    3    3    0    0  0.11800208610E+02 -0.44376196674E+01  0.90664416390E+01  0.15528610870E+02  0.00000000000E+00 0.  1.
</event>
<event>
 7    1  0.5855569E-013  0.5052885E+02  0.7816164E-02  0.1300439E+00
        -11   -1    0    0    0    0  0.00000000000E+00  0.00000000000E+00  0.45593999997E+02  0.45594000000E+02  0.51100000000E-03 0. -1.
         11   -1    0    0    0    0 -0.00000000000E+00 -0.00000000000E+00 -0.45593999997E+02  0.45594000000E+02  0.51100000000E-03 0.  1.
    9900012    2    1    2    0    0  0.19577944895E+02 -0.21794583112E+01  0.35568528854E+02  0.50528853308E+02  0.29999980116E+02 0.  0.
        -12    1    1    2    0    0 -0.19577944895E+02  0.21794583112E+01 -0.35568528854E+02  0.40659146692E+02  0.00000000000E+00 0.  1.
         11    1    3    3    0    0  0.66173645301E+01 -0.12448774400E+01  0.16648430221E+02  0.17958548445E+02  0.51100000000E-03 0. -1.
        -11    1    3    3    0    0  0.16059505600E+02 -0.77586646826E+01  0.17411565887E+02  0.24925232691E+02  0.51100000000E-03 0.  1.
        -12    1    3    3    0    0 -0.30989252356E+01  0.68240838114E+01  0.15085327463E+01  0.76450721728E+01  0.00000000000E+00 0.  1.
</event>
<event>
 7    1  0.5855569E-013  0.5052889E+02  0.7816164E-02  0.1300439E+00
        -11   -1    0    0    0    0  0.00000000000E+00  0.00000000000E+00  0.45593999997E+02  0.45594000000E+02  0.51100000000E-03 0. -1.
         11   -1    0    0    0    0 -0.00000000000E+00 -0.00000000000E+00 -0.45593999997E+02  0.45594000000E+02  0.51100000000E-03 0.  1.
    9900012    2    1    2    0    0  0.34961292350E+01 -0.40076145501E+02  0.59028146109E+01  0.50528885669E+02  0.30000078479E+02 0.  0.
        -12    1    1    2    0    0 -0.34961292350E+01  0.40076145501E+02 -0.59028146109E+01  0.40659114331E+02  0.00000000000E+00 0.  1.
         11    1    3    3    0    0 -0.14325051959E+01 -0.88652911885E+01 -0.47231797857E+01  0.10146619464E+02  0.51100000000E-03 0. -1.
        -11    1    3    3    0    0 -0.13035549645E+01 -0.20807418823E+02 -0.41598494649E+01  0.21259169350E+02  0.51100000000E-03 0.  1.
         12    1    3    3    0    0  0.62321893954E+01 -0.10403435490E+02  0.14785843861E+02  0.19123096856E+02  0.00000000000E+00 0. -1.
</event>
<event>
 7    1  0.5855569E-013  0.5052886E+02  0.7816164E-02  0.1300439E+00
        -11   -1    0    0    0    0  0.00000000000E+00  0.00000000000E+00  0.45593999997E+02  0.45594000000E+02  0.51100000000E-03 0. -1.
         11   -1    0    0    0    0 -0.00000000000E+00 -0.00000000000E+00 -0.45593999997E+02  0.45594000000E+02  0.51100000000E-03 0.  1.
    9900012    2    1    2    0    0 -0.92866457909E+01 -0.36679388578E+02  0.14884427296E+02  0.50528861882E+02  0.30000006178E+02 0.  0.
        -12    1    1    2    0    0  0.92866457909E+01  0.36679388578E+02 -0.14884427296E+02  0.40659138118E+02  0.00000000000E+00 0.  1.
         11    1    3    3    0    0  0.51351247637E+01 -0.59273699680E+01  0.69952927271E+01  0.10508917246E+02  0.51100000000E-03 0. -1.
        -11    1    3    3    0    0  0.15901911777E+01 -0.17136392947E+02  0.80532088357E+01  0.19001022184E+02  0.51100000000E-03 0.  1.
        -12    1    3    3    0    0 -0.16011961732E+02 -0.13615625663E+02 -0.16407426644E+00  0.21018922453E+02  0.00000000000E+00 0.  1.
</event>
<event>
 7    1  0.5855569E-013  0.5052885E+02  0.7816164E-02  0.1300439E+00
        -11   -1    0    0    0    0  0.00000000000E+00  0.00000000000E+00  0.45593999997E+02  0.45594000000E+02  0.51100000000E-03 0.  1.
         11   -1    0    0    0    0 -0.00000000000E+00 -0.00000000000E+00 -0.45593999997E+02  0.45594000000E+02  0.51100000000E-03 0. -1.
    9900012    2    1    2    0    0  0.24401877711E+01 -0.56268700418E+00 -0.40581955031E+02  0.50528853340E+02  0.29999980211E+02 0.  0.
        -12    1    1    2    0    0 -0.24401877711E+01  0.56268700418E+00  0.40581955031E+02  0.40659146660E+02  0.00000000000E+00 0.  1.
         11    1    3    3    0    0 -0.77962892299E+01 -0.29362509900E+01 -0.17155800176E+02  0.19071580311E+02  0.51100000000E-03 0. -1.
        -11    1    3    3    0    0 -0.85482005652E+00  0.82611287700E+01 -0.76292491716E+01  0.11277517859E+02  0.51100000000E-03 0.  1.
         12    1    3    3    0    0  0.11091297058E+02 -0.58875647842E+01 -0.15796905683E+02  0.20179755169E+02  0.00000000000E+00 0. -1.
</event>
<event>
 7    1  0.5855569E-013  0.5052887E+02  0.7816164E-02  0.1300439E+00
        -11   -1    0    0    0    0  0.00000000000E+00  0.00000000000E+00  0.45593999997E+02  0.45594000000E+02  0.51100000000E-03 0.  1.
         11   -1    0    0    0    0 -0.00000000000E+00 -0.00000000000E+00 -0.45593999997E+02  0.45594000000E+02  0.51100000000E-03 0. -1.
    9900012    2    1    2    0    0 -0.34005816833E+02 -0.21349538128E+02  0.64004765915E+01  0.50528874857E+02  0.30000045615E+02 0.  0.
        -12    1    1    2    0    0  0.34005816833E+02  0.21349538128E+02 -0.64004765915E+01  0.40659125143E+02  0.00000000000E+00 0.  1.
         11    1    3    3    0    0 -0.21775166110E+02 -0.19355121770E+02  0.32330052092E+01  0.29312640972E+02  0.51100000000E-03 0. -1.
        -11    1    3    3    0    0 -0.36814720014E+01 -0.91280500714E+01  0.16114419310E+01  0.99735289422E+01  0.51100000000E-03 0.  1.
        -12    1    3    3    0    0 -0.85491787219E+01  0.71336337126E+01  0.15560294513E+01  0.11242704942E+02  0.00000000000E+00 0.  1.
</event>
<event>
 7    1  0.5855569E-013  0.5052884E+02  0.7816164E-02  0.1300439E+00
        -11   -1    0    0    0    0  0.00000000000E+00  0.00000000000E+00  0.45593999997E+02  0.45594000000E+02  0.51100000000E-03 0.  1.
         11   -1    0    0    0    0 -0.00000000000E+00 -0.00000000000E+00 -0.45593999997E+02  0.45594000000E+02  0.51100000000E-03 0. -1.
    9900012    2    1    2    0    0  0.20449154216E+02 -0.22200700389E+02 -0.27242026035E+02  0.50528843733E+02  0.29999951010E+02 0.  0.
        -12    1    1    2    0    0 -0.20449154216E+02  0.22200700389E+02  0.27242026035E+02  0.40659156267E+02  0.00000000000E+00 0.  1.
         11    1    3    3    0    0  0.11123474457E+02 -0.98656883107E+01 -0.10718712331E+02  0.18329055735E+02  0.51100000000E-03 0. -1.
        -11    1    3    3    0    0  0.12842572618E+02 -0.13249017389E+02 -0.36316129957E+01  0.18805763650E+02  0.51100000000E-03 0.  1.
        -12    1    3    3    0    0 -0.35168928598E+01  0.91400531078E+00 -0.12891700708E+02  0.13394024348E+02  0.00000000000E+00 0.  1.
</event>
<event>
 7    1  0.5855569E-013  0.5052887E+02  0.7816164E-02  0.1300439E+00
        -11   -1    0    0    0    0  0.00000000000E+00  0.00000000000E+00  0.45593999997E+02  0.45594000000E+02  0.51100000000E-03 0.  1.
         11   -1    0    0    0    0 -0.00000000000E+00 -0.00000000000E+00 -0.45593999997E+02  0.45594000000E+02  0.51100000000E-03 0. -1.
    9900012    2    1    2    0    0  0.40334785957E+02  0.49403914675E+01  0.13648186792E+01  0.50528866265E+02  0.30000019498E+02 0.  0.
        -12    1    1    2    0    0 -0.40334785957E+02 -0.49403914675E+01 -0.13648186792E+01  0.40659133735E+02  0.00000000000E+00 0.  1.
         11    1    3    3    0    0 -0.13169931959E+01 -0.23024509477E+01  0.43098054425E+00  0.26872841188E+01  0.51100000000E-03 0. -1.
        -11    1    3    3    0    0 -0.18501528012E+01 -0.21640213896E+00  0.31385785109E+01  0.36497356896E+01  0.51100000000E-03 0.  1.
         12    1    3    3    0    0  0.43501931955E+02  0.74592445541E+01 -0.22047403760E+01  0.44191846456E+02  0.00000000000E+00 0. -1.
</event>
<event>
 7    1  0.5855569E-013  0.5052886E+02  0.7816164E-02  0.1300439E+00
        -11   -1    0    0    0    0  0.00000000000E+00  0.00000000000E+00  0.45593999997E+02  0.45594000000E+02  0.51100000000E-03 0.  1.
         11   -1    0    0    0    0 -0.00000000000E+00 -0.00000000000E+00 -0.45593999997E+02  0.45594000000E+02  0.51100000000E-03 0. -1.
    9900012    2    1    2    0    0  0.18212382877E+02 -0.39057450175E+01 -0.36141666123E+02  0.50528858785E+02  0.29999996762E+02 0.  0.
        -12    1    1    2    0    0 -0.18212382877E+02  0.39057450175E+01  0.36141666123E+02  0.40659141215E+02  0.00000000000E+00 0.  1.
         11    1    3    3    0    0  0.25862349874E+01  0.17896193210E+01  0.14849584411E+01  0.34779951922E+01  0.51100000000E-03 0. -1.
        -11    1    3    3    0    0 -0.93345218259E+00  0.63811636145E+01 -0.16022368957E+02  0.17271563025E+02  0.51100000000E-03 0.  1.
         12    1    3    3    0    0  0.16559600072E+02 -0.12076527953E+02 -0.21604255607E+02  0.29779300568E+02  0.00000000000E+00 0. -1.
</event>
<event>
 7    1  0.5855569E-013  0.5052885E+02  0.7816164E-02  0.1300439E+00
        -11   -1    0    0    0    0  0.00000000000E+00  0.00000000000E+00  0.45593999997E+02  0.45594000000E+02  0.51100000000E-03 0.  1.
         11   -1    0    0    0    0 -0.00000000000E+00 -0.00000000000E+00 -0.45593999997E+02  0.45594000000E+02  0.51100000000E-03 0. -1.
    9900012    2    1    2    0    0 -0.28193042420E+02 -0.28464292485E+02  0.69355994921E+01  0.50528854315E+02  0.29999983174E+02 0.  0.
        -12    1    1    2    0    0  0.28193042420E+02  0.28464292485E+02 -0.69355994921E+01  0.40659145685E+02  0.00000000000E+00 0.  1.
         11    1    3    3    0    0 -0.19652143899E+02 -0.28899106849E+02 -0.42152122179E+01  0.35201323140E+02  0.51100000000E-03 0. -1.
        -11    1    3    3    0    0  0.76332339271E+00 -0.38124986589E+00  0.10100434418E+00  0.85919508888E+00  0.51100000000E-03 0.  1.
        -12    1    3    3    0    0 -0.93042219145E+01  0.81606423088E+00  0.11049807366E+02  0.14468336086E+02  0.00000000000E+00 0.  1.
</event>
<event>
 7    1  0.5855569E-013  0.5052885E+02  0.7816164E-02  0.1300439E+00
        -11   -1    0    0    0    0  0.00000000000E+00  0.00000000000E+00  0.45593999997E+02  0.45594000000E+02  0.51100000000E-03 0.  1.
         11   -1    0    0    0    0 -0.00000000000E+00 -0.00000000000E+00 -0.45593999997E+02  0.45594000000E+02  0.51100000000E-03 0. -1.
    9900012    2    1    2    0    0  0.35663002151E+02  0.18964357309E+02  0.46550513391E+01  0.50528854983E+02  0.29999985206E+02 0.  0.
        -12    1    1    2    0    0 -0.35663002151E+02 -0.18964357309E+02 -0.46550513391E+01  0.40659145017E+02  0.00000000000E+00 0.  1.
         11    1    3    3    0    0  0.13102706716E+02  0.19338979330E+02  0.50298933561E+01  0.23895122353E+02  0.51100000000E-03 0. -1.
        -11    1    3    3    0    0 -0.15985262481E+01 -0.63607982665E+00 -0.17243582110E+01  0.24358356293E+01  0.51100000000E-03 0.  1.
         12    1    3    3    0    0  0.24158821683E+02  0.26145780483E+00  0.13495161940E+01  0.24197897001E+02  0.00000000000E+00 0. -1.
</event>
<event>
 7    1  0.5855569E-013  0.5052886E+02  0.7816164E-02  0.1300439E+00
        -11   -1    0    0    0    0  0.00000000000E+00  0.00000000000E+00  0.45593999997E+02  0.45594000000E+02  0.51100000000E-03 0. -1.
         11   -1    0    0    0    0 -0.00000000000E+00 -0.00000000000E+00 -0.45593999997E+02  0.45594000000E+02  0.51100000000E-03 0.  1.
    9900012    2    1    2    0    0 -0.30758691332E+02  0.20306231625E+02  0.17167571346E+02  0.50528860299E+02  0.30000001366E+02 0.  0.
        -12    1    1    2    0    0  0.30758691332E+02 -0.20306231625E+02 -0.17167571346E+02  0.40659139701E+02  0.00000000000E+00 0.  1.
         11    1    3    3    0    0 -0.45055235939E+01  0.12224772191E+01  0.69115673495E+00  0.47193104687E+01  0.51100000000E-03 0. -1.
        -11    1    3    3    0    0  0.33933431656E+01 -0.36798960746E+01  0.11318111664E+00  0.50069175333E+01  0.51100000000E-03 0.  1.
         12    1    3    3    0    0 -0.29646510904E+02  0.22763650481E+02  0.16363233494E+02  0.40802632297E+02  0.00000000000E+00 0. -1.
</event>
<event>
 7    1  0.5855569E-013  0.5052886E+02  0.7816164E-02  0.1300439E+00
        -11   -1    0    0    0    0  0.00000000000E+00  0.00000000000E+00  0.45593999997E+02  0.45594000000E+02  0.51100000000E-03 0.  1.
         11   -1    0    0    0    0 -0.00000000000E+00 -0.00000000000E+00 -0.45593999997E+02  0.45594000000E+02  0.51100000000E-03 0. -1.
    9900012    2    1    2    0    0  0.38406063349E+02  0.11119985654E+02 -0.73814351449E+01  0.50528863663E+02  0.30000011589E+02 0.  0.
        -12    1    1    2    0    0 -0.38406063349E+02 -0.11119985654E+02  0.73814351449E+01  0.40659136337E+02  0.00000000000E+00 0.  1.
         11    1    3    3    0    0  0.80320940202E+01  0.87592337510E+01 -0.20079894059E+01  0.12052830870E+02  0.51100000000E-03 0.  1.
        -11    1    3    3    0    0  0.63880866687E+01 -0.26032925178E+01 -0.11332978430E+02  0.13267297523E+02  0.51100000000E-03 0. -1.
         12    1    3    3    0    0  0.23985882660E+02  0.49640444209E+01  0.59595326910E+01  0.25208735270E+02  0.00000000000E+00 0. -1.
</event>
<event>
 7    1  0.5855569E-013  0.5052886E+02  0.7816164E-02  0.1300439E+00
        -11   -1    0    0    0    0  0.00000000000E+00  0.00000000000E+00  0.45593999997E+02  0.45594000000E+02  0.51100000000E-03 0.  1.
         11   -1    0    0    0    0 -0.00000000000E+00 -0.00000000000E+00 -0.45593999997E+02  0.45594000000E+02  0.51100000000E-03 0. -1.
    9900012    2    1    2    0    0  0.20876330760E+02  0.24312386915E+02 -0.25025031512E+02  0.50528861474E+02  0.30000004937E+02 0.  0.
        -12    1    1    2    0    0 -0.20876330760E+02 -0.24312386915E+02  0.25025031512E+02  0.40659138526E+02  0.00000000000E+00 0.  1.
         11    1    3    3    0    0  0.11168691402E+02  0.12697100563E+02 -0.72755831349E+01  0.18408969025E+02  0.51100000000E-03 0. -1.
        -11    1    3    3    0    0  0.44865837553E+01  0.15909874534E+02 -0.43211151980E+01  0.17085829751E+02  0.51100000000E-03 0.  1.
         12    1    3    3    0    0  0.52210556028E+01 -0.42945881821E+01 -0.13428333179E+02  0.15034062698E+02  0.00000000000E+00 0. -1.
</event>
<event>
 7    1  0.5855569E-013  0.5052884E+02  0.7816164E-02  0.1300439E+00
        -11   -1    0    0    0    0  0.00000000000E+00  0.00000000000E+00  0.45593999997E+02  0.45594000000E+02  0.51100000000E-03 0. -1.
         11   -1    0    0    0    0 -0.00000000000E+00 -0.00000000000E+00 -0.45593999997E+02  0.45594000000E+02  0.51100000000E-03 0.  1.
    9900012    2    1    2    0    0 -0.22812922680E+02  0.24456760946E+02  0.23121511867E+02  0.50528844719E+02  0.29999954007E+02 0.  0.
        -12    1    1    2    0    0  0.22812922680E+02 -0.24456760946E+02 -0.23121511867E+02  0.40659155281E+02  0.00000000000E+00 0.  1.
         11    1    3    3    0    0 -0.29015193687E+01 -0.28516641031E+01 -0.17324082458E+01  0.44217690345E+01  0.51100000000E-03 0. -1.
        -11    1    3    3    0    0 -0.67146696270E+01  0.78373738371E+01 -0.18887405908E+01  0.10491832926E+02  0.51100000000E-03 0.  1.
         12    1    3    3    0    0 -0.13196733684E+02  0.19471051212E+02  0.26742660704E+02  0.35615242758E+02  0.00000000000E+00 0. -1.
</event>
<event>
 7    1  0.5855569E-013  0.5052886E+02  0.7816164E-02  0.1300439E+00
        -11   -1    0    0    0    0  0.00000000000E+00  0.00000000000E+00  0.45593999997E+02  0.45594000000E+02  0.51100000000E-03 0. -1.
         11   -1    0    0    0    0 -0.00000000000E+00 -0.00000000000E+00 -0.45593999997E+02  0.45594000000E+02  0.51100000000E-03 0.  1.
    9900012    2    1    2    0    0 -0.17697575720E+02 -0.36416585669E+02 -0.37139718432E+01  0.50528862220E+02  0.30000007204E+02 0.  0.
        -12    1    1    2    0    0  0.17697575720E+02  0.36416585669E+02  0.37139718432E+01  0.40659137780E+02  0.00000000000E+00 0.  1.
         11    1    3    3    0    0 -0.70357637604E+01 -0.15385343076E+02  0.34335511509E+01  0.17262677285E+02  0.51100000000E-03 0. -1.
        -11    1    3    3    0    0  0.39395083637E+01 -0.34691266752E+01  0.51269999198E+01  0.73376218542E+01  0.51100000000E-03 0.  1.
        -12    1    3    3    0    0 -0.14601320324E+02 -0.17562115918E+02 -0.12274522914E+02  0.25928563081E+02  0.00000000000E+00 0.  1.
</event>
<event>
 7    1  0.5855569E-013  0.5052886E+02  0.7816164E-02  0.1300439E+00
        -11   -1    0    0    0    0  0.00000000000E+00  0.00000000000E+00  0.45593999997E+02  0.45594000000E+02  0.51100000000E-03 0.  1.
         11   -1    0    0    0    0 -0.00000000000E+00 -0.00000000000E+00 -0.45593999997E+02  0.45594000000E+02  0.51100000000E-03 0. -1.
    9900012    2    1    2    0    0  0.41945074781E+01  0.24468958827E+02 -0.32200028014E+02  0.50528860275E+02  0.30000001292E+02 0.  0.
        -12    1    1    2    0    0 -0.41945074781E+01 -0.24468958827E+02  0.32200028014E+02  0.40659139725E+02  0.00000000000E+00 0.  1.
         11    1    3    3    0    0 -0.61281670356E+01  0.10235878673E+02 -0.10604927078E+02  0.15962209184E+02  0.51100000000E-03 0. -1.
        -11    1    3    3    0    0  0.10245611405E+02  0.18582331310E+02 -0.12870682368E+02  0.24817938167E+02  0.51100000000E-03 0.  1.
         12    1    3    3    0    0  0.77063108984E-01 -0.43492511561E+01 -0.87244185677E+01  0.97487129246E+01  0.00000000000E+00 0. -1.
</event>
<event>
 7    1  0.5855569E-013  0.5052886E+02  0.7816164E-02  0.1300439E+00
        -11   -1    0    0    0    0  0.00000000000E+00  0.00000000000E+00  0.45593999997E+02  0.45594000000E+02  0.51100000000E-03 0.  1.
         11   -1    0    0    0    0 -0.00000000000E+00 -0.00000000000E+00 -0.45593999997E+02  0.45594000000E+02  0.51100000000E-03 0. -1.
    9900012    2    1    2    0    0 -0.19400778213E+02  0.22065354395E+02 -0.28105080843E+02  0.50528860449E+02  0.30000001820E+02 0.  0.
        -12    1    1    2    0    0  0.19400778213E+02 -0.22065354395E+02  0.28105080843E+02  0.40659139551E+02  0.00000000000E+00 0.  1.
         11    1    3    3    0    0 -0.37576965363E+01 -0.54891271075E+01 -0.30433783870E+01  0.73152547412E+01  0.51100000000E-03 0. -1.
        -11    1    3    3    0    0  0.61855796549E+00 -0.20518031611E+00 -0.55480408634E+01  0.55861856934E+01  0.51100000000E-03 0.  1.
         12    1    3    3    0    0 -0.16261639643E+02  0.27759661819E+02 -0.19513661592E+02  0.37627420014E+02  0.00000000000E+00 0. -1.
</event>
<event>
 7    1  0.5855569E-013  0.5052883E+02  0.7816164E-02  0.1300439E+00
        -11   -1    0    0    0    0  0.00000000000E+00  0.00000000000E+00  0.45593999997E+02  0.45594000000E+02  0.51100000000E-03 0.  1.
         11   -1    0    0    0    0 -0.00000000000E+00 -0.00000000000E+00 -0.45593999997E+02  0.45594000000E+02  0.51100000000E-03 0. -1.
    9900012    2    1    2    0    0 -0.22854346327E+02  0.30206886956E+02  0.14778054628E+02  0.50528830503E+02  0.29999910797E+02 0.  0.
        -12    1    1    2    0    0  0.22854346327E+02 -0.30206886956E+02 -0.14778054628E+02  0.40659169497E+02  0.00000000000E+00 0.  1.
         11    1    3    3    0    0 -0.22046638060E+02  0.26924302102E+02  0.11569667279E+02  0.36671916976E+02  0.51100000000E-03 0. -1.
        -11    1    3    3    0    0 -0.22823849074E+01  0.75586796436E+01  0.45829625246E+01  0.91294284916E+01  0.51100000000E-03 0.  1.
         12    1    3    3    0    0  0.14746766409E+01 -0.42760947902E+01 -0.13745751759E+01  0.47274850358E+01  0.00000000000E+00 0. -1.
</event>
<event>
 7    1  0.5855569E-013  0.5052885E+02  0.7816164E-02  0.1300439E+00
        -11   -1    0    0    0    0  0.00000000000E+00  0.00000000000E+00  0.45593999997E+02  0.45594000000E+02  0.51100000000E-03 0.  1.
         11   -1    0    0    0    0 -0.00000000000E+00 -0.00000000000E+00 -0.45593999997E+02  0.45594000000E+02  0.51100000000E-03 0. -1.
    9900012    2    1    2    0    0  0.15422938880E+02 -0.21196013307E+02 -0.31080996565E+02  0.50528851321E+02  0.29999974077E+02 0.  0.
        -12    1    1    2    0    0 -0.15422938880E+02  0.21196013307E+02  0.31080996565E+02  0.40659148679E+02  0.00000000000E+00 0.  1.
         11    1    3    3    0    0  0.94569270950E+00 -0.61350098428E+01 -0.13182520756E+02  0.14570913980E+02  0.51100000000E-03 0. -1.
        -11    1    3    3    0    0 -0.31262122046E+01 -0.12945659473E+02 -0.93668994337E+01  0.16281956492E+02  0.51100000000E-03 0.  1.
         12    1    3    3    0    0  0.17603458375E+02 -0.21153439914E+01 -0.85315763750E+01  0.19675980850E+02  0.00000000000E+00 0. -1.
</event>
<event>
 7    1  0.5855569E-013  0.5052887E+02  0.7816164E-02  0.1300439E+00
        -11   -1    0    0    0    0  0.00000000000E+00  0.00000000000E+00  0.45593999997E+02  0.45594000000E+02  0.51100000000E-03 0.  1.
         11   -1    0    0    0    0 -0.00000000000E+00 -0.00000000000E+00 -0.45593999997E+02  0.45594000000E+02  0.51100000000E-03 0. -1.
    9900012    2    1    2    0    0 -0.35927287549E+02 -0.18156531696E+02  0.57214951612E+01  0.50528866453E+02  0.30000020072E+02 0.  0.
        -12    1    1    2    0    0  0.35927287549E+02  0.18156531696E+02 -0.57214951612E+01  0.40659133547E+02  0.00000000000E+00 0.  1.
         11    1    3    3    0    0 -0.29095390054E+01  0.55079886913E+01  0.28521370753E+01  0.68511344173E+01  0.51100000000E-03 0. -1.
        -11    1    3    3    0    0  0.15942215962E+01 -0.19776233370E+01 -0.81302829081E+00  0.26671242610E+01  0.51100000000E-03 0.  1.
        -12    1    3    3    0    0 -0.34611970140E+02 -0.21686897051E+02  0.36823863767E+01  0.41010607775E+02  0.00000000000E+00 0.  1.
</event>
<event>
 7    1  0.5855569E-013  0.5052886E+02  0.7816164E-02  0.1300439E+00
        -11   -1    0    0    0    0  0.00000000000E+00  0.00000000000E+00  0.45593999997E+02  0.45594000000E+02  0.51100000000E-03 0.  1.
         11   -1    0    0    0    0 -0.00000000000E+00 -0.00000000000E+00 -0.45593999997E+02  0.45594000000E+02  0.51100000000E-03 0. -1.
    9900012    2    1    2    0    0 -0.39307941538E+02 -0.10340525945E+02  0.10605481668E+01  0.50528861947E+02  0.30000006374E+02 0.  0.
        -12    1    1    2    0    0  0.39307941538E+02  0.10340525945E+02 -0.10605481668E+01  0.40659138053E+02  0.00000000000E+00 0.  1.
         11    1    3    3    0    0 -0.84061426834E+01 -0.11016097215E+02 -0.71725502259E+01  0.15603304447E+02  0.51100000000E-03 0.  1.
        -11    1    3    3    0    0 -0.64071941726E+01  0.13663208046E+01 -0.38555644912E+01  0.76016016413E+01  0.51100000000E-03 0. -1.
         12    1    3    3    0    0 -0.24494604682E+02 -0.69074953456E+00  0.12088662884E+02  0.27323955859E+02  0.00000000000E+00 0. -1.
</event>
<event>
 7    1  0.5855569E-013  0.5052886E+02  0.7816164E-02  0.1300439E+00
        -11   -1    0    0    0    0  0.00000000000E+00  0.00000000000E+00  0.45593999997E+02  0.45594000000E+02  0.51100000000E-03 0.  1.
         11   -1    0    0    0    0 -0.00000000000E+00 -0.00000000000E+00 -0.45593999997E+02  0.45594000000E+02  0.51100000000E-03 0. -1.
    9900012    2    1    2    0    0 -0.15172173252E+01 -0.24725973487E+02 -0.32241118929E+02  0.50528862490E+02  0.30000008025E+02 0.  0.
        -12    1    1    2    0    0  0.15172173252E+01  0.24725973487E+02  0.32241118929E+02  0.40659137510E+02  0.00000000000E+00 0.  1.
         11    1    3    3    0    0  0.50302412516E+01  0.16029700115E+01 -0.16872362006E+02  0.17679067844E+02  0.51100000000E-03 0.  1.
        -11    1    3    3    0    0  0.20140893616E+01 -0.42905027339E+01 -0.16966065410E+00  0.47427581284E+01  0.51100000000E-03 0. -1.
         12    1    3    3    0    0 -0.85615479384E+01 -0.22038440764E+02 -0.15199096269E+02  0.28107036518E+02  0.00000000000E+00 0. -1.
</event>
<event>
 7    1  0.5855569E-013  0.5052884E+02  0.7816164E-02  0.1300439E+00
        -11   -1    0    0    0    0  0.00000000000E+00  0.00000000000E+00  0.45593999997E+02  0.45594000000E+02  0.51100000000E-03 0.  1.
         11   -1    0    0    0    0 -0.00000000000E+00 -0.00000000000E+00 -0.45593999997E+02  0.45594000000E+02  0.51100000000E-03 0. -1.
    9900012    2    1    2    0    0 -0.26560966582E+02 -0.70109536872E+01 -0.29975477629E+02  0.50528835271E+02  0.29999925290E+02 0.  0.
        -12    1    1    2    0    0  0.26560966582E+02  0.70109536872E+01  0.29975477629E+02  0.40659164729E+02  0.00000000000E+00 0.  1.
         11    1    3    3    0    0 -0.21681125157E+01 -0.52202227326E+01 -0.19621149331E+02  0.20419131681E+02  0.51100000000E-03 0. -1.
        -11    1    3    3    0    0 -0.69519025669E+01 -0.24024966547E+01  0.31914456979E+01  0.80178716241E+01  0.51100000000E-03 0.  1.
         12    1    3    3    0    0 -0.17440951500E+02  0.61176570012E+00 -0.13545773995E+02  0.22091831966E+02  0.00000000000E+00 0. -1.
</event>
<event>
 7    1  0.5855569E-013  0.5052886E+02  0.7816164E-02  0.1300439E+00
        -11   -1    0    0    0    0  0.00000000000E+00  0.00000000000E+00  0.45593999997E+02  0.45594000000E+02  0.51100000000E-03 0.  1.
         11   -1    0    0    0    0 -0.00000000000E+00 -0.00000000000E+00 -0.45593999997E+02  0.45594000000E+02  0.51100000000E-03 0. -1.
    9900012    2    1    2    0    0 -0.33732670825E+02 -0.18663853727E+02 -0.12920258536E+02  0.50528860836E+02  0.30000002997E+02 0.  0.
        -12    1    1    2    0    0  0.33732670825E+02  0.18663853727E+02  0.12920258536E+02  0.40659139164E+02  0.00000000000E+00 0.  1.
         11    1    3    3    0    0 -0.96826967346E+01 -0.69596262932E+00 -0.11314031304E+02  0.14907926906E+02  0.51100000000E-03 0. -1.
        -11    1    3    3    0    0 -0.52085808320E+01  0.36714526834E+01 -0.26687537528E+01  0.69087716668E+01  0.51100000000E-03 0.  1.
        -12    1    3    3    0    0 -0.18841393259E+02 -0.21639343781E+02  0.10625265208E+01  0.28712162263E+02  0.00000000000E+00 0.  1.
</event>
<event>
 7    1  0.5855569E-013  0.5052886E+02  0.7816164E-02  0.1300439E+00
        -11   -1    0    0    0    0  0.00000000000E+00  0.00000000000E+00  0.45593999997E+02  0.45594000000E+02  0.51100000000E-03 0. -1.
         11   -1    0    0    0    0 -0.00000000000E+00 -0.00000000000E+00 -0.45593999997E+02  0.45594000000E+02  0.51100000000E-03 0.  1.
    9900012    2    1    2    0    0  0.19517272985E+02 -0.18754707425E+02  0.30339792518E+02  0.50528855821E+02  0.29999987753E+02 0.  0.
        -12    1    1    2    0    0 -0.19517272985E+02  0.18754707425E+02 -0.30339792518E+02  0.40659144179E+02  0.00000000000E+00 0.  1.
         11    1    3    3    0    0  0.11210677970E+02 -0.85604610316E+01  0.27475682429E+02  0.30884849342E+02  0.51100000000E-03 0. -1.
        -11    1    3    3    0    0 -0.33577669316E+01  0.52440427237E+00 -0.53993790776E+00  0.34410945661E+01  0.51100000000E-03 0.  1.
        -12    1    3    3    0    0  0.11664361946E+02 -0.10718650666E+02  0.34040479962E+01  0.16202911913E+02  0.00000000000E+00 0.  1.
</event>
<event>
 7    1  0.5855569E-013  0.5052886E+02  0.7816164E-02  0.1300439E+00
        -11   -1    0    0    0    0  0.00000000000E+00  0.00000000000E+00  0.45593999997E+02  0.45594000000E+02  0.51100000000E-03 0. -1.
         11   -1    0    0    0    0 -0.00000000000E+00 -0.00000000000E+00 -0.45593999997E+02  0.45594000000E+02  0.51100000000E-03 0.  1.
    9900012    2    1    2    0    0 -0.88429132744E+01  0.39295683232E+02  0.55513614147E+01  0.50528862658E+02  0.30000008536E+02 0.  0.
        -12    1    1    2    0    0  0.88429132744E+01 -0.39295683232E+02 -0.55513614147E+01  0.40659137342E+02  0.00000000000E+00 0.  1.
         11    1    3    3    0    0 -0.13156830726E+02  0.33365068191E+01 -0.12241730042E+01  0.13628392139E+02  0.51100000000E-03 0. -1.
        -11    1    3    3    0    0  0.27231609544E+00  0.27975907956E+01 -0.12509434896E-01  0.28108409885E+01  0.51100000000E-03 0.  1.
         12    1    3    3    0    0  0.40416013558E+01  0.33161585617E+02  0.67880438538E+01  0.34089629530E+02  0.00000000000E+00 0. -1.
</event>
<event>
 7    1  0.5855569E-013  0.5052886E+02  0.7816164E-02  0.1300439E+00
        -11   -1    0    0    0    0  0.00000000000E+00  0.00000000000E+00  0.45593999997E+02  0.45594000000E+02  0.51100000000E-03 0.  1.
         11   -1    0    0    0    0 -0.00000000000E+00 -0.00000000000E+00 -0.45593999997E+02  0.45594000000E+02  0.51100000000E-03 0. -1.
    9900012    2    1    2    0    0  0.28564852676E+02  0.28934233079E+02 -0.15888982162E+00  0.50528857138E+02  0.29999991758E+02 0.  0.
        -12    1    1    2    0    0 -0.28564852676E+02 -0.28934233079E+02  0.15888982162E+00  0.40659142862E+02  0.00000000000E+00 0.  1.
         11    1    3    3    0    0  0.74540260170E+01  0.16649254600E+01  0.53944589000E+01  0.93506506583E+01  0.51100000000E-03 0. -1.
        -11    1    3    3    0    0  0.17392179350E+02  0.71907178400E+01  0.29658648328E+01  0.19052314297E+02  0.51100000000E-03 0.  1.
        -12    1    3    3    0    0  0.37186473088E+01  0.20078589779E+02 -0.85192135544E+01  0.22125892183E+02  0.00000000000E+00 0.  1.
</event>
<event>
 7    1  0.5855569E-013  0.5052886E+02  0.7816164E-02  0.1300439E+00
        -11   -1    0    0    0    0  0.00000000000E+00  0.00000000000E+00  0.45593999997E+02  0.45594000000E+02  0.51100000000E-03 0.  1.
         11   -1    0    0    0    0 -0.00000000000E+00 -0.00000000000E+00 -0.45593999997E+02  0.45594000000E+02  0.51100000000E-03 0. -1.
    9900012    2    1    2    0    0  0.38851591884E+01 -0.38832713869E+02 -0.11405760958E+02  0.50528861895E+02  0.30000006216E+02 0.  0.
        -12    1    1    2    0    0 -0.38851591884E+01  0.38832713869E+02  0.11405760958E+02  0.40659138105E+02  0.00000000000E+00 0.  1.
         11    1    3    3    0    0  0.56628699068E+01 -0.94436647640E+01 -0.10388852407E+02  0.15138664220E+02  0.51100000000E-03 0. -1.
        -11    1    3    3    0    0 -0.90158251180E+01 -0.94776309567E+01  0.38823709477E+01  0.13644903647E+02  0.51100000000E-03 0.  1.
         12    1    3    3    0    0  0.72381143995E+01 -0.19911418149E+02 -0.48992794989E+01  0.21745294028E+02  0.00000000000E+00 0. -1.
</event>
<event>
 7    1  0.5855569E-013  0.5052887E+02  0.7816164E-02  0.1300439E+00
        -11   -1    0    0    0    0  0.00000000000E+00  0.00000000000E+00  0.45593999997E+02  0.45594000000E+02  0.51100000000E-03 0.  1.
         11   -1    0    0    0    0 -0.00000000000E+00 -0.00000000000E+00 -0.45593999997E+02  0.45594000000E+02  0.51100000000E-03 0. -1.
    9900012    2    1    2    0    0  0.14565007967E+01 -0.39202801597E+02 -0.10685672594E+02  0.50528872532E+02  0.30000038549E+02 0.  0.
        -12    1    1    2    0    0 -0.14565007967E+01  0.39202801597E+02  0.10685672594E+02  0.40659127468E+02  0.00000000000E+00 0.  1.
         11    1    3    3    0    0 -0.35219504976E+01 -0.99389232568E+01  0.59750344282E+01  0.12119709877E+02  0.51100000000E-03 0. -1.
        -11    1    3    3    0    0 -0.17367491912E+00 -0.23390429528E+02 -0.42951147201E+01  0.23782143873E+02  0.51100000000E-03 0.  1.
         12    1    3    3    0    0  0.51521262134E+01 -0.58734488122E+01 -0.12365592302E+02  0.14627018782E+02  0.00000000000E+00 0. -1.
</event>
<event>
 7    1  0.5855569E-013  0.5052885E+02  0.7816164E-02  0.1300439E+00
        -11   -1    0    0    0    0  0.00000000000E+00  0.00000000000E+00  0.45593999997E+02  0.45594000000E+02  0.51100000000E-03 0.  1.
         11   -1    0    0    0    0 -0.00000000000E+00 -0.00000000000E+00 -0.45593999997E+02  0.45594000000E+02  0.51100000000E-03 0. -1.
    9900012    2    1    2    0    0 -0.99170785334E+01  0.65107657726E+00 -0.39425803947E+02  0.50528851408E+02  0.29999974339E+02 0.  0.
        -12    1    1    2    0    0  0.99170785334E+01 -0.65107657726E+00  0.39425803947E+02  0.40659148592E+02  0.00000000000E+00 0.  1.
         11    1    3    3    0    0 -0.13197133064E+01 -0.78506241956E+01 -0.66271726703E+01  0.10358250882E+02  0.51100000000E-03 0. -1.
        -11    1    3    3    0    0 -0.32386036485E+01 -0.19567665212E+01  0.13804171660E+01  0.40277835870E+01  0.51100000000E-03 0.  1.
         12    1    3    3    0    0 -0.53587615785E+01  0.10458467294E+02 -0.34179048443E+02  0.36142816939E+02  0.00000000000E+00 0. -1.
</event>
<event>
 7    1  0.5855569E-013  0.5052885E+02  0.7816164E-02  0.1300439E+00
        -11   -1    0    0    0    0  0.00000000000E+00  0.00000000000E+00  0.45593999997E+02  0.45594000000E+02  0.51100000000E-03 0.  1.
         11   -1    0    0    0    0 -0.00000000000E+00 -0.00000000000E+00 -0.45593999997E+02  0.45594000000E+02  0.51100000000E-03 0. -1.
    9900012    2    1    2    0    0 -0.26821933336E+02  0.11014718715E+02 -0.28503090228E+02  0.50528852336E+02  0.29999977160E+02 0.  0.
        -12    1    1    2    0    0  0.26821933336E+02 -0.11014718715E+02  0.28503090228E+02  0.40659147664E+02  0.00000000000E+00 0.  1.
         11    1    3    3    0    0 -0.17778296907E+02  0.67752117834E+01 -0.11295056267E+02  0.22125768506E+02  0.51100000000E-03 0. -1.
        -11    1    3    3    0    0 -0.14531605316E+02  0.71836420720E+01 -0.10870414591E+02  0.19517637667E+02  0.51100000000E-03 0.  1.
        -12    1    3    3    0    0  0.54879688871E+01 -0.29441351407E+01 -0.63376193696E+01  0.88854461626E+01  0.00000000000E+00 0.  1.
</event>
<event>
 7    1  0.5855569E-013  0.5052886E+02  0.7816164E-02  0.1300439E+00
        -11   -1    0    0    0    0  0.00000000000E+00  0.00000000000E+00  0.45593999997E+02  0.45594000000E+02  0.51100000000E-03 0.  1.
         11   -1    0    0    0    0 -0.00000000000E+00 -0.00000000000E+00 -0.45593999997E+02  0.45594000000E+02  0.51100000000E-03 0. -1.
    9900012    2    1    2    0    0  0.21741449956E+02  0.18976571859E+02 -0.28642011110E+02  0.50528859254E+02  0.29999998190E+02 0.  0.
        -12    1    1    2    0    0 -0.21741449956E+02 -0.18976571859E+02  0.28642011110E+02  0.40659140746E+02  0.00000000000E+00 0.  1.
         11    1    3    3    0    0  0.13189203549E+02  0.69272740687E+01 -0.33434115025E+01  0.15268287953E+02  0.51100000000E-03 0. -1.
        -11    1    3    3    0    0  0.10560918091E+02  0.17900449695E+01 -0.38188369635E+01  0.11371928945E+02  0.51100000000E-03 0.  1.
        -12    1    3    3    0    0 -0.20086716836E+01  0.10259252821E+02 -0.21479762644E+02  0.23888642356E+02  0.00000000000E+00 0.  1.
</event>
<event>
 7    1  0.5855569E-013  0.5052885E+02  0.7816164E-02  0.1300439E+00
        -11   -1    0    0    0    0  0.00000000000E+00  0.00000000000E+00  0.45593999997E+02  0.45594000000E+02  0.51100000000E-03 0.  1.
         11   -1    0    0    0    0 -0.00000000000E+00 -0.00000000000E+00 -0.45593999997E+02  0.45594000000E+02  0.51100000000E-03 0. -1.
    9900012    2    1    2    0    0 -0.22485826536E+02  0.20818355565E+02 -0.26723593975E+02  0.50528846069E+02  0.29999958111E+02 0.  0.
        -12    1    1    2    0    0  0.22485826536E+02 -0.20818355565E+02  0.26723593975E+02  0.40659153931E+02  0.00000000000E+00 0.  1.
         11    1    3    3    0    0  0.17492197393E+01 -0.15320131589E+00  0.12141540232E+01  0.21348092638E+01  0.51100000000E-03 0.  1.
        -11    1    3    3    0    0 -0.12724592799E+02  0.56266248324E+01 -0.25511818156E+02  0.29059026735E+02  0.51100000000E-03 0. -1.
         12    1    3    3    0    0 -0.11510453476E+02  0.15344932049E+02 -0.24259298426E+01  0.19335010070E+02  0.00000000000E+00 0. -1.
</event>
<event>
 7    1  0.5855569E-013  0.5052886E+02  0.7816164E-02  0.1300439E+00
        -11   -1    0    0    0    0  0.00000000000E+00  0.00000000000E+00  0.45593999997E+02  0.45594000000E+02  0.51100000000E-03 0.  1.
         11   -1    0    0    0    0 -0.00000000000E+00 -0.00000000000E+00 -0.45593999997E+02  0.45594000000E+02  0.51100000000E-03 0. -1.
    9900012    2    1    2    0    0 -0.92329742103E+01 -0.22524387668E+02 -0.32566389919E+02  0.50528860745E+02  0.30000002720E+02 0.  0.
        -12    1    1    2    0    0  0.92329742103E+01  0.22524387668E+02  0.32566389919E+02  0.40659139255E+02  0.00000000000E+00 0.  1.
         11    1    3    3    0    0  0.21328978855E+01  0.27245406654E+00 -0.14703301266E+02  0.14859695589E+02  0.51100000000E-03 0. -1.
        -11    1    3    3    0    0 -0.49527353973E+01 -0.25476877380E+01 -0.12615261296E+02  0.13790036931E+02  0.51100000000E-03 0.  1.
        -12    1    3    3    0    0 -0.64131366985E+01 -0.20249153997E+02 -0.52478273564E+01  0.21879128225E+02  0.00000000000E+00 0.  1.
</event>
<event>
 7    1  0.5855569E-013  0.5052885E+02  0.7816164E-02  0.1300439E+00
        -11   -1    0    0    0    0  0.00000000000E+00  0.00000000000E+00  0.45593999997E+02  0.45594000000E+02  0.51100000000E-03 0.  1.
         11   -1    0    0    0    0 -0.00000000000E+00 -0.00000000000E+00 -0.45593999997E+02  0.45594000000E+02  0.51100000000E-03 0. -1.
    9900012    2    1    2    0    0  0.37875402084E+02 -0.13209950300E+02  0.66421071307E+01  0.50528850266E+02  0.29999970869E+02 0.  0.
        -12    1    1    2    0    0 -0.37875402084E+02  0.13209950300E+02 -0.66421071307E+01  0.40659149734E+02  0.00000000000E+00 0.  1.
         11    1    3    3    0    0  0.97163855327E+01  0.53849470454E-01 -0.49759150182E+01  0.10916536910E+02  0.51100000000E-03 0. -1.
        -11    1    3    3    0    0  0.27926243994E+01  0.19807345633E+00 -0.55062050639E+01  0.61770768651E+01  0.51100000000E-03 0.  1.
        -12    1    3    3    0    0  0.25366392151E+02 -0.13461873227E+02  0.17124227213E+02  0.33435236491E+02  0.00000000000E+00 0.  1.
</event>
<event>
 7    1  0.5855569E-013  0.5052886E+02  0.7816164E-02  0.1300439E+00
        -11   -1    0    0    0    0  0.00000000000E+00  0.00000000000E+00  0.45593999997E+02  0.45594000000E+02  0.51100000000E-03 0. -1.
         11   -1    0    0    0    0 -0.00000000000E+00 -0.00000000000E+00 -0.45593999997E+02  0.45594000000E+02  0.51100000000E-03 0.  1.
    9900012    2    1    2    0    0  0.24538492252E+02 -0.10295842755E+01  0.32403215712E+02  0.50528855465E+02  0.29999986673E+02 0.  0.
        -12    1    1    2    0    0 -0.24538492252E+02  0.10295842755E+01 -0.32403215712E+02  0.40659144535E+02  0.00000000000E+00 0.  1.
         11    1    3    3    0    0  0.19940852142E+02 -0.84844272543E+00  0.29815600387E+02  0.35879345951E+02  0.51100000000E-03 0. -1.
        -11    1    3    3    0    0  0.50575953528E+01 -0.34085049233E+01  0.69222811852E+01  0.92257874262E+01  0.51100000000E-03 0.  1.
         12    1    3    3    0    0 -0.45995524200E+00  0.32273633732E+01 -0.43346658603E+01  0.54237220880E+01  0.00000000000E+00 0. -1.
</event>
<event>
 7    1  0.5855569E-013  0.5052887E+02  0.7816164E-02  0.1300439E+00
        -11   -1    0    0    0    0  0.00000000000E+00  0.00000000000E+00  0.45593999997E+02  0.45594000000E+02  0.51100000000E-03 0. -1.
         11   -1    0    0    0    0 -0.00000000000E+00 -0.00000000000E+00 -0.45593999997E+02  0.45594000000E+02  0.51100000000E-03 0.  1.
    9900012    2    1    2    0    0 -0.85264263561E+01  0.16704222299E+02  0.36075395279E+02  0.50528866542E+02  0.30000020341E+02 0.  0.
        -12    1    1    2    0    0  0.85264263561E+01 -0.16704222299E+02 -0.36075395279E+02  0.40659133458E+02  0.00000000000E+00 0.  1.
         11    1    3    3    0    0 -0.31862972491E+01 -0.43989497122E+01  0.12221940755E+02  0.13374568584E+02  0.51100000000E-03 0. -1.
        -11    1    3    3    0    0 -0.52733905350E+01  0.16760881675E+01  0.14644433555E+02  0.15654946620E+02  0.51100000000E-03 0.  1.
        -12    1    3    3    0    0 -0.66738572030E-01  0.19427083844E+02  0.92090209691E+01  0.21499351337E+02  0.00000000000E+00 0.  1.
</event>
<event>
 7    1  0.5855569E-013  0.5052886E+02  0.7816164E-02  0.1300439E+00
        -11   -1    0    0    0    0  0.00000000000E+00  0.00000000000E+00  0.45593999997E+02  0.45594000000E+02  0.51100000000E-03 0.  1.
         11   -1    0    0    0    0 -0.00000000000E+00 -0.00000000000E+00 -0.45593999997E+02  0.45594000000E+02  0.51100000000E-03 0. -1.
    9900012    2    1    2    0    0 -0.86849785921E+01  0.35781736955E+02 -0.17245411835E+02  0.50528858568E+02  0.29999996102E+02 0.  0.
        -12    1    1    2    0    0  0.86849785921E+01 -0.35781736955E+02  0.17245411835E+02  0.40659141432E+02  0.00000000000E+00 0.  1.
         11    1    3    3    0    0 -0.41261610044E+00  0.25901899460E+01 -0.36542053937E+01  0.44980610626E+01  0.51100000000E-03 0. -1.
        -11    1    3    3    0    0 -0.14710898382E+02  0.23399585716E+02  0.57483241061E+00  0.27645642974E+02  0.51100000000E-03 0.  1.
        -12    1    3    3    0    0  0.64385358901E+01  0.97919612931E+01 -0.14166038852E+02  0.18385154531E+02  0.00000000000E+00 0.  1.
</event>
<event>
 7    1  0.5855569E-013  0.5052886E+02  0.7816164E-02  0.1300439E+00
        -11   -1    0    0    0    0  0.00000000000E+00  0.00000000000E+00  0.45593999997E+02  0.45594000000E+02  0.51100000000E-03 0. -1.
         11   -1    0    0    0    0 -0.00000000000E+00 -0.00000000000E+00 -0.45593999997E+02  0.45594000000E+02  0.51100000000E-03 0.  1.
    9900012    2    1    2    0    0 -0.26510318275E+02  0.10454576487E+02  0.29001215194E+02  0.50528860470E+02  0.30000001886E+02 0.  0.
        -12    1    1    2    0    0  0.26510318275E+02 -0.10454576487E+02 -0.29001215194E+02  0.40659139530E+02  0.00000000000E+00 0.  1.
         11    1    3    3    0    0  0.41654684775E+01 -0.29986046462E+01 -0.88992188976E+00  0.52090996047E+01  0.51100000000E-03 0.  1.
        -11    1    3    3    0    0 -0.12369610972E+02  0.37650980299E+01  0.15039575312E+02  0.19833609470E+02  0.51100000000E-03 0. -1.
        -12    1    3    3    0    0 -0.18306175781E+02  0.96880831029E+01  0.14851561772E+02  0.25486151396E+02  0.00000000000E+00 0.  1.
</event>
<event>
 7    1  0.5855569E-013  0.5052888E+02  0.7816164E-02  0.1300439E+00
        -11   -1    0    0    0    0  0.00000000000E+00  0.00000000000E+00  0.45593999997E+02  0.45594000000E+02  0.51100000000E-03 0.  1.
         11   -1    0    0    0    0 -0.00000000000E+00 -0.00000000000E+00 -0.45593999997E+02  0.45594000000E+02  0.51100000000E-03 0. -1.
    9900012    2    1    2    0    0 -0.31548211283E+01 -0.38457811072E+02 -0.12814352858E+02  0.50528883335E+02  0.30000071386E+02 0.  0.
        -12    1    1    2    0    0  0.31548211283E+01  0.38457811072E+02  0.12814352858E+02  0.40659116665E+02  0.00000000000E+00 0.  1.
         11    1    3    3    0    0  0.74192759322E+00 -0.39156102673E+02 -0.64974266803E+01  0.39698455724E+02  0.51100000000E-03 0. -1.
        -11    1    3    3    0    0 -0.71227924833E-03 -0.17956024547E+01 -0.59214271323E+01  0.61876884397E+01  0.51100000000E-03 0.  1.
        -12    1    3    3    0    0 -0.38960364423E+01  0.24938940562E+01 -0.39549904543E+00  0.46427391719E+01  0.00000000000E+00 0.  1.
</event>
<event>
 7    1  0.5855569E-013  0.5052886E+02  0.7816164E-02  0.1300439E+00
        -11   -1    0    0    0    0  0.00000000000E+00  0.00000000000E+00  0.45593999997E+02  0.45594000000E+02  0.51100000000E-03 0. -1.
         11   -1    0    0    0    0 -0.00000000000E+00 -0.00000000000E+00 -0.45593999997E+02  0.45594000000E+02  0.51100000000E-03 0.  1.
    9900012    2    1    2    0    0 -0.18069426119E+02  0.91592702754E+01 -0.35252935984E+02  0.50528857267E+02  0.29999992149E+02 0.  0.
        -12    1    1    2    0    0  0.18069426119E+02 -0.91592702754E+01  0.35252935984E+02  0.40659142733E+02  0.00000000000E+00 0.  1.
         11    1    3    3    0    0 -0.13151010830E+02  0.21096636549E+00 -0.22049119048E+02  0.25674057796E+02  0.51100000000E-03 0. -1.
        -11    1    3    3    0    0 -0.39165807923E+01 -0.25691029815E+01 -0.12412470538E+02  0.13266850430E+02  0.51100000000E-03 0.  1.
        -12    1    3    3    0    0 -0.10018344970E+01  0.11517406891E+02 -0.79134639915E+00  0.11587949041E+02  0.00000000000E+00 0.  1.
</event>
<event>
 7    1  0.5855569E-013  0.5052899E+02  0.7816164E-02  0.1300438E+00
        -11   -1    0    0    0    0  0.00000000000E+00  0.00000000000E+00  0.45593999997E+02  0.45594000000E+02  0.51100000000E-03 0.  1.
         11   -1    0    0    0    0 -0.00000000000E+00 -0.00000000000E+00 -0.45593999997E+02  0.45594000000E+02  0.51100000000E-03 0. -1.
    9900012    2    1    2    0    0 -0.13186023283E+02 -0.26366104565E+02 -0.28002005306E+02  0.50528991390E+02  0.30000399827E+02 0.  0.
        -12    1    1    2    0    0  0.13186023283E+02  0.26366104565E+02  0.28002005306E+02  0.40659008610E+02  0.00000000000E+00 0.  1.
         11    1    3    3    0    0 -0.26849686673E+01 -0.18221676689E+02 -0.13643286907E+02  0.22921122049E+02  0.51100000000E-03 0. -1.
        -11    1    3    3    0    0  0.11498908459E+01 -0.10915392517E+02 -0.10045658850E+02  0.14878955096E+02  0.51100000000E-03 0.  1.
        -12    1    3    3    0    0 -0.11650945462E+02  0.27709646403E+01 -0.43130595498E+01  0.12728914246E+02  0.00000000000E+00 0.  1.
</event>
<event>
 7    1  0.5855569E-013  0.5052887E+02  0.7816164E-02  0.1300439E+00
        -11   -1    0    0    0    0  0.00000000000E+00  0.00000000000E+00  0.45593999997E+02  0.45594000000E+02  0.51100000000E-03 0.  1.
         11   -1    0    0    0    0 -0.00000000000E+00 -0.00000000000E+00 -0.45593999997E+02  0.45594000000E+02  0.51100000000E-03 0. -1.
    9900012    2    1    2    0    0  0.91520124723E+00 -0.24405441514E+02 -0.32506950920E+02  0.50528867853E+02  0.30000024326E+02 0.  0.
        -12    1    1    2    0    0 -0.91520124723E+00  0.24405441514E+02  0.32506950920E+02  0.40659132147E+02  0.00000000000E+00 0.  1.
         11    1    3    3    0    0 -0.95585754758E+01 -0.85233332361E+01 -0.17597844744E+02  0.21764597733E+02  0.51100000000E-03 0. -1.
        -11    1    3    3    0    0 -0.17243595407E+01 -0.96852647616E+01 -0.10502327321E+02  0.14390158051E+02  0.51100000000E-03 0.  1.
         12    1    3    3    0    0  0.12198136264E+02 -0.61968435167E+01 -0.44067788547E+01  0.14374112068E+02  0.00000000000E+00 0. -1.
</event>
<event>
 7    1  0.5855569E-013  0.5052886E+02  0.7816164E-02  0.1300439E+00
        -11   -1    0    0    0    0  0.00000000000E+00  0.00000000000E+00  0.45593999997E+02  0.45594000000E+02  0.51100000000E-03 0.  1.
         11   -1    0    0    0    0 -0.00000000000E+00 -0.00000000000E+00 -0.45593999997E+02  0.45594000000E+02  0.51100000000E-03 0. -1.
    9900012    2    1    2    0    0 -0.12029227466E+02  0.25096937977E+02 -0.29641304819E+02  0.50528861290E+02  0.30000004377E+02 0.  0.
        -12    1    1    2    0    0  0.12029227466E+02 -0.25096937977E+02  0.29641304819E+02  0.40659138710E+02  0.00000000000E+00 0.  1.
         11    1    3    3    0    0  0.55430259247E+01  0.63206102746E+01 -0.13074249780E+02  0.15543849531E+02  0.51100000000E-03 0. -1.
        -11    1    3    3    0    0  0.18652342760E+01  0.11473195095E+01 -0.65340714578E+01  0.68912648359E+01  0.51100000000E-03 0.  1.
        -12    1    3    3    0    0 -0.19437487666E+02  0.17629008193E+02 -0.10032983581E+02  0.28093746923E+02  0.00000000000E+00 0.  1.
</event>
<event>
 7    1  0.5855569E-013  0.5052886E+02  0.7816164E-02  0.1300439E+00
        -11   -1    0    0    0    0  0.00000000000E+00  0.00000000000E+00  0.45593999997E+02  0.45594000000E+02  0.51100000000E-03 0. -1.
         11   -1    0    0    0    0 -0.00000000000E+00 -0.00000000000E+00 -0.45593999997E+02  0.45594000000E+02  0.51100000000E-03 0.  1.
    9900012    2    1    2    0    0  0.33336613432E+02  0.23099127148E+02  0.28750912380E+01  0.50528860563E+02  0.30000002168E+02 0.  0.
        -12    1    1    2    0    0 -0.33336613432E+02 -0.23099127148E+02 -0.28750912380E+01  0.40659139437E+02  0.00000000000E+00 0.  1.
         11    1    3    3    0    0  0.84208503388E+00  0.39649504548E+01  0.60850177691E+01  0.73114554519E+01  0.51100000000E-03 0. -1.
        -11    1    3    3    0    0  0.14334463385E+01  0.15239336785E+01  0.59903918544E+01  0.63452294752E+01  0.51100000000E-03 0.  1.
         12    1    3    3    0    0  0.31061082060E+02  0.17610243014E+02 -0.92003183855E+01  0.36872175636E+02  0.00000000000E+00 0. -1.
</event>
<event>
 7    1  0.5855569E-013  0.5052886E+02  0.7816164E-02  0.1300439E+00
        -11   -1    0    0    0    0  0.00000000000E+00  0.00000000000E+00  0.45593999997E+02  0.45594000000E+02  0.51100000000E-03 0.  1.
         11   -1    0    0    0    0 -0.00000000000E+00 -0.00000000000E+00 -0.45593999997E+02  0.45594000000E+02  0.51100000000E-03 0. -1.
    9900012    2    1    2    0    0 -0.36179444706E+01  0.30441522309E+02 -0.26709356426E+02  0.50528861749E+02  0.30000005772E+02 0.  0.
        -12    1    1    2    0    0  0.36179444706E+01 -0.30441522309E+02  0.26709356426E+02  0.40659138251E+02  0.00000000000E+00 0.  1.
         11    1    3    3    0    0  0.80531652725E+00  0.14098723302E+02 -0.33683574104E+01  0.14517863664E+02  0.51100000000E-03 0. -1.
        -11    1    3    3    0    0 -0.48182078979E+01  0.16203226612E+02 -0.49486523654E+01  0.17613882039E+02  0.51100000000E-03 0.  1.
         12    1    3    3    0    0  0.39494690006E+00  0.13957239422E+00 -0.18392346650E+02  0.18397116046E+02  0.00000000000E+00 0. -1.
</event>
<event>
 7    1  0.5855569E-013  0.5052886E+02  0.7816164E-02  0.1300439E+00
        -11   -1    0    0    0    0  0.00000000000E+00  0.00000000000E+00  0.45593999997E+02  0.45594000000E+02  0.51100000000E-03 0. -1.
         11   -1    0    0    0    0 -0.00000000000E+00 -0.00000000000E+00 -0.45593999997E+02  0.45594000000E+02  0.51100000000E-03 0.  1.
    9900012    2    1    2    0    0  0.34044081695E+02 -0.21792556630E+02  0.43875513001E+01  0.50528860445E+02  0.30000001808E+02 0.  0.
        -12    1    1    2    0    0 -0.34044081695E+02  0.21792556630E+02 -0.43875513001E+01  0.40659139555E+02  0.00000000000E+00 0.  1.
         11    1    3    3    0    0  0.15460651506E+02 -0.19336340829E+02 -0.11127643663E+01  0.24782333757E+02  0.51100000000E-03 0. -1.
        -11    1    3    3    0    0 -0.31513684047E+01 -0.99434464377E+00  0.13559405294E+01  0.35718929258E+01  0.51100000000E-03 0.  1.
         12    1    3    3    0    0  0.21734798594E+02 -0.14618711571E+01  0.41443751370E+01  0.22174633762E+02  0.00000000000E+00 0. -1.
</event>
<event>
 7    1  0.5855569E-013  0.5052886E+02  0.7816164E-02  0.1300439E+00
        -11   -1    0    0    0    0  0.00000000000E+00  0.00000000000E+00  0.45593999997E+02  0.45594000000E+02  0.51100000000E-03 0. -1.
         11   -1    0    0    0    0 -0.00000000000E+00 -0.00000000000E+00 -0.45593999997E+02  0.45594000000E+02  0.51100000000E-03 0.  1.
    9900012    2    1    2    0    0 -0.95100410291E+01  0.22609531942E+02  0.32427358303E+02  0.50528863493E+02  0.30000011072E+02 0.  0.
        -12    1    1    2    0    0  0.95100410291E+01 -0.22609531942E+02 -0.32427358303E+02  0.40659136507E+02  0.00000000000E+00 0.  1.
         11    1    3    3    0    0  0.40750306693E+01  0.12215340112E+02  0.29869709335E+01  0.13219016780E+02  0.51100000000E-03 0. -1.
        -11    1    3    3    0    0  0.26730450223E+01 -0.10647840227E+01  0.24314423321E+01  0.37670740345E+01  0.51100000000E-03 0.  1.
        -12    1    3    3    0    0 -0.16258116721E+02  0.11458975852E+02  0.27008945038E+02  0.33542772678E+02  0.00000000000E+00 0.  1.
</event>
<event>
 7    1  0.5855569E-013  0.5052886E+02  0.7816164E-02  0.1300439E+00
        -11   -1    0    0    0    0  0.00000000000E+00  0.00000000000E+00  0.45593999997E+02  0.45594000000E+02  0.51100000000E-03 0.  1.
         11   -1    0    0    0    0 -0.00000000000E+00 -0.00000000000E+00 -0.45593999997E+02  0.45594000000E+02  0.51100000000E-03 0. -1.
    9900012    2    1    2    0    0 -0.21623746100E+02  0.12778541528E+02 -0.31973241796E+02  0.50528859454E+02  0.29999998797E+02 0.  0.
        -12    1    1    2    0    0  0.21623746100E+02 -0.12778541528E+02  0.31973241796E+02  0.40659140546E+02  0.00000000000E+00 0.  1.
         11    1    3    3    0    0 -0.14982244827E+01 -0.85772925727E+00 -0.89746620900E+00  0.19457188741E+01  0.51100000000E-03 0. -1.
        -11    1    3    3    0    0 -0.11800388420E+02 -0.17279517128E+01  0.10911691070E+01  0.11976044183E+02  0.51100000000E-03 0.  1.
         12    1    3    3    0    0 -0.83251331973E+01  0.15364222498E+02 -0.32166944694E+02  0.36607096398E+02  0.00000000000E+00 0. -1.
</event>
<event>
 7    1  0.5855569E-013  0.5052886E+02  0.7816164E-02  0.1300439E+00
        -11   -1    0    0    0    0  0.00000000000E+00  0.00000000000E+00  0.45593999997E+02  0.45594000000E+02  0.51100000000E-03 0. -1.
         11   -1    0    0    0    0 -0.00000000000E+00 -0.00000000000E+00 -0.45593999997E+02  0.45594000000E+02  0.51100000000E-03 0.  1.
    9900012    2    1    2    0    0  0.21063725122E+02  0.26852428201E+02  0.22100498267E+02  0.50528862775E+02  0.30000008890E+02 0.  0.
        -12    1    1    2    0    0 -0.21063725122E+02 -0.26852428201E+02 -0.22100498267E+02  0.40659137225E+02  0.00000000000E+00 0.  1.
         11    1    3    3    0    0 -0.26753277199E+01  0.15997856630E+01  0.24582744147E+01  0.39698622061E+01  0.51100000000E-03 0. -1.
        -11    1    3    3    0    0 -0.39357306889E+01  0.66230870700E+01 -0.26704988645E+00  0.77088633595E+01  0.51100000000E-03 0.  1.
         12    1    3    3    0    0  0.27674783530E+02  0.18629555468E+02  0.19909273738E+02  0.38850137209E+02  0.00000000000E+00 0. -1.
</event>
<event>
 7    1  0.5855569E-013  0.5052886E+02  0.7816164E-02  0.1300439E+00
        -11   -1    0    0    0    0  0.00000000000E+00  0.00000000000E+00  0.45593999997E+02  0.45594000000E+02  0.51100000000E-03 0.  1.
         11   -1    0    0    0    0 -0.00000000000E+00 -0.00000000000E+00 -0.45593999997E+02  0.45594000000E+02  0.51100000000E-03 0. -1.
    9900012    2    1    2    0    0 -0.34799096263E+02 -0.43578766704E+01 -0.20571769852E+02  0.50528857060E+02  0.29999991519E+02 0.  0.
        -12    1    1    2    0    0  0.34799096263E+02  0.43578766704E+01  0.20571769852E+02  0.40659142940E+02  0.00000000000E+00 0.  1.
         11    1    3    3    0    0 -0.10348381124E+02  0.45740216498E+01 -0.15162058537E+01  0.11415320687E+02  0.51100000000E-03 0. -1.
        -11    1    3    3    0    0 -0.53210927352E+01  0.73247471677E+01 -0.50873193487E+01  0.10384929821E+02  0.51100000000E-03 0.  1.
        -12    1    3    3    0    0 -0.19129622404E+02 -0.16256645488E+02 -0.13968244649E+02  0.28728606552E+02  0.00000000000E+00 0.  1.
</event>
<event>
 7    1  0.5855569E-013  0.5052886E+02  0.7816164E-02  0.1300439E+00
        -11   -1    0    0    0    0  0.00000000000E+00  0.00000000000E+00  0.45593999997E+02  0.45594000000E+02  0.51100000000E-03 0.  1.
         11   -1    0    0    0    0 -0.00000000000E+00 -0.00000000000E+00 -0.45593999997E+02  0.45594000000E+02  0.51100000000E-03 0. -1.
    9900012    2    1    2    0    0 -0.13797649589E+02 -0.64593139431E+01 -0.37697048576E+02  0.50528863977E+02  0.30000012545E+02 0.  0.
        -12    1    1    2    0    0  0.13797649589E+02  0.64593139431E+01  0.37697048576E+02  0.40659136023E+02  0.00000000000E+00 0.  1.
         11    1    3    3    0    0  0.48904781570E+01 -0.18154710146E+01 -0.99350177063E+01  0.11221287301E+02  0.51100000000E-03 0.  1.
        -11    1    3    3    0    0 -0.74059309927E+01  0.79730626066E+01 -0.11590308437E+02  0.15898200877E+02  0.51100000000E-03 0. -1.
         12    1    3    3    0    0 -0.11282196753E+02 -0.12616905535E+02 -0.16171722432E+02  0.23409375799E+02  0.00000000000E+00 0. -1.
</event>
<event>
 7    1  0.5855569E-013  0.5052888E+02  0.7816164E-02  0.1300439E+00
        -11   -1    0    0    0    0  0.00000000000E+00  0.00000000000E+00  0.45593999997E+02  0.45594000000E+02  0.51100000000E-03 0.  1.
         11   -1    0    0    0    0 -0.00000000000E+00 -0.00000000000E+00 -0.45593999997E+02  0.45594000000E+02  0.51100000000E-03 0. -1.
    9900012    2    1    2    0    0 -0.22044275709E+02  0.26101013144E+02 -0.22044301070E+02  0.50528878166E+02  0.30000055672E+02 0.  0.
        -12    1    1    2    0    0  0.22044275709E+02 -0.26101013144E+02  0.22044301070E+02  0.40659121834E+02  0.00000000000E+00 0.  1.
         11    1    3    3    0    0 -0.26536258865E+01  0.52071501596E+01 -0.73326378956E+01  0.93767650018E+01  0.51100000000E-03 0. -1.
        -11    1    3    3    0    0  0.35208708655E+00  0.29222031453E+01 -0.14145648069E+02  0.14448619176E+02  0.51100000000E-03 0.  1.
        -12    1    3    3    0    0 -0.19742736909E+02  0.17971659839E+02 -0.56601510470E+00  0.26703493987E+02  0.00000000000E+00 0.  1.
</event>
<event>
 7    1  0.5855569E-013  0.5052886E+02  0.7816164E-02  0.1300439E+00
        -11   -1    0    0    0    0  0.00000000000E+00  0.00000000000E+00  0.45593999997E+02  0.45594000000E+02  0.51100000000E-03 0. -1.
         11   -1    0    0    0    0 -0.00000000000E+00 -0.00000000000E+00 -0.45593999997E+02  0.45594000000E+02  0.51100000000E-03 0.  1.
    9900012    2    1    2    0    0 -0.34040948233E+02 -0.91533388745E+01 -0.20263162511E+02  0.50528861740E+02  0.30000005744E+02 0.  0.
        -12    1    1    2    0    0  0.34040948233E+02  0.91533388745E+01  0.20263162511E+02  0.40659138260E+02  0.00000000000E+00 0.  1.
         11    1    3    3    0    0 -0.13145000703E+02 -0.97329878957E+01 -0.13220300702E+02  0.21030892700E+02  0.51100000000E-03 0.  1.
        -11    1    3    3    0    0 -0.49578366791E+01 -0.48073609805E+01  0.52388228387E+01  0.86681098937E+01  0.51100000000E-03 0. -1.
         12    1    3    3    0    0 -0.15938110850E+02  0.53870100018E+01 -0.12281684648E+02  0.20829859146E+02  0.00000000000E+00 0. -1.
</event>
<event>
 7    1  0.5855569E-013  0.5052887E+02  0.7816164E-02  0.1300439E+00
        -11   -1    0    0    0    0  0.00000000000E+00  0.00000000000E+00  0.45593999997E+02  0.45594000000E+02  0.51100000000E-03 0.  1.
         11   -1    0    0    0    0 -0.00000000000E+00 -0.00000000000E+00 -0.45593999997E+02  0.45594000000E+02  0.51100000000E-03 0. -1.
    9900012    2    1    2    0    0 -0.36754372914E+02  0.82576431631E+01 -0.15300080552E+02  0.50528867400E+02  0.30000022948E+02 0.  0.
        -12    1    1    2    0    0  0.36754372914E+02 -0.82576431631E+01  0.15300080552E+02  0.40659132600E+02  0.00000000000E+00 0.  1.
         11    1    3    3    0    0  0.16672041443E+01 -0.22671948285E+01 -0.86536215817E+00  0.29442476076E+01  0.51100000000E-03 0. -1.
        -11    1    3    3    0    0 -0.65647199058E+01  0.86701744540E+00 -0.12613787328E+02  0.14246223980E+02  0.51100000000E-03 0.  1.
         12    1    3    3    0    0 -0.31856857152E+02  0.96578205461E+01 -0.18209310665E+01  0.33338395812E+02  0.00000000000E+00 0. -1.
</event>
<event>
 7    1  0.5855569E-013  0.5052885E+02  0.7816164E-02  0.1300439E+00
        -11   -1    0    0    0    0  0.00000000000E+00  0.00000000000E+00  0.45593999997E+02  0.45594000000E+02  0.51100000000E-03 0.  1.
         11   -1    0    0    0    0 -0.00000000000E+00 -0.00000000000E+00 -0.45593999997E+02  0.45594000000E+02  0.51100000000E-03 0. -1.
    9900012    2    1    2    0    0 -0.34387111565E+00  0.38834752697E+02 -0.12037850194E+02  0.50528854637E+02  0.29999984154E+02 0.  0.
        -12    1    1    2    0    0  0.34387111565E+00 -0.38834752697E+02  0.12037850194E+02  0.40659145363E+02  0.00000000000E+00 0.  1.
         11    1    3    3    0    0 -0.10445385743E+02  0.83821598695E+01 -0.71215985338E+01  0.15168515199E+02  0.51100000000E-03 0. -1.
        -11    1    3    3    0    0  0.52691231425E+01  0.15146906869E+02  0.46215975234E+01  0.16689865497E+02  0.51100000000E-03 0.  1.
        -12    1    3    3    0    0  0.48323914848E+01  0.15305685958E+02 -0.95378491836E+01  0.18670473941E+02  0.00000000000E+00 0.  1.
</event>
<event>
 7    1  0.5855569E-013  0.5052886E+02  0.7816164E-02  0.1300439E+00
        -11   -1    0    0    0    0  0.00000000000E+00  0.00000000000E+00  0.45593999997E+02  0.45594000000E+02  0.51100000000E-03 0.  1.
         11   -1    0    0    0    0 -0.00000000000E+00 -0.00000000000E+00 -0.45593999997E+02  0.45594000000E+02  0.51100000000E-03 0. -1.
    9900012    2    1    2    0    0  0.11125308157E+02  0.28109732857E+02 -0.27188890803E+02  0.50528863930E+02  0.30000012402E+02 0.  0.
        -12    1    1    2    0    0 -0.11125308157E+02 -0.28109732857E+02  0.27188890803E+02  0.40659136070E+02  0.00000000000E+00 0.  1.
         11    1    3    3    0    0  0.15787906179E+02  0.13641692400E+02 -0.19749190948E+02  0.28729502195E+02  0.51100000000E-03 0. -1.
        -11    1    3    3    0    0  0.19697942384E+01  0.43655917506E+01 -0.84071398589E+01  0.96756643980E+01  0.51100000000E-03 0.  1.
         12    1    3    3    0    0 -0.66323922604E+01  0.10102448706E+02  0.96744000367E+00  0.12123697337E+02  0.00000000000E+00 0. -1.
</event>
<event>
 7    1  0.5855569E-013  0.5052886E+02  0.7816164E-02  0.1300439E+00
        -11   -1    0    0    0    0  0.00000000000E+00  0.00000000000E+00  0.45593999997E+02  0.45594000000E+02  0.51100000000E-03 0.  1.
         11   -1    0    0    0    0 -0.00000000000E+00 -0.00000000000E+00 -0.45593999997E+02  0.45594000000E+02  0.51100000000E-03 0. -1.
    9900012    2    1    2    0    0 -0.19707450145E+02  0.16937323087E+02 -0.31271541976E+02  0.50528857828E+02  0.29999993855E+02 0.  0.
        -12    1    1    2    0    0  0.19707450145E+02 -0.16937323087E+02  0.31271541976E+02  0.40659142172E+02  0.00000000000E+00 0.  1.
         11    1    3    3    0    0 -0.52191922381E+01 -0.12577084714E+01 -0.32263168764E+01  0.62634590335E+01  0.51100000000E-03 0. -1.
        -11    1    3    3    0    0 -0.12282443778E+02  0.22667407586E+01 -0.65900289815E+00  0.12507230865E+02  0.51100000000E-03 0.  1.
         12    1    3    3    0    0 -0.22058141282E+01  0.15928290800E+02 -0.27386222202E+02  0.31758167930E+02  0.00000000000E+00 0. -1.
</event>
<event>
 7    1  0.5855569E-013  0.5052886E+02  0.7816164E-02  0.1300439E+00
        -11   -1    0    0    0    0  0.00000000000E+00  0.00000000000E+00  0.45593999997E+02  0.45594000000E+02  0.51100000000E-03 0. -1.
         11   -1    0    0    0    0 -0.00000000000E+00 -0.00000000000E+00 -0.45593999997E+02  0.45594000000E+02  0.51100000000E-03 0.  1.
    9900012    2    1    2    0    0 -0.16639675680E+02  0.11493428079E+02  0.35273049324E+02  0.50528859523E+02  0.29999999006E+02 0.  0.
        -12    1    1    2    0    0  0.16639675680E+02 -0.11493428079E+02 -0.35273049324E+02  0.40659140477E+02  0.00000000000E+00 0.  1.
         11    1    3    3    0    0 -0.29453545542E+01 -0.36347781216E+01  0.22460871109E+01  0.51895696367E+01  0.51100000000E-03 0. -1.
        -11    1    3    3    0    0  0.58289546458E+01 -0.77473425866E+00  0.64322612713E+01  0.87149819712E+01  0.51100000000E-03 0.  1.
         12    1    3    3    0    0 -0.19523275772E+02  0.15902940459E+02  0.26594700941E+02  0.36624307915E+02  0.00000000000E+00 0. -1.
</event>
<event>
 7    1  0.5855569E-013  0.5052886E+02  0.7816164E-02  0.1300439E+00
        -11   -1    0    0    0    0  0.00000000000E+00  0.00000000000E+00  0.45593999997E+02  0.45594000000E+02  0.51100000000E-03 0.  1.
         11   -1    0    0    0    0 -0.00000000000E+00 -0.00000000000E+00 -0.45593999997E+02  0.45594000000E+02  0.51100000000E-03 0. -1.
    9900012    2    1    2    0    0  0.16553687139E+02 -0.28921301395E+02 -0.23295901780E+02  0.50528864839E+02  0.30000015165E+02 0.  0.
        -12    1    1    2    0    0 -0.16553687139E+02  0.28921301395E+02  0.23295901780E+02  0.40659135161E+02  0.00000000000E+00 0.  1.
         11    1    3    3    0    0  0.12259713887E+02 -0.28283792702E+02 -0.22368037093E+02  0.38086777205E+02  0.51100000000E-03 0. -1.
        -11    1    3    3    0    0 -0.30224228220E+01 -0.34195274639E+01 -0.35648287332E-01  0.45639323892E+01  0.51100000000E-03 0.  1.
        -12    1    3    3    0    0  0.73163960741E+01  0.27820187711E+01 -0.89221639990E+00  0.78781552447E+01  0.00000000000E+00 0.  1.
</event>
<event>
 7    1  0.5855569E-013  0.5052886E+02  0.7816164E-02  0.1300439E+00
        -11   -1    0    0    0    0  0.00000000000E+00  0.00000000000E+00  0.45593999997E+02  0.45594000000E+02  0.51100000000E-03 0. -1.
         11   -1    0    0    0    0 -0.00000000000E+00 -0.00000000000E+00 -0.45593999997E+02  0.45594000000E+02  0.51100000000E-03 0.  1.
    9900012    2    1    2    0    0  0.23976002230E+02  0.99751742857E+01 -0.31285981840E+02  0.50528862717E+02  0.30000008714E+02 0.  0.
        -12    1    1    2    0    0 -0.23976002230E+02 -0.99751742857E+01  0.31285981840E+02  0.40659137283E+02  0.00000000000E+00 0.  1.
         11    1    3    3    0    0  0.77456125454E+01 -0.49682909960E+01 -0.15023646135E+02  0.17617842450E+02  0.51100000000E-03 0. -1.
        -11    1    3    3    0    0  0.30437011630E+01 -0.29381354668E+01 -0.82880728266E+01  0.93053161274E+01  0.51100000000E-03 0.  1.
        -12    1    3    3    0    0  0.13186688521E+02  0.17881600748E+02 -0.79742628781E+01  0.23605704140E+02  0.00000000000E+00 0.  1.
</event>
<event>
 7    1  0.5855569E-013  0.5052886E+02  0.7816164E-02  0.1300439E+00
        -11   -1    0    0    0    0  0.00000000000E+00  0.00000000000E+00  0.45593999997E+02  0.45594000000E+02  0.51100000000E-03 0. -1.
         11   -1    0    0    0    0 -0.00000000000E+00 -0.00000000000E+00 -0.45593999997E+02  0.45594000000E+02  0.51100000000E-03 0.  1.
    9900012    2    1    2    0    0 -0.16529781862E+02  0.24559743930E+02  0.27870253379E+02  0.50528859162E+02  0.29999997908E+02 0.  0.
        -12    1    1    2    0    0  0.16529781862E+02 -0.24559743930E+02 -0.27870253379E+02  0.40659140838E+02  0.00000000000E+00 0.  1.
         11    1    3    3    0    0 -0.51949368344E+01  0.16170435220E+02  0.21958610896E+02  0.27760600437E+02  0.51100000000E-03 0. -1.
        -11    1    3    3    0    0  0.35630122001E+00  0.80810666127E+00  0.85424968308E+01  0.85880288367E+01  0.51100000000E-03 0.  1.
        -12    1    3    3    0    0 -0.11691146247E+02  0.75812020483E+01 -0.26308543474E+01  0.14180229888E+02  0.00000000000E+00 0.  1.
</event>
<event>
 7    1  0.5855569E-013  0.5052888E+02  0.7816164E-02  0.1300439E+00
        -11   -1    0    0    0    0  0.00000000000E+00  0.00000000000E+00  0.45593999997E+02  0.45594000000E+02  0.51100000000E-03 0.  1.
         11   -1    0    0    0    0 -0.00000000000E+00 -0.00000000000E+00 -0.45593999997E+02  0.45594000000E+02  0.51100000000E-03 0. -1.
    9900012    2    1    2    0    0 -0.10313476118E+02 -0.22989929199E+02 -0.31910178759E+02  0.50528878728E+02  0.30000057381E+02 0.  0.
        -12    1    1    2    0    0  0.10313476118E+02  0.22989929199E+02  0.31910178759E+02  0.40659121272E+02  0.00000000000E+00 0.  1.
         11    1    3    3    0    0 -0.51555992427E+01 -0.12636283671E+02 -0.33160725808E+01  0.14044650447E+02  0.51100000000E-03 0. -1.
        -11    1    3    3    0    0 -0.48256068080E+01 -0.16136150452E+02 -0.22019470290E+02  0.27722173518E+02  0.51100000000E-03 0.  1.
        -12    1    3    3    0    0 -0.33227006722E+00  0.57825049240E+01 -0.65746358880E+01  0.87620547621E+01  0.00000000000E+00 0.  1.
</event>
<event>
 7    1  0.5855569E-013  0.5052886E+02  0.7816164E-02  0.1300439E+00
        -11   -1    0    0    0    0  0.00000000000E+00  0.00000000000E+00  0.45593999997E+02  0.45594000000E+02  0.51100000000E-03 0. -1.
         11   -1    0    0    0    0 -0.00000000000E+00 -0.00000000000E+00 -0.45593999997E+02  0.45594000000E+02  0.51100000000E-03 0.  1.
    9900012    2    1    2    0    0  0.74293508661E+01  0.37311795049E+02  0.14345749325E+02  0.50528858005E+02  0.29999994392E+02 0.  0.
        -12    1    1    2    0    0 -0.74293508661E+01 -0.37311795049E+02 -0.14345749325E+02  0.40659141995E+02  0.00000000000E+00 0.  1.
         11    1    3    3    0    0  0.79571482575E+01  0.19939209265E+02  0.16189624439E+02  0.26888514541E+02  0.51100000000E-03 0. -1.
        -11    1    3    3    0    0  0.36419256490E+01  0.11337825247E+01  0.43333536794E+01  0.57729576144E+01  0.51100000000E-03 0.  1.
        -12    1    3    3    0    0 -0.41697230404E+01  0.16238803260E+02 -0.61772287931E+01  0.17867385850E+02  0.00000000000E+00 0.  1.
</event>
<event>
 7    1  0.5855569E-013  0.5052885E+02  0.7816164E-02  0.1300439E+00
        -11   -1    0    0    0    0  0.00000000000E+00  0.00000000000E+00  0.45593999997E+02  0.45594000000E+02  0.51100000000E-03 0. -1.
         11   -1    0    0    0    0 -0.00000000000E+00 -0.00000000000E+00 -0.45593999997E+02  0.45594000000E+02  0.51100000000E-03 0.  1.
    9900012    2    1    2    0    0  0.28196671031E+02  0.99609547947E+01  0.27548020167E+02  0.50528852287E+02  0.29999977011E+02 0.  0.
        -12    1    1    2    0    0 -0.28196671031E+02 -0.99609547947E+01 -0.27548020167E+02  0.40659147713E+02  0.00000000000E+00 0.  1.
         11    1    3    3    0    0  0.31295119646E+01 -0.39419920653E+01  0.89956431500E+00  0.51129602773E+01  0.51100000000E-03 0. -1.
        -11    1    3    3    0    0  0.12081818564E+01  0.12774859644E+02  0.10545281609E+02  0.16609024860E+02  0.51100000000E-03 0.  1.
         12    1    3    3    0    0  0.23858977210E+02  0.11280872161E+01  0.16103174243E+02  0.28806867150E+02  0.00000000000E+00 0. -1.
</event>
<event>
 7    1  0.5855569E-013  0.5052886E+02  0.7816164E-02  0.1300439E+00
        -11   -1    0    0    0    0  0.00000000000E+00  0.00000000000E+00  0.45593999997E+02  0.45594000000E+02  0.51100000000E-03 0.  1.
         11   -1    0    0    0    0 -0.00000000000E+00 -0.00000000000E+00 -0.45593999997E+02  0.45594000000E+02  0.51100000000E-03 0. -1.
    9900012    2    1    2    0    0 -0.91166194008E+01  0.32034277508E+02 -0.23320756288E+02  0.50528863775E+02  0.30000011931E+02 0.  0.
        -12    1    1    2    0    0  0.91166194008E+01 -0.32034277508E+02  0.23320756288E+02  0.40659136225E+02  0.00000000000E+00 0.  1.
         11    1    3    3    0    0 -0.25253741615E+01 -0.23683629173E+01 -0.77923672214E+01  0.85268777837E+01  0.51100000000E-03 0. -1.
        -11    1    3    3    0    0 -0.36968275948E+01  0.66832040804E+01  0.33499439197E+01  0.83398966164E+01  0.51100000000E-03 0.  1.
        -12    1    3    3    0    0 -0.28944176445E+01  0.27719436345E+02 -0.18878332986E+02  0.33662089375E+02  0.00000000000E+00 0.  1.
</event>
<event>
 7    1  0.5855569E-013  0.5052887E+02  0.7816164E-02  0.1300439E+00
        -11   -1    0    0    0    0  0.00000000000E+00  0.00000000000E+00  0.45593999997E+02  0.45594000000E+02  0.51100000000E-03 0.  1.
         11   -1    0    0    0    0 -0.00000000000E+00 -0.00000000000E+00 -0.45593999997E+02  0.45594000000E+02  0.51100000000E-03 0. -1.
    9900012    2    1    2    0    0 -0.34719208054E+02 -0.48165165096E+01  0.20604434582E+02  0.50528868632E+02  0.30000026694E+02 0.  0.
        -12    1    1    2    0    0  0.34719208054E+02  0.48165165096E+01 -0.20604434582E+02  0.40659131368E+02  0.00000000000E+00 0.  1.
         11    1    3    3    0    0 -0.12506133183E+02  0.58751612686E+01  0.54173773927E+01  0.14841457651E+02  0.51100000000E-03 0. -1.
        -11    1    3    3    0    0  0.37395617111E+01 -0.27372402008E+01  0.46634769093E+01  0.65745587573E+01  0.51100000000E-03 0.  1.
         12    1    3    3    0    0 -0.25952636582E+02 -0.79544375774E+01  0.10523580280E+02  0.29112852224E+02  0.00000000000E+00 0. -1.
</event>
<event>
 7    1  0.5855569E-013  0.5052887E+02  0.7816164E-02  0.1300439E+00
        -11   -1    0    0    0    0  0.00000000000E+00  0.00000000000E+00  0.45593999997E+02  0.45594000000E+02  0.51100000000E-03 0.  1.
         11   -1    0    0    0    0 -0.00000000000E+00 -0.00000000000E+00 -0.45593999997E+02  0.45594000000E+02  0.51100000000E-03 0. -1.
    9900012    2    1    2    0    0 -0.15599303613E+02 -0.36815436240E+02 -0.73790642901E+01  0.50528865620E+02  0.30000017539E+02 0.  0.
        -12    1    1    2    0    0  0.15599303613E+02  0.36815436240E+02  0.73790642901E+01  0.40659134380E+02  0.00000000000E+00 0.  1.
         11    1    3    3    0    0 -0.62534381201E+01 -0.18667571693E+02 -0.20600512916E+01  0.19794633940E+02  0.51100000000E-03 0. -1.
        -11    1    3    3    0    0  0.78646484971E+00 -0.14919561283E+02  0.51583375757E+01  0.15805704117E+02  0.51100000000E-03 0.  1.
        -12    1    3    3    0    0 -0.10132330342E+02 -0.32283032635E+01 -0.10477350574E+02  0.14928527562E+02  0.00000000000E+00 0.  1.
</event>
<event>
 7    1  0.5855569E-013  0.5052885E+02  0.7816164E-02  0.1300439E+00
        -11   -1    0    0    0    0  0.00000000000E+00  0.00000000000E+00  0.45593999997E+02  0.45594000000E+02  0.51100000000E-03 0.  1.
         11   -1    0    0    0    0 -0.00000000000E+00 -0.00000000000E+00 -0.45593999997E+02  0.45594000000E+02  0.51100000000E-03 0. -1.
    9900012    2    1    2    0    0 -0.11570026031E+02  0.21382205238E+02 -0.32589905594E+02  0.50528854044E+02  0.29999982352E+02 0.  0.
        -12    1    1    2    0    0  0.11570026031E+02 -0.21382205238E+02  0.32589905594E+02  0.40659145956E+02  0.00000000000E+00 0.  1.
         11    1    3    3    0    0 -0.10321886113E+02  0.52551195412E+01 -0.57720946699E+01  0.12941201315E+02  0.51100000000E-03 0. -1.
        -11    1    3    3    0    0 -0.87342961998E+01  0.17939791488E+01 -0.15391019437E+02  0.17787348618E+02  0.51100000000E-03 0.  1.
        -12    1    3    3    0    0  0.74861562815E+01  0.14333106548E+02 -0.11426791488E+02  0.19800304111E+02  0.00000000000E+00 0.  1.
</event>
<event>
 7    1  0.5855569E-013  0.5052887E+02  0.7816164E-02  0.1300439E+00
        -11   -1    0    0    0    0  0.00000000000E+00  0.00000000000E+00  0.45593999997E+02  0.45594000000E+02  0.51100000000E-03 0.  1.
         11   -1    0    0    0    0 -0.00000000000E+00 -0.00000000000E+00 -0.45593999997E+02  0.45594000000E+02  0.51100000000E-03 0. -1.
    9900012    2    1    2    0    0 -0.16396710614E+02 -0.23573203458E+02 -0.28785707888E+02  0.50528867953E+02  0.30000024631E+02 0.  0.
        -12    1    1    2    0    0  0.16396710614E+02  0.23573203458E+02  0.28785707888E+02  0.40659132047E+02  0.00000000000E+00 0.  1.
         11    1    3    3    0    0 -0.89435456852E+01 -0.37953689258E+01 -0.51088479448E+01  0.10976892196E+02  0.51100000000E-03 0. -1.
        -11    1    3    3    0    0 -0.15534334150E+02 -0.86454374032E+01 -0.15227434251E+02  0.23407987515E+02  0.51100000000E-03 0.  1.
        -12    1    3    3    0    0  0.80811692219E+01 -0.11132397129E+02 -0.84494256917E+01  0.16143988242E+02  0.00000000000E+00 0.  1.
</event>
<event>
 7    1  0.5855569E-013  0.5052886E+02  0.7816164E-02  0.1300439E+00
        -11   -1    0    0    0    0  0.00000000000E+00  0.00000000000E+00  0.45593999997E+02  0.45594000000E+02  0.51100000000E-03 0.  1.
         11   -1    0    0    0    0 -0.00000000000E+00 -0.00000000000E+00 -0.45593999997E+02  0.45594000000E+02  0.51100000000E-03 0. -1.
    9900012    2    1    2    0    0  0.86067921897E+01  0.35552816861E+02 -0.17750664680E+02  0.50528858898E+02  0.29999997106E+02 0.  0.
        -12    1    1    2    0    0 -0.86067921897E+01 -0.35552816861E+02  0.17750664680E+02  0.40659141102E+02  0.00000000000E+00 0.  1.
         11    1    3    3    0    0  0.22662842562E+01  0.68646047584E+01 -0.46665473387E+01  0.86043888304E+01  0.51100000000E-03 0. -1.
        -11    1    3    3    0    0  0.15210160360E+02  0.23773239414E+02 -0.14425735366E+02  0.31695705253E+02  0.51100000000E-03 0.  1.
         12    1    3    3    0    0 -0.88696524262E+01  0.49149726893E+01  0.13416180250E+01  0.10228764814E+02  0.00000000000E+00 0. -1.
</event>
<event>
 7    1  0.5855569E-013  0.5052894E+02  0.7816164E-02  0.1300439E+00
        -11   -1    0    0    0    0  0.00000000000E+00  0.00000000000E+00  0.45593999997E+02  0.45594000000E+02  0.51100000000E-03 0.  1.
         11   -1    0    0    0    0 -0.00000000000E+00 -0.00000000000E+00 -0.45593999997E+02  0.45594000000E+02  0.51100000000E-03 0. -1.
    9900012    2    1    2    0    0  0.16377650005E+02 -0.35833725245E+02 -0.10043691091E+02  0.50528941780E+02  0.30000249034E+02 0.  0.
        -12    1    1    2    0    0 -0.16377650005E+02  0.35833725245E+02  0.10043691091E+02  0.40659058220E+02  0.00000000000E+00 0.  1.
         11    1    3    3    0    0  0.35045026887E+01 -0.41207285177E+01  0.74724318670E+01  0.92249217276E+01  0.51100000000E-03 0.  1.
        -11    1    3    3    0    0 -0.21167620103E+01 -0.37761649584E+01  0.11938804381E+01  0.44905961701E+01  0.51100000000E-03 0. -1.
         12    1    3    3    0    0  0.14989909326E+02 -0.27936831769E+02 -0.18710003396E+02  0.36813423883E+02  0.00000000000E+00 0. -1.
</event>
<event>
 7    1  0.5855569E-013  0.5052885E+02  0.7816164E-02  0.1300439E+00
        -11   -1    0    0    0    0  0.00000000000E+00  0.00000000000E+00  0.45593999997E+02  0.45594000000E+02  0.51100000000E-03 0.  1.
         11   -1    0    0    0    0 -0.00000000000E+00 -0.00000000000E+00 -0.45593999997E+02  0.45594000000E+02  0.51100000000E-03 0. -1.
    9900012    2    1    2    0    0  0.15595129123E+02 -0.33460976278E+02 -0.17038813582E+02  0.50528853992E+02  0.29999982193E+02 0.  0.
        -12    1    1    2    0    0 -0.15595129123E+02  0.33460976278E+02  0.17038813582E+02  0.40659146008E+02  0.00000000000E+00 0.  1.
         11    1    3    3    0    0  0.70386240551E+01 -0.94065601450E+01 -0.21221622234E+01  0.11938558335E+02  0.51100000000E-03 0. -1.
        -11    1    3    3    0    0  0.13839293731E+02 -0.26307303619E+02 -0.11286027431E+02  0.31795828188E+02  0.51100000000E-03 0.  1.
        -12    1    3    3    0    0 -0.52827886631E+01  0.22528874864E+01 -0.36306239278E+01  0.67944674692E+01  0.00000000000E+00 0.  1.
</event>
<event>
 7    1  0.5855569E-013  0.5052886E+02  0.7816164E-02  0.1300439E+00
        -11   -1    0    0    0    0  0.00000000000E+00  0.00000000000E+00  0.45593999997E+02  0.45594000000E+02  0.51100000000E-03 0.  1.
         11   -1    0    0    0    0 -0.00000000000E+00 -0.00000000000E+00 -0.45593999997E+02  0.45594000000E+02  0.51100000000E-03 0. -1.
    9900012    2    1    2    0    0  0.64249063027E+01 -0.41769312852E+01 -0.39930436388E+02  0.50528856796E+02  0.29999990716E+02 0.  0.
        -12    1    1    2    0    0 -0.64249063027E+01  0.41769312852E+01  0.39930436388E+02  0.40659143204E+02  0.00000000000E+00 0.  1.
         11    1    3    3    0    0  0.91129568729E+01 -0.11071827715E+02 -0.93892097693E+01  0.17140262900E+02  0.51100000000E-03 0. -1.
        -11    1    3    3    0    0  0.15413735631E+01 -0.21244074792E+01 -0.24775951241E+01  0.36093513903E+01  0.51100000000E-03 0.  1.
         12    1    3    3    0    0 -0.42294241333E+01  0.90193039095E+01 -0.28063631495E+02  0.29779242505E+02  0.00000000000E+00 0. -1.
</event>
<event>
 7    1  0.5855569E-013  0.5052886E+02  0.7816164E-02  0.1300439E+00
        -11   -1    0    0    0    0  0.00000000000E+00  0.00000000000E+00  0.45593999997E+02  0.45594000000E+02  0.51100000000E-03 0. -1.
         11   -1    0    0    0    0 -0.00000000000E+00 -0.00000000000E+00 -0.45593999997E+02  0.45594000000E+02  0.51100000000E-03 0.  1.
    9900012    2    1    2    0    0  0.20237953047E+02  0.55129552169E+01  0.34830995998E+02  0.50528859564E+02  0.29999999131E+02 0.  0.
        -12    1    1    2    0    0 -0.20237953047E+02 -0.55129552169E+01 -0.34830995998E+02  0.40659140436E+02  0.00000000000E+00 0.  1.
         11    1    3    3    0    0  0.12577066856E+02  0.28312682492E+00  0.76643583113E+01  0.14731095006E+02  0.51100000000E-03 0. -1.
        -11    1    3    3    0    0  0.40510808563E+01 -0.82941484853E+01  0.93295120644E+01  0.13124174291E+02  0.51100000000E-03 0.  1.
        -12    1    3    3    0    0  0.36098053353E+01  0.13523976877E+02  0.17837125622E+02  0.22673590267E+02  0.00000000000E+00 0.  1.
</event>
<event>
 7    1  0.5855569E-013  0.5052887E+02  0.7816164E-02  0.1300439E+00
        -11   -1    0    0    0    0  0.00000000000E+00  0.00000000000E+00  0.45593999997E+02  0.45594000000E+02  0.51100000000E-03 0. -1.
         11   -1    0    0    0    0 -0.00000000000E+00 -0.00000000000E+00 -0.45593999997E+02  0.45594000000E+02  0.51100000000E-03 0.  1.
    9900012    2    1    2    0    0 -0.37594112668E+00 -0.20877808161E+02  0.34887542842E+02  0.50528870018E+02  0.30000030907E+02 0.  0.
        -12    1    1    2    0    0  0.37594112668E+00  0.20877808161E+02 -0.34887542842E+02  0.40659129982E+02  0.00000000000E+00 0.  1.
         11    1    3    3    0    0  0.79110969525E+01 -0.11591526034E+01  0.65334834700E+01  0.10325478016E+02  0.51100000000E-03 0. -1.
        -11    1    3    3    0    0 -0.85972163651E+01 -0.67816322396E+00  0.13642042220E+02  0.16139310728E+02  0.51100000000E-03 0.  1.
         12    1    3    3    0    0  0.31017828601E+00 -0.19040492334E+02  0.14712017151E+02  0.24064081274E+02  0.00000000000E+00 0. -1.
</event>
<event>
 7    1  0.5855569E-013  0.5052887E+02  0.7816164E-02  0.1300439E+00
        -11   -1    0    0    0    0  0.00000000000E+00  0.00000000000E+00  0.45593999997E+02  0.45594000000E+02  0.51100000000E-03 0. -1.
         11   -1    0    0    0    0 -0.00000000000E+00 -0.00000000000E+00 -0.45593999997E+02  0.45594000000E+02  0.51100000000E-03 0.  1.
    9900012    2    1    2    0    0  0.38356056103E+02  0.13460331516E+02 -0.89310797666E+00  0.50528865649E+02  0.30000017628E+02 0.  0.
        -12    1    1    2    0    0 -0.38356056103E+02 -0.13460331516E+02  0.89310797666E+00  0.40659134351E+02  0.00000000000E+00 0.  1.
         11    1    3    3    0    0  0.29013306033E+02  0.93904596445E+01  0.10303374813E+02  0.32188696651E+02  0.51100000000E-03 0. -1.
        -11    1    3    3    0    0  0.11271132598E+02  0.23589373753E+01 -0.10691075003E+02  0.15713118741E+02  0.51100000000E-03 0.  1.
        -12    1    3    3    0    0 -0.19283825283E+01  0.17109344962E+01 -0.50540778687E+00  0.26270502577E+01  0.00000000000E+00 0.  1.
</event>
<event>
 7    1  0.5855569E-013  0.5052885E+02  0.7816164E-02  0.1300439E+00
        -11   -1    0    0    0    0  0.00000000000E+00  0.00000000000E+00  0.45593999997E+02  0.45594000000E+02  0.51100000000E-03 0.  1.
         11   -1    0    0    0    0 -0.00000000000E+00 -0.00000000000E+00 -0.45593999997E+02  0.45594000000E+02  0.51100000000E-03 0. -1.
    9900012    2    1    2    0    0  0.34695597726E+01 -0.17145240125E+02 -0.36703804813E+02  0.50528851070E+02  0.29999973312E+02 0.  0.
        -12    1    1    2    0    0 -0.34695597726E+01  0.17145240125E+02  0.36703804813E+02  0.40659148930E+02  0.00000000000E+00 0.  1.
         11    1    3    3    0    0  0.29000254892E+01 -0.11988491999E+02 -0.11064332657E+02  0.16569657379E+02  0.51100000000E-03 0. -1.
        -11    1    3    3    0    0  0.66080064383E+01 -0.10203026268E+02 -0.77525049850E+01  0.14417656811E+02  0.51100000000E-03 0.  1.
         12    1    3    3    0    0 -0.60384721549E+01  0.50462781424E+01 -0.17886967171E+02  0.19541536880E+02  0.00000000000E+00 0. -1.
</event>
<event>
 7    1  0.5855569E-013  0.5052884E+02  0.7816164E-02  0.1300439E+00
        -11   -1    0    0    0    0  0.00000000000E+00  0.00000000000E+00  0.45593999997E+02  0.45594000000E+02  0.51100000000E-03 0.  1.
         11   -1    0    0    0    0 -0.00000000000E+00 -0.00000000000E+00 -0.45593999997E+02  0.45594000000E+02  0.51100000000E-03 0. -1.
    9900012    2    1    2    0    0 -0.16115320714E+02 -0.22543277851E+02 -0.29753396401E+02  0.50528837006E+02  0.29999930564E+02 0.  0.
        -12    1    1    2    0    0  0.16115320714E+02  0.22543277851E+02  0.29753396401E+02  0.40659162994E+02  0.00000000000E+00 0.  1.
         11    1    3    3    0    0 -0.72722795590E+01 -0.88428585242E+01 -0.17539479971E+02  0.20945537825E+02  0.51100000000E-03 0. -1.
        -11    1    3    3    0    0 -0.51703822838E+01 -0.21036089898E+01 -0.15917223985E+02  0.16867603368E+02  0.51100000000E-03 0.  1.
        -12    1    3    3    0    0 -0.36726588707E+01 -0.11596810337E+02  0.37033075544E+01  0.12715695813E+02  0.00000000000E+00 0.  1.
</event>
<event>
 7    1  0.5855569E-013  0.5052887E+02  0.7816164E-02  0.1300439E+00
        -11   -1    0    0    0    0  0.00000000000E+00  0.00000000000E+00  0.45593999997E+02  0.45594000000E+02  0.51100000000E-03 0.  1.
         11   -1    0    0    0    0 -0.00000000000E+00 -0.00000000000E+00 -0.45593999997E+02  0.45594000000E+02  0.51100000000E-03 0. -1.
    9900012    2    1    2    0    0 -0.19026262998E+02  0.33950723348E+02 -0.11769234797E+02  0.50528865882E+02  0.30000018335E+02 0.  0.
        -12    1    1    2    0    0  0.19026262998E+02 -0.33950723348E+02  0.11769234797E+02  0.40659134118E+02  0.00000000000E+00 0.  1.
         11    1    3    3    0    0 -0.57952290880E+01  0.35915002871E+01 -0.87075222101E+01  0.11059136395E+02  0.51100000000E-03 0. -1.
        -11    1    3    3    0    0 -0.18541126307E+02  0.17759382584E+02 -0.22460109477E+01  0.25772341763E+02  0.51100000000E-03 0.  1.
        -12    1    3    3    0    0  0.53100923976E+01  0.12599840477E+02 -0.81570163944E+00  0.13697387724E+02  0.00000000000E+00 0.  1.
</event>
<event>
 7    1  0.5855569E-013  0.5052882E+02  0.7816164E-02  0.1300439E+00
        -11   -1    0    0    0    0  0.00000000000E+00  0.00000000000E+00  0.45593999997E+02  0.45594000000E+02  0.51100000000E-03 0.  1.
         11   -1    0    0    0    0 -0.00000000000E+00 -0.00000000000E+00 -0.45593999997E+02  0.45594000000E+02  0.51100000000E-03 0. -1.
    9900012    2    1    2    0    0  0.31008047199E+01  0.11005877434E+02 -0.39018258058E+02  0.50528821579E+02  0.29999883670E+02 0.  0.
        -12    1    1    2    0    0 -0.31008047199E+01 -0.11005877434E+02  0.39018258058E+02  0.40659178421E+02  0.00000000000E+00 0.  1.
         11    1    3    3    0    0  0.10957565950E+02  0.29328364539E+01 -0.12995270932E+02  0.17249546315E+02  0.51100000000E-03 0. -1.
        -11    1    3    3    0    0  0.29020377665E+01 -0.37140574754E+01 -0.48206842890E+01  0.67420355535E+01  0.51100000000E-03 0.  1.
         12    1    3    3    0    0 -0.10758798997E+02  0.11787098455E+02 -0.21202302837E+02  0.26537239710E+02  0.00000000000E+00 0. -1.
</event>
<event>
 7    1  0.5855569E-013  0.5052887E+02  0.7816164E-02  0.1300439E+00
        -11   -1    0    0    0    0  0.00000000000E+00  0.00000000000E+00  0.45593999997E+02  0.45594000000E+02  0.51100000000E-03 0.  1.
         11   -1    0    0    0    0 -0.00000000000E+00 -0.00000000000E+00 -0.45593999997E+02  0.45594000000E+02  0.51100000000E-03 0. -1.
    9900012    2    1    2    0    0 -0.13796085094E+02  0.13848108072E+02 -0.35651972664E+02  0.50528865529E+02  0.30000017262E+02 0.  0.
        -12    1    1    2    0    0  0.13796085094E+02 -0.13848108072E+02  0.35651972664E+02  0.40659134471E+02  0.00000000000E+00 0.  1.
         11    1    3    3    0    0 -0.66580189740E+00  0.23623552400E+01  0.37640465368E+00  0.24830817890E+01  0.51100000000E-03 0. -1.
        -11    1    3    3    0    0 -0.94876903460E+00  0.17684701840E+02 -0.16470748927E+02  0.24185417348E+02  0.51100000000E-03 0.  1.
         12    1    3    3    0    0 -0.12181514162E+02 -0.61989490076E+01 -0.19557628391E+02  0.23860366392E+02  0.00000000000E+00 0. -1.
</event>
<event>
 7    1  0.5855569E-013  0.5052886E+02  0.7816164E-02  0.1300439E+00
        -11   -1    0    0    0    0  0.00000000000E+00  0.00000000000E+00  0.45593999997E+02  0.45594000000E+02  0.51100000000E-03 0. -1.
         11   -1    0    0    0    0 -0.00000000000E+00 -0.00000000000E+00 -0.45593999997E+02  0.45594000000E+02  0.51100000000E-03 0.  1.
    9900012    2    1    2    0    0 -0.30615193182E+02 -0.23386144757E+02  0.12998617305E+02  0.50528857461E+02  0.29999992739E+02 0.  0.
        -12    1    1    2    0    0  0.30615193182E+02  0.23386144757E+02 -0.12998617305E+02  0.40659142539E+02  0.00000000000E+00 0.  1.
         11    1    3    3    0    0 -0.19580414415E+02 -0.25229202076E+02  0.12789695163E+02  0.34401766941E+02  0.51100000000E-03 0. -1.
        -11    1    3    3    0    0 -0.84898058119E+01 -0.23099235558E+01  0.42751919031E+01  0.97821171342E+01  0.51100000000E-03 0.  1.
        -12    1    3    3    0    0 -0.25449729549E+01  0.41529808748E+01 -0.40662697619E+01  0.63449733856E+01  0.00000000000E+00 0.  1.
</event>
<event>
 7    1  0.5855569E-013  0.5052889E+02  0.7816164E-02  0.1300439E+00
        -11   -1    0    0    0    0  0.00000000000E+00  0.00000000000E+00  0.45593999997E+02  0.45594000000E+02  0.51100000000E-03 0.  1.
         11   -1    0    0    0    0 -0.00000000000E+00 -0.00000000000E+00 -0.45593999997E+02  0.45594000000E+02  0.51100000000E-03 0. -1.
    9900012    2    1    2    0    0 -0.32592560640E+00 -0.13521704513E+02 -0.38343456653E+02  0.50528888001E+02  0.30000085567E+02 0.  0.
        -12    1    1    2    0    0  0.32592560640E+00  0.13521704513E+02  0.38343456653E+02  0.40659111999E+02  0.00000000000E+00 0.  1.
         11    1    3    3    0    0  0.45196139452E+01 -0.11426070178E+02 -0.95479991108E+01  0.15561050003E+02  0.51100000000E-03 0. -1.
        -11    1    3    3    0    0  0.51040308082E+01 -0.60266818873E+01 -0.64621350921E+01  0.10204470357E+02  0.51100000000E-03 0.  1.
         12    1    3    3    0    0 -0.99495703599E+01  0.39310475523E+01 -0.22333322450E+02  0.24763367640E+02  0.00000000000E+00 0. -1.
</event>
<event>
 7    1  0.5855569E-013  0.5052883E+02  0.7816164E-02  0.1300439E+00
        -11   -1    0    0    0    0  0.00000000000E+00  0.00000000000E+00  0.45593999997E+02  0.45594000000E+02  0.51100000000E-03 0.  1.
         11   -1    0    0    0    0 -0.00000000000E+00 -0.00000000000E+00 -0.45593999997E+02  0.45594000000E+02  0.51100000000E-03 0. -1.
    9900012    2    1    2    0    0  0.66607195858E+01  0.80378844589E+01 -0.39296254108E+02  0.50528826879E+02  0.29999899782E+02 0.  0.
        -12    1    1    2    0    0 -0.66607195858E+01 -0.80378844589E+01  0.39296254108E+02  0.40659173121E+02  0.00000000000E+00 0.  1.
         11    1    3    3    0    0 -0.42117817715E+01  0.12247574950E+01 -0.13994240698E+02  0.14665534753E+02  0.51100000000E-03 0. -1.
        -11    1    3    3    0    0  0.57920137808E+01  0.10455505100E+01 -0.27295526650E+02  0.27922864732E+02  0.51100000000E-03 0.  1.
        -12    1    3    3    0    0  0.50804875766E+01  0.57675764538E+01  0.19935132401E+01  0.79404273944E+01  0.00000000000E+00 0.  1.
</event>
<event>
 7    1  0.5855569E-013  0.5052885E+02  0.7816164E-02  0.1300439E+00
        -11   -1    0    0    0    0  0.00000000000E+00  0.00000000000E+00  0.45593999997E+02  0.45594000000E+02  0.51100000000E-03 0.  1.
         11   -1    0    0    0    0 -0.00000000000E+00 -0.00000000000E+00 -0.45593999997E+02  0.45594000000E+02  0.51100000000E-03 0. -1.
    9900012    2    1    2    0    0  0.33130400404E+02  0.21273706321E+02 -0.10147535840E+02  0.50528849797E+02  0.29999969444E+02 0.  0.
        -12    1    1    2    0    0 -0.33130400404E+02 -0.21273706321E+02  0.10147535840E+02  0.40659150203E+02  0.00000000000E+00 0.  1.
         11    1    3    3    0    0  0.11436201742E+01  0.60342458280E+01 -0.78334554457E-01  0.61421597487E+01  0.51100000000E-03 0. -1.
        -11    1    3    3    0    0  0.85056895647E+01  0.13418128264E+02  0.47241882051E+01  0.16574404229E+02  0.51100000000E-03 0.  1.
        -12    1    3    3    0    0  0.23481090665E+02  0.18213322293E+01 -0.14793389490E+02  0.27812285820E+02  0.00000000000E+00 0.  1.
</event>
<event>
 7    1  0.5855569E-013  0.5052886E+02  0.7816164E-02  0.1300439E+00
        -11   -1    0    0    0    0  0.00000000000E+00  0.00000000000E+00  0.45593999997E+02  0.45594000000E+02  0.51100000000E-03 0. -1.
         11   -1    0    0    0    0 -0.00000000000E+00 -0.00000000000E+00 -0.45593999997E+02  0.45594000000E+02  0.51100000000E-03 0.  1.
    9900012    2    1    2    0    0  0.76760461738E+01 -0.11049461285E+02  0.38368656364E+02  0.50528855018E+02  0.29999985311E+02 0.  0.
        -12    1    1    2    0    0 -0.76760461738E+01  0.11049461285E+02 -0.38368656364E+02  0.40659144982E+02  0.00000000000E+00 0.  1.
         11    1    3    3    0    0  0.42731374463E+00  0.10103449800E+01  0.78671240006E+00  0.13499298784E+01  0.51100000000E-03 0. -1.
        -11    1    3    3    0    0  0.60946380380E+01 -0.67238836245E+01 -0.19414033330E+01  0.92803163186E+01  0.51100000000E-03 0.  1.
         12    1    3    3    0    0  0.11540943912E+01 -0.53359226400E+01  0.39523347297E+02  0.39898608821E+02  0.00000000000E+00 0. -1.
</event>
<event>
 7    1  0.5855569E-013  0.5052886E+02  0.7816164E-02  0.1300439E+00
        -11   -1    0    0    0    0  0.00000000000E+00  0.00000000000E+00  0.45593999997E+02  0.45594000000E+02  0.51100000000E-03 0.  1.
         11   -1    0    0    0    0 -0.00000000000E+00 -0.00000000000E+00 -0.45593999997E+02  0.45594000000E+02  0.51100000000E-03 0. -1.
    9900012    2    1    2    0    0 -0.25458652346E+02 -0.16110131746E+02 -0.27303593619E+02  0.50528861438E+02  0.30000004826E+02 0.  0.
        -12    1    1    2    0    0  0.25458652346E+02  0.16110131746E+02  0.27303593619E+02  0.40659138562E+02  0.00000000000E+00 0.  1.
         11    1    3    3    0    0  0.43103031942E+01  0.26505668965E+01 -0.11606962672E+01  0.51914771101E+01  0.51100000000E-03 0. -1.
        -11    1    3    3    0    0 -0.60573614537E+01 -0.62543898635E+01 -0.12566211671E+02  0.15287861079E+02  0.51100000000E-03 0.  1.
        -12    1    3    3    0    0 -0.23711594087E+02 -0.12506308779E+02 -0.13576685680E+02  0.30049523248E+02  0.00000000000E+00 0.  1.
</event>
<event>
 7    1  0.5855569E-013  0.5052885E+02  0.7816164E-02  0.1300439E+00
        -11   -1    0    0    0    0  0.00000000000E+00  0.00000000000E+00  0.45593999997E+02  0.45594000000E+02  0.51100000000E-03 0. -1.
         11   -1    0    0    0    0 -0.00000000000E+00 -0.00000000000E+00 -0.45593999997E+02  0.45594000000E+02  0.51100000000E-03 0.  1.
    9900012    2    1    2    0    0  0.32515725033E+02 -0.22711819172E+02  0.89480269543E+01  0.50528852310E+02  0.29999977081E+02 0.  0.
        -12    1    1    2    0    0 -0.32515725033E+02  0.22711819172E+02 -0.89480269543E+01  0.40659147690E+02  0.00000000000E+00 0.  1.
         11    1    3    3    0    0  0.80156458760E+01 -0.62924839855E+01  0.64521099614E+01  0.12061328979E+02  0.51100000000E-03 0. -1.
        -11    1    3    3    0    0  0.24736872509E+01 -0.12585880178E+02  0.84139013314E+01  0.15340053597E+02  0.51100000000E-03 0.  1.
        -12    1    3    3    0    0  0.22026391906E+02 -0.38334550081E+01 -0.59179843385E+01  0.23127469735E+02  0.00000000000E+00 0.  1.
</event>
<event>
 7    1  0.5855569E-013  0.5052887E+02  0.7816164E-02  0.1300439E+00
        -11   -1    0    0    0    0  0.00000000000E+00  0.00000000000E+00  0.45593999997E+02  0.45594000000E+02  0.51100000000E-03 0. -1.
         11   -1    0    0    0    0 -0.00000000000E+00 -0.00000000000E+00 -0.45593999997E+02  0.45594000000E+02  0.51100000000E-03 0.  1.
    9900012    2    1    2    0    0  0.23354196257E+02  0.29900202680E+02  0.14619311533E+02  0.50528869748E+02  0.30000030087E+02 0.  0.
        -12    1    1    2    0    0 -0.23354196257E+02 -0.29900202680E+02 -0.14619311533E+02  0.40659130252E+02  0.00000000000E+00 0.  1.
         11    1    3    3    0    0  0.13820727174E+02  0.89408577739E+01  0.11865577758E+02  0.20291460597E+02  0.51100000000E-03 0. -1.
        -11    1    3    3    0    0  0.86090411571E+01  0.41598456695E+01  0.81549927820E+01  0.12566774175E+02  0.51100000000E-03 0.  1.
        -12    1    3    3    0    0  0.92442792616E+00  0.16799499237E+02 -0.54012590076E+01  0.17670634976E+02  0.00000000000E+00 0.  1.
</event>
<event>
 7    1  0.5855569E-013  0.5052887E+02  0.7816164E-02  0.1300439E+00
        -11   -1    0    0    0    0  0.00000000000E+00  0.00000000000E+00  0.45593999997E+02  0.45594000000E+02  0.51100000000E-03 0.  1.
         11   -1    0    0    0    0 -0.00000000000E+00 -0.00000000000E+00 -0.45593999997E+02  0.45594000000E+02  0.51100000000E-03 0. -1.
    9900012    2    1    2    0    0  0.17320825218E+02 -0.56746886903E+01 -0.36344904113E+02  0.50528866550E+02  0.30000020365E+02 0.  0.
        -12    1    1    2    0    0 -0.17320825218E+02  0.56746886903E+01  0.36344904113E+02  0.40659133450E+02  0.00000000000E+00 0.  1.
         11    1    3    3    0    0 -0.14636254658E+01 -0.44733800846E+01 -0.30428849725E+01  0.56046835863E+01  0.51100000000E-03 0. -1.
        -11    1    3    3    0    0 -0.26484228057E+01  0.41949044561E+00 -0.18811839636E+02  0.19001984800E+02  0.51100000000E-03 0.  1.
        -12    1    3    3    0    0  0.21432873489E+02 -0.16207990514E+01 -0.14490179504E+02  0.25922198164E+02  0.00000000000E+00 0.  1.
</event>
<event>
 7    1  0.5855569E-013  0.5052885E+02  0.7816164E-02  0.1300439E+00
        -11   -1    0    0    0    0  0.00000000000E+00  0.00000000000E+00  0.45593999997E+02  0.45594000000E+02  0.51100000000E-03 0.  1.
         11   -1    0    0    0    0 -0.00000000000E+00 -0.00000000000E+00 -0.45593999997E+02  0.45594000000E+02  0.51100000000E-03 0. -1.
    9900012    2    1    2    0    0 -0.30119478291E+02  0.19190767555E+02  0.19434442715E+02  0.50528854713E+02  0.29999984385E+02 0.  0.
        -12    1    1    2    0    0  0.30119478291E+02 -0.19190767555E+02 -0.19434442715E+02  0.40659145287E+02  0.00000000000E+00 0.  1.
         11    1    3    3    0    0 -0.27557459016E+02  0.15004310338E+02  0.20915104706E+02  0.37709209502E+02  0.51100000000E-03 0.  1.
        -11    1    3    3    0    0 -0.46535879236E+00  0.77585814029E+01  0.12303874153E+01  0.78693073167E+01  0.51100000000E-03 0. -1.
        -12    1    3    3    0    0 -0.20966604825E+01 -0.35721241863E+01 -0.27110494065E+01  0.49503378941E+01  0.00000000000E+00 0.  1.
</event>
<event>
 7    1  0.5855569E-013  0.5052883E+02  0.7816164E-02  0.1300439E+00
        -11   -1    0    0    0    0  0.00000000000E+00  0.00000000000E+00  0.45593999997E+02  0.45594000000E+02  0.51100000000E-03 0. -1.
         11   -1    0    0    0    0 -0.00000000000E+00 -0.00000000000E+00 -0.45593999997E+02  0.45594000000E+02  0.51100000000E-03 0.  1.
    9900012    2    1    2    0    0  0.20142662294E+02  0.21330017646E+02  0.28150878159E+02  0.50528825904E+02  0.29999896816E+02 0.  0.
        -12    1    1    2    0    0 -0.20142662294E+02 -0.21330017646E+02 -0.28150878159E+02  0.40659174096E+02  0.00000000000E+00 0.  1.
         11    1    3    3    0    0  0.64488762716E+01  0.47765737035E+01  0.11295549704E+02  0.13856157652E+02  0.51100000000E-03 0. -1.
        -11    1    3    3    0    0  0.20792258161E+02  0.11654415618E+02  0.13675836815E+02  0.27480391476E+02  0.51100000000E-03 0.  1.
         12    1    3    3    0    0 -0.70984721384E+01  0.48990283244E+01  0.31794916407E+01  0.91922767755E+01  0.00000000000E+00 0. -1.
</event>
<event>
 7    1  0.5855569E-013  0.5052886E+02  0.7816164E-02  0.1300439E+00
        -11   -1    0    0    0    0  0.00000000000E+00  0.00000000000E+00  0.45593999997E+02  0.45594000000E+02  0.51100000000E-03 0.  1.
         11   -1    0    0    0    0 -0.00000000000E+00 -0.00000000000E+00 -0.45593999997E+02  0.45594000000E+02  0.51100000000E-03 0. -1.
    9900012    2    1    2    0    0  0.14407276343E+02 -0.12994325464E+02 -0.35731548763E+02  0.50528859787E+02  0.29999999807E+02 0.  0.
        -12    1    1    2    0    0 -0.14407276343E+02  0.12994325464E+02  0.35731548763E+02  0.40659140213E+02  0.00000000000E+00 0.  1.
         11    1    3    3    0    0  0.48118686272E+01 -0.69138800077E+01 -0.98468365490E+01  0.12958240881E+02  0.51100000000E-03 0. -1.
        -11    1    3    3    0    0  0.97955733429E+01 -0.80702971817E+01 -0.11374871653E+01  0.12742716784E+02  0.51100000000E-03 0.  1.
         12    1    3    3    0    0 -0.20016562732E+00  0.19898517252E+01 -0.24747225049E+02  0.24827902122E+02  0.00000000000E+00 0. -1.
</event>
<event>
 7    1  0.5855569E-013  0.5052886E+02  0.7816164E-02  0.1300439E+00
        -11   -1    0    0    0    0  0.00000000000E+00  0.00000000000E+00  0.45593999997E+02  0.45594000000E+02  0.51100000000E-03 0.  1.
         11   -1    0    0    0    0 -0.00000000000E+00 -0.00000000000E+00 -0.45593999997E+02  0.45594000000E+02  0.51100000000E-03 0. -1.
    9900012    2    1    2    0    0 -0.24891224934E+02 -0.21348804944E+01 -0.32078575196E+02  0.50528858592E+02  0.29999996176E+02 0.  0.
        -12    1    1    2    0    0  0.24891224934E+02  0.21348804944E+01  0.32078575196E+02  0.40659141408E+02  0.00000000000E+00 0.  1.
         11    1    3    3    0    0  0.16198697628E+01  0.20887116013E+01 -0.13889439914E+01  0.29859437159E+01  0.51100000000E-03 0. -1.
        -11    1    3    3    0    0  0.18908824963E-01 -0.91775269820E+01 -0.96954885346E+01  0.13350275549E+02  0.51100000000E-03 0.  1.
         12    1    3    3    0    0 -0.26530003521E+02  0.49539348864E+01 -0.20994142670E+02  0.34192639327E+02  0.00000000000E+00 0. -1.
</event>
<event>
 7    1  0.5855569E-013  0.5052888E+02  0.7816164E-02  0.1300439E+00
        -11   -1    0    0    0    0  0.00000000000E+00  0.00000000000E+00  0.45593999997E+02  0.45594000000E+02  0.51100000000E-03 0. -1.
         11   -1    0    0    0    0 -0.00000000000E+00 -0.00000000000E+00 -0.45593999997E+02  0.45594000000E+02  0.51100000000E-03 0.  1.
    9900012    2    1    2    0    0  0.40115550310E+02  0.31849468219E+01 -0.58105915561E+01  0.50528877565E+02  0.30000053846E+02 0.  0.
        -12    1    1    2    0    0 -0.40115550310E+02 -0.31849468219E+01  0.58105915561E+01  0.40659122435E+02  0.00000000000E+00 0.  1.
         11    1    3    3    0    0  0.14690451919E+02  0.83768676849E+00  0.35290667220E+01  0.15131602985E+02  0.51100000000E-03 0. -1.
        -11    1    3    3    0    0  0.74385187030E+01  0.43484227102E+01  0.69332970137E+01  0.11059428028E+02  0.51100000000E-03 0.  1.
        -12    1    3    3    0    0  0.17986579688E+02 -0.20011626568E+01 -0.16272955292E+02  0.24337846552E+02  0.00000000000E+00 0.  1.
</event>
<event>
 7    1  0.5855569E-013  0.5052886E+02  0.7816164E-02  0.1300439E+00
        -11   -1    0    0    0    0  0.00000000000E+00  0.00000000000E+00  0.45593999997E+02  0.45594000000E+02  0.51100000000E-03 0. -1.
         11   -1    0    0    0    0 -0.00000000000E+00 -0.00000000000E+00 -0.45593999997E+02  0.45594000000E+02  0.51100000000E-03 0.  1.
    9900012    2    1    2    0    0 -0.18195270488E+02  0.17829111177E+02  0.31689435580E+02  0.50528863255E+02  0.30000010350E+02 0.  0.
        -12    1    1    2    0    0  0.18195270488E+02 -0.17829111177E+02 -0.31689435580E+02  0.40659136745E+02  0.00000000000E+00 0.  1.
         11    1    3    3    0    0 -0.28331660729E+01  0.83201461424E+01  0.22467630167E+01  0.90719130365E+01  0.51100000000E-03 0.  1.
        -11    1    3    3    0    0 -0.13418842427E+02  0.96473333567E+01  0.54748266006E+01  0.17410057425E+02  0.51100000000E-03 0. -1.
         12    1    3    3    0    0 -0.19432619883E+01 -0.13836832245E+00  0.23967845962E+02  0.24046892793E+02  0.00000000000E+00 0. -1.
</event>
<event>
 7    1  0.5855569E-013  0.5052886E+02  0.7816164E-02  0.1300439E+00
        -11   -1    0    0    0    0  0.00000000000E+00  0.00000000000E+00  0.45593999997E+02  0.45594000000E+02  0.51100000000E-03 0.  1.
         11   -1    0    0    0    0 -0.00000000000E+00 -0.00000000000E+00 -0.45593999997E+02  0.45594000000E+02  0.51100000000E-03 0. -1.
    9900012    2    1    2    0    0  0.20240138264E+02 -0.74947780511E+01 -0.34457666971E+02  0.50528859477E+02  0.29999998867E+02 0.  0.
        -12    1    1    2    0    0 -0.20240138264E+02  0.74947780511E+01  0.34457666971E+02  0.40659140523E+02  0.00000000000E+00 0.  1.
         11    1    3    3    0    0  0.53116680435E+01 -0.45264555833E+01 -0.55670625471E+01  0.89271945882E+01  0.51100000000E-03 0. -1.
        -11    1    3    3    0    0  0.17417448163E+02 -0.60691806228E+01 -0.76100560623E+01  0.19952829561E+02  0.51100000000E-03 0.  1.
         12    1    3    3    0    0 -0.24889779426E+01  0.31008581550E+01 -0.21280548361E+02  0.21648835328E+02  0.00000000000E+00 0. -1.
</event>
<event>
 7    1  0.5855569E-013  0.5052885E+02  0.7816164E-02  0.1300439E+00
        -11   -1    0    0    0    0  0.00000000000E+00  0.00000000000E+00  0.45593999997E+02  0.45594000000E+02  0.51100000000E-03 0.  1.
         11   -1    0    0    0    0 -0.00000000000E+00 -0.00000000000E+00 -0.45593999997E+02  0.45594000000E+02  0.51100000000E-03 0. -1.
    9900012    2    1    2    0    0 -0.38959387867E+02 -0.36361564511E+00 -0.11627571739E+02  0.50528849199E+02  0.29999967626E+02 0.  0.
        -12    1    1    2    0    0  0.38959387867E+02  0.36361564511E+00  0.11627571739E+02  0.40659150801E+02  0.00000000000E+00 0.  1.
         11    1    3    3    0    0 -0.48289019578E+01  0.49494375269E+01  0.53858040817E+00  0.69357980845E+01  0.51100000000E-03 0. -1.
        -11    1    3    3    0    0  0.34033802346E+01  0.14492805581E+01 -0.14979191665E+01  0.39908862735E+01  0.51100000000E-03 0.  1.
        -12    1    3    3    0    0 -0.37533866144E+02 -0.67623337301E+01 -0.10668232981E+02  0.39602164841E+02  0.00000000000E+00 0.  1.
</event>
<event>
 7    1  0.5855569E-013  0.5052886E+02  0.7816164E-02  0.1300439E+00
        -11   -1    0    0    0    0  0.00000000000E+00  0.00000000000E+00  0.45593999997E+02  0.45594000000E+02  0.51100000000E-03 0. -1.
         11   -1    0    0    0    0 -0.00000000000E+00 -0.00000000000E+00 -0.45593999997E+02  0.45594000000E+02  0.51100000000E-03 0.  1.
    9900012    2    1    2    0    0  0.83018548615E+01 -0.21521323263E+02  0.33482496790E+02  0.50528859079E+02  0.29999997657E+02 0.  0.
        -12    1    1    2    0    0 -0.83018548615E+01  0.21521323263E+02 -0.33482496790E+02  0.40659140921E+02  0.00000000000E+00 0.  1.
         11    1    3    3    0    0  0.48827357347E+01  0.58445140936E+00 -0.19728235142E+01  0.52985587270E+01  0.51100000000E-03 0. -1.
        -11    1    3    3    0    0  0.35819807860E+01  0.12111742587E+01  0.15629005336E+01  0.40914774563E+01  0.51100000000E-03 0.  1.
         12    1    3    3    0    0 -0.16286165915E+00 -0.23316948931E+02  0.33892419771E+02  0.41138822896E+02  0.00000000000E+00 0. -1.
</event>
<event>
 7    1  0.5855569E-013  0.5052885E+02  0.7816164E-02  0.1300439E+00
        -11   -1    0    0    0    0  0.00000000000E+00  0.00000000000E+00  0.45593999997E+02  0.45594000000E+02  0.51100000000E-03 0.  1.
         11   -1    0    0    0    0 -0.00000000000E+00 -0.00000000000E+00 -0.45593999997E+02  0.45594000000E+02  0.51100000000E-03 0. -1.
    9900012    2    1    2    0    0  0.32640573129E+02 -0.18850078648E+02 -0.15245780526E+02  0.50528852160E+02  0.29999976625E+02 0.  0.
        -12    1    1    2    0    0 -0.32640573129E+02  0.18850078648E+02  0.15245780526E+02  0.40659147840E+02  0.00000000000E+00 0.  1.
         11    1    3    3    0    0  0.17455054552E+02  0.49698936401E+00 -0.20030055463E+01  0.17576631057E+02  0.51100000000E-03 0.  1.
        -11    1    3    3    0    0  0.12730252400E+02 -0.51155389504E+01 -0.55848821978E+00  0.13730985918E+02  0.51100000000E-03 0. -1.
         12    1    3    3    0    0  0.24552661776E+01 -0.14231529062E+02 -0.12684286760E+02  0.19221235185E+02  0.00000000000E+00 0. -1.
</event>
<event>
 7    1  0.5855569E-013  0.5052883E+02  0.7816164E-02  0.1300439E+00
        -11   -1    0    0    0    0  0.00000000000E+00  0.00000000000E+00  0.45593999997E+02  0.45594000000E+02  0.51100000000E-03 0.  1.
         11   -1    0    0    0    0 -0.00000000000E+00 -0.00000000000E+00 -0.45593999997E+02  0.45594000000E+02  0.51100000000E-03 0. -1.
    9900012    2    1    2    0    0 -0.37710038540E+02 -0.13792869813E+02 -0.63936014932E+01  0.50528826319E+02  0.29999898078E+02 0.  0.
        -12    1    1    2    0    0  0.37710038540E+02  0.13792869813E+02  0.63936014932E+01  0.40659173681E+02  0.00000000000E+00 0.  1.
         11    1    3    3    0    0 -0.28281357142E+02 -0.14593909434E+01  0.13769142608E+01  0.28352440404E+02  0.51100000000E-03 0.  1.
        -11    1    3    3    0    0 -0.12590983692E+02 -0.78695196068E+01 -0.76537982432E+01  0.16704575331E+02  0.51100000000E-03 0. -1.
        -12    1    3    3    0    0  0.31623022933E+01 -0.44639592626E+01 -0.11671751072E+00  0.54718105843E+01  0.00000000000E+00 0.  1.
</event>
<event>
 7    1  0.5855569E-013  0.5052886E+02  0.7816164E-02  0.1300439E+00
        -11   -1    0    0    0    0  0.00000000000E+00  0.00000000000E+00  0.45593999997E+02  0.45594000000E+02  0.51100000000E-03 0.  1.
         11   -1    0    0    0    0 -0.00000000000E+00 -0.00000000000E+00 -0.45593999997E+02  0.45594000000E+02  0.51100000000E-03 0. -1.
    9900012    2    1    2    0    0  0.15908714594E+02 -0.17947182882E+01 -0.37374553032E+02  0.50528862919E+02  0.30000009330E+02 0.  0.
        -12    1    1    2    0    0 -0.15908714594E+02  0.17947182882E+01  0.37374553032E+02  0.40659137081E+02  0.00000000000E+00 0.  1.
         11    1    3    3    0    0  0.15684191396E+01  0.80767792922E+01 -0.73636844987E+01  0.11041655310E+02  0.51100000000E-03 0. -1.
        -11    1    3    3    0    0 -0.39288132182E+01  0.13034505803E+01 -0.62821224288E+01  0.75232718408E+01  0.51100000000E-03 0.  1.
         12    1    3    3    0    0  0.18269108673E+02 -0.11174948161E+02 -0.23728746105E+02  0.31963935768E+02  0.00000000000E+00 0. -1.
</event>
<event>
 7    1  0.5855569E-013  0.5052887E+02  0.7816164E-02  0.1300439E+00
        -11   -1    0    0    0    0  0.00000000000E+00  0.00000000000E+00  0.45593999997E+02  0.45594000000E+02  0.51100000000E-03 0.  1.
         11   -1    0    0    0    0 -0.00000000000E+00 -0.00000000000E+00 -0.45593999997E+02  0.45594000000E+02  0.51100000000E-03 0. -1.
    9900012    2    1    2    0    0 -0.12912303697E+02  0.29806636129E+02 -0.24454076821E+02  0.50528867972E+02  0.30000024688E+02 0.  0.
        -12    1    1    2    0    0  0.12912303697E+02 -0.29806636129E+02  0.24454076821E+02  0.40659132028E+02  0.00000000000E+00 0.  1.
         11    1    3    3    0    0  0.31284396150E+01  0.70456336178E+01 -0.67404057001E+01  0.10240173669E+02  0.51100000000E-03 0.  1.
        -11    1    3    3    0    0 -0.63690681474E+01  0.24428781571E+02 -0.17026017004E+02  0.30450215983E+02  0.51100000000E-03 0. -1.
        -12    1    3    3    0    0 -0.96716751646E+01 -0.16677790596E+01 -0.68765411656E+00  0.98384783206E+01  0.00000000000E+00 0.  1.
</event>
<event>
 7    1  0.5855569E-013  0.5052883E+02  0.7816164E-02  0.1300439E+00
        -11   -1    0    0    0    0  0.00000000000E+00  0.00000000000E+00  0.45593999997E+02  0.45594000000E+02  0.51100000000E-03 0.  1.
         11   -1    0    0    0    0 -0.00000000000E+00 -0.00000000000E+00 -0.45593999997E+02  0.45594000000E+02  0.51100000000E-03 0. -1.
    9900012    2    1    2    0    0 -0.68230449931E+01  0.85445602456E+00 -0.40073484330E+02  0.50528829025E+02  0.29999906303E+02 0.  0.
        -12    1    1    2    0    0  0.68230449931E+01 -0.85445602456E+00  0.40073484330E+02  0.40659170975E+02  0.00000000000E+00 0.  1.
         11    1    3    3    0    0 -0.96414031417E+01  0.73105455842E+00 -0.14551288785E+02  0.17470864342E+02  0.51100000000E-03 0. -1.
        -11    1    3    3    0    0 -0.58225753011E+01  0.75060735088E+01 -0.13571309055E+02  0.16565746358E+02  0.51100000000E-03 0.  1.
        -12    1    3    3    0    0  0.86409334497E+01 -0.73826720426E+01 -0.11950886490E+02  0.16492218325E+02  0.00000000000E+00 0.  1.
</event>
<event>
 7    1  0.5855569E-013  0.5052886E+02  0.7816164E-02  0.1300439E+00
        -11   -1    0    0    0    0  0.00000000000E+00  0.00000000000E+00  0.45593999997E+02  0.45594000000E+02  0.51100000000E-03 0. -1.
         11   -1    0    0    0    0 -0.00000000000E+00 -0.00000000000E+00 -0.45593999997E+02  0.45594000000E+02  0.51100000000E-03 0.  1.
    9900012    2    1    2    0    0  0.15236273219E+02 -0.30738298026E+02  0.21821521035E+02  0.50528858747E+02  0.29999996647E+02 0.  0.
        -12    1    1    2    0    0 -0.15236273219E+02  0.30738298026E+02 -0.21821521035E+02  0.40659141253E+02  0.00000000000E+00 0.  1.
         11    1    3    3    0    0  0.39668578559E+01 -0.12173608916E+02  0.10984142641E+02  0.16869620775E+02  0.51100000000E-03 0. -1.
        -11    1    3    3    0    0 -0.12723474048E+01 -0.17009141317E+02  0.12167171688E+02  0.20951606702E+02  0.51100000000E-03 0.  1.
        -12    1    3    3    0    0  0.12541762768E+02 -0.15555477937E+01 -0.13297932942E+01  0.12707631269E+02  0.00000000000E+00 0.  1.
</event>
<event>
 7    1  0.5855569E-013  0.5052885E+02  0.7816164E-02  0.1300439E+00
        -11   -1    0    0    0    0  0.00000000000E+00  0.00000000000E+00  0.45593999997E+02  0.45594000000E+02  0.51100000000E-03 0.  1.
         11   -1    0    0    0    0 -0.00000000000E+00 -0.00000000000E+00 -0.45593999997E+02  0.45594000000E+02  0.51100000000E-03 0. -1.
    9900012    2    1    2    0    0 -0.69063499762E+01 -0.23031721385E+02 -0.32787329470E+02  0.50528845634E+02  0.29999956789E+02 0.  0.
        -12    1    1    2    0    0  0.69063499762E+01  0.23031721385E+02  0.32787329470E+02  0.40659154366E+02  0.00000000000E+00 0.  1.
         11    1    3    3    0    0  0.93800677843E-01 -0.48203786715E+01 -0.20371013457E+00  0.48255929360E+01  0.51100000000E-03 0.  1.
        -11    1    3    3    0    0 -0.78234982870E+01 -0.16018765252E+02 -0.36794013175E+02  0.40885295295E+02  0.51100000000E-03 0. -1.
         12    1    3    3    0    0  0.82334763297E+00 -0.21925774623E+01  0.42103938391E+01  0.48179574026E+01  0.00000000000E+00 0. -1.
</event>
<event>
 7    1  0.5855569E-013  0.5052885E+02  0.7816164E-02  0.1300439E+00
        -11   -1    0    0    0    0  0.00000000000E+00  0.00000000000E+00  0.45593999997E+02  0.45594000000E+02  0.51100000000E-03 0.  1.
         11   -1    0    0    0    0 -0.00000000000E+00 -0.00000000000E+00 -0.45593999997E+02  0.45594000000E+02  0.51100000000E-03 0. -1.
    9900012    2    1    2    0    0  0.10095243548E+02 -0.16842278605E+02 -0.35603228565E+02  0.50528853733E+02  0.29999981408E+02 0.  0.
        -12    1    1    2    0    0 -0.10095243548E+02  0.16842278605E+02  0.35603228565E+02  0.40659146267E+02  0.00000000000E+00 0.  1.
         11    1    3    3    0    0  0.71392216348E+01 -0.15131751734E+02 -0.23475014068E+02  0.28827325264E+02  0.51100000000E-03 0. -1.
        -11    1    3    3    0    0  0.56074753942E+01 -0.79517624233E+01 -0.11233674365E+02  0.14861687183E+02  0.51100000000E-03 0.  1.
        -12    1    3    3    0    0 -0.26514534809E+01  0.62412355521E+01 -0.89454013176E+00  0.68398412866E+01  0.00000000000E+00 0.  1.
</event>
<event>
 7    1  0.5855569E-013  0.5052886E+02  0.7816164E-02  0.1300439E+00
        -11   -1    0    0    0    0  0.00000000000E+00  0.00000000000E+00  0.45593999997E+02  0.45594000000E+02  0.51100000000E-03 0.  1.
         11   -1    0    0    0    0 -0.00000000000E+00 -0.00000000000E+00 -0.45593999997E+02  0.45594000000E+02  0.51100000000E-03 0. -1.
    9900012    2    1    2    0    0  0.24944848463E+02  0.31973680889E+02 -0.29332056946E+01  0.50528862895E+02  0.30000009256E+02 0.  0.
        -12    1    1    2    0    0 -0.24944848463E+02 -0.31973680889E+02  0.29332056946E+01  0.40659137105E+02  0.00000000000E+00 0.  1.
         11    1    3    3    0    0  0.13048783560E+02  0.43084406812E+01 -0.22098842500E+01  0.13918225539E+02  0.51100000000E-03 0. -1.
        -11    1    3    3    0    0  0.11691267389E+02  0.13836937471E+02 -0.92741703312E+01  0.20350842915E+02  0.51100000000E-03 0.  1.
        -12    1    3    3    0    0  0.20479751426E+00  0.13828302737E+02  0.85508488866E+01  0.16259794442E+02  0.00000000000E+00 0.  1.
</event>
<event>
 7    1  0.5855569E-013  0.5052886E+02  0.7816164E-02  0.1300439E+00
        -11   -1    0    0    0    0  0.00000000000E+00  0.00000000000E+00  0.45593999997E+02  0.45594000000E+02  0.51100000000E-03 0. -1.
         11   -1    0    0    0    0 -0.00000000000E+00 -0.00000000000E+00 -0.45593999997E+02  0.45594000000E+02  0.51100000000E-03 0.  1.
    9900012    2    1    2    0    0 -0.74522040730E+01  0.21295704445E+02  0.33824891574E+02  0.50528860027E+02  0.30000000538E+02 0.  0.
        -12    1    1    2    0    0  0.74522040730E+01 -0.21295704445E+02 -0.33824891574E+02  0.40659139973E+02  0.00000000000E+00 0.  1.
         11    1    3    3    0    0 -0.24931160934E+01  0.60819422395E+00  0.10952075882E+02  0.11248710791E+02  0.51100000000E-03 0. -1.
        -11    1    3    3    0    0  0.43172533004E+01  0.58032155763E+01  0.20305067756E+02  0.21554854765E+02  0.51100000000E-03 0.  1.
        -12    1    3    3    0    0 -0.92763412800E+01  0.14884294645E+02  0.25677479355E+01  0.17725294471E+02  0.00000000000E+00 0.  1.
</event>
<event>
 7    1  0.5855569E-013  0.5052886E+02  0.7816164E-02  0.1300439E+00
        -11   -1    0    0    0    0  0.00000000000E+00  0.00000000000E+00  0.45593999997E+02  0.45594000000E+02  0.51100000000E-03 0.  1.
         11   -1    0    0    0    0 -0.00000000000E+00 -0.00000000000E+00 -0.45593999997E+02  0.45594000000E+02  0.51100000000E-03 0. -1.
    9900012    2    1    2    0    0  0.35210436346E+02 -0.19947414600E+02 -0.39359644842E+01  0.50528855969E+02  0.29999988204E+02 0.  0.
        -12    1    1    2    0    0 -0.35210436346E+02  0.19947414600E+02  0.39359644842E+01  0.40659144031E+02  0.00000000000E+00 0.  1.
         11    1    3    3    0    0  0.79844041082E+01 -0.16031593621E+02 -0.30404573028E+01  0.18166097101E+02  0.51100000000E-03 0.  1.
        -11    1    3    3    0    0  0.26023681904E+01 -0.26437457519E+01  0.57350675154E+01  0.68302790182E+01  0.51100000000E-03 0. -1.
         12    1    3    3    0    0  0.24623664047E+02 -0.12720752265E+01 -0.66305746968E+01  0.25532479850E+02  0.00000000000E+00 0. -1.
</event>
<event>
 7    1  0.5855569E-013  0.5052888E+02  0.7816164E-02  0.1300439E+00
        -11   -1    0    0    0    0  0.00000000000E+00  0.00000000000E+00  0.45593999997E+02  0.45594000000E+02  0.51100000000E-03 0. -1.
         11   -1    0    0    0    0 -0.00000000000E+00 -0.00000000000E+00 -0.45593999997E+02  0.45594000000E+02  0.51100000000E-03 0.  1.
    9900012    2    1    2    0    0 -0.13952752021E+01 -0.25920783068E+02  0.31294257990E+02  0.50528875921E+02  0.30000048848E+02 0.  0.
        -12    1    1    2    0    0  0.13952752021E+01  0.25920783068E+02 -0.31294257990E+02  0.40659124079E+02  0.00000000000E+00 0.  1.
         11    1    3    3    0    0 -0.49494166955E+01 -0.18948019578E+02  0.23455414298E+02  0.30556188108E+02  0.51100000000E-03 0. -1.
        -11    1    3    3    0    0  0.42189569672E+01 -0.10931013261E+02  0.10008924657E+02  0.15409906614E+02  0.51100000000E-03 0.  1.
         12    1    3    3    0    0 -0.66481547374E+00  0.39582497712E+01 -0.21700809651E+01  0.45627811979E+01  0.00000000000E+00 0. -1.
</event>
<event>
 7    1  0.5855569E-013  0.5052886E+02  0.7816164E-02  0.1300439E+00
        -11   -1    0    0    0    0  0.00000000000E+00  0.00000000000E+00  0.45593999997E+02  0.45594000000E+02  0.51100000000E-03 0.  1.
         11   -1    0    0    0    0 -0.00000000000E+00 -0.00000000000E+00 -0.45593999997E+02  0.45594000000E+02  0.51100000000E-03 0. -1.
    9900012    2    1    2    0    0  0.20387097870E+02 -0.15895600777E+02 -0.31382506471E+02  0.50528860855E+02  0.30000003054E+02 0.  0.
        -12    1    1    2    0    0 -0.20387097870E+02  0.15895600777E+02  0.31382506471E+02  0.40659139145E+02  0.00000000000E+00 0.  1.
         11    1    3    3    0    0  0.48251269822E+01  0.19702925104E+01 -0.14777103269E+02  0.15669291122E+02  0.51100000000E-03 0. -1.
        -11    1    3    3    0    0  0.36048704401E+01 -0.21197933400E+01 -0.14365238131E+02  0.14961573497E+02  0.51100000000E-03 0.  1.
         12    1    3    3    0    0  0.11957100448E+02 -0.15746099947E+02 -0.22401650711E+01  0.19897996236E+02  0.00000000000E+00 0. -1.
</event>
<event>
 7    1  0.5855569E-013  0.5052887E+02  0.7816164E-02  0.1300439E+00
        -11   -1    0    0    0    0  0.00000000000E+00  0.00000000000E+00  0.45593999997E+02  0.45594000000E+02  0.51100000000E-03 0.  1.
         11   -1    0    0    0    0 -0.00000000000E+00 -0.00000000000E+00 -0.45593999997E+02  0.45594000000E+02  0.51100000000E-03 0. -1.
    9900012    2    1    2    0    0 -0.27220926320E+01  0.10141846840E+02 -0.39279742530E+02  0.50528867953E+02  0.30000024630E+02 0.  0.
        -12    1    1    2    0    0  0.27220926320E+01 -0.10141846840E+02  0.39279742530E+02  0.40659132047E+02  0.00000000000E+00 0.  1.
         11    1    3    3    0    0  0.52574948166E+01 -0.62185064180E+01 -0.51900253329E+01  0.96564712516E+01  0.51100000000E-03 0. -1.
        -11    1    3    3    0    0 -0.22677736745E+01 -0.97590709069E+00 -0.32551385189E+00  0.24902111592E+01  0.51100000000E-03 0.  1.
         12    1    3    3    0    0 -0.57118137741E+01  0.17336260348E+02 -0.33764203345E+02  0.38382185542E+02  0.00000000000E+00 0. -1.
</event>
<event>
 7    1  0.5855569E-013  0.5052886E+02  0.7816164E-02  0.1300439E+00
        -11   -1    0    0    0    0  0.00000000000E+00  0.00000000000E+00  0.45593999997E+02  0.45594000000E+02  0.51100000000E-03 0.  1.
         11   -1    0    0    0    0 -0.00000000000E+00 -0.00000000000E+00 -0.45593999997E+02  0.45594000000E+02  0.51100000000E-03 0. -1.
    9900012    2    1    2    0    0  0.49534263916E+01  0.49843154355E+01 -0.40047297882E+02  0.50528857104E+02  0.29999991653E+02 0.  0.
        -12    1    1    2    0    0 -0.49534263916E+01 -0.49843154355E+01  0.40047297882E+02  0.40659142896E+02  0.00000000000E+00 0.  1.
         11    1    3    3    0    0 -0.55033819738E+00 -0.41319469475E+00  0.19381718515E+01  0.20567236990E+01  0.51100000000E-03 0. -1.
        -11    1    3    3    0    0  0.84853424689E+01  0.27763734071E+01 -0.32002094782E+01  0.94842304420E+01  0.51100000000E-03 0.  1.
         12    1    3    3    0    0 -0.29815778800E+01  0.26211367231E+01 -0.38785260255E+02  0.38987902963E+02  0.00000000000E+00 0. -1.
</event>
<event>
 7    1  0.5855569E-013  0.5052887E+02  0.7816164E-02  0.1300439E+00
        -11   -1    0    0    0    0  0.00000000000E+00  0.00000000000E+00  0.45593999997E+02  0.45594000000E+02  0.51100000000E-03 0. -1.
         11   -1    0    0    0    0 -0.00000000000E+00 -0.00000000000E+00 -0.45593999997E+02  0.45594000000E+02  0.51100000000E-03 0.  1.
    9900012    2    1    2    0    0  0.18809302688E+02  0.33256671244E+02  0.13905698844E+02  0.50528874208E+02  0.30000043642E+02 0.  0.
        -12    1    1    2    0    0 -0.18809302688E+02 -0.33256671244E+02 -0.13905698844E+02  0.40659125792E+02  0.00000000000E+00 0.  1.
         11    1    3    3    0    0  0.55352142876E+01 -0.30069692088E+01 -0.13025785273E-01  0.62992563819E+01  0.51100000000E-03 0. -1.
        -11    1    3    3    0    0  0.39033597823E+01  0.29223935555E+00 -0.12098775032E+01  0.40970019850E+01  0.51100000000E-03 0.  1.
         12    1    3    3    0    0  0.93707286180E+01  0.35971401097E+02  0.15128602133E+02  0.40132615841E+02  0.00000000000E+00 0. -1.
</event>
<event>
 7    1  0.5855569E-013  0.5052887E+02  0.7816164E-02  0.1300439E+00
        -11   -1    0    0    0    0  0.00000000000E+00  0.00000000000E+00  0.45593999997E+02  0.45594000000E+02  0.51100000000E-03 0.  1.
         11   -1    0    0    0    0 -0.00000000000E+00 -0.00000000000E+00 -0.45593999997E+02  0.45594000000E+02  0.51100000000E-03 0. -1.
    9900012    2    1    2    0    0  0.14569346432E+01 -0.40211456310E+02 -0.58378787866E+01  0.50528871802E+02  0.30000036328E+02 0.  0.
        -12    1    1    2    0    0 -0.14569346432E+01  0.40211456310E+02  0.58378787866E+01  0.40659128198E+02  0.00000000000E+00 0.  1.
         11    1    3    3    0    0 -0.48170711555E+01 -0.35352537274E+01 -0.15123340016E+01  0.61635499371E+01  0.51100000000E-03 0.  1.
        -11    1    3    3    0    0 -0.63331057624E+01 -0.26202923145E+02 -0.67690651341E+01  0.27794273745E+02  0.51100000000E-03 0. -1.
         12    1    3    3    0    0  0.12607111561E+02 -0.10473279437E+02  0.24435203490E+01  0.16571048120E+02  0.00000000000E+00 0. -1.
</event>
<event>
 7    1  0.5855569E-013  0.5052886E+02  0.7816164E-02  0.1300439E+00
        -11   -1    0    0    0    0  0.00000000000E+00  0.00000000000E+00  0.45593999997E+02  0.45594000000E+02  0.51100000000E-03 0. -1.
         11   -1    0    0    0    0 -0.00000000000E+00 -0.00000000000E+00 -0.45593999997E+02  0.45594000000E+02  0.51100000000E-03 0.  1.
    9900012    2    1    2    0    0  0.38020395633E+02  0.72649650544E+01 -0.12443285080E+02  0.50528861483E+02  0.30000004964E+02 0.  0.
        -12    1    1    2    0    0 -0.38020395633E+02 -0.72649650544E+01  0.12443285080E+02  0.40659138517E+02  0.00000000000E+00 0.  1.
         11    1    3    3    0    0  0.64640058858E+01 -0.14381359020E+01 -0.14106265721E+01  0.67706332460E+01  0.51100000000E-03 0. -1.
        -11    1    3    3    0    0  0.32254514109E+02 -0.70054120065E+00 -0.52216271658E+01  0.32681949588E+02  0.51100000000E-03 0.  1.
        -12    1    3    3    0    0 -0.69812436159E+00  0.94036421571E+01 -0.58110313424E+01  0.11076278649E+02  0.00000000000E+00 0.  1.
</event>
<event>
 7    1  0.6297278E-013  0.5052890E+02  0.7816164E-02  0.1300439E+00
        -11   -1    0    0    0    0  0.00000000000E+00  0.00000000000E+00  0.45593999997E+02  0.45594000000E+02  0.51100000000E-03 0. -1.
         11   -1    0    0    0    0 -0.00000000000E+00 -0.00000000000E+00 -0.45593999997E+02  0.45594000000E+02  0.51100000000E-03 0.  1.
    9900012    2    1    2    0    0  0.10345347788E+02  0.30028453771E+02  0.25385596605E+02  0.50528895587E+02  0.30000108625E+02 0.  0.
        -12    1    1    2    0    0 -0.10345347788E+02 -0.30028453771E+02 -0.25385596605E+02  0.40659104413E+02  0.00000000000E+00 0.  1.
         11    1    3    3    0    0 -0.48639205044E+01  0.42569703659E+01  0.64387616151E+01  0.91234407307E+01  0.51100000000E-03 0. -1.
        -11    1    3    3    0    0 -0.30470144112E+01  0.47184704223E+01 -0.25915404849E+01  0.61858178356E+01  0.51100000000E-03 0.  1.
         12    1    3    3    0    0  0.18256282703E+02  0.21053012982E+02  0.21538375475E+02  0.35219637021E+02  0.00000000000E+00 0. -1.
</event>
<event>
 7    1  0.5855569E-013  0.5052886E+02  0.7816164E-02  0.1300439E+00
        -11   -1    0    0    0    0  0.00000000000E+00  0.00000000000E+00  0.45593999997E+02  0.45594000000E+02  0.51100000000E-03 0.  1.
         11   -1    0    0    0    0 -0.00000000000E+00 -0.00000000000E+00 -0.45593999997E+02  0.45594000000E+02  0.51100000000E-03 0. -1.
    9900012    2    1    2    0    0 -0.23212052834E+02 -0.44152023700E+01 -0.33088857481E+02  0.50528857139E+02  0.29999991761E+02 0.  0.
        -12    1    1    2    0    0  0.23212052834E+02  0.44152023700E+01  0.33088857481E+02  0.40659142861E+02  0.00000000000E+00 0.  1.
         11    1    3    3    0    0 -0.12258742264E+02 -0.29037517559E+01 -0.15769768522E+02  0.20184006928E+02  0.51100000000E-03 0. -1.
        -11    1    3    3    0    0 -0.25651718938E+01 -0.94208569469E+01 -0.27506374247E+00  0.97677178902E+01  0.51100000000E-03 0.  1.
         12    1    3    3    0    0 -0.83881386760E+01  0.79094063328E+01 -0.17044025216E+02  0.20577132321E+02  0.00000000000E+00 0. -1.
</event>
<event>
 7    1  0.5855569E-013  0.5052883E+02  0.7816164E-02  0.1300439E+00
        -11   -1    0    0    0    0  0.00000000000E+00  0.00000000000E+00  0.45593999997E+02  0.45594000000E+02  0.51100000000E-03 0.  1.
         11   -1    0    0    0    0 -0.00000000000E+00 -0.00000000000E+00 -0.45593999997E+02  0.45594000000E+02  0.51100000000E-03 0. -1.
    9900012    2    1    2    0    0  0.24792045711E+02 -0.53598001400E+01 -0.31777269202E+02  0.50528833432E+02  0.29999919701E+02 0.  0.
        -12    1    1    2    0    0 -0.24792045711E+02  0.53598001400E+01  0.31777269202E+02  0.40659166568E+02  0.00000000000E+00 0.  1.
         11    1    3    3    0    0 -0.42554318775E+01 -0.39488788845E+01 -0.19668099338E+01  0.61294931670E+01  0.51100000000E-03 0.  1.
        -11    1    3    3    0    0  0.14356048533E+02 -0.11563227732E+01 -0.25154124103E+02  0.28985568331E+02  0.51100000000E-03 0. -1.
        -12    1    3    3    0    0  0.14691429055E+02 -0.25459848233E+00 -0.46563351654E+01  0.15413771934E+02  0.00000000000E+00 0.  1.
</event>
<event>
 7    1  0.5855569E-013  0.5052885E+02  0.7816164E-02  0.1300439E+00
        -11   -1    0    0    0    0  0.00000000000E+00  0.00000000000E+00  0.45593999997E+02  0.45594000000E+02  0.51100000000E-03 0.  1.
         11   -1    0    0    0    0 -0.00000000000E+00 -0.00000000000E+00 -0.45593999997E+02  0.45594000000E+02  0.51100000000E-03 0. -1.
    9900012    2    1    2    0    0  0.33041754165E+02 -0.20283925166E+02 -0.12246265996E+02  0.50528853806E+02  0.29999981628E+02 0.  0.
        -12    1    1    2    0    0 -0.33041754165E+02  0.20283925166E+02  0.12246265996E+02  0.40659146194E+02  0.00000000000E+00 0.  1.
         11    1    3    3    0    0  0.11247087266E+02  0.24279020665E+01 -0.11333400596E+02  0.16150469026E+02  0.51100000000E-03 0. -1.
        -11    1    3    3    0    0  0.90989359931E+01 -0.36866006664E+01 -0.51973391612E+01  0.11108284985E+02  0.51100000000E-03 0.  1.
        -12    1    3    3    0    0  0.12695730905E+02 -0.19025226566E+02  0.42844737611E+01  0.23270099796E+02  0.00000000000E+00 0.  1.
</event>
<event>
 7    1  0.5855569E-013  0.5052887E+02  0.7816164E-02  0.1300439E+00
        -11   -1    0    0    0    0  0.00000000000E+00  0.00000000000E+00  0.45593999997E+02  0.45594000000E+02  0.51100000000E-03 0.  1.
         11   -1    0    0    0    0 -0.00000000000E+00 -0.00000000000E+00 -0.45593999997E+02  0.45594000000E+02  0.51100000000E-03 0. -1.
    9900012    2    1    2    0    0 -0.40098058352E+02  0.30140295408E+01 -0.60188535701E+01  0.50528865037E+02  0.30000015766E+02 0.  0.
        -12    1    1    2    0    0  0.40098058352E+02 -0.30140295408E+01  0.60188535701E+01  0.40659134963E+02  0.00000000000E+00 0.  1.
         11    1    3    3    0    0  0.32142080535E+01 -0.16769869631E+00 -0.40884244216E+01  0.52033134421E+01  0.51100000000E-03 0. -1.
        -11    1    3    3    0    0 -0.12220550525E+02  0.51171511760E+01 -0.46837674950E+01  0.14052215822E+02  0.51100000000E-03 0.  1.
        -12    1    3    3    0    0 -0.31091715880E+02 -0.19354229388E+01  0.27533383465E+01  0.31273335773E+02  0.00000000000E+00 0.  1.
</event>
<event>
 7    1  0.5855569E-013  0.5052886E+02  0.7816164E-02  0.1300439E+00
        -11   -1    0    0    0    0  0.00000000000E+00  0.00000000000E+00  0.45593999997E+02  0.45594000000E+02  0.51100000000E-03 0.  1.
         11   -1    0    0    0    0 -0.00000000000E+00 -0.00000000000E+00 -0.45593999997E+02  0.45594000000E+02  0.51100000000E-03 0. -1.
    9900012    2    1    2    0    0 -0.21614279023E+02 -0.85827708933E+01 -0.33351525603E+02  0.50528864815E+02  0.30000015093E+02 0.  0.
        -12    1    1    2    0    0  0.21614279023E+02  0.85827708933E+01  0.33351525603E+02  0.40659135185E+02  0.00000000000E+00 0.  1.
         11    1    3    3    0    0 -0.28614670386E+00  0.51068839947E+01 -0.42379229408E+01  0.66424494868E+01  0.51100000000E-03 0. -1.
        -11    1    3    3    0    0 -0.60105667907E+01 -0.13465036718E+02 -0.54980509274E+01  0.15737302540E+02  0.51100000000E-03 0.  1.
         12    1    3    3    0    0 -0.15317565529E+02 -0.22461816999E+00 -0.23615551735E+02  0.28149112789E+02  0.00000000000E+00 0. -1.
</event>
<event>
 7    1  0.5855569E-013  0.5052886E+02  0.7816164E-02  0.1300439E+00
        -11   -1    0    0    0    0  0.00000000000E+00  0.00000000000E+00  0.45593999997E+02  0.45594000000E+02  0.51100000000E-03 0.  1.
         11   -1    0    0    0    0 -0.00000000000E+00 -0.00000000000E+00 -0.45593999997E+02  0.45594000000E+02  0.51100000000E-03 0. -1.
    9900012    2    1    2    0    0 -0.12355795133E+02 -0.37634564851E+02 -0.91727414417E+01  0.50528864121E+02  0.30000012982E+02 0.  0.
        -12    1    1    2    0    0  0.12355795133E+02  0.37634564851E+02  0.91727414417E+01  0.40659135879E+02  0.00000000000E+00 0.  1.
         11    1    3    3    0    0 -0.65426519674E+01 -0.79313452718E+01 -0.49112455785E+01  0.11394422582E+02  0.51100000000E-03 0. -1.
        -11    1    3    3    0    0 -0.53009519101E+01 -0.16584178241E+02  0.97320633687E+01  0.19946130370E+02  0.51100000000E-03 0.  1.
         12    1    3    3    0    0 -0.51219125560E+00 -0.13119041338E+02 -0.13993559232E+02  0.19188311169E+02  0.00000000000E+00 0. -1.
</event>
<event>
 7    1  0.5855569E-013  0.5052887E+02  0.7816164E-02  0.1300439E+00
        -11   -1    0    0    0    0  0.00000000000E+00  0.00000000000E+00  0.45593999997E+02  0.45594000000E+02  0.51100000000E-03 0.  1.
         11   -1    0    0    0    0 -0.00000000000E+00 -0.00000000000E+00 -0.45593999997E+02  0.45594000000E+02  0.51100000000E-03 0. -1.
    9900012    2    1    2    0    0 -0.93631478693E+01 -0.24624790275E+02 -0.30969602821E+02  0.50528866548E+02  0.30000020360E+02 0.  0.
        -12    1    1    2    0    0  0.93631478693E+01  0.24624790275E+02  0.30969602821E+02  0.40659133452E+02  0.00000000000E+00 0.  1.
         11    1    3    3    0    0 -0.59872114374E+01 -0.16501791351E+02 -0.19519266900E+02  0.26251811350E+02  0.51100000000E-03 0. -1.
        -11    1    3    3    0    0 -0.54477290678E+01 -0.26774387932E+01  0.43295065725E+01  0.74559411150E+01  0.51100000000E-03 0.  1.
         12    1    3    3    0    0  0.20717926358E+01 -0.54455601312E+01 -0.15779842494E+02  0.16821114083E+02  0.00000000000E+00 0. -1.
</event>
<event>
 7    1  0.5855569E-013  0.5052885E+02  0.7816164E-02  0.1300439E+00
        -11   -1    0    0    0    0  0.00000000000E+00  0.00000000000E+00  0.45593999997E+02  0.45594000000E+02  0.51100000000E-03 0.  1.
         11   -1    0    0    0    0 -0.00000000000E+00 -0.00000000000E+00 -0.45593999997E+02  0.45594000000E+02  0.51100000000E-03 0. -1.
    9900012    2    1    2    0    0  0.28459802439E+02  0.56854876565E+01 -0.28475975558E+02  0.50528852090E+02  0.29999976414E+02 0.  0.
        -12    1    1    2    0    0 -0.28459802439E+02 -0.56854876565E+01  0.28475975558E+02  0.40659147910E+02  0.00000000000E+00 0.  1.
         11    1    3    3    0    0  0.13060584061E+02 -0.32705581108E+00 -0.18387097929E+02  0.22555956908E+02  0.51100000000E-03 0. -1.
        -11    1    3    3    0    0  0.21221364985E+01 -0.13069065190E+01 -0.12390089564E+02  0.12638266797E+02  0.51100000000E-03 0.  1.
         12    1    3    3    0    0  0.13277081879E+02  0.73194499866E+01  0.23012119355E+01  0.15334628385E+02  0.00000000000E+00 0. -1.
</event>
<event>
 7    1  0.5855569E-013  0.5052886E+02  0.7816164E-02  0.1300439E+00
        -11   -1    0    0    0    0  0.00000000000E+00  0.00000000000E+00  0.45593999997E+02  0.45594000000E+02  0.51100000000E-03 0. -1.
         11   -1    0    0    0    0 -0.00000000000E+00 -0.00000000000E+00 -0.45593999997E+02  0.45594000000E+02  0.51100000000E-03 0.  1.
    9900012    2    1    2    0    0 -0.30870445558E+02 -0.11377526494E+02 -0.23890022074E+02  0.50528859911E+02  0.30000000185E+02 0.  0.
        -12    1    1    2    0    0  0.30870445558E+02  0.11377526494E+02  0.23890022074E+02  0.40659140089E+02  0.00000000000E+00 0.  1.
         11    1    3    3    0    0  0.32506834993E+01 -0.74420461050E+01 -0.24650364823E+01  0.84868956964E+01  0.51100000000E-03 0. -1.
        -11    1    3    3    0    0 -0.93105470621E+01 -0.36938705540E+01 -0.11675713921E+02  0.15383538673E+02  0.51100000000E-03 0.  1.
         12    1    3    3    0    0 -0.24810581996E+02 -0.24160983510E+00 -0.97492716707E+01  0.26658425542E+02  0.00000000000E+00 0. -1.
</event>
<event>
 7    1  0.5855569E-013  0.5052884E+02  0.7816164E-02  0.1300439E+00
        -11   -1    0    0    0    0  0.00000000000E+00  0.00000000000E+00  0.45593999997E+02  0.45594000000E+02  0.51100000000E-03 0. -1.
         11   -1    0    0    0    0 -0.00000000000E+00 -0.00000000000E+00 -0.45593999997E+02  0.45594000000E+02  0.51100000000E-03 0.  1.
    9900012    2    1    2    0    0  0.47627372393E+01 -0.10016883675E+02  0.39117078343E+02  0.50528838146E+02  0.29999934028E+02 0.  0.
        -12    1    1    2    0    0 -0.47627372393E+01  0.10016883675E+02 -0.39117078343E+02  0.40659161854E+02  0.00000000000E+00 0.  1.
         11    1    3    3    0    0 -0.67205700785E+00  0.77140763115E+01  0.13789673984E+02  0.15814984755E+02  0.51100000000E-03 0. -1.
        -11    1    3    3    0    0 -0.47624623207E-02  0.48467509744E+00  0.10741663443E+02  0.10752593474E+02  0.51100000000E-03 0.  1.
         12    1    3    3    0    0  0.54395567095E+01 -0.18215635084E+02  0.14585740916E+02  0.23961259916E+02  0.00000000000E+00 0. -1.
</event>
<event>
 7    1  0.5855569E-013  0.5052883E+02  0.7816164E-02  0.1300439E+00
        -11   -1    0    0    0    0  0.00000000000E+00  0.00000000000E+00  0.45593999997E+02  0.45594000000E+02  0.51100000000E-03 0.  1.
         11   -1    0    0    0    0 -0.00000000000E+00 -0.00000000000E+00 -0.45593999997E+02  0.45594000000E+02  0.51100000000E-03 0. -1.
    9900012    2    1    2    0    0  0.24556924271E+02 -0.14449152725E+02 -0.29005991354E+02  0.50528830326E+02  0.29999910258E+02 0.  0.
        -12    1    1    2    0    0 -0.24556924271E+02  0.14449152725E+02  0.29005991354E+02  0.40659169674E+02  0.00000000000E+00 0.  1.
         11    1    3    3    0    0  0.65835926367E+01  0.28242964717E+01 -0.91111632003E+01  0.11590238897E+02  0.51100000000E-03 0. -1.
        -11    1    3    3    0    0  0.55047496842E+01  0.45719139704E+01 -0.49430426244E+00  0.71727960659E+01  0.51100000000E-03 0.  1.
        -12    1    3    3    0    0  0.12468581950E+02 -0.21845363167E+02 -0.19400523892E+02  0.31765795363E+02  0.00000000000E+00 0.  1.
</event>
<event>
 7    1  0.5855569E-013  0.5052886E+02  0.7816164E-02  0.1300439E+00
        -11   -1    0    0    0    0  0.00000000000E+00  0.00000000000E+00  0.45593999997E+02  0.45594000000E+02  0.51100000000E-03 0.  1.
         11   -1    0    0    0    0 -0.00000000000E+00 -0.00000000000E+00 -0.45593999997E+02  0.45594000000E+02  0.51100000000E-03 0. -1.
    9900012    2    1    2    0    0 -0.38570040378E+01  0.10576429642E+02 -0.39069527531E+02  0.50528864180E+02  0.30000013163E+02 0.  0.
        -12    1    1    2    0    0  0.38570040378E+01 -0.10576429642E+02  0.39069527531E+02  0.40659135820E+02  0.00000000000E+00 0.  1.
         11    1    3    3    0    0  0.55334657020E+01 -0.24373349668E+01 -0.10771503665E+01  0.61416689579E+01  0.51100000000E-03 0. -1.
        -11    1    3    3    0    0  0.28863654771E+01 -0.94489888230E+00 -0.12334747725E+02  0.12703146904E+02  0.51100000000E-03 0.  1.
        -12    1    3    3    0    0 -0.12276835217E+02  0.13958663491E+02 -0.25657629440E+02  0.31684048319E+02  0.00000000000E+00 0.  1.
</event>
<event>
 7    1  0.5855569E-013  0.5052886E+02  0.7816164E-02  0.1300439E+00
        -11   -1    0    0    0    0  0.00000000000E+00  0.00000000000E+00  0.45593999997E+02  0.45594000000E+02  0.51100000000E-03 0.  1.
         11   -1    0    0    0    0 -0.00000000000E+00 -0.00000000000E+00 -0.45593999997E+02  0.45594000000E+02  0.51100000000E-03 0. -1.
    9900012    2    1    2    0    0  0.17162443348E+02 -0.30466650822E+02 -0.20746071255E+02  0.50528859004E+02  0.29999997429E+02 0.  0.
        -12    1    1    2    0    0 -0.17162443348E+02  0.30466650822E+02  0.20746071255E+02  0.40659140996E+02  0.00000000000E+00 0.  1.
         11    1    3    3    0    0  0.50630699665E+01 -0.82155307420E+01 -0.58042448218E+01  0.11261388949E+02  0.51100000000E-03 0. -1.
        -11    1    3    3    0    0  0.64478579329E+01 -0.26990198041E+02 -0.74017090247E+01  0.28719870455E+02  0.51100000000E-03 0.  1.
        -12    1    3    3    0    0  0.56515154487E+01  0.47390779603E+01 -0.75401174085E+01  0.10547599600E+02  0.00000000000E+00 0.  1.
</event>
<event>
 7    1  0.5855569E-013  0.5052886E+02  0.7816164E-02  0.1300439E+00
        -11   -1    0    0    0    0  0.00000000000E+00  0.00000000000E+00  0.45593999997E+02  0.45594000000E+02  0.51100000000E-03 0. -1.
         11   -1    0    0    0    0 -0.00000000000E+00 -0.00000000000E+00 -0.45593999997E+02  0.45594000000E+02  0.51100000000E-03 0.  1.
    9900012    2    1    2    0    0 -0.12791353558E+02  0.16244155405E+02  0.35009632676E+02  0.50528859690E+02  0.29999999513E+02 0.  0.
        -12    1    1    2    0    0  0.12791353558E+02 -0.16244155405E+02 -0.35009632676E+02  0.40659140310E+02  0.00000000000E+00 0.  1.
         11    1    3    3    0    0 -0.12948496421E+02  0.70021499104E+01  0.18274446348E+02  0.23465912566E+02  0.51100000000E-03 0. -1.
        -11    1    3    3    0    0 -0.78727278683E+01 -0.12065183498E+01  0.77541633693E+01  0.11115870656E+02  0.51100000000E-03 0.  1.
         12    1    3    3    0    0  0.80298707322E+01  0.10448523845E+02  0.89810229583E+01  0.15947076468E+02  0.00000000000E+00 0. -1.
</event>
<event>
 7    1  0.5855569E-013  0.5052888E+02  0.7816164E-02  0.1300439E+00
        -11   -1    0    0    0    0  0.00000000000E+00  0.00000000000E+00  0.45593999997E+02  0.45594000000E+02  0.51100000000E-03 0.  1.
         11   -1    0    0    0    0 -0.00000000000E+00 -0.00000000000E+00 -0.45593999997E+02  0.45594000000E+02  0.51100000000E-03 0. -1.
    9900012    2    1    2    0    0  0.69509672952E+01 -0.20416302509E+02 -0.34467707422E+02  0.50528877907E+02  0.30000054886E+02 0.  0.
        -12    1    1    2    0    0 -0.69509672952E+01  0.20416302509E+02  0.34467707422E+02  0.40659122093E+02  0.00000000000E+00 0.  1.
         11    1    3    3    0    0  0.90557064971E+01 -0.90885888207E+01 -0.16441480285E+02  0.20854988399E+02  0.51100000000E-03 0. -1.
        -11    1    3    3    0    0  0.88325966995E+01 -0.47809940064E+01 -0.42520015248E+01  0.10906520315E+02  0.51100000000E-03 0.  1.
        -12    1    3    3    0    0 -0.10937335901E+02 -0.65467196817E+01 -0.13774225612E+02  0.18767369193E+02  0.00000000000E+00 0.  1.
</event>
<event>
 7    1  0.5855569E-013  0.5052884E+02  0.7816164E-02  0.1300439E+00
        -11   -1    0    0    0    0  0.00000000000E+00  0.00000000000E+00  0.45593999997E+02  0.45594000000E+02  0.51100000000E-03 0.  1.
         11   -1    0    0    0    0 -0.00000000000E+00 -0.00000000000E+00 -0.45593999997E+02  0.45594000000E+02  0.51100000000E-03 0. -1.
    9900012    2    1    2    0    0 -0.37779193950E+02  0.27881477114E+01 -0.14769089512E+02  0.50528840291E+02  0.29999940549E+02 0.  0.
        -12    1    1    2    0    0  0.37779193950E+02 -0.27881477114E+01  0.14769089512E+02  0.40659159709E+02  0.00000000000E+00 0.  1.
         11    1    3    3    0    0 -0.75556916154E+01 -0.55886638531E+00 -0.79809257738E+01  0.11004362039E+02  0.51100000000E-03 0. -1.
        -11    1    3    3    0    0  0.29035441265E+01  0.41955276546E+01  0.15892577576E+01  0.53440397900E+01  0.51100000000E-03 0.  1.
         12    1    3    3    0    0 -0.33127046462E+02 -0.84851355790E+00 -0.83774214964E+01  0.34180438462E+02  0.00000000000E+00 0. -1.
</event>
<event>
 7    1  0.5855569E-013  0.5052886E+02  0.7816164E-02  0.1300439E+00
        -11   -1    0    0    0    0  0.00000000000E+00  0.00000000000E+00  0.45593999997E+02  0.45594000000E+02  0.51100000000E-03 0.  1.
         11   -1    0    0    0    0 -0.00000000000E+00 -0.00000000000E+00 -0.45593999997E+02  0.45594000000E+02  0.51100000000E-03 0. -1.
    9900012    2    1    2    0    0  0.15262554395E+02 -0.14098016582E+02 -0.34949479494E+02  0.50528858899E+02  0.29999997108E+02 0.  0.
        -12    1    1    2    0    0 -0.15262554395E+02  0.14098016582E+02  0.34949479494E+02  0.40659141101E+02  0.00000000000E+00 0.  1.
         11    1    3    3    0    0 -0.39274793263E+00  0.56474241560E+00 -0.51180281243E+01  0.51640485161E+01  0.51100000000E-03 0. -1.
        -11    1    3    3    0    0  0.17418218162E+02 -0.44600199208E+01 -0.30038818681E+02  0.35008809315E+02  0.51100000000E-03 0.  1.
        -12    1    3    3    0    0 -0.17629158345E+01 -0.10202739077E+02  0.20736731121E+00  0.10356001068E+02  0.00000000000E+00 0.  1.
</event>
<event>
 7    1  0.5855569E-013  0.5052887E+02  0.7816164E-02  0.1300439E+00
        -11   -1    0    0    0    0  0.00000000000E+00  0.00000000000E+00  0.45593999997E+02  0.45594000000E+02  0.51100000000E-03 0. -1.
         11   -1    0    0    0    0 -0.00000000000E+00 -0.00000000000E+00 -0.45593999997E+02  0.45594000000E+02  0.51100000000E-03 0.  1.
    9900012    2    1    2    0    0  0.29207559976E+02 -0.15151957382E+02  0.23885167158E+02  0.50528873320E+02  0.30000040943E+02 0.  0.
        -12    1    1    2    0    0 -0.29207559976E+02  0.15151957382E+02 -0.23885167158E+02  0.40659126680E+02  0.00000000000E+00 0.  1.
         11    1    3    3    0    0  0.10005608288E+02  0.72511284844E+00  0.51864885860E+01  0.11293256837E+02  0.51100000000E-03 0. -1.
        -11    1    3    3    0    0  0.21628067009E+02 -0.36333832881E+01  0.10616365758E+02  0.24365590057E+02  0.51100000000E-03 0.  1.
        -12    1    3    3    0    0 -0.24261153217E+01 -0.12243686942E+02  0.80823128139E+01  0.14870026426E+02  0.00000000000E+00 0.  1.
</event>
<event>
 7    1  0.5855569E-013  0.5052886E+02  0.7816164E-02  0.1300439E+00
        -11   -1    0    0    0    0  0.00000000000E+00  0.00000000000E+00  0.45593999997E+02  0.45594000000E+02  0.51100000000E-03 0.  1.
         11   -1    0    0    0    0 -0.00000000000E+00 -0.00000000000E+00 -0.45593999997E+02  0.45594000000E+02  0.51100000000E-03 0. -1.
    9900012    2    1    2    0    0  0.28302611985E+02  0.49842795259E+01 -0.28762555970E+02  0.50528861869E+02  0.30000006138E+02 0.  0.
        -12    1    1    2    0    0 -0.28302611985E+02 -0.49842795259E+01  0.28762555970E+02  0.40659138131E+02  0.00000000000E+00 0.  1.
         11    1    3    3    0    0  0.14610911361E+02  0.58121708324E+00 -0.16005640490E+02  0.21679415856E+02  0.51100000000E-03 0. -1.
        -11    1    3    3    0    0  0.44436753080E+01 -0.85450057097E+01 -0.70871586049E+01  0.11957892380E+02  0.51100000000E-03 0.  1.
        -12    1    3    3    0    0  0.92480253166E+01  0.12948068152E+02 -0.56697568752E+01  0.16891553634E+02  0.00000000000E+00 0.  1.
</event>
<event>
 7    1  0.5855569E-013  0.5052879E+02  0.7816164E-02  0.1300439E+00
        -11   -1    0    0    0    0  0.00000000000E+00  0.00000000000E+00  0.45593999997E+02  0.45594000000E+02  0.51100000000E-03 0.  1.
         11   -1    0    0    0    0 -0.00000000000E+00 -0.00000000000E+00 -0.45593999997E+02  0.45594000000E+02  0.51100000000E-03 0. -1.
    9900012    2    1    2    0    0 -0.13014350258E+02  0.33184990226E+02 -0.19558998447E+02  0.50528790598E+02  0.29999789502E+02 0.  0.
        -12    1    1    2    0    0  0.13014350258E+02 -0.33184990226E+02  0.19558998447E+02  0.40659209402E+02  0.00000000000E+00 0.  1.
         11    1    3    3    0    0 -0.36018738232E+01  0.13083066303E+02 -0.10627648983E+02  0.17236213102E+02  0.51100000000E-03 0. -1.
        -11    1    3    3    0    0 -0.48792578924E+01  0.82329884615E+01 -0.16081405475E+02  0.18713654344E+02  0.51100000000E-03 0.  1.
        -12    1    3    3    0    0 -0.45332185421E+01  0.11868935461E+02  0.71500560110E+01  0.14578923153E+02  0.00000000000E+00 0.  1.
</event>
<event>
 7    1  0.5855569E-013  0.5052886E+02  0.7816164E-02  0.1300439E+00
        -11   -1    0    0    0    0  0.00000000000E+00  0.00000000000E+00  0.45593999997E+02  0.45594000000E+02  0.51100000000E-03 0.  1.
         11   -1    0    0    0    0 -0.00000000000E+00 -0.00000000000E+00 -0.45593999997E+02  0.45594000000E+02  0.51100000000E-03 0. -1.
    9900012    2    1    2    0    0 -0.27378177751E+02  0.83585027716E+01 -0.28874491442E+02  0.50528862754E+02  0.30000008827E+02 0.  0.
        -12    1    1    2    0    0  0.27378177751E+02 -0.83585027716E+01  0.28874491442E+02  0.40659137246E+02  0.00000000000E+00 0.  1.
         11    1    3    3    0    0 -0.84134408739E+01  0.37753678550E+01 -0.11965603438E+02  0.15106788397E+02  0.51100000000E-03 0. -1.
        -11    1    3    3    0    0 -0.14941420261E+02 -0.13724618650E+01 -0.21989230176E+02  0.26620592311E+02  0.51100000000E-03 0.  1.
        -12    1    3    3    0    0 -0.40233166159E+01  0.59555967815E+01  0.50803421721E+01  0.88014820457E+01  0.00000000000E+00 0.  1.
</event>
<event>
 7    1  0.5855569E-013  0.5052886E+02  0.7816164E-02  0.1300439E+00
        -11   -1    0    0    0    0  0.00000000000E+00  0.00000000000E+00  0.45593999997E+02  0.45594000000E+02  0.51100000000E-03 0.  1.
         11   -1    0    0    0    0 -0.00000000000E+00 -0.00000000000E+00 -0.45593999997E+02  0.45594000000E+02  0.51100000000E-03 0. -1.
    9900012    2    1    2    0    0 -0.12459709009E+02 -0.38478228030E+02 -0.41650442440E+01  0.50528856201E+02  0.29999988908E+02 0.  0.
        -12    1    1    2    0    0  0.12459709009E+02  0.38478228030E+02  0.41650442440E+01  0.40659143799E+02  0.00000000000E+00 0.  1.
         11    1    3    3    0    0 -0.10337761287E+02 -0.86091377091E+01 -0.32352489003E+01  0.13836668538E+02  0.51100000000E-03 0. -1.
        -11    1    3    3    0    0  0.22530340560E+01 -0.36916314888E+01  0.76596997258E+01  0.87963234170E+01  0.51100000000E-03 0.  1.
        -12    1    3    3    0    0 -0.43749817776E+01 -0.26177458832E+02 -0.85894950695E+01  0.27895864246E+02  0.00000000000E+00 0.  1.
</event>
<event>
 7    1  0.5855569E-013  0.5052874E+02  0.7816164E-02  0.1300439E+00
        -11   -1    0    0    0    0  0.00000000000E+00  0.00000000000E+00  0.45593999997E+02  0.45594000000E+02  0.51100000000E-03 0.  1.
         11   -1    0    0    0    0 -0.00000000000E+00 -0.00000000000E+00 -0.45593999997E+02  0.45594000000E+02  0.51100000000E-03 0. -1.
    9900012    2    1    2    0    0  0.15782665903E+02  0.50393468992E+01 -0.37130688015E+02  0.50528738415E+02  0.29999630884E+02 0.  0.
        -12    1    1    2    0    0 -0.15782665903E+02 -0.50393468992E+01  0.37130688015E+02  0.40659261585E+02  0.00000000000E+00 0.  1.
         11    1    3    3    0    0 -0.70399297630E+00 -0.42848404962E+01 -0.15414060234E+02  0.16014016278E+02  0.51100000000E-03 0. -1.
        -11    1    3    3    0    0 -0.42628230744E+01  0.18109660468E+01 -0.25596173975E+01  0.52917766458E+01  0.51100000000E-03 0.  1.
        -12    1    3    3    0    0  0.20749481954E+02  0.75132213485E+01 -0.19157010383E+02  0.29222945492E+02  0.00000000000E+00 0.  1.
</event>
<event>
 7    1  0.5855569E-013  0.5052886E+02  0.7816164E-02  0.1300439E+00
        -11   -1    0    0    0    0  0.00000000000E+00  0.00000000000E+00  0.45593999997E+02  0.45594000000E+02  0.51100000000E-03 0.  1.
         11   -1    0    0    0    0 -0.00000000000E+00 -0.00000000000E+00 -0.45593999997E+02  0.45594000000E+02  0.51100000000E-03 0. -1.
    9900012    2    1    2    0    0 -0.30223728627E+02 -0.18318087918E+01 -0.27135515235E+02  0.50528862249E+02  0.30000007292E+02 0.  0.
        -12    1    1    2    0    0  0.30223728627E+02  0.18318087918E+01  0.27135515235E+02  0.40659137751E+02  0.00000000000E+00 0.  1.
         11    1    3    3    0    0 -0.50207840438E+01 -0.65634167934E+01 -0.13554346571E+02  0.15874729089E+02  0.51100000000E-03 0. -1.
        -11    1    3    3    0    0 -0.63995734585E+01 -0.21679449717E+01 -0.12959587880E+02  0.14615246974E+02  0.51100000000E-03 0.  1.
        -12    1    3    3    0    0 -0.18803371125E+02  0.68995529734E+01 -0.62158078428E+00  0.20038886186E+02  0.00000000000E+00 0.  1.
</event>
<event>
 7    1  0.5855569E-013  0.5052886E+02  0.7816164E-02  0.1300439E+00
        -11   -1    0    0    0    0  0.00000000000E+00  0.00000000000E+00  0.45593999997E+02  0.45594000000E+02  0.51100000000E-03 0. -1.
         11   -1    0    0    0    0 -0.00000000000E+00 -0.00000000000E+00 -0.45593999997E+02  0.45594000000E+02  0.51100000000E-03 0.  1.
    9900012    2    1    2    0    0  0.22962015832E+02 -0.31545068912E+02 -0.11437649468E+02  0.50528863645E+02  0.30000011537E+02 0.  0.
        -12    1    1    2    0    0 -0.22962015832E+02  0.31545068912E+02  0.11437649468E+02  0.40659136355E+02  0.00000000000E+00 0.  1.
         11    1    3    3    0    0 -0.18315354454E+01 -0.31867043532E+01  0.52603201471E+01  0.64172092870E+01  0.51100000000E-03 0. -1.
        -11    1    3    3    0    0  0.51686494947E+01 -0.80184712626E+01  0.26000852860E+01  0.98879352114E+01  0.51100000000E-03 0.  1.
        -12    1    3    3    0    0  0.19624901783E+02 -0.20339893296E+02 -0.19298054901E+02  0.34223719147E+02  0.00000000000E+00 0.  1.
</event>
<event>
 7    1  0.5855569E-013  0.5052886E+02  0.7816164E-02  0.1300439E+00
        -11   -1    0    0    0    0  0.00000000000E+00  0.00000000000E+00  0.45593999997E+02  0.45594000000E+02  0.51100000000E-03 0.  1.
         11   -1    0    0    0    0 -0.00000000000E+00 -0.00000000000E+00 -0.45593999997E+02  0.45594000000E+02  0.51100000000E-03 0. -1.
    9900012    2    1    2    0    0 -0.32314411348E+02 -0.55207243034E+01 -0.24051326923E+02  0.50528857063E+02  0.29999991529E+02 0.  0.
        -12    1    1    2    0    0  0.32314411348E+02  0.55207243034E+01  0.24051326923E+02  0.40659142937E+02  0.00000000000E+00 0.  1.
         11    1    3    3    0    0  0.21120337696E+01  0.22333127364E+00 -0.41027681477E+01  0.46198777296E+01  0.51100000000E-03 0.  1.
        -11    1    3    3    0    0 -0.15889149614E+01  0.21452241828E+01 -0.10508785294E+02  0.10842564557E+02  0.51100000000E-03 0. -1.
        -12    1    3    3    0    0 -0.32837530156E+02 -0.78892797599E+01 -0.94397734814E+01  0.35066414776E+02  0.00000000000E+00 0.  1.
</event>
<event>
 7    1  0.6028999E-013  0.5052890E+02  0.7816164E-02  0.1300439E+00
        -11   -1    0    0    0    0  0.00000000000E+00  0.00000000000E+00  0.45593999997E+02  0.45594000000E+02  0.51100000000E-03 0. -1.
         11   -1    0    0    0    0 -0.00000000000E+00 -0.00000000000E+00 -0.45593999997E+02  0.45594000000E+02  0.51100000000E-03 0.  1.
    9900012    2    1    2    0    0 -0.14725992610E+02 -0.11989388250E+02  0.35952218233E+02  0.50528901573E+02  0.30000126822E+02 0.  0.
        -12    1    1    2    0    0  0.14725992610E+02  0.11989388250E+02 -0.35952218233E+02  0.40659098427E+02  0.00000000000E+00 0.  1.
         11    1    3    3    0    0 -0.43100452728E+01  0.56533655775E+01  0.10314466986E+02  0.12526981363E+02  0.51100000000E-03 0. -1.
        -11    1    3    3    0    0 -0.76978217403E+01 -0.49258144988E+01 -0.12871760955E+00  0.91398400700E+01  0.51100000000E-03 0.  1.
         12    1    3    3    0    0 -0.27181255967E+01 -0.12716939329E+02  0.25766468857E+02  0.28862080140E+02  0.00000000000E+00 0. -1.
</event>
<event>
 7    1  0.5855569E-013  0.5052886E+02  0.7816164E-02  0.1300439E+00
        -11   -1    0    0    0    0  0.00000000000E+00  0.00000000000E+00  0.45593999997E+02  0.45594000000E+02  0.51100000000E-03 0.  1.
         11   -1    0    0    0    0 -0.00000000000E+00 -0.00000000000E+00 -0.45593999997E+02  0.45594000000E+02  0.51100000000E-03 0. -1.
    9900012    2    1    2    0    0  0.29270320585E+01 -0.29854502510E+02 -0.27446437070E+02  0.50528859028E+02  0.29999997501E+02 0.  0.
        -12    1    1    2    0    0 -0.29270320585E+01  0.29854502510E+02  0.27446437070E+02  0.40659140972E+02  0.00000000000E+00 0.  1.
         11    1    3    3    0    0  0.54553330426E+01 -0.18607835250E+02 -0.89896950740E+01  0.21373507178E+02  0.51100000000E-03 0. -1.
        -11    1    3    3    0    0 -0.34545284629E+01 -0.12436183282E+02 -0.25241209635E+01  0.13151562965E+02  0.51100000000E-03 0.  1.
         12    1    3    3    0    0  0.92622747881E+00  0.11895160224E+01 -0.15932621032E+02  0.16003788885E+02  0.00000000000E+00 0. -1.
</event>
<event>
 7    1  0.5855569E-013  0.5052886E+02  0.7816164E-02  0.1300439E+00
        -11   -1    0    0    0    0  0.00000000000E+00  0.00000000000E+00  0.45593999997E+02  0.45594000000E+02  0.51100000000E-03 0.  1.
         11   -1    0    0    0    0 -0.00000000000E+00 -0.00000000000E+00 -0.45593999997E+02  0.45594000000E+02  0.51100000000E-03 0. -1.
    9900012    2    1    2    0    0  0.13300601998E+02  0.23617878646E+02 -0.30306026363E+02  0.50528862784E+02  0.30000008917E+02 0.  0.
        -12    1    1    2    0    0 -0.13300601998E+02 -0.23617878646E+02  0.30306026363E+02  0.40659137216E+02  0.00000000000E+00 0.  1.
         11    1    3    3    0    0  0.45656537654E+01  0.67590920243E+01 -0.24478689126E+01  0.85160191271E+01  0.51100000000E-03 0. -1.
        -11    1    3    3    0    0  0.11111873367E+02  0.12469965678E+02 -0.33928753112E+01  0.17043631564E+02  0.51100000000E-03 0.  1.
         12    1    3    3    0    0 -0.23769251341E+01  0.43888209432E+01 -0.24465282140E+02  0.24969212093E+02  0.00000000000E+00 0. -1.
</event>
<event>
 7    1  0.5855569E-013  0.5052887E+02  0.7816164E-02  0.1300439E+00
        -11   -1    0    0    0    0  0.00000000000E+00  0.00000000000E+00  0.45593999997E+02  0.45594000000E+02  0.51100000000E-03 0. -1.
         11   -1    0    0    0    0 -0.00000000000E+00 -0.00000000000E+00 -0.45593999997E+02  0.45594000000E+02  0.51100000000E-03 0.  1.
    9900012    2    1    2    0    0  0.10983132998E+02  0.22727412310E+01  0.39081587640E+02  0.50528867500E+02  0.30000023254E+02 0.  0.
        -12    1    1    2    0    0 -0.10983132998E+02 -0.22727412310E+01 -0.39081587640E+02  0.40659132500E+02  0.00000000000E+00 0.  1.
         11    1    3    3    0    0  0.59663790504E+00  0.71753940964E+01  0.11141337858E+02  0.13265431269E+02  0.51100000000E-03 0. -1.
        -11    1    3    3    0    0 -0.53046097756E+01  0.39610868578E+01  0.80671300409E+01  0.10435884310E+02  0.51100000000E-03 0.  1.
         12    1    3    3    0    0  0.15691104868E+02 -0.88637397231E+01  0.19873119742E+02  0.26827551922E+02  0.00000000000E+00 0. -1.
</event>
<event>
 7    1  0.5855569E-013  0.5052885E+02  0.7816164E-02  0.1300439E+00
        -11   -1    0    0    0    0  0.00000000000E+00  0.00000000000E+00  0.45593999997E+02  0.45594000000E+02  0.51100000000E-03 0.  1.
         11   -1    0    0    0    0 -0.00000000000E+00 -0.00000000000E+00 -0.45593999997E+02  0.45594000000E+02  0.51100000000E-03 0. -1.
    9900012    2    1    2    0    0  0.67212949159E+01  0.40092022294E+02 -0.78742441400E+00  0.50528854729E+02  0.29999984434E+02 0.  0.
        -12    1    1    2    0    0 -0.67212949159E+01 -0.40092022294E+02  0.78742441400E+00  0.40659145271E+02  0.00000000000E+00 0.  1.
         11    1    3    3    0    0  0.94352716045E+01  0.29867631847E+02 -0.48682753323E+01  0.31698578633E+02  0.51100000000E-03 0. -1.
        -11    1    3    3    0    0  0.13136348064E+01  0.13264194396E+02  0.32024259056E+01  0.13708392369E+02  0.51100000000E-03 0.  1.
         12    1    3    3    0    0 -0.40276114951E+01 -0.30398039495E+01  0.87842501273E+00  0.51218837267E+01  0.00000000000E+00 0. -1.
</event>
<event>
 7    1  0.5855569E-013  0.5052886E+02  0.7816164E-02  0.1300439E+00
        -11   -1    0    0    0    0  0.00000000000E+00  0.00000000000E+00  0.45593999997E+02  0.45594000000E+02  0.51100000000E-03 0.  1.
         11   -1    0    0    0    0 -0.00000000000E+00 -0.00000000000E+00 -0.45593999997E+02  0.45594000000E+02  0.51100000000E-03 0. -1.
    9900012    2    1    2    0    0  0.27942483669E+01  0.24035014360E+02 -0.32675316422E+02  0.50528855364E+02  0.29999986366E+02 0.  0.
        -12    1    1    2    0    0 -0.27942483669E+01 -0.24035014360E+02  0.32675316422E+02  0.40659144636E+02  0.00000000000E+00 0.  1.
         11    1    3    3    0    0  0.71177705528E+01  0.10295558669E+02 -0.17578443280E+02  0.21579222747E+02  0.51100000000E-03 0. -1.
        -11    1    3    3    0    0  0.47518233301E+01  0.14566842536E+02 -0.73739878699E+01  0.17004364845E+02  0.51100000000E-03 0.  1.
        -12    1    3    3    0    0 -0.90753455160E+01 -0.82738684504E+00 -0.77228852723E+01  0.11945267772E+02  0.00000000000E+00 0.  1.
</event>
<event>
 7    1  0.5855569E-013  0.5052883E+02  0.7816164E-02  0.1300439E+00
        -11   -1    0    0    0    0  0.00000000000E+00  0.00000000000E+00  0.45593999997E+02  0.45594000000E+02  0.51100000000E-03 0.  1.
         11   -1    0    0    0    0 -0.00000000000E+00 -0.00000000000E+00 -0.45593999997E+02  0.45594000000E+02  0.51100000000E-03 0. -1.
    9900012    2    1    2    0    0  0.88374460613E+01  0.33098226414E+02 -0.21899206099E+02  0.50528827942E+02  0.29999903013E+02 0.  0.
        -12    1    1    2    0    0 -0.88374460613E+01 -0.33098226414E+02  0.21899206099E+02  0.40659172058E+02  0.00000000000E+00 0.  1.
         11    1    3    3    0    0  0.26290271501E+01  0.79387907297E+01 -0.13849471671E+02  0.16178505736E+02  0.51100000000E-03 0. -1.
        -11    1    3    3    0    0 -0.27592260894E+01  0.47059932469E+01 -0.10550860836E+02  0.11877725611E+02  0.51100000000E-03 0.  1.
        -12    1    3    3    0    0  0.89676450006E+01  0.20453442438E+02  0.25011264083E+01  0.22472596595E+02  0.00000000000E+00 0.  1.
</event>
<event>
 7    1  0.5855569E-013  0.5052884E+02  0.7816164E-02  0.1300439E+00
        -11   -1    0    0    0    0  0.00000000000E+00  0.00000000000E+00  0.45593999997E+02  0.45594000000E+02  0.51100000000E-03 0.  1.
         11   -1    0    0    0    0 -0.00000000000E+00 -0.00000000000E+00 -0.45593999997E+02  0.45594000000E+02  0.51100000000E-03 0. -1.
    9900012    2    1    2    0    0  0.26409289786E+02 -0.94677484018E+01 -0.29429206282E+02  0.50528843230E+02  0.29999949483E+02 0.  0.
        -12    1    1    2    0    0 -0.26409289786E+02  0.94677484018E+01  0.29429206282E+02  0.40659156770E+02  0.00000000000E+00 0.  1.
         11    1    3    3    0    0 -0.13404233865E+01 -0.13584290406E+01 -0.40364003511E+01  0.44648171708E+01  0.51100000000E-03 0. -1.
        -11    1    3    3    0    0 -0.14898490692E+01  0.28675811037E+01  0.25810383239E+01  0.41357503220E+01  0.51100000000E-03 0.  1.
         12    1    3    3    0    0  0.29239562242E+02 -0.10976900465E+02 -0.27973844255E+02  0.41928275738E+02  0.00000000000E+00 0. -1.
</event>
<event>
 7    1  0.5855569E-013  0.5052885E+02  0.7816164E-02  0.1300439E+00
        -11   -1    0    0    0    0  0.00000000000E+00  0.00000000000E+00  0.45593999997E+02  0.45594000000E+02  0.51100000000E-03 0.  1.
         11   -1    0    0    0    0 -0.00000000000E+00 -0.00000000000E+00 -0.45593999997E+02  0.45594000000E+02  0.51100000000E-03 0. -1.
    9900012    2    1    2    0    0 -0.37351620386E+02 -0.10497634416E+02  0.12158216514E+02  0.50528854625E+02  0.29999984118E+02 0.  0.
        -12    1    1    2    0    0  0.37351620386E+02  0.10497634416E+02 -0.12158216514E+02  0.40659145375E+02  0.00000000000E+00 0.  1.
         11    1    3    3    0    0 -0.24808953360E+02 -0.24785347052E+00  0.10505642438E+02  0.26942793498E+02  0.51100000000E-03 0. -1.
        -11    1    3    3    0    0 -0.15840996376E+01  0.63273937319E+00  0.70289192433E+01  0.72329410869E+01  0.51100000000E-03 0.  1.
        -12    1    3    3    0    0 -0.10958567388E+02 -0.10882520319E+02 -0.53763451671E+01  0.16353120040E+02  0.00000000000E+00 0.  1.
</event>
<event>
 7    1  0.5855569E-013  0.5052886E+02  0.7816164E-02  0.1300439E+00
        -11   -1    0    0    0    0  0.00000000000E+00  0.00000000000E+00  0.45593999997E+02  0.45594000000E+02  0.51100000000E-03 0.  1.
         11   -1    0    0    0    0 -0.00000000000E+00 -0.00000000000E+00 -0.45593999997E+02  0.45594000000E+02  0.51100000000E-03 0. -1.
    9900012    2    1    2    0    0 -0.28158440679E+02 -0.67242056870E+01 -0.28549127212E+02  0.50528863411E+02  0.30000010825E+02 0.  0.
        -12    1    1    2    0    0  0.28158440679E+02  0.67242056870E+01  0.28549127212E+02  0.40659136589E+02  0.00000000000E+00 0.  1.
         11    1    3    3    0    0 -0.14645709914E+01 -0.32328256413E+01 -0.30256932258E+01  0.46637913304E+01  0.51100000000E-03 0. -1.
        -11    1    3    3    0    0 -0.23403062549E+02 -0.13673101609E+02 -0.15609575499E+02  0.31278041687E+02  0.51100000000E-03 0.  1.
        -12    1    3    3    0    0 -0.32908071383E+01  0.10181721563E+02 -0.99138584866E+01  0.14587030394E+02  0.00000000000E+00 0.  1.
</event>
<event>
 7    1  0.5855569E-013  0.5052885E+02  0.7816164E-02  0.1300439E+00
        -11   -1    0    0    0    0  0.00000000000E+00  0.00000000000E+00  0.45593999997E+02  0.45594000000E+02  0.51100000000E-03 0.  1.
         11   -1    0    0    0    0 -0.00000000000E+00 -0.00000000000E+00 -0.45593999997E+02  0.45594000000E+02  0.51100000000E-03 0. -1.
    9900012    2    1    2    0    0 -0.29883216660E+02  0.70941630476E+01 -0.26642678696E+02  0.50528854468E+02  0.29999983641E+02 0.  0.
        -12    1    1    2    0    0  0.29883216660E+02 -0.70941630476E+01  0.26642678696E+02  0.40659145532E+02  0.00000000000E+00 0.  1.
         11    1    3    3    0    0 -0.20054843313E+02  0.36456993377E+01 -0.18613395103E+02  0.27603375545E+02  0.51100000000E-03 0. -1.
        -11    1    3    3    0    0 -0.64469293680E+01  0.78411943206E+01 -0.12285312584E+02  0.15936628633E+02  0.51100000000E-03 0.  1.
        -12    1    3    3    0    0 -0.33814439790E+01 -0.43927306106E+01  0.42560289910E+01  0.69888502898E+01  0.00000000000E+00 0.  1.
</event>
<event>
 7    1  0.5855569E-013  0.5052886E+02  0.7816164E-02  0.1300439E+00
        -11   -1    0    0    0    0  0.00000000000E+00  0.00000000000E+00  0.45593999997E+02  0.45594000000E+02  0.51100000000E-03 0.  1.
         11   -1    0    0    0    0 -0.00000000000E+00 -0.00000000000E+00 -0.45593999997E+02  0.45594000000E+02  0.51100000000E-03 0. -1.
    9900012    2    1    2    0    0  0.71704213400E+00  0.25746026875E+02 -0.31460986957E+02  0.50528858966E+02  0.29999997315E+02 0.  0.
        -12    1    1    2    0    0 -0.71704213400E+00 -0.25746026875E+02  0.31460986957E+02  0.40659141034E+02  0.00000000000E+00 0.  1.
         11    1    3    3    0    0  0.30115338821E+01  0.14692021195E+01 -0.16941549694E+02  0.17269742253E+02  0.51100000000E-03 0. -1.
        -11    1    3    3    0    0 -0.64488196289E+01  0.13361271390E+01 -0.26651850807E+01  0.71046268103E+01  0.51100000000E-03 0.  1.
         12    1    3    3    0    0  0.41543278808E+01  0.22940697617E+02 -0.11854252182E+02  0.26154489903E+02  0.00000000000E+00 0. -1.
</event>
<event>
 7    1  0.5855569E-013  0.5052885E+02  0.7816164E-02  0.1300439E+00
        -11   -1    0    0    0    0  0.00000000000E+00  0.00000000000E+00  0.45593999997E+02  0.45594000000E+02  0.51100000000E-03 0. -1.
         11   -1    0    0    0    0 -0.00000000000E+00 -0.00000000000E+00 -0.45593999997E+02  0.45594000000E+02  0.51100000000E-03 0.  1.
    9900012    2    1    2    0    0 -0.29317816680E+02 -0.14793137948E+02  0.23974882830E+02  0.50528852051E+02  0.29999976294E+02 0.  0.
        -12    1    1    2    0    0  0.29317816680E+02  0.14793137948E+02 -0.23974882830E+02  0.40659147949E+02  0.00000000000E+00 0.  1.
         11    1    3    3    0    0 -0.46228739576E+01  0.53403184025E+01  0.81172661524E+01  0.10760110330E+02  0.51100000000E-03 0. -1.
        -11    1    3    3    0    0 -0.65802588134E+01 -0.21921087686E+00  0.10387060648E+02  0.12297922126E+02  0.51100000000E-03 0.  1.
        -12    1    3    3    0    0 -0.18114683909E+02 -0.19914245474E+02  0.54705560299E+01  0.27470819594E+02  0.00000000000E+00 0.  1.
</event>
<event>
 7    1  0.5855569E-013  0.5052880E+02  0.7816164E-02  0.1300439E+00
        -11   -1    0    0    0    0  0.00000000000E+00  0.00000000000E+00  0.45593999997E+02  0.45594000000E+02  0.51100000000E-03 0. -1.
         11   -1    0    0    0    0 -0.00000000000E+00 -0.00000000000E+00 -0.45593999997E+02  0.45594000000E+02  0.51100000000E-03 0.  1.
    9900012    2    1    2    0    0 -0.21822534975E+02  0.19319412563E+01  0.34252229145E+02  0.50528798936E+02  0.29999814845E+02 0.  0.
        -12    1    1    2    0    0  0.21822534975E+02 -0.19319412563E+01 -0.34252229145E+02  0.40659201064E+02  0.00000000000E+00 0.  1.
         11    1    3    3    0    0 -0.46329173480E+01  0.44470969566E+01  0.18236266449E+02  0.19333959986E+02  0.51100000000E-03 0. -1.
        -11    1    3    3    0    0 -0.86306136683E+01 -0.38150038826E+01  0.19655917552E+02  0.21803596997E+02  0.51100000000E-03 0.  1.
        -12    1    3    3    0    0 -0.85590039588E+01  0.12998481823E+01 -0.36399548562E+01  0.93912419530E+01  0.00000000000E+00 0.  1.
</event>
<event>
 7    1  0.5855569E-013  0.5052884E+02  0.7816164E-02  0.1300439E+00
        -11   -1    0    0    0    0  0.00000000000E+00  0.00000000000E+00  0.45593999997E+02  0.45594000000E+02  0.51100000000E-03 0.  1.
         11   -1    0    0    0    0 -0.00000000000E+00 -0.00000000000E+00 -0.45593999997E+02  0.45594000000E+02  0.51100000000E-03 0. -1.
    9900012    2    1    2    0    0  0.18579121334E+02 -0.26077547070E+02 -0.25058824435E+02  0.50528844908E+02  0.29999954582E+02 0.  0.
        -12    1    1    2    0    0 -0.18579121334E+02  0.26077547070E+02  0.25058824435E+02  0.40659155092E+02  0.00000000000E+00 0.  1.
         11    1    3    3    0    0  0.27398586142E+01 -0.24875087309E+01 -0.12418336351E+02  0.12957993784E+02  0.51100000000E-03 0. -1.
        -11    1    3    3    0    0 -0.67088939787E+00 -0.53769395311E+01 -0.11787719433E+02  0.12973507659E+02  0.51100000000E-03 0.  1.
         12    1    3    3    0    0  0.16510152118E+02 -0.18213098808E+02 -0.85276865113E+00  0.24597343465E+02  0.00000000000E+00 0. -1.
</event>
<event>
 7    1  0.5855569E-013  0.5052885E+02  0.7816164E-02  0.1300439E+00
        -11   -1    0    0    0    0  0.00000000000E+00  0.00000000000E+00  0.45593999997E+02  0.45594000000E+02  0.51100000000E-03 0.  1.
         11   -1    0    0    0    0 -0.00000000000E+00 -0.00000000000E+00 -0.45593999997E+02  0.45594000000E+02  0.51100000000E-03 0. -1.
    9900012    2    1    2    0    0 -0.12601546771E+00  0.14348507645E+02 -0.38043013460E+02  0.50528850665E+02  0.29999972082E+02 0.  0.
        -12    1    1    2    0    0  0.12601546771E+00 -0.14348507645E+02  0.38043013460E+02  0.40659149335E+02  0.00000000000E+00 0.  1.
         11    1    3    3    0    0  0.11893712151E+02  0.62577636823E+00 -0.10590907766E+02  0.15937983322E+02  0.51100000000E-03 0. -1.
        -11    1    3    3    0    0  0.16482748029E+01  0.10829630821E+00 -0.13494993293E+01  0.21329994415E+01  0.51100000000E-03 0.  1.
         12    1    3    3    0    0 -0.13668002422E+02  0.13614434969E+02 -0.26102606364E+02  0.32457867902E+02  0.00000000000E+00 0. -1.
</event>
<event>
 7    1  0.5855569E-013  0.5052886E+02  0.7816164E-02  0.1300439E+00
        -11   -1    0    0    0    0  0.00000000000E+00  0.00000000000E+00  0.45593999997E+02  0.45594000000E+02  0.51100000000E-03 0.  1.
         11   -1    0    0    0    0 -0.00000000000E+00 -0.00000000000E+00 -0.45593999997E+02  0.45594000000E+02  0.51100000000E-03 0. -1.
    9900012    2    1    2    0    0  0.21419240333E+02 -0.92551890238E+01 -0.33297499545E+02  0.50528857655E+02  0.29999993327E+02 0.  0.
        -12    1    1    2    0    0 -0.21419240333E+02  0.92551890238E+01  0.33297499545E+02  0.40659142345E+02  0.00000000000E+00 0.  1.
         11    1    3    3    0    0 -0.28108573310E+01  0.22738352593E+01 -0.15288555749E+01  0.39253847393E+01  0.51100000000E-03 0.  1.
        -11    1    3    3    0    0  0.28133103049E+02 -0.10490507498E+02 -0.27311825041E+02  0.40588890377E+02  0.51100000000E-03 0. -1.
         12    1    3    3    0    0 -0.39030053843E+01 -0.10385167850E+01 -0.44568189293E+01  0.60145825384E+01  0.00000000000E+00 0. -1.
</event>
<event>
 7    1  0.5855569E-013  0.5052885E+02  0.7816164E-02  0.1300439E+00
        -11   -1    0    0    0    0  0.00000000000E+00  0.00000000000E+00  0.45593999997E+02  0.45594000000E+02  0.51100000000E-03 0. -1.
         11   -1    0    0    0    0 -0.00000000000E+00 -0.00000000000E+00 -0.45593999997E+02  0.45594000000E+02  0.51100000000E-03 0.  1.
    9900012    2    1    2    0    0  0.17193667075E+02  0.32394403428E+02  0.17554125390E+02  0.50528845076E+02  0.29999955093E+02 0.  0.
        -12    1    1    2    0    0 -0.17193667075E+02 -0.32394403428E+02 -0.17554125390E+02  0.40659154924E+02  0.00000000000E+00 0.  1.
         11    1    3    3    0    0  0.19258214041E+01  0.14000073150E+02  0.20495103227E+02  0.24894981277E+02  0.51100000000E-03 0. -1.
        -11    1    3    3    0    0  0.19446007930E+00  0.12004999953E+01  0.19052994524E+01  0.22603498016E+01  0.51100000000E-03 0.  1.
        -12    1    3    3    0    0  0.15073385592E+02  0.17193830283E+02 -0.48462772891E+01  0.23373513997E+02  0.00000000000E+00 0.  1.
</event>
<event>
 7    1  0.5855569E-013  0.5052886E+02  0.7816164E-02  0.1300439E+00
        -11   -1    0    0    0    0  0.00000000000E+00  0.00000000000E+00  0.45593999997E+02  0.45594000000E+02  0.51100000000E-03 0.  1.
         11   -1    0    0    0    0 -0.00000000000E+00 -0.00000000000E+00 -0.45593999997E+02  0.45594000000E+02  0.51100000000E-03 0. -1.
    9900012    2    1    2    0    0  0.35545952757E+02  0.13164805837E+02 -0.14708447957E+02  0.50528864355E+02  0.30000013693E+02 0.  0.
        -12    1    1    2    0    0 -0.35545952757E+02 -0.13164805837E+02  0.14708447957E+02  0.40659135645E+02  0.00000000000E+00 0.  1.
         11    1    3    3    0    0  0.28208797320E+02  0.59784615545E+01 -0.47507855510E+01  0.29224103278E+02  0.51100000000E-03 0. -1.
        -11    1    3    3    0    0  0.81567814348E+01 -0.21358138144E+01 -0.12535152811E+01  0.85244404418E+01  0.51100000000E-03 0.  1.
         12    1    3    3    0    0 -0.81962599787E+00  0.93221580969E+01 -0.87041471252E+01  0.12780320635E+02  0.00000000000E+00 0. -1.
</event>
<event>
 7    1  0.5855569E-013  0.5052887E+02  0.7816164E-02  0.1300439E+00
        -11   -1    0    0    0    0  0.00000000000E+00  0.00000000000E+00  0.45593999997E+02  0.45594000000E+02  0.51100000000E-03 0.  1.
         11   -1    0    0    0    0 -0.00000000000E+00 -0.00000000000E+00 -0.45593999997E+02  0.45594000000E+02  0.51100000000E-03 0. -1.
    9900012    2    1    2    0    0  0.34205578935E+01  0.17652996666E+02 -0.36466916425E+02  0.50528874319E+02  0.30000043981E+02 0.  0.
        -12    1    1    2    0    0 -0.34205578935E+01 -0.17652996666E+02  0.36466916425E+02  0.40659125681E+02  0.00000000000E+00 0.  1.
         11    1    3    3    0    0 -0.11573498868E+01  0.13651517165E+01  0.34344582270E+01  0.38728028020E+01  0.51100000000E-03 0.  1.
        -11    1    3    3    0    0  0.11161773212E+01  0.53534324536E+00  0.16624401400E+01  0.20727160159E+01  0.51100000000E-03 0. -1.
         12    1    3    3    0    0  0.34617304591E+01  0.15752501704E+02 -0.41563814792E+02  0.44583355501E+02  0.00000000000E+00 0. -1.
</event>
<event>
 7    1  0.5855569E-013  0.5052886E+02  0.7816164E-02  0.1300439E+00
        -11   -1    0    0    0    0  0.00000000000E+00  0.00000000000E+00  0.45593999997E+02  0.45594000000E+02  0.51100000000E-03 0.  1.
         11   -1    0    0    0    0 -0.00000000000E+00 -0.00000000000E+00 -0.45593999997E+02  0.45594000000E+02  0.51100000000E-03 0. -1.
    9900012    2    1    2    0    0 -0.25403404610E+02  0.31687621651E+02  0.19306615888E+01  0.50528858521E+02  0.29999995959E+02 0.  0.
        -12    1    1    2    0    0  0.25403404610E+02 -0.31687621651E+02 -0.19306615888E+01  0.40659141479E+02  0.00000000000E+00 0.  1.
         11    1    3    3    0    0 -0.43097923693E+01 -0.19434447318E-01  0.61753376475E+01  0.75305699178E+01  0.51100000000E-03 0. -1.
        -11    1    3    3    0    0 -0.91640006778E+01  0.19724407483E+01  0.35528798338E+01  0.10024589084E+02  0.51100000000E-03 0.  1.
         12    1    3    3    0    0 -0.11929611563E+02  0.29734615350E+02 -0.77975558925E+01  0.32973699519E+02  0.00000000000E+00 0. -1.
</event>
<event>
 7    1  0.5855569E-013  0.5052884E+02  0.7816164E-02  0.1300439E+00
        -11   -1    0    0    0    0  0.00000000000E+00  0.00000000000E+00  0.45593999997E+02  0.45594000000E+02  0.51100000000E-03 0. -1.
         11   -1    0    0    0    0 -0.00000000000E+00 -0.00000000000E+00 -0.45593999997E+02  0.45594000000E+02  0.51100000000E-03 0.  1.
    9900012    2    1    2    0    0  0.37267448501E+01  0.16876253851E+02  0.36803131385E+02  0.50528842963E+02  0.29999948671E+02 0.  0.
        -12    1    1    2    0    0 -0.37267448501E+01 -0.16876253851E+02 -0.36803131385E+02  0.40659157037E+02  0.00000000000E+00 0.  1.
         11    1    3    3    0    0 -0.35765987389E+01 -0.48953444559E+00 -0.75690452874E+00  0.36884423866E+01  0.51100000000E-03 0. -1.
        -11    1    3    3    0    0 -0.49456237621E+01  0.51019335778E+01  0.21632370512E+01  0.74275511058E+01  0.51100000000E-03 0.  1.
         12    1    3    3    0    0  0.12248967351E+02  0.12263854718E+02  0.35396798862E+02  0.39412849471E+02  0.00000000000E+00 0. -1.
</event>
<event>
 7    1  0.5855569E-013  0.5052886E+02  0.7816164E-02  0.1300439E+00
        -11   -1    0    0    0    0  0.00000000000E+00  0.00000000000E+00  0.45593999997E+02  0.45594000000E+02  0.51100000000E-03 0.  1.
         11   -1    0    0    0    0 -0.00000000000E+00 -0.00000000000E+00 -0.45593999997E+02  0.45594000000E+02  0.51100000000E-03 0. -1.
    9900012    2    1    2    0    0 -0.22097956723E+02  0.88293745199E+01 -0.32967983812E+02  0.50528862006E+02  0.30000006555E+02 0.  0.
        -12    1    1    2    0    0  0.22097956723E+02 -0.88293745199E+01  0.32967983812E+02  0.40659137994E+02  0.00000000000E+00 0.  1.
         11    1    3    3    0    0 -0.50393006522E+01 -0.34471847871E+01  0.15040482039E+01  0.62880676905E+01  0.51100000000E-03 0.  1.
        -11    1    3    3    0    0 -0.72432877408E+01 -0.32928133271E+01 -0.47059260156E+01  0.92441103860E+01  0.51100000000E-03 0. -1.
         12    1    3    3    0    0 -0.98153683299E+01  0.15569372634E+02 -0.29766106000E+02  0.34996683930E+02  0.00000000000E+00 0. -1.
</event>
<event>
 7    1  0.5855569E-013  0.5052887E+02  0.7816164E-02  0.1300439E+00
        -11   -1    0    0    0    0  0.00000000000E+00  0.00000000000E+00  0.45593999997E+02  0.45594000000E+02  0.51100000000E-03 0.  1.
         11   -1    0    0    0    0 -0.00000000000E+00 -0.00000000000E+00 -0.45593999997E+02  0.45594000000E+02  0.51100000000E-03 0. -1.
    9900012    2    1    2    0    0 -0.15538392400E+02  0.18950743556E+02 -0.32443687003E+02  0.50528866388E+02  0.30000019872E+02 0.  0.
        -12    1    1    2    0    0  0.15538392400E+02 -0.18950743556E+02  0.32443687003E+02  0.40659133612E+02  0.00000000000E+00 0.  1.
         11    1    3    3    0    0  0.13704721980E+01 -0.11955131653E+01 -0.16443752413E+02  0.16544015216E+02  0.51100000000E-03 0. -1.
        -11    1    3    3    0    0 -0.63104109403E+01  0.53087301284E+01 -0.13161041772E+02  0.15531159732E+02  0.51100000000E-03 0.  1.
        -12    1    3    3    0    0 -0.10598453658E+02  0.14837526593E+02 -0.28388928178E+01  0.18453691440E+02  0.00000000000E+00 0.  1.
</event>
<event>
 7    1  0.5855569E-013  0.5052887E+02  0.7816164E-02  0.1300439E+00
        -11   -1    0    0    0    0  0.00000000000E+00  0.00000000000E+00  0.45593999997E+02  0.45594000000E+02  0.51100000000E-03 0.  1.
         11   -1    0    0    0    0 -0.00000000000E+00 -0.00000000000E+00 -0.45593999997E+02  0.45594000000E+02  0.51100000000E-03 0. -1.
    9900012    2    1    2    0    0 -0.18674286874E+02  0.47195408971E+01 -0.35807281669E+02  0.50528874615E+02  0.30000044881E+02 0.  0.
        -12    1    1    2    0    0  0.18674286874E+02 -0.47195408971E+01  0.35807281669E+02  0.40659125385E+02  0.00000000000E+00 0.  1.
         11    1    3    3    0    0 -0.49717659920E+01 -0.41018073056E+01 -0.73057661156E+01  0.97425612160E+01  0.51100000000E-03 0. -1.
        -11    1    3    3    0    0  0.48981470143E-01 -0.18974031620E+01 -0.22148189250E+02  0.22229368530E+02  0.51100000000E-03 0.  1.
        -12    1    3    3    0    0 -0.13751502352E+02  0.10718751365E+02 -0.63533263033E+01  0.18556944869E+02  0.00000000000E+00 0.  1.
</event>
<event>
 7    1  0.5855569E-013  0.5052886E+02  0.7816164E-02  0.1300439E+00
        -11   -1    0    0    0    0  0.00000000000E+00  0.00000000000E+00  0.45593999997E+02  0.45594000000E+02  0.51100000000E-03 0. -1.
         11   -1    0    0    0    0 -0.00000000000E+00 -0.00000000000E+00 -0.45593999997E+02  0.45594000000E+02  0.51100000000E-03 0.  1.
    9900012    2    1    2    0    0  0.22296657037E+02  0.32083606494E+02  0.11254652498E+02  0.50528856828E+02  0.29999990814E+02 0.  0.
        -12    1    1    2    0    0 -0.22296657037E+02 -0.32083606494E+02 -0.11254652498E+02  0.40659143172E+02  0.00000000000E+00 0.  1.
         11    1    3    3    0    0  0.75511272878E+00 -0.14387850319E+01  0.36583628631E+01  0.40029884712E+01  0.51100000000E-03 0. -1.
        -11    1    3    3    0    0  0.49561579449E+01  0.55103617696E+01  0.11559901751E+02  0.13731675687E+02  0.51100000000E-03 0.  1.
         12    1    3    3    0    0  0.16585386363E+02  0.28012029756E+02 -0.39636121169E+01  0.32794192670E+02  0.00000000000E+00 0. -1.
</event>
<event>
 7    1  0.5861565E-013  0.5052887E+02  0.7816164E-02  0.1300439E+00
        -11   -1    0    0    0    0  0.00000000000E+00  0.00000000000E+00  0.45593999997E+02  0.45594000000E+02  0.51100000000E-03 0. -1.
         11   -1    0    0    0    0 -0.00000000000E+00 -0.00000000000E+00 -0.45593999997E+02  0.45594000000E+02  0.51100000000E-03 0.  1.
    9900012    2    1    2    0    0 -0.16592689528E+02  0.17604402982E+02  0.32679238822E+02  0.50528868183E+02  0.30000025328E+02 0.  0.
        -12    1    1    2    0    0  0.16592689528E+02 -0.17604402982E+02 -0.32679238822E+02  0.40659131817E+02  0.00000000000E+00 0.  1.
         11    1    3    3    0    0 -0.12301697525E+02  0.33838269441E+01  0.22265567598E+02  0.25661986429E+02  0.51100000000E-03 0. -1.
        -11    1    3    3    0    0 -0.76425736402E+01  0.38631331972E+01 -0.15380239618E+01  0.87004740051E+01  0.51100000000E-03 0.  1.
        -12    1    3    3    0    0  0.33515816368E+01  0.10357442841E+02  0.11951695186E+02  0.16166407748E+02  0.00000000000E+00 0.  1.
</event>
<event>
 7    1  0.5855569E-013  0.5052885E+02  0.7816164E-02  0.1300439E+00
        -11   -1    0    0    0    0  0.00000000000E+00  0.00000000000E+00  0.45593999997E+02  0.45594000000E+02  0.51100000000E-03 0. -1.
         11   -1    0    0    0    0 -0.00000000000E+00 -0.00000000000E+00 -0.45593999997E+02  0.45594000000E+02  0.51100000000E-03 0.  1.
    9900012    2    1    2    0    0  0.16756909743E+01 -0.40307584006E+02 -0.50652818574E+01  0.50528851596E+02  0.29999974910E+02 0.  0.
        -12    1    1    2    0    0 -0.16756909743E+01  0.40307584006E+02  0.50652818574E+01  0.40659148404E+02  0.00000000000E+00 0.  1.
         11    1    3    3    0    0  0.25541069824E+01 -0.83518854239E+01  0.48144101901E+01  0.99727628244E+01  0.51100000000E-03 0. -1.
        -11    1    3    3    0    0  0.67781641905E+01 -0.15276544271E+02  0.44233396314E+01  0.17288211255E+02  0.51100000000E-03 0.  1.
         12    1    3    3    0    0 -0.76565801986E+01 -0.16679154312E+02 -0.14303031679E+02  0.23267877516E+02  0.00000000000E+00 0. -1.
</event>
<event>
 7    1  0.5855569E-013  0.5052889E+02  0.7816164E-02  0.1300439E+00
        -11   -1    0    0    0    0  0.00000000000E+00  0.00000000000E+00  0.45593999997E+02  0.45594000000E+02  0.51100000000E-03 0. -1.
         11   -1    0    0    0    0 -0.00000000000E+00 -0.00000000000E+00 -0.45593999997E+02  0.45594000000E+02  0.51100000000E-03 0.  1.
    9900012    2    1    2    0    0 -0.13832202250E+02 -0.38199993129E+02  0.16105994054E+01  0.50528888788E+02  0.30000087959E+02 0.  0.
        -12    1    1    2    0    0  0.13832202250E+02  0.38199993129E+02 -0.16105994054E+01  0.40659111212E+02  0.00000000000E+00 0.  1.
         11    1    3    3    0    0  0.16285400283E+01  0.48665680652E-01 -0.22299198156E+01  0.27617120808E+01  0.51100000000E-03 0. -1.
        -11    1    3    3    0    0 -0.11603908083E+01 -0.14513863816E+02 -0.91152526991E+01  0.17178084344E+02  0.51100000000E-03 0.  1.
         12    1    3    3    0    0 -0.14300351470E+02 -0.23734794994E+02  0.12955771920E+02  0.30589092363E+02  0.00000000000E+00 0. -1.
</event>
<event>
 7    1  0.5855569E-013  0.5052891E+02  0.7816164E-02  0.1300439E+00
        -11   -1    0    0    0    0  0.00000000000E+00  0.00000000000E+00  0.45593999997E+02  0.45594000000E+02  0.51100000000E-03 0.  1.
         11   -1    0    0    0    0 -0.00000000000E+00 -0.00000000000E+00 -0.45593999997E+02  0.45594000000E+02  0.51100000000E-03 0. -1.
    9900012    2    1    2    0    0  0.13366024259E+02  0.33906590459E+02  0.18023710988E+02  0.50528909518E+02  0.30000150971E+02 0.  0.
        -12    1    1    2    0    0 -0.13366024259E+02 -0.33906590459E+02 -0.18023710988E+02  0.40659090482E+02  0.00000000000E+00 0.  1.
         11    1    3    3    0    0  0.82527203353E+01  0.29710752285E+02  0.11717680224E+02  0.32986970524E+02  0.51100000000E-03 0. -1.
        -11    1    3    3    0    0  0.10276546888E+02  0.43801991287E+01  0.38001980368E+01  0.11799790918E+02  0.51100000000E-03 0.  1.
         12    1    3    3    0    0 -0.51632429638E+01 -0.18436095477E+00  0.25058327271E+01  0.57421480755E+01  0.00000000000E+00 0. -1.
</event>
<event>
 7    1  0.5855569E-013  0.5052886E+02  0.7816164E-02  0.1300439E+00
        -11   -1    0    0    0    0  0.00000000000E+00  0.00000000000E+00  0.45593999997E+02  0.45594000000E+02  0.51100000000E-03 0.  1.
         11   -1    0    0    0    0 -0.00000000000E+00 -0.00000000000E+00 -0.45593999997E+02  0.45594000000E+02  0.51100000000E-03 0. -1.
    9900012    2    1    2    0    0 -0.38091842936E+02 -0.86692591782E+01 -0.11270349193E+02  0.50528864202E+02  0.30000013227E+02 0.  0.
        -12    1    1    2    0    0  0.38091842936E+02  0.86692591782E+01  0.11270349193E+02  0.40659135798E+02  0.00000000000E+00 0.  1.
         11    1    3    3    0    0 -0.15738121599E+02  0.47749366943E+01 -0.63262172876E+01  0.17621280241E+02  0.51100000000E-03 0. -1.
        -11    1    3    3    0    0 -0.26549372644E+01  0.46677719049E+01 -0.28154062826E+01  0.60632746294E+01  0.51100000000E-03 0.  1.
         12    1    3    3    0    0 -0.19698784072E+02 -0.18111967777E+02 -0.21287256231E+01  0.26844309331E+02  0.00000000000E+00 0. -1.
</event>
<event>
 7    1  0.5855569E-013  0.5052876E+02  0.7816164E-02  0.1300439E+00
        -11   -1    0    0    0    0  0.00000000000E+00  0.00000000000E+00  0.45593999997E+02  0.45594000000E+02  0.51100000000E-03 0.  1.
         11   -1    0    0    0    0 -0.00000000000E+00 -0.00000000000E+00 -0.45593999997E+02  0.45594000000E+02  0.51100000000E-03 0. -1.
    9900012    2    1    2    0    0 -0.91012300967E+01  0.18432376432E+02 -0.35079752461E+02  0.50528758457E+02  0.29999691803E+02 0.  0.
        -12    1    1    2    0    0  0.91012300967E+01 -0.18432376432E+02  0.35079752461E+02  0.40659241543E+02  0.00000000000E+00 0.  1.
         11    1    3    3    0    0 -0.14489711159E+02  0.67902430988E+01 -0.70083607218E+01  0.17469294521E+02  0.51100000000E-03 0. -1.
        -11    1    3    3    0    0 -0.19167939135E+01  0.91587331073E+01 -0.18780174165E+02  0.20982169406E+02  0.51100000000E-03 0.  1.
        -12    1    3    3    0    0  0.73052749756E+01  0.24834002258E+01 -0.92912175733E+01  0.12077294529E+02  0.00000000000E+00 0.  1.
</event>
<event>
 7    1  0.5855569E-013  0.5052890E+02  0.7816164E-02  0.1300439E+00
        -11   -1    0    0    0    0  0.00000000000E+00  0.00000000000E+00  0.45593999997E+02  0.45594000000E+02  0.51100000000E-03 0.  1.
         11   -1    0    0    0    0 -0.00000000000E+00 -0.00000000000E+00 -0.45593999997E+02  0.45594000000E+02  0.51100000000E-03 0. -1.
    9900012    2    1    2    0    0  0.18343808797E+00  0.13483736669E+02 -0.38357760365E+02  0.50528897890E+02  0.30000115628E+02 0.  0.
        -12    1    1    2    0    0 -0.18343808797E+00 -0.13483736669E+02  0.38357760365E+02  0.40659102110E+02  0.00000000000E+00 0.  1.
         11    1    3    3    0    0  0.15483453336E+01  0.85887995029E+01 -0.20198907583E+02  0.22003652379E+02  0.51100000000E-03 0. -1.
        -11    1    3    3    0    0 -0.10862266564E+02  0.53350432890E+01 -0.12784507794E+02  0.17603839400E+02  0.51100000000E-03 0.  1.
        -12    1    3    3    0    0  0.94973593184E+01 -0.44010612248E+00 -0.53743449877E+01  0.10921406112E+02  0.00000000000E+00 0.  1.
</event>
<event>
 7    1  0.5855569E-013  0.5052886E+02  0.7816164E-02  0.1300439E+00
        -11   -1    0    0    0    0  0.00000000000E+00  0.00000000000E+00  0.45593999997E+02  0.45594000000E+02  0.51100000000E-03 0.  1.
         11   -1    0    0    0    0 -0.00000000000E+00 -0.00000000000E+00 -0.45593999997E+02  0.45594000000E+02  0.51100000000E-03 0. -1.
    9900012    2    1    2    0    0  0.99064042123E+01 -0.18582360488E+02 -0.34781098474E+02  0.50528858632E+02  0.29999996297E+02 0.  0.
        -12    1    1    2    0    0 -0.99064042123E+01  0.18582360488E+02  0.34781098474E+02  0.40659141368E+02  0.00000000000E+00 0.  1.
         11    1    3    3    0    0 -0.52982466699E+01 -0.11655570406E+01  0.81682838935E+00  0.54860869360E+01  0.51100000000E-03 0. -1.
        -11    1    3    3    0    0  0.11500241936E+02 -0.64618599167E+01 -0.88030887395E+01  0.15858927132E+02  0.51100000000E-03 0.  1.
        -12    1    3    3    0    0  0.37044089460E+01 -0.10954943531E+02 -0.26794838124E+02  0.29183844563E+02  0.00000000000E+00 0.  1.
</event>
<event>
 7    1  0.5855569E-013  0.5052886E+02  0.7816164E-02  0.1300439E+00
        -11   -1    0    0    0    0  0.00000000000E+00  0.00000000000E+00  0.45593999997E+02  0.45594000000E+02  0.51100000000E-03 0.  1.
         11   -1    0    0    0    0 -0.00000000000E+00 -0.00000000000E+00 -0.45593999997E+02  0.45594000000E+02  0.51100000000E-03 0. -1.
    9900012    2    1    2    0    0  0.32256077265E+02  0.22607226217E+02  0.10080894343E+02  0.50528860456E+02  0.30000001841E+02 0.  0.
        -12    1    1    2    0    0 -0.32256077265E+02 -0.22607226217E+02 -0.10080894343E+02  0.40659139544E+02  0.00000000000E+00 0.  1.
         11    1    3    3    0    0  0.12863280469E+02  0.20712450761E+02  0.16369352205E+00  0.24382296790E+02  0.51100000000E-03 0. -1.
        -11    1    3    3    0    0 -0.12791482425E+01  0.31636010700E+01  0.21157534885E+01  0.40150971397E+01  0.51100000000E-03 0.  1.
         12    1    3    3    0    0  0.20671945038E+02 -0.12688256140E+01  0.78014473321E+01  0.22131466526E+02  0.00000000000E+00 0. -1.
</event>
<event>
 7    1  0.5855569E-013  0.5052886E+02  0.7816164E-02  0.1300439E+00
        -11   -1    0    0    0    0  0.00000000000E+00  0.00000000000E+00  0.45593999997E+02  0.45594000000E+02  0.51100000000E-03 0.  1.
         11   -1    0    0    0    0 -0.00000000000E+00 -0.00000000000E+00 -0.45593999997E+02  0.45594000000E+02  0.51100000000E-03 0. -1.
    9900012    2    1    2    0    0  0.31361881372E+02 -0.11198134134E+02 -0.23328095077E+02  0.50528857962E+02  0.29999994262E+02 0.  0.
        -12    1    1    2    0    0 -0.31361881372E+02  0.11198134134E+02  0.23328095077E+02  0.40659142038E+02  0.00000000000E+00 0.  1.
         11    1    3    3    0    0  0.53836406460E+01  0.18218348495E+01 -0.49700534955E+01  0.75501060147E+01  0.51100000000E-03 0. -1.
        -11    1    3    3    0    0  0.21072714441E+02  0.36620854492E+01 -0.87188035444E+01  0.23097352646E+02  0.51100000000E-03 0.  1.
        -12    1    3    3    0    0  0.49055262853E+01 -0.16682054433E+02 -0.96392380371E+01  0.19881399301E+02  0.00000000000E+00 0.  1.
</event>
<event>
 7    1  0.5855569E-013  0.5052886E+02  0.7816164E-02  0.1300439E+00
        -11   -1    0    0    0    0  0.00000000000E+00  0.00000000000E+00  0.45593999997E+02  0.45594000000E+02  0.51100000000E-03 0.  1.
         11   -1    0    0    0    0 -0.00000000000E+00 -0.00000000000E+00 -0.45593999997E+02  0.45594000000E+02  0.51100000000E-03 0. -1.
    9900012    2    1    2    0    0 -0.30906548221E+02  0.21985093445E+02  0.14649455056E+02  0.50528860927E+02  0.30000003274E+02 0.  0.
        -12    1    1    2    0    0  0.30906548221E+02 -0.21985093445E+02 -0.14649455056E+02  0.40659139073E+02  0.00000000000E+00 0.  1.
         11    1    3    3    0    0 -0.25167097930E+02  0.41519547982E+01  0.12000751405E+02  0.28189352270E+02  0.51100000000E-03 0. -1.
        -11    1    3    3    0    0 -0.16748776019E+01  0.94888851233E+01  0.71745914859E+01  0.12013280947E+02  0.51100000000E-03 0.  1.
        -12    1    3    3    0    0 -0.40645726891E+01  0.83442535233E+01 -0.45258878355E+01  0.10326227709E+02  0.00000000000E+00 0.  1.
</event>
<event>
 7    1  0.5855569E-013  0.5052886E+02  0.7816164E-02  0.1300439E+00
        -11   -1    0    0    0    0  0.00000000000E+00  0.00000000000E+00  0.45593999997E+02  0.45594000000E+02  0.51100000000E-03 0.  1.
         11   -1    0    0    0    0 -0.00000000000E+00 -0.00000000000E+00 -0.45593999997E+02  0.45594000000E+02  0.51100000000E-03 0. -1.
    9900012    2    1    2    0    0  0.31116469572E+02 -0.16968140502E+02 -0.19925190314E+02  0.50528859825E+02  0.29999999924E+02 0.  0.
        -12    1    1    2    0    0 -0.31116469572E+02  0.16968140502E+02  0.19925190314E+02  0.40659140175E+02  0.00000000000E+00 0.  1.
         11    1    3    3    0    0 -0.87878592518E+00  0.99518865071E+00  0.25748059930E+00  0.13523910947E+01  0.51100000000E-03 0. -1.
        -11    1    3    3    0    0  0.21138960545E+00 -0.12369296567E+02 -0.35515871550E+01  0.12870817951E+02  0.51100000000E-03 0.  1.
         12    1    3    3    0    0  0.31783865891E+02 -0.55940325854E+01 -0.16631083759E+02  0.36305650780E+02  0.00000000000E+00 0. -1.
</event>
<event>
 7    1  0.5855569E-013  0.5052883E+02  0.7816164E-02  0.1300439E+00
        -11   -1    0    0    0    0  0.00000000000E+00  0.00000000000E+00  0.45593999997E+02  0.45594000000E+02  0.51100000000E-03 0.  1.
         11   -1    0    0    0    0 -0.00000000000E+00 -0.00000000000E+00 -0.45593999997E+02  0.45594000000E+02  0.51100000000E-03 0. -1.
    9900012    2    1    2    0    0  0.61227992523E+01 -0.63791740800E+01 -0.39686089290E+02  0.50528828639E+02  0.29999905131E+02 0.  0.
        -12    1    1    2    0    0 -0.61227992523E+01  0.63791740800E+01  0.39686089290E+02  0.40659171361E+02  0.00000000000E+00 0.  1.
         11    1    3    3    0    0 -0.22418986259E+00 -0.98243940082E+01 -0.11725500910E+02  0.15298900306E+02  0.51100000000E-03 0. -1.
        -11    1    3    3    0    0  0.40172241440E+01 -0.47791962011E+01 -0.26907742534E+00  0.62490966606E+01  0.51100000000E-03 0.  1.
        -12    1    3    3    0    0  0.23297649709E+01  0.82244161293E+01 -0.27691510954E+02  0.28980831672E+02  0.00000000000E+00 0.  1.
</event>
<event>
 7    1  0.5855569E-013  0.5052882E+02  0.7816164E-02  0.1300439E+00
        -11   -1    0    0    0    0  0.00000000000E+00  0.00000000000E+00  0.45593999997E+02  0.45594000000E+02  0.51100000000E-03 0.  1.
         11   -1    0    0    0    0 -0.00000000000E+00 -0.00000000000E+00 -0.45593999997E+02  0.45594000000E+02  0.51100000000E-03 0. -1.
    9900012    2    1    2    0    0 -0.34876006295E+01 -0.11445809399E+02 -0.38858707660E+02  0.50528818110E+02  0.29999873126E+02 0.  0.
        -12    1    1    2    0    0  0.34876006295E+01  0.11445809399E+02  0.38858707660E+02  0.40659181890E+02  0.00000000000E+00 0.  1.
         11    1    3    3    0    0  0.95320232891E+00  0.27124125830E+01 -0.91736000266E+01  0.96135692856E+01  0.51100000000E-03 0. -1.
        -11    1    3    3    0    0  0.29254020799E+01  0.54286027351E+01 -0.26109633169E+01  0.66966286061E+01  0.51100000000E-03 0.  1.
        -12    1    3    3    0    0 -0.73662050383E+01 -0.19586824717E+02 -0.27074144317E+02  0.34218620218E+02  0.00000000000E+00 0.  1.
</event>
<event>
 7    1  0.6969404E-013  0.5052885E+02  0.7816164E-02  0.1300439E+00
        -11   -1    0    0    0    0  0.00000000000E+00  0.00000000000E+00  0.45593999997E+02  0.45594000000E+02  0.51100000000E-03 0. -1.
         11   -1    0    0    0    0 -0.00000000000E+00 -0.00000000000E+00 -0.45593999997E+02  0.45594000000E+02  0.51100000000E-03 0.  1.
    9900012    2    1    2    0    0 -0.28774046555E+02 -0.12601821149E+02  0.25815017622E+02  0.50528846219E+02  0.29999958566E+02 0.  0.
        -12    1    1    2    0    0  0.28774046555E+02  0.12601821149E+02 -0.25815017622E+02  0.40659153781E+02  0.00000000000E+00 0.  1.
         11    1    3    3    0    0 -0.22630828300E+02 -0.60335623673E+01  0.10786702789E+02  0.25785872522E+02  0.51100000000E-03 0. -1.
        -11    1    3    3    0    0  0.36505364818E+00  0.27929216093E+01 -0.25443520032E+01  0.37957084528E+01  0.51100000000E-03 0.  1.
         12    1    3    3    0    0 -0.65082719025E+01 -0.93611803913E+01  0.17572666836E+02  0.20947265244E+02  0.00000000000E+00 0. -1.
</event>
<event>
 7    1  0.5855569E-013  0.5052884E+02  0.7816164E-02  0.1300439E+00
        -11   -1    0    0    0    0  0.00000000000E+00  0.00000000000E+00  0.45593999997E+02  0.45594000000E+02  0.51100000000E-03 0.  1.
         11   -1    0    0    0    0 -0.00000000000E+00 -0.00000000000E+00 -0.45593999997E+02  0.45594000000E+02  0.51100000000E-03 0. -1.
    9900012    2    1    2    0    0  0.26222692095E+02  0.12975049998E+02 -0.28234474198E+02  0.50528843142E+02  0.29999949214E+02 0.  0.
        -12    1    1    2    0    0 -0.26222692095E+02 -0.12975049998E+02  0.28234474198E+02  0.40659156858E+02  0.00000000000E+00 0.  1.
         11    1    3    3    0    0  0.57269414204E+01  0.36735915588E-01 -0.11128588847E+02  0.12515777944E+02  0.51100000000E-03 0. -1.
        -11    1    3    3    0    0  0.20303431468E+01 -0.50401824298E+01  0.21481440826E+01  0.58429663254E+01  0.51100000000E-03 0.  1.
         12    1    3    3    0    0  0.18465407528E+02  0.17978496513E+02 -0.19254029434E+02  0.32170098873E+02  0.00000000000E+00 0. -1.
</event>
<event>
 7    1  0.5855569E-013  0.5052885E+02  0.7816164E-02  0.1300439E+00
        -11   -1    0    0    0    0  0.00000000000E+00  0.00000000000E+00  0.45593999997E+02  0.45594000000E+02  0.51100000000E-03 0.  1.
         11   -1    0    0    0    0 -0.00000000000E+00 -0.00000000000E+00 -0.45593999997E+02  0.45594000000E+02  0.51100000000E-03 0. -1.
    9900012    2    1    2    0    0 -0.39852627913E+02  0.80488512719E+01  0.38793900962E+00  0.50528850291E+02  0.29999970946E+02 0.  0.
        -12    1    1    2    0    0  0.39852627913E+02 -0.80488512719E+01 -0.38793900962E+00  0.40659149709E+02  0.00000000000E+00 0.  1.
         11    1    3    3    0    0 -0.39412947534E+01 -0.14552779980E+00  0.56987745665E+01  0.69304411472E+01  0.51100000000E-03 0. -1.
        -11    1    3    3    0    0 -0.10442695735E+02 -0.15086811875E+00  0.84840285707E+01  0.13455534046E+02  0.51100000000E-03 0.  1.
         12    1    3    3    0    0 -0.25468637424E+02  0.83452471904E+01 -0.13794864128E+02  0.30142875098E+02  0.00000000000E+00 0. -1.
</event>
<event>
 7    1  0.5855569E-013  0.5052886E+02  0.7816164E-02  0.1300439E+00
        -11   -1    0    0    0    0  0.00000000000E+00  0.00000000000E+00  0.45593999997E+02  0.45594000000E+02  0.51100000000E-03 0.  1.
         11   -1    0    0    0    0 -0.00000000000E+00 -0.00000000000E+00 -0.45593999997E+02  0.45594000000E+02  0.51100000000E-03 0. -1.
    9900012    2    1    2    0    0 -0.19992575785E+02  0.11162775191E+02 -0.33598432170E+02  0.50528864731E+02  0.30000014837E+02 0.  0.
        -12    1    1    2    0    0  0.19992575785E+02 -0.11162775191E+02  0.33598432170E+02  0.40659135269E+02  0.00000000000E+00 0.  1.
         11    1    3    3    0    0 -0.11740389992E+02  0.33794773989E+01 -0.11577319111E+02  0.16831278701E+02  0.51100000000E-03 0. -1.
        -11    1    3    3    0    0 -0.10406943026E+02  0.14399051095E+02 -0.11781097015E+02  0.21317396246E+02  0.51100000000E-03 0.  1.
        -12    1    3    3    0    0  0.21547572323E+01 -0.66157533026E+01 -0.10240016045E+02  0.12380189784E+02  0.00000000000E+00 0.  1.
</event>
<event>
 7    1  0.5855569E-013  0.5052881E+02  0.7816164E-02  0.1300439E+00
        -11   -1    0    0    0    0  0.00000000000E+00  0.00000000000E+00  0.45593999997E+02  0.45594000000E+02  0.51100000000E-03 0.  1.
         11   -1    0    0    0    0 -0.00000000000E+00 -0.00000000000E+00 -0.45593999997E+02  0.45594000000E+02  0.51100000000E-03 0. -1.
    9900012    2    1    2    0    0 -0.49094586744E+01  0.39793794202E+02 -0.67469139538E+01  0.50528810517E+02  0.29999850048E+02 0.  0.
        -12    1    1    2    0    0  0.49094586744E+01 -0.39793794202E+02  0.67469139538E+01  0.40659189483E+02  0.00000000000E+00 0.  1.
         11    1    3    3    0    0  0.52968480357E+01 -0.13503109366E+01 -0.26023954286E+01  0.60541226422E+01  0.51100000000E-03 0. -1.
        -11    1    3    3    0    0 -0.11169210328E+00  0.19655180032E+02 -0.62866832708E+01  0.20636399008E+02  0.51100000000E-03 0.  1.
        -12    1    3    3    0    0 -0.10094614607E+02  0.21488925107E+02  0.21421647455E+01  0.23838288867E+02  0.00000000000E+00 0.  1.
</event>
<event>
 7    1  0.5855569E-013  0.5052886E+02  0.7816164E-02  0.1300439E+00
        -11   -1    0    0    0    0  0.00000000000E+00  0.00000000000E+00  0.45593999997E+02  0.45594000000E+02  0.51100000000E-03 0.  1.
         11   -1    0    0    0    0 -0.00000000000E+00 -0.00000000000E+00 -0.45593999997E+02  0.45594000000E+02  0.51100000000E-03 0. -1.
    9900012    2    1    2    0    0  0.23702116251E+02  0.18177379498E+01 -0.32985925904E+02  0.50528858424E+02  0.29999995664E+02 0.  0.
        -12    1    1    2    0    0 -0.23702116251E+02 -0.18177379498E+01  0.32985925904E+02  0.40659141576E+02  0.00000000000E+00 0.  1.
         11    1    3    3    0    0  0.14731960744E+02 -0.12159174793E+01 -0.18479243492E+02  0.23664140867E+02  0.51100000000E-03 0. -1.
        -11    1    3    3    0    0  0.46111698106E+01  0.11166101838E+02 -0.12574872791E+02  0.17437664501E+02  0.51100000000E-03 0.  1.
        -12    1    3    3    0    0  0.43589856964E+01 -0.81324464090E+01 -0.19318096200E+01  0.94270530551E+01  0.00000000000E+00 0.  1.
</event>
<event>
 7    1  0.5855569E-013  0.5052881E+02  0.7816164E-02  0.1300439E+00
        -11   -1    0    0    0    0  0.00000000000E+00  0.00000000000E+00  0.45593999997E+02  0.45594000000E+02  0.51100000000E-03 0. -1.
         11   -1    0    0    0    0 -0.00000000000E+00 -0.00000000000E+00 -0.45593999997E+02  0.45594000000E+02  0.51100000000E-03 0.  1.
    9900012    2    1    2    0    0 -0.23512691587E+02 -0.20926952802E+02  0.25736850878E+02  0.50528812694E+02  0.29999856665E+02 0.  0.
        -12    1    1    2    0    0  0.23512691587E+02  0.20926952802E+02 -0.25736850878E+02  0.40659187306E+02  0.00000000000E+00 0.  1.
         11    1    3    3    0    0 -0.61940962769E+01  0.11402397574E+01  0.56966375819E+01  0.84922703320E+01  0.51100000000E-03 0. -1.
        -11    1    3    3    0    0 -0.17270474712E+02 -0.26302271928E+01  0.10528537772E+02  0.20396997322E+02  0.51100000000E-03 0.  1.
        -12    1    3    3    0    0 -0.48120597761E-01 -0.19436965367E+02  0.95116755236E+01  0.21639545040E+02  0.00000000000E+00 0.  1.
</event>
<event>
 7    1  0.5855569E-013  0.5052886E+02  0.7816164E-02  0.1300439E+00
        -11   -1    0    0    0    0  0.00000000000E+00  0.00000000000E+00  0.45593999997E+02  0.45594000000E+02  0.51100000000E-03 0. -1.
         11   -1    0    0    0    0 -0.00000000000E+00 -0.00000000000E+00 -0.45593999997E+02  0.45594000000E+02  0.51100000000E-03 0.  1.
    9900012    2    1    2    0    0  0.31041191574E+02  0.12144756760E+02  0.23283360719E+02  0.50528861083E+02  0.30000003748E+02 0.  0.
        -12    1    1    2    0    0 -0.31041191574E+02 -0.12144756760E+02 -0.23283360719E+02  0.40659138917E+02  0.00000000000E+00 0.  1.
         11    1    3    3    0    0 -0.45643547016E+00  0.36423127244E+01  0.11785900971E+00  0.36726919729E+01  0.51100000000E-03 0. -1.
        -11    1    3    3    0    0  0.19479184726E+02  0.26108535124E+01 -0.50895121636E+00  0.19659965037E+02  0.51100000000E-03 0.  1.
        -12    1    3    3    0    0  0.12018442318E+02  0.58915905236E+01  0.23674452926E+02  0.27196204073E+02  0.00000000000E+00 0.  1.
</event>
<event>
 7    1  0.5855569E-013  0.5052885E+02  0.7816164E-02  0.1300439E+00
        -11   -1    0    0    0    0  0.00000000000E+00  0.00000000000E+00  0.45593999997E+02  0.45594000000E+02  0.51100000000E-03 0.  1.
         11   -1    0    0    0    0 -0.00000000000E+00 -0.00000000000E+00 -0.45593999997E+02  0.45594000000E+02  0.51100000000E-03 0. -1.
    9900012    2    1    2    0    0 -0.22069156800E+02  0.32258087159E+02 -0.11204224642E+02  0.50528849507E+02  0.29999968561E+02 0.  0.
        -12    1    1    2    0    0  0.22069156800E+02 -0.32258087159E+02  0.11204224642E+02  0.40659150493E+02  0.00000000000E+00 0.  1.
         11    1    3    3    0    0 -0.42828572882E+01  0.12611794425E+02 -0.23191846620E+01  0.13519572587E+02  0.51100000000E-03 0. -1.
        -11    1    3    3    0    0 -0.22540557345E+02  0.19469192394E+02 -0.37676710464E+01  0.30022017308E+02  0.51100000000E-03 0.  1.
        -12    1    3    3    0    0  0.47542578332E+01  0.17710033946E+00 -0.51173689334E+01  0.69872596113E+01  0.00000000000E+00 0.  1.
</event>
<event>
 7    1  0.5855569E-013  0.5052878E+02  0.7816164E-02  0.1300439E+00
        -11   -1    0    0    0    0  0.00000000000E+00  0.00000000000E+00  0.45593999997E+02  0.45594000000E+02  0.51100000000E-03 0.  1.
         11   -1    0    0    0    0 -0.00000000000E+00 -0.00000000000E+00 -0.45593999997E+02  0.45594000000E+02  0.51100000000E-03 0. -1.
    9900012    2    1    2    0    0  0.23608418631E+02 -0.43932101740E+01 -0.32810277308E+02  0.50528781821E+02  0.29999762822E+02 0.  0.
        -12    1    1    2    0    0 -0.23608418631E+02  0.43932101740E+01  0.32810277308E+02  0.40659218179E+02  0.00000000000E+00 0.  1.
         11    1    3    3    0    0  0.43244330259E+01 -0.63383287620E+01 -0.21787610133E+02  0.23099244318E+02  0.51100000000E-03 0. -1.
        -11    1    3    3    0    0  0.13788102919E+02 -0.63173633112E+01 -0.72882145108E+01  0.16826732669E+02  0.51100000000E-03 0.  1.
        -12    1    3    3    0    0  0.54958826862E+01  0.82624818992E+01 -0.37344526647E+01  0.10602804834E+02  0.00000000000E+00 0.  1.
</event>
<event>
 7    1  0.5855569E-013  0.5052885E+02  0.7816164E-02  0.1300439E+00
        -11   -1    0    0    0    0  0.00000000000E+00  0.00000000000E+00  0.45593999997E+02  0.45594000000E+02  0.51100000000E-03 0.  1.
         11   -1    0    0    0    0 -0.00000000000E+00 -0.00000000000E+00 -0.45593999997E+02  0.45594000000E+02  0.51100000000E-03 0. -1.
    9900012    2    1    2    0    0 -0.79909844643E+01  0.15856101327E+02 -0.36577242875E+02  0.50528850004E+02  0.29999970073E+02 0.  0.
        -12    1    1    2    0    0  0.79909844643E+01 -0.15856101327E+02  0.36577242875E+02  0.40659149996E+02  0.00000000000E+00 0.  1.
         11    1    3    3    0    0 -0.46535230986E+01 -0.37978051537E+00 -0.36008252656E+01  0.58962236494E+01  0.51100000000E-03 0. -1.
        -11    1    3    3    0    0  0.22052482741E+01 -0.55244414157E+01 -0.18066340218E+01  0.62166308927E+01  0.51100000000E-03 0.  1.
        -12    1    3    3    0    0 -0.55427096399E+01  0.21760323258E+02 -0.31169783588E+02  0.38415995462E+02  0.00000000000E+00 0.  1.
</event>
<event>
 7    1  0.5855569E-013  0.5052885E+02  0.7816164E-02  0.1300439E+00
        -11   -1    0    0    0    0  0.00000000000E+00  0.00000000000E+00  0.45593999997E+02  0.45594000000E+02  0.51100000000E-03 0.  1.
         11   -1    0    0    0    0 -0.00000000000E+00 -0.00000000000E+00 -0.45593999997E+02  0.45594000000E+02  0.51100000000E-03 0. -1.
    9900012    2    1    2    0    0 -0.38417852408E+02  0.12924374545E+02 -0.31930834187E+01  0.50528848229E+02  0.29999964678E+02 0.  0.
        -12    1    1    2    0    0  0.38417852408E+02 -0.12924374545E+02  0.31930834187E+01  0.40659151771E+02  0.00000000000E+00 0.  1.
         11    1    3    3    0    0 -0.39122295865E+02  0.21993435986E+01 -0.16093334766E+01  0.39217102143E+02  0.51100000000E-03 0. -1.
        -11    1    3    3    0    0 -0.18972915108E+00  0.56244574106E-01 -0.51575560041E+00  0.55241714615E+00  0.51100000000E-03 0.  1.
        -12    1    3    3    0    0  0.89417260866E+00  0.10668786373E+02 -0.10679943417E+01  0.10759328940E+02  0.00000000000E+00 0.  1.
</event>
<event>
 7    1  0.5855569E-013  0.5052886E+02  0.7816164E-02  0.1300439E+00
        -11   -1    0    0    0    0  0.00000000000E+00  0.00000000000E+00  0.45593999997E+02  0.45594000000E+02  0.51100000000E-03 0.  1.
         11   -1    0    0    0    0 -0.00000000000E+00 -0.00000000000E+00 -0.45593999997E+02  0.45594000000E+02  0.51100000000E-03 0. -1.
    9900012    2    1    2    0    0  0.18282010341E+02 -0.29281117611E+02 -0.21483713660E+02  0.50528859535E+02  0.29999999043E+02 0.  0.
        -12    1    1    2    0    0 -0.18282010341E+02  0.29281117611E+02  0.21483713660E+02  0.40659140465E+02  0.00000000000E+00 0.  1.
         11    1    3    3    0    0  0.39274600379E+01 -0.36480936381E+01 -0.15589063996E+02  0.16484915713E+02  0.51100000000E-03 0. -1.
        -11    1    3    3    0    0  0.14021704518E+02 -0.96214638720E+01 -0.78479863786E-01  0.17005496876E+02  0.51100000000E-03 0.  1.
        -12    1    3    3    0    0  0.33284578495E+00 -0.16011560101E+02 -0.58161698007E+01  0.17038446946E+02  0.00000000000E+00 0.  1.
</event>
<event>
 7    1  0.5855569E-013  0.5052884E+02  0.7816164E-02  0.1300439E+00
        -11   -1    0    0    0    0  0.00000000000E+00  0.00000000000E+00  0.45593999997E+02  0.45594000000E+02  0.51100000000E-03 0. -1.
         11   -1    0    0    0    0 -0.00000000000E+00 -0.00000000000E+00 -0.45593999997E+02  0.45594000000E+02  0.51100000000E-03 0.  1.
    9900012    2    1    2    0    0 -0.31005535899E+02 -0.22822163997E+02  0.13075647899E+02  0.50528843665E+02  0.29999950804E+02 0.  0.
        -12    1    1    2    0    0  0.31005535899E+02  0.22822163997E+02 -0.13075647899E+02  0.40659156335E+02  0.00000000000E+00 0.  1.
         11    1    3    3    0    0 -0.51938112840E+01 -0.84077181297E+01 -0.35589569420E+01  0.10503883785E+02  0.51100000000E-03 0. -1.
        -11    1    3    3    0    0 -0.18927651248E+01  0.24055446687E+01  0.94233397667E+01  0.99080037137E+01  0.51100000000E-03 0.  1.
         12    1    3    3    0    0 -0.23918959491E+02 -0.16819990536E+02  0.72112650740E+01  0.30116956166E+02  0.00000000000E+00 0. -1.
</event>
<event>
 7    1  0.5855569E-013  0.5052883E+02  0.7816164E-02  0.1300439E+00
        -11   -1    0    0    0    0  0.00000000000E+00  0.00000000000E+00  0.45593999997E+02  0.45594000000E+02  0.51100000000E-03 0.  1.
         11   -1    0    0    0    0 -0.00000000000E+00 -0.00000000000E+00 -0.45593999997E+02  0.45594000000E+02  0.51100000000E-03 0. -1.
    9900012    2    1    2    0    0  0.41720436914E+01 -0.38481874774E+02 -0.12446181615E+02  0.50528830413E+02  0.29999910524E+02 0.  0.
        -12    1    1    2    0    0 -0.41720436914E+01  0.38481874774E+02  0.12446181615E+02  0.40659169587E+02  0.00000000000E+00 0.  1.
         11    1    3    3    0    0 -0.22677215099E+00 -0.32270889590E+01 -0.63302669236E+01  0.71089948898E+01  0.51100000000E-03 0. -1.
        -11    1    3    3    0    0 -0.93271786696E+01 -0.13505094460E+02 -0.66161794120E+01  0.17696261430E+02  0.51100000000E-03 0.  1.
        -12    1    3    3    0    0  0.13725994512E+02 -0.21749691355E+02  0.50026472051E+00  0.25723574094E+02  0.00000000000E+00 0.  1.
</event>
<event>
 7    1  0.5855569E-013  0.5052884E+02  0.7816164E-02  0.1300439E+00
        -11   -1    0    0    0    0  0.00000000000E+00  0.00000000000E+00  0.45593999997E+02  0.45594000000E+02  0.51100000000E-03 0.  1.
         11   -1    0    0    0    0 -0.00000000000E+00 -0.00000000000E+00 -0.45593999997E+02  0.45594000000E+02  0.51100000000E-03 0. -1.
    9900012    2    1    2    0    0  0.33395871493E+02  0.22927953368E+02 -0.34916841106E+01  0.50528841913E+02  0.29999945480E+02 0.  0.
        -12    1    1    2    0    0 -0.33395871493E+02 -0.22927953368E+02  0.34916841106E+01  0.40659158087E+02  0.00000000000E+00 0.  1.
         11    1    3    3    0    0  0.10391034625E+02  0.77305594992E+00 -0.52644198200E+01  0.11674130905E+02  0.51100000000E-03 0. -1.
        -11    1    3    3    0    0  0.20148797403E+01  0.58573503845E+01 -0.83682150395E+01  0.10411307176E+02  0.51100000000E-03 0.  1.
        -12    1    3    3    0    0  0.20989957128E+02  0.16297547033E+02  0.10140950749E+02  0.28443403833E+02  0.00000000000E+00 0.  1.
</event>
<event>
 7    1  0.5855569E-013  0.5052886E+02  0.7816164E-02  0.1300439E+00
        -11   -1    0    0    0    0  0.00000000000E+00  0.00000000000E+00  0.45593999997E+02  0.45594000000E+02  0.51100000000E-03 0.  1.
         11   -1    0    0    0    0 -0.00000000000E+00 -0.00000000000E+00 -0.45593999997E+02  0.45594000000E+02  0.51100000000E-03 0. -1.
    9900012    2    1    2    0    0 -0.25288126009E+02  0.28313549122E+02 -0.14560887245E+02  0.50528858121E+02  0.29999994745E+02 0.  0.
        -12    1    1    2    0    0  0.25288126009E+02 -0.28313549122E+02  0.14560887245E+02  0.40659141879E+02  0.00000000000E+00 0.  1.
         11    1    3    3    0    0 -0.20322216939E+02  0.21866311353E+02 -0.67032984407E+01  0.30595134969E+02  0.51100000000E-03 0.  1.
        -11    1    3    3    0    0 -0.10547116144E+02  0.70705232263E+01 -0.52116235405E+01  0.13725705004E+02  0.51100000000E-03 0. -1.
        -12    1    3    3    0    0  0.55812070737E+01 -0.62328545757E+00 -0.26459652638E+01  0.62080181490E+01  0.00000000000E+00 0.  1.
</event>
<event>
 7    1  0.5855569E-013  0.5052887E+02  0.7816164E-02  0.1300439E+00
        -11   -1    0    0    0    0  0.00000000000E+00  0.00000000000E+00  0.45593999997E+02  0.45594000000E+02  0.51100000000E-03 0. -1.
         11   -1    0    0    0    0 -0.00000000000E+00 -0.00000000000E+00 -0.45593999997E+02  0.45594000000E+02  0.51100000000E-03 0.  1.
    9900012    2    1    2    0    0  0.38429550336E+02  0.24817493790E+01  0.13045120411E+02  0.50528873281E+02  0.30000040826E+02 0.  0.
        -12    1    1    2    0    0 -0.38429550336E+02 -0.24817493790E+01 -0.13045120411E+02  0.40659126719E+02  0.00000000000E+00 0.  1.
         11    1    3    3    0    0  0.24624044790E+01  0.95989195466E+01  0.16759808882E+01  0.10050452949E+02  0.51100000000E-03 0. -1.
        -11    1    3    3    0    0  0.28035907034E+02 -0.80141455596E+00  0.49564843393E+01  0.28481943153E+02  0.51100000000E-03 0.  1.
        -12    1    3    3    0    0  0.79312388225E+01 -0.63157556116E+01  0.64126551840E+01  0.11996477179E+02  0.00000000000E+00 0.  1.
</event>
<event>
 7    1  0.5855569E-013  0.5052886E+02  0.7816164E-02  0.1300439E+00
        -11   -1    0    0    0    0  0.00000000000E+00  0.00000000000E+00  0.45593999997E+02  0.45594000000E+02  0.51100000000E-03 0.  1.
         11   -1    0    0    0    0 -0.00000000000E+00 -0.00000000000E+00 -0.45593999997E+02  0.45594000000E+02  0.51100000000E-03 0. -1.
    9900012    2    1    2    0    0 -0.13468638879E+02 -0.28368138903E+02 -0.25826540676E+02  0.50528859067E+02  0.29999997621E+02 0.  0.
        -12    1    1    2    0    0  0.13468638879E+02  0.28368138903E+02  0.25826540676E+02  0.40659140933E+02  0.00000000000E+00 0.  1.
         11    1    3    3    0    0 -0.10498898311E+01 -0.88551551778E+01 -0.15518450339E+02  0.17897998298E+02  0.51100000000E-03 0. -1.
        -11    1    3    3    0    0 -0.10312535365E+02  0.97894466685E+00 -0.35810501138E+01  0.10960412332E+02  0.51100000000E-03 0.  1.
         12    1    3    3    0    0 -0.21062136829E+01 -0.20491928392E+02 -0.67270402232E+01  0.21670448437E+02  0.00000000000E+00 0. -1.
</event>
<event>
 7    1  0.5855569E-013  0.5052887E+02  0.7816164E-02  0.1300439E+00
        -11   -1    0    0    0    0  0.00000000000E+00  0.00000000000E+00  0.45593999997E+02  0.45594000000E+02  0.51100000000E-03 0.  1.
         11   -1    0    0    0    0 -0.00000000000E+00 -0.00000000000E+00 -0.45593999997E+02  0.45594000000E+02  0.51100000000E-03 0. -1.
    9900012    2    1    2    0    0 -0.26692976628E+02  0.20809247459E+02 -0.22530541642E+02  0.50528867105E+02  0.30000022053E+02 0.  0.
        -12    1    1    2    0    0  0.26692976628E+02 -0.20809247459E+02  0.22530541642E+02  0.40659132895E+02  0.00000000000E+00 0.  1.
         11    1    3    3    0    0 -0.19926975501E+01  0.54292244826E+01 -0.64914608586E+01  0.86940431531E+01  0.51100000000E-03 0. -1.
        -11    1    3    3    0    0  0.48851312346E+01  0.23675204893E+01  0.63674770891E+00  0.54658126891E+01  0.51100000000E-03 0.  1.
        -12    1    3    3    0    0 -0.29585410313E+02  0.13012502487E+02 -0.16675828492E+02  0.36369011263E+02  0.00000000000E+00 0.  1.
</event>
<event>
 7    1  0.5855569E-013  0.5052887E+02  0.7816164E-02  0.1300439E+00
        -11   -1    0    0    0    0  0.00000000000E+00  0.00000000000E+00  0.45593999997E+02  0.45594000000E+02  0.51100000000E-03 0. -1.
         11   -1    0    0    0    0 -0.00000000000E+00 -0.00000000000E+00 -0.45593999997E+02  0.45594000000E+02  0.51100000000E-03 0.  1.
    9900012    2    1    2    0    0  0.74271807604E+01  0.13456610432E+02  0.37642016978E+02  0.50528870391E+02  0.30000032040E+02 0.  0.
        -12    1    1    2    0    0 -0.74271807604E+01 -0.13456610432E+02 -0.37642016978E+02  0.40659129609E+02  0.00000000000E+00 0.  1.
         11    1    3    3    0    0 -0.12257668509E+01 -0.24383394199E+01  0.10993379993E+02  0.11327065261E+02  0.51100000000E-03 0. -1.
        -11    1    3    3    0    0 -0.64549365414E+01 -0.47636712847E-01  0.87215873451E+01  0.10850555796E+02  0.51100000000E-03 0.  1.
        -12    1    3    3    0    0  0.15107884153E+02  0.15942586565E+02  0.17927049640E+02  0.28351249333E+02  0.00000000000E+00 0.  1.
</event>
<event>
 7    1  0.5855569E-013  0.5052887E+02  0.7816164E-02  0.1300439E+00
        -11   -1    0    0    0    0  0.00000000000E+00  0.00000000000E+00  0.45593999997E+02  0.45594000000E+02  0.51100000000E-03 0.  1.
         11   -1    0    0    0    0 -0.00000000000E+00 -0.00000000000E+00 -0.45593999997E+02  0.45594000000E+02  0.51100000000E-03 0. -1.
    9900012    2    1    2    0    0 -0.23519551446E+02  0.19881482179E+02 -0.26546606837E+02  0.50528868573E+02  0.30000026516E+02 0.  0.
        -12    1    1    2    0    0  0.23519551446E+02 -0.19881482179E+02  0.26546606837E+02  0.40659131427E+02  0.00000000000E+00 0.  1.
         11    1    3    3    0    0 -0.18000663485E+02  0.37638465601E+01 -0.20169899403E+02  0.27294967834E+02  0.51100000000E-03 0. -1.
        -11    1    3    3    0    0 -0.58640172334E+01 -0.18751544527E+00 -0.29584783992E+01  0.65707271177E+01  0.51100000000E-03 0.  1.
        -12    1    3    3    0    0  0.34512927324E+00  0.16305151064E+02 -0.34182290344E+01  0.16663173622E+02  0.00000000000E+00 0.  1.
</event>
<event>
 7    1  0.5855569E-013  0.5052885E+02  0.7816164E-02  0.1300439E+00
        -11   -1    0    0    0    0  0.00000000000E+00  0.00000000000E+00  0.45593999997E+02  0.45594000000E+02  0.51100000000E-03 0.  1.
         11   -1    0    0    0    0 -0.00000000000E+00 -0.00000000000E+00 -0.45593999997E+02  0.45594000000E+02  0.51100000000E-03 0. -1.
    9900012    2    1    2    0    0 -0.46704959912E+01  0.40194617491E+02 -0.39680731126E+01  0.50528850817E+02  0.29999972543E+02 0.  0.
        -12    1    1    2    0    0  0.46704959912E+01 -0.40194617491E+02  0.39680731126E+01  0.40659149183E+02  0.00000000000E+00 0.  1.
         11    1    3    3    0    0 -0.37430805582E+01  0.10235003222E+02 -0.12167142507E+02  0.16334175831E+02  0.51100000000E-03 0. -1.
        -11    1    3    3    0    0  0.26570507077E+01  0.11568406002E+02 -0.31601624634E+01  0.12283100706E+02  0.51100000000E-03 0.  1.
        -12    1    3    3    0    0 -0.35844661407E+01  0.18391208267E+02  0.11359231858E+02  0.21911574281E+02  0.00000000000E+00 0.  1.
</event>
<event>
 7    1  0.5855569E-013  0.5052886E+02  0.7816164E-02  0.1300439E+00
        -11   -1    0    0    0    0  0.00000000000E+00  0.00000000000E+00  0.45593999997E+02  0.45594000000E+02  0.51100000000E-03 0.  1.
         11   -1    0    0    0    0 -0.00000000000E+00 -0.00000000000E+00 -0.45593999997E+02  0.45594000000E+02  0.51100000000E-03 0. -1.
    9900012    2    1    2    0    0 -0.17778347347E+02  0.99752279064E+01 -0.35179409794E+02  0.50528859827E+02  0.29999999930E+02 0.  0.
        -12    1    1    2    0    0  0.17778347347E+02 -0.99752279064E+01  0.35179409794E+02  0.40659140173E+02  0.00000000000E+00 0.  1.
         11    1    3    3    0    0 -0.14008451659E+02  0.14220506160E+02 -0.18823500377E+02  0.27436903616E+02  0.51100000000E-03 0. -1.
        -11    1    3    3    0    0 -0.56467789514E+01  0.24067570785E+01 -0.95624577967E+00  0.62123263286E+01  0.51100000000E-03 0.  1.
        -12    1    3    3    0    0  0.18768832627E+01 -0.66520353319E+01 -0.15399663637E+02  0.16879629882E+02  0.00000000000E+00 0.  1.
</event>
<event>
 7    1  0.5855569E-013  0.5052885E+02  0.7816164E-02  0.1300439E+00
        -11   -1    0    0    0    0  0.00000000000E+00  0.00000000000E+00  0.45593999997E+02  0.45594000000E+02  0.51100000000E-03 0.  1.
         11   -1    0    0    0    0 -0.00000000000E+00 -0.00000000000E+00 -0.45593999997E+02  0.45594000000E+02  0.51100000000E-03 0. -1.
    9900012    2    1    2    0    0  0.14540165044E+02  0.34297671832E+02 -0.16291710516E+02  0.50528849441E+02  0.29999968362E+02 0.  0.
        -12    1    1    2    0    0 -0.14540165044E+02 -0.34297671832E+02  0.16291710516E+02  0.40659150559E+02  0.00000000000E+00 0.  1.
         11    1    3    3    0    0  0.29751643601E+01  0.11918138631E+02  0.63019561059E+01  0.13806095843E+02  0.51100000000E-03 0. -1.
        -11    1    3    3    0    0  0.21834955052E+01  0.59729955908E+01  0.10585825978E+01  0.64470866542E+01  0.51100000000E-03 0.  1.
         12    1    3    3    0    0  0.93815051789E+01  0.16406537610E+02 -0.23652249219E+02  0.30275666944E+02  0.00000000000E+00 0. -1.
</event>
<event>
 7    1  0.5855569E-013  0.5052886E+02  0.7816164E-02  0.1300439E+00
        -11   -1    0    0    0    0  0.00000000000E+00  0.00000000000E+00  0.45593999997E+02  0.45594000000E+02  0.51100000000E-03 0. -1.
         11   -1    0    0    0    0 -0.00000000000E+00 -0.00000000000E+00 -0.45593999997E+02  0.45594000000E+02  0.51100000000E-03 0.  1.
    9900012    2    1    2    0    0  0.18411708603E+02  0.12241607172E+02  0.34122095579E+02  0.50528863677E+02  0.30000011633E+02 0.  0.
        -12    1    1    2    0    0 -0.18411708603E+02 -0.12241607172E+02 -0.34122095579E+02  0.40659136323E+02  0.00000000000E+00 0.  1.
         11    1    3    3    0    0  0.54412742671E+01  0.98467141599E+01  0.13098692394E+02  0.17266759629E+02  0.51100000000E-03 0. -1.
        -11    1    3    3    0    0  0.12743262899E+02  0.11088094370E+02  0.11930937619E+02  0.20680518823E+02  0.51100000000E-03 0.  1.
        -12    1    3    3    0    0  0.22717143765E+00 -0.86932013578E+01  0.90924655653E+01  0.12581585225E+02  0.00000000000E+00 0.  1.
</event>
<event>
 7    1  0.5855569E-013  0.5052885E+02  0.7816164E-02  0.1300439E+00
        -11   -1    0    0    0    0  0.00000000000E+00  0.00000000000E+00  0.45593999997E+02  0.45594000000E+02  0.51100000000E-03 0.  1.
         11   -1    0    0    0    0 -0.00000000000E+00 -0.00000000000E+00 -0.45593999997E+02  0.45594000000E+02  0.51100000000E-03 0. -1.
    9900012    2    1    2    0    0  0.77116026015E+01  0.65399825861E-01 -0.39921091141E+02  0.50528848389E+02  0.29999965164E+02 0.  0.
        -12    1    1    2    0    0 -0.77116026015E+01 -0.65399825861E-01  0.39921091141E+02  0.40659151611E+02  0.00000000000E+00 0.  1.
         11    1    3    3    0    0  0.69351903989E+01  0.63785515980E+01 -0.23081224044E+02  0.24930416964E+02  0.51100000000E-03 0. -1.
        -11    1    3    3    0    0  0.65813306805E+01 -0.79561986153E+01 -0.16614064497E+02  0.19561240996E+02  0.51100000000E-03 0.  1.
        -12    1    3    3    0    0 -0.58049184780E+01  0.16430468432E+01 -0.22580259952E+00  0.60371904292E+01  0.00000000000E+00 0.  1.
</event>
<event>
 7    1  0.5855569E-013  0.5052886E+02  0.7816164E-02  0.1300439E+00
        -11   -1    0    0    0    0  0.00000000000E+00  0.00000000000E+00  0.45593999997E+02  0.45594000000E+02  0.51100000000E-03 0.  1.
         11   -1    0    0    0    0 -0.00000000000E+00 -0.00000000000E+00 -0.45593999997E+02  0.45594000000E+02  0.51100000000E-03 0. -1.
    9900012    2    1    2    0    0 -0.16414561823E+02  0.36858487719E+02  0.50179022794E+01  0.50528864495E+02  0.30000014119E+02 0.  0.
        -12    1    1    2    0    0  0.16414561823E+02 -0.36858487719E+02 -0.50179022794E+01  0.40659135505E+02  0.00000000000E+00 0.  1.
         11    1    3    3    0    0 -0.19170626155E+02  0.19103775852E+02 -0.70552882464E+01  0.27968629775E+02  0.51100000000E-03 0. -1.
        -11    1    3    3    0    0  0.38600896175E+00  0.14082849633E+02  0.66034372125E+01  0.15558953692E+02  0.51100000000E-03 0.  1.
        -12    1    3    3    0    0  0.23700553708E+01  0.36718622331E+01  0.54697533133E+01  0.70012810276E+01  0.00000000000E+00 0.  1.
</event>
<event>
 7    1  0.5855569E-013  0.5052886E+02  0.7816164E-02  0.1300439E+00
        -11   -1    0    0    0    0  0.00000000000E+00  0.00000000000E+00  0.45593999997E+02  0.45594000000E+02  0.51100000000E-03 0.  1.
         11   -1    0    0    0    0 -0.00000000000E+00 -0.00000000000E+00 -0.45593999997E+02  0.45594000000E+02  0.51100000000E-03 0. -1.
    9900012    2    1    2    0    0 -0.35972925415E+02  0.89042284382E+01  0.16728085165E+02  0.50528862279E+02  0.30000007382E+02 0.  0.
        -12    1    1    2    0    0  0.35972925415E+02 -0.89042284382E+01 -0.16728085165E+02  0.40659137721E+02  0.00000000000E+00 0.  1.
         11    1    3    3    0    0 -0.15524329277E+02  0.32270654187E+01  0.32294083955E+01  0.16181712813E+02  0.51100000000E-03 0. -1.
        -11    1    3    3    0    0 -0.20214925331E+02  0.32212802257E+00  0.43012825736E+00  0.20222066738E+02  0.51100000000E-03 0.  1.
        -12    1    3    3    0    0 -0.23367080763E+00  0.53550349970E+01  0.13068548512E+02  0.14125082728E+02  0.00000000000E+00 0.  1.
</event>
<event>
 7    1  0.5855569E-013  0.5052886E+02  0.7816164E-02  0.1300439E+00
        -11   -1    0    0    0    0  0.00000000000E+00  0.00000000000E+00  0.45593999997E+02  0.45594000000E+02  0.51100000000E-03 0. -1.
         11   -1    0    0    0    0 -0.00000000000E+00 -0.00000000000E+00 -0.45593999997E+02  0.45594000000E+02  0.51100000000E-03 0.  1.
    9900012    2    1    2    0    0 -0.21053120042E+02 -0.27385318889E+02  0.21447056461E+02  0.50528858531E+02  0.29999995990E+02 0.  0.
        -12    1    1    2    0    0  0.21053120042E+02  0.27385318889E+02 -0.21447056461E+02  0.40659141469E+02  0.00000000000E+00 0.  1.
         11    1    3    3    0    0 -0.14728887264E+02 -0.83890133789E+01  0.19894348265E+02  0.26136196331E+02  0.51100000000E-03 0. -1.
        -11    1    3    3    0    0  0.64078489968E+00  0.13406309279E+01  0.24633633028E+01  0.28768134446E+01  0.51100000000E-03 0.  1.
         12    1    3    3    0    0 -0.69650176775E+01 -0.20336936438E+02 -0.91065510610E+00  0.21515848755E+02  0.00000000000E+00 0. -1.
</event>
<event>
 7    1  0.5855569E-013  0.5052887E+02  0.7816164E-02  0.1300439E+00
        -11   -1    0    0    0    0  0.00000000000E+00  0.00000000000E+00  0.45593999997E+02  0.45594000000E+02  0.51100000000E-03 0. -1.
         11   -1    0    0    0    0 -0.00000000000E+00 -0.00000000000E+00 -0.45593999997E+02  0.45594000000E+02  0.51100000000E-03 0.  1.
    9900012    2    1    2    0    0  0.34435520587E+02 -0.21584500819E+02  0.12121896277E+01  0.50528866249E+02  0.30000019449E+02 0.  0.
        -12    1    1    2    0    0 -0.34435520587E+02  0.21584500819E+02 -0.12121896277E+01  0.40659133751E+02  0.00000000000E+00 0.  1.
         11    1    3    3    0    0  0.74630426136E+00 -0.18099216909E+01  0.23374373003E+00  0.19716548811E+01  0.51100000000E-03 0. -1.
        -11    1    3    3    0    0  0.33235967497E+00  0.32454648352E+01 -0.65661165442E+01  0.73319432406E+01  0.51100000000E-03 0.  1.
         12    1    3    3    0    0  0.33356856651E+02 -0.23020043963E+02  0.75445624419E+01  0.41225268127E+02  0.00000000000E+00 0. -1.
</event>
<event>
 7    1  0.5855569E-013  0.5052887E+02  0.7816164E-02  0.1300439E+00
        -11   -1    0    0    0    0  0.00000000000E+00  0.00000000000E+00  0.45593999997E+02  0.45594000000E+02  0.51100000000E-03 0. -1.
         11   -1    0    0    0    0 -0.00000000000E+00 -0.00000000000E+00 -0.45593999997E+02  0.45594000000E+02  0.51100000000E-03 0.  1.
    9900012    2    1    2    0    0  0.37658080849E+02 -0.81153426652E+01 -0.13006734943E+02  0.50528868262E+02  0.30000025569E+02 0.  0.
        -12    1    1    2    0    0 -0.37658080849E+02  0.81153426652E+01  0.13006734943E+02  0.40659131738E+02  0.00000000000E+00 0.  1.
         11    1    3    3    0    0 -0.85714536900E+00  0.32368779149E+00 -0.27492041848E+01  0.28978605696E+01  0.51100000000E-03 0. -1.
        -11    1    3    3    0    0 -0.39531042260E+00  0.10706879300E+01 -0.73846694873E+01  0.74723481364E+01  0.51100000000E-03 0.  1.
         12    1    3    3    0    0  0.38910536641E+02 -0.95097183867E+01 -0.28728612708E+01  0.40158659556E+02  0.00000000000E+00 0. -1.
</event>
<event>
 7    1  0.5855569E-013  0.5052886E+02  0.7816164E-02  0.1300439E+00
        -11   -1    0    0    0    0  0.00000000000E+00  0.00000000000E+00  0.45593999997E+02  0.45594000000E+02  0.51100000000E-03 0.  1.
         11   -1    0    0    0    0 -0.00000000000E+00 -0.00000000000E+00 -0.45593999997E+02  0.45594000000E+02  0.51100000000E-03 0. -1.
    9900012    2    1    2    0    0 -0.28691522368E+02 -0.23626189450E+02 -0.16485308675E+02  0.50528859751E+02  0.29999999699E+02 0.  0.
        -12    1    1    2    0    0  0.28691522368E+02  0.23626189450E+02  0.16485308675E+02  0.40659140249E+02  0.00000000000E+00 0.  1.
         11    1    3    3    0    0 -0.20945106098E+02 -0.14457381333E+02 -0.16066208735E+02  0.30097116272E+02  0.51100000000E-03 0. -1.
        -11    1    3    3    0    0 -0.11892929627E+02 -0.37249023444E+01 -0.34737884344E+01  0.12937692180E+02  0.51100000000E-03 0.  1.
        -12    1    3    3    0    0  0.41465133575E+01 -0.54439057723E+01  0.30546884949E+01  0.74940512997E+01  0.00000000000E+00 0.  1.
</event>
<event>
 7    1  0.5855569E-013  0.5052885E+02  0.7816164E-02  0.1300439E+00
        -11   -1    0    0    0    0  0.00000000000E+00  0.00000000000E+00  0.45593999997E+02  0.45594000000E+02  0.51100000000E-03 0. -1.
         11   -1    0    0    0    0 -0.00000000000E+00 -0.00000000000E+00 -0.45593999997E+02  0.45594000000E+02  0.51100000000E-03 0.  1.
    9900012    2    1    2    0    0 -0.19737338498E+02 -0.38253951402E+01  0.35340769365E+02  0.50528853941E+02  0.29999982039E+02 0.  0.
        -12    1    1    2    0    0  0.19737338498E+02  0.38253951402E+01 -0.35340769365E+02  0.40659146059E+02  0.00000000000E+00 0.  1.
         11    1    3    3    0    0  0.43107865104E+00 -0.93539024953E+01  0.39264478572E+01  0.10153733980E+02  0.51100000000E-03 0. -1.
        -11    1    3    3    0    0  0.63663504399E+00 -0.18254632977E+01 -0.62118801446E-01  0.19342904221E+01  0.51100000000E-03 0.  1.
        -12    1    3    3    0    0 -0.20805052193E+02  0.73539706528E+01  0.31476440309E+02  0.38440829539E+02  0.00000000000E+00 0.  1.
</event>
<event>
 7    1  0.5855569E-013  0.5052887E+02  0.7816164E-02  0.1300439E+00
        -11   -1    0    0    0    0  0.00000000000E+00  0.00000000000E+00  0.45593999997E+02  0.45594000000E+02  0.51100000000E-03 0.  1.
         11   -1    0    0    0    0 -0.00000000000E+00 -0.00000000000E+00 -0.45593999997E+02  0.45594000000E+02  0.51100000000E-03 0. -1.
    9900012    2    1    2    0    0  0.21474912878E+02 -0.17590883117E+02 -0.29707812725E+02  0.50528865862E+02  0.30000018274E+02 0.  0.
        -12    1    1    2    0    0 -0.21474912878E+02  0.17590883117E+02  0.29707812725E+02  0.40659134138E+02  0.00000000000E+00 0.  1.
         11    1    3    3    0    0  0.24961686540E+01 -0.11839086161E+01  0.33666945315E+01  0.43551268512E+01  0.51100000000E-03 0. -1.
        -11    1    3    3    0    0 -0.22995205967E+01  0.29998512066E+00  0.11169155684E+01  0.25739632272E+01  0.51100000000E-03 0.  1.
         12    1    3    3    0    0  0.21278264820E+02 -0.16706959622E+02 -0.34191422825E+02  0.43599775783E+02  0.00000000000E+00 0. -1.
</event>
<event>
 7    1  0.5855569E-013  0.5052886E+02  0.7816164E-02  0.1300439E+00
        -11   -1    0    0    0    0  0.00000000000E+00  0.00000000000E+00  0.45593999997E+02  0.45594000000E+02  0.51100000000E-03 0.  1.
         11   -1    0    0    0    0 -0.00000000000E+00 -0.00000000000E+00 -0.45593999997E+02  0.45594000000E+02  0.51100000000E-03 0. -1.
    9900012    2    1    2    0    0 -0.35547657146E+02  0.17611280526E+02  0.89091273783E+01  0.50528859810E+02  0.29999999880E+02 0.  0.
        -12    1    1    2    0    0  0.35547657146E+02 -0.17611280526E+02 -0.89091273783E+01  0.40659140190E+02  0.00000000000E+00 0.  1.
         11    1    3    3    0    0 -0.23780458833E+02  0.66705523191E+01  0.15898818070E+02  0.29373098353E+02  0.51100000000E-03 0.  1.
        -11    1    3    3    0    0 -0.13115736738E+02  0.60083772646E+01 -0.31632775926E+01  0.14769206916E+02  0.51100000000E-03 0. -1.
        -12    1    3    3    0    0  0.13485384257E+01  0.49323509424E+01 -0.38264130993E+01  0.63865545414E+01  0.00000000000E+00 0.  1.
</event>
<event>
 7    1  0.5855569E-013  0.5052887E+02  0.7816164E-02  0.1300439E+00
        -11   -1    0    0    0    0  0.00000000000E+00  0.00000000000E+00  0.45593999997E+02  0.45594000000E+02  0.51100000000E-03 0.  1.
         11   -1    0    0    0    0 -0.00000000000E+00 -0.00000000000E+00 -0.45593999997E+02  0.45594000000E+02  0.51100000000E-03 0. -1.
    9900012    2    1    2    0    0  0.10060964861E+02  0.37024689146E+02 -0.13457883631E+02  0.50528865084E+02  0.30000015910E+02 0.  0.
        -12    1    1    2    0    0 -0.10060964861E+02 -0.37024689146E+02  0.13457883631E+02  0.40659134916E+02  0.00000000000E+00 0.  1.
         11    1    3    3    0    0  0.49831426325E+01  0.30159631603E+02 -0.10696531485E+02  0.32385967254E+02  0.51100000000E-03 0. -1.
        -11    1    3    3    0    0  0.40596228016E+01  0.11683950161E+02  0.24689688980E+00  0.12371587893E+02  0.51100000000E-03 0.  1.
        -12    1    3    3    0    0  0.10181994268E+01 -0.48188926175E+01 -0.30082490365E+01  0.57713099377E+01  0.00000000000E+00 0.  1.
</event>
<event>
 7    1  0.5855569E-013  0.5052886E+02  0.7816164E-02  0.1300439E+00
        -11   -1    0    0    0    0  0.00000000000E+00  0.00000000000E+00  0.45593999997E+02  0.45594000000E+02  0.51100000000E-03 0.  1.
         11   -1    0    0    0    0 -0.00000000000E+00 -0.00000000000E+00 -0.45593999997E+02  0.45594000000E+02  0.51100000000E-03 0. -1.
    9900012    2    1    2    0    0  0.11424596688E+02 -0.33271953684E+02 -0.20386795516E+02  0.50528859050E+02  0.29999997567E+02 0.  0.
        -12    1    1    2    0    0 -0.11424596688E+02  0.33271953684E+02  0.20386795516E+02  0.40659140950E+02  0.00000000000E+00 0.  1.
         11    1    3    3    0    0  0.13639261626E+02 -0.83171714234E+01 -0.30852891990E+01  0.16270335212E+02  0.51100000000E-03 0. -1.
        -11    1    3    3    0    0  0.14778528912E+01 -0.78450232383E+01  0.19720688946E+01  0.82229857572E+01  0.51100000000E-03 0.  1.
         12    1    3    3    0    0 -0.36925178296E+01 -0.17109759022E+02 -0.19273575211E+02  0.26035538081E+02  0.00000000000E+00 0. -1.
</event>
<event>
 7    1  0.5855569E-013  0.5052886E+02  0.7816164E-02  0.1300439E+00
        -11   -1    0    0    0    0  0.00000000000E+00  0.00000000000E+00  0.45593999997E+02  0.45594000000E+02  0.51100000000E-03 0. -1.
         11   -1    0    0    0    0 -0.00000000000E+00 -0.00000000000E+00 -0.45593999997E+02  0.45594000000E+02  0.51100000000E-03 0.  1.
    9900012    2    1    2    0    0 -0.28007513930E+01  0.31602956842E+02  0.25427835121E+02  0.50528857258E+02  0.29999992123E+02 0.  0.
        -12    1    1    2    0    0  0.28007513930E+01 -0.31602956842E+02 -0.25427835121E+02  0.40659142742E+02  0.00000000000E+00 0.  1.
         11    1    3    3    0    0 -0.36460049916E+01  0.80374898778E+01  0.44062489414E+01  0.98645641531E+01  0.51100000000E-03 0. -1.
        -11    1    3    3    0    0 -0.12229348267E+02  0.11231610234E+02  0.12434780184E+02  0.20744391675E+02  0.51100000000E-03 0.  1.
        -12    1    3    3    0    0  0.13074601866E+02  0.12333856730E+02  0.85868059959E+01  0.19919901430E+02  0.00000000000E+00 0.  1.
</event>
<event>
 7    1  0.5855569E-013  0.5052883E+02  0.7816164E-02  0.1300439E+00
        -11   -1    0    0    0    0  0.00000000000E+00  0.00000000000E+00  0.45593999997E+02  0.45594000000E+02  0.51100000000E-03 0.  1.
         11   -1    0    0    0    0 -0.00000000000E+00 -0.00000000000E+00 -0.45593999997E+02  0.45594000000E+02  0.51100000000E-03 0. -1.
    9900012    2    1    2    0    0 -0.13479769254E+02 -0.16418669802E+02 -0.34668304789E+02  0.50528828167E+02  0.29999903696E+02 0.  0.
        -12    1    1    2    0    0  0.13479769254E+02  0.16418669802E+02  0.34668304789E+02  0.40659171833E+02  0.00000000000E+00 0.  1.
         11    1    3    3    0    0  0.56890525837E+01 -0.19062369171E+01 -0.16807424315E+02  0.17846248089E+02  0.51100000000E-03 0. -1.
        -11    1    3    3    0    0 -0.53789982855E+00 -0.59621631455E+01 -0.78426072555E+01  0.98662664886E+01  0.51100000000E-03 0.  1.
        -12    1    3    3    0    0 -0.18630922009E+02 -0.85502697392E+01 -0.10018273219E+02  0.22816313589E+02  0.00000000000E+00 0.  1.
</event>
<event>
 7    1  0.5855569E-013  0.5052886E+02  0.7816164E-02  0.1300439E+00
        -11   -1    0    0    0    0  0.00000000000E+00  0.00000000000E+00  0.45593999997E+02  0.45594000000E+02  0.51100000000E-03 0.  1.
         11   -1    0    0    0    0 -0.00000000000E+00 -0.00000000000E+00 -0.45593999997E+02  0.45594000000E+02  0.51100000000E-03 0. -1.
    9900012    2    1    2    0    0  0.17927734690E+02 -0.34183138112E+02  0.12777909708E+02  0.50528861067E+02  0.30000003699E+02 0.  0.
        -12    1    1    2    0    0 -0.17927734690E+02  0.34183138112E+02 -0.12777909708E+02  0.40659138933E+02  0.00000000000E+00 0.  1.
         11    1    3    3    0    0 -0.66328765334E+01 -0.27470798284E+01  0.27502125916E+01  0.76879885699E+01  0.51100000000E-03 0. -1.
        -11    1    3    3    0    0  0.36648835366E+01  0.15443646789E+00  0.32643044214E-01  0.36682813127E+01  0.51100000000E-03 0.  1.
         12    1    3    3    0    0  0.20895727687E+02 -0.31590494751E+02  0.99950540717E+01  0.39172591184E+02  0.00000000000E+00 0. -1.
</event>
<event>
 7    1  0.5855569E-013  0.5052886E+02  0.7816164E-02  0.1300439E+00
        -11   -1    0    0    0    0  0.00000000000E+00  0.00000000000E+00  0.45593999997E+02  0.45594000000E+02  0.51100000000E-03 0. -1.
         11   -1    0    0    0    0 -0.00000000000E+00 -0.00000000000E+00 -0.45593999997E+02  0.45594000000E+02  0.51100000000E-03 0.  1.
    9900012    2    1    2    0    0  0.17964010952E+02 -0.87311264581E+01  0.35415070521E+02  0.50528862297E+02  0.30000007438E+02 0.  0.
        -12    1    1    2    0    0 -0.17964010952E+02  0.87311264581E+01 -0.35415070521E+02  0.40659137703E+02  0.00000000000E+00 0.  1.
         11    1    3    3    0    0  0.46568763312E+01  0.31421091913E+01  0.46343679894E+00  0.56368538443E+01  0.51100000000E-03 0. -1.
        -11    1    3    3    0    0  0.20991856301E+01  0.11587687367E+01 -0.26343301820E+01  0.35621652213E+01  0.51100000000E-03 0.  1.
         12    1    3    3    0    0  0.11207948991E+02 -0.13032004386E+02  0.37585963904E+02  0.41329843231E+02  0.00000000000E+00 0. -1.
</event>
<event>
 7    1  0.5855569E-013  0.5052895E+02  0.7816164E-02  0.1300438E+00
        -11   -1    0    0    0    0  0.00000000000E+00  0.00000000000E+00  0.45593999997E+02  0.45594000000E+02  0.51100000000E-03 0.  1.
         11   -1    0    0    0    0 -0.00000000000E+00 -0.00000000000E+00 -0.45593999997E+02  0.45594000000E+02  0.51100000000E-03 0. -1.
    9900012    2    1    2    0    0  0.16730637738E+02  0.35553316338E+02 -0.10450139569E+02  0.50528954773E+02  0.30000288527E+02 0.  0.
        -12    1    1    2    0    0 -0.16730637738E+02 -0.35553316338E+02  0.10450139569E+02  0.40659045227E+02  0.00000000000E+00 0.  1.
         11    1    3    3    0    0  0.20842188776E+00  0.13420486122E+02 -0.20774922679E+01  0.13581931447E+02  0.51100000000E-03 0. -1.
        -11    1    3    3    0    0  0.42288834251E-01  0.10846891063E+02  0.59470758007E+01  0.12370309007E+02  0.51100000000E-03 0.  1.
         12    1    3    3    0    0  0.16479927016E+02  0.11285939152E+02 -0.14319723102E+02  0.24576714319E+02  0.00000000000E+00 0. -1.
</event>
<event>
 7    1  0.5855569E-013  0.5052886E+02  0.7816164E-02  0.1300439E+00
        -11   -1    0    0    0    0  0.00000000000E+00  0.00000000000E+00  0.45593999997E+02  0.45594000000E+02  0.51100000000E-03 0. -1.
         11   -1    0    0    0    0 -0.00000000000E+00 -0.00000000000E+00 -0.45593999997E+02  0.45594000000E+02  0.51100000000E-03 0.  1.
    9900012    2    1    2    0    0  0.37913334913E+01 -0.26207761059E+02  0.30853597982E+02  0.50528862554E+02  0.30000008221E+02 0.  0.
        -12    1    1    2    0    0 -0.37913334913E+01  0.26207761059E+02 -0.30853597982E+02  0.40659137446E+02  0.00000000000E+00 0.  1.
         11    1    3    3    0    0  0.76196049292E+01 -0.85152324873E+01  0.99290079600E+01  0.15137792538E+02  0.51100000000E-03 0. -1.
        -11    1    3    3    0    0 -0.33565210991E+01 -0.20258094642E+02  0.77299265458E+01  0.21941020876E+02  0.51100000000E-03 0.  1.
        -12    1    3    3    0    0 -0.47175033885E+00  0.25655660698E+01  0.13194663476E+02  0.13450049141E+02  0.00000000000E+00 0.  1.
</event>
<event>
 7    1  0.5855569E-013  0.5052885E+02  0.7816164E-02  0.1300439E+00
        -11   -1    0    0    0    0  0.00000000000E+00  0.00000000000E+00  0.45593999997E+02  0.45594000000E+02  0.51100000000E-03 0. -1.
         11   -1    0    0    0    0 -0.00000000000E+00 -0.00000000000E+00 -0.45593999997E+02  0.45594000000E+02  0.51100000000E-03 0.  1.
    9900012    2    1    2    0    0 -0.19580116781E+02 -0.35502088752E+02  0.30638051769E+01  0.50528853660E+02  0.29999981186E+02 0.  0.
        -12    1    1    2    0    0  0.19580116781E+02  0.35502088752E+02 -0.30638051769E+01  0.40659146340E+02  0.00000000000E+00 0.  1.
         11    1    3    3    0    0 -0.17471221758E+02 -0.16612197579E+02 -0.28824221591E+01  0.24279972321E+02  0.51100000000E-03 0. -1.
        -11    1    3    3    0    0 -0.34404914687E+01 -0.16583874033E+01 -0.46181860939E+01  0.59929019168E+01  0.51100000000E-03 0.  1.
         12    1    3    3    0    0  0.13315964461E+01 -0.17231503770E+02  0.10564413430E+02  0.20255979423E+02  0.00000000000E+00 0. -1.
</event>
<event>
 7    1  0.5855569E-013  0.5052888E+02  0.7816164E-02  0.1300439E+00
        -11   -1    0    0    0    0  0.00000000000E+00  0.00000000000E+00  0.45593999997E+02  0.45594000000E+02  0.51100000000E-03 0. -1.
         11   -1    0    0    0    0 -0.00000000000E+00 -0.00000000000E+00 -0.45593999997E+02  0.45594000000E+02  0.51100000000E-03 0.  1.
    9900012    2    1    2    0    0 -0.77236335401E+01 -0.78748628344E+01  0.39134330709E+02  0.50528882698E+02  0.30000069448E+02 0.  0.
        -12    1    1    2    0    0  0.77236335401E+01  0.78748628344E+01 -0.39134330709E+02  0.40659117302E+02  0.00000000000E+00 0.  1.
         11    1    3    3    0    0 -0.46247964174E+00 -0.12355619890E+01  0.71213905208E+01  0.72425619817E+01  0.51100000000E-03 0. -1.
        -11    1    3    3    0    0  0.33616615003E+01  0.50981054145E+01  0.25410481748E+02  0.26133963147E+02  0.51100000000E-03 0.  1.
         12    1    3    3    0    0 -0.10622815399E+02 -0.11737406260E+02  0.66024584409E+01  0.17152357569E+02  0.00000000000E+00 0. -1.
</event>
<event>
 7    1  0.5855569E-013  0.5052886E+02  0.7816164E-02  0.1300439E+00
        -11   -1    0    0    0    0  0.00000000000E+00  0.00000000000E+00  0.45593999997E+02  0.45594000000E+02  0.51100000000E-03 0.  1.
         11   -1    0    0    0    0 -0.00000000000E+00 -0.00000000000E+00 -0.45593999997E+02  0.45594000000E+02  0.51100000000E-03 0. -1.
    9900012    2    1    2    0    0  0.98049019586E+01 -0.18814333393E+02 -0.34685014049E+02  0.50528862736E+02  0.30000008773E+02 0.  0.
        -12    1    1    2    0    0 -0.98049019586E+01  0.18814333393E+02  0.34685014049E+02  0.40659137264E+02  0.00000000000E+00 0.  1.
         11    1    3    3    0    0 -0.19490875236E+01 -0.58544033747E+00 -0.23084524951E+01  0.30774398039E+01  0.51100000000E-03 0. -1.
        -11    1    3    3    0    0 -0.82612587162E+00 -0.86872057052E+00  0.45757242724E+01  0.47301598560E+01  0.51100000000E-03 0.  1.
         12    1    3    3    0    0  0.12580115354E+02 -0.17360172485E+02 -0.36952285826E+02  0.42721263076E+02  0.00000000000E+00 0. -1.
</event>
<event>
 7    1  0.5855569E-013  0.5052886E+02  0.7816164E-02  0.1300439E+00
        -11   -1    0    0    0    0  0.00000000000E+00  0.00000000000E+00  0.45593999997E+02  0.45594000000E+02  0.51100000000E-03 0. -1.
         11   -1    0    0    0    0 -0.00000000000E+00 -0.00000000000E+00 -0.45593999997E+02  0.45594000000E+02  0.51100000000E-03 0.  1.
    9900012    2    1    2    0    0  0.72586360098E+01  0.35346144844E+02  0.18738397965E+02  0.50528864368E+02  0.30000013732E+02 0.  0.
        -12    1    1    2    0    0 -0.72586360098E+01 -0.35346144844E+02 -0.18738397965E+02  0.40659135632E+02  0.00000000000E+00 0.  1.
         11    1    3    3    0    0  0.86894548474E+01  0.22654288045E+02  0.10278756265E+02  0.26351019392E+02  0.51100000000E-03 0. -1.
        -11    1    3    3    0    0 -0.10038969514E+01  0.17632750821E+02  0.60929797556E+01  0.18682775842E+02  0.51100000000E-03 0.  1.
        -12    1    3    3    0    0 -0.42692188610E+00 -0.49408940213E+01  0.23666619450E+01  0.54950691341E+01  0.00000000000E+00 0.  1.
</event>
<event>
 7    1  0.5855569E-013  0.5052886E+02  0.7816164E-02  0.1300439E+00
        -11   -1    0    0    0    0  0.00000000000E+00  0.00000000000E+00  0.45593999997E+02  0.45594000000E+02  0.51100000000E-03 0.  1.
         11   -1    0    0    0    0 -0.00000000000E+00 -0.00000000000E+00 -0.45593999997E+02  0.45594000000E+02  0.51100000000E-03 0. -1.
    9900012    2    1    2    0    0 -0.93361913613E+01 -0.14563448664E+02 -0.36795479758E+02  0.50528857894E+02  0.29999994056E+02 0.  0.
        -12    1    1    2    0    0  0.93361913613E+01  0.14563448664E+02  0.36795479758E+02  0.40659142106E+02  0.00000000000E+00 0.  1.
         11    1    3    3    0    0  0.21653965112E+01 -0.38258205407E+01 -0.16707477562E+02  0.17276158474E+02  0.51100000000E-03 0. -1.
        -11    1    3    3    0    0 -0.29626719001E+01 -0.48616648272E+01 -0.21989360321E+02  0.22714426633E+02  0.51100000000E-03 0.  1.
        -12    1    3    3    0    0 -0.85389159724E+01 -0.58759632958E+01  0.19013581243E+01  0.10538272788E+02  0.00000000000E+00 0.  1.
</event>
<event>
 7    1  0.5855569E-013  0.5052885E+02  0.7816164E-02  0.1300439E+00
        -11   -1    0    0    0    0  0.00000000000E+00  0.00000000000E+00  0.45593999997E+02  0.45594000000E+02  0.51100000000E-03 0.  1.
         11   -1    0    0    0    0 -0.00000000000E+00 -0.00000000000E+00 -0.45593999997E+02  0.45594000000E+02  0.51100000000E-03 0. -1.
    9900012    2    1    2    0    0  0.13938714661E+02 -0.36950321535E+02 -0.96722308002E+01  0.50528854945E+02  0.29999985090E+02 0.  0.
        -12    1    1    2    0    0 -0.13938714661E+02  0.36950321535E+02  0.96722308002E+01  0.40659145055E+02  0.00000000000E+00 0.  1.
         11    1    3    3    0    0  0.16502181451E+02 -0.12414944856E+02 -0.94803127112E+01  0.22722877850E+02  0.51100000000E-03 0. -1.
        -11    1    3    3    0    0  0.29913765601E+01 -0.17344735262E+02 -0.38397059770E+01  0.18014758319E+02  0.51100000000E-03 0.  1.
        -12    1    3    3    0    0 -0.55548433505E+01 -0.71906414173E+01  0.36477878880E+01  0.97912187758E+01  0.00000000000E+00 0.  1.
</event>
<event>
 7    1  0.5855569E-013  0.5052886E+02  0.7816164E-02  0.1300439E+00
        -11   -1    0    0    0    0  0.00000000000E+00  0.00000000000E+00  0.45593999997E+02  0.45594000000E+02  0.51100000000E-03 0.  1.
         11   -1    0    0    0    0 -0.00000000000E+00 -0.00000000000E+00 -0.45593999997E+02  0.45594000000E+02  0.51100000000E-03 0. -1.
    9900012    2    1    2    0    0 -0.12904882081E+02  0.35895559436E+02 -0.14076174592E+02  0.50528857610E+02  0.29999993190E+02 0.  0.
        -12    1    1    2    0    0  0.12904882081E+02 -0.35895559436E+02  0.14076174592E+02  0.40659142390E+02  0.00000000000E+00 0.  1.
         11    1    3    3    0    0 -0.95283957524E+01  0.19969949618E+02  0.62326551751E+01  0.22987718550E+02  0.51100000000E-03 0. -1.
        -11    1    3    3    0    0 -0.58898258588E+01  0.78239500264E+01 -0.13422228619E+02  0.16615067379E+02  0.51100000000E-03 0.  1.
        -12    1    3    3    0    0  0.25133395303E+01  0.81016597924E+01 -0.68866011482E+01  0.10926071680E+02  0.00000000000E+00 0.  1.
</event>
<event>
 7    1  0.5855569E-013  0.5052886E+02  0.7816164E-02  0.1300439E+00
        -11   -1    0    0    0    0  0.00000000000E+00  0.00000000000E+00  0.45593999997E+02  0.45594000000E+02  0.51100000000E-03 0. -1.
         11   -1    0    0    0    0 -0.00000000000E+00 -0.00000000000E+00 -0.45593999997E+02  0.45594000000E+02  0.51100000000E-03 0.  1.
    9900012    2    1    2    0    0 -0.23132645226E+02 -0.29939600069E+02  0.14888482593E+02  0.50528857838E+02  0.29999993884E+02 0.  0.
        -12    1    1    2    0    0  0.23132645226E+02  0.29939600069E+02 -0.14888482593E+02  0.40659142162E+02  0.00000000000E+00 0.  1.
         11    1    3    3    0    0 -0.89951679182E+01 -0.46050945708E+01  0.16686864284E+02  0.19508238817E+02  0.51100000000E-03 0. -1.
        -11    1    3    3    0    0 -0.41520328446E+01 -0.74590275404E+01  0.44314819765E+01  0.96184458911E+01  0.51100000000E-03 0.  1.
        -12    1    3    3    0    0 -0.99854444633E+01 -0.17875477958E+02 -0.62298636674E+01  0.21402173129E+02  0.00000000000E+00 0.  1.
</event>
<event>
 7    1  0.5855569E-013  0.5052886E+02  0.7816164E-02  0.1300439E+00
        -11   -1    0    0    0    0  0.00000000000E+00  0.00000000000E+00  0.45593999997E+02  0.45594000000E+02  0.51100000000E-03 0.  1.
         11   -1    0    0    0    0 -0.00000000000E+00 -0.00000000000E+00 -0.45593999997E+02  0.45594000000E+02  0.51100000000E-03 0. -1.
    9900012    2    1    2    0    0  0.21101028409E+02  0.16884134944E+02 -0.30378250144E+02  0.50528862102E+02  0.30000006847E+02 0.  0.
        -12    1    1    2    0    0 -0.21101028409E+02 -0.16884134944E+02  0.30378250144E+02  0.40659137898E+02  0.00000000000E+00 0.  1.
         11    1    3    3    0    0 -0.11856188285E+01  0.82846312216E+01 -0.78408726609E+01  0.11468220909E+02  0.51100000000E-03 0. -1.
        -11    1    3    3    0    0 -0.31507445433E+01 -0.25890001924E+01 -0.35208855756E+01  0.53876477864E+01  0.51100000000E-03 0.  1.
        -12    1    3    3    0    0  0.25437391781E+02  0.11188503915E+02 -0.19016491908E+02  0.33672993407E+02  0.00000000000E+00 0.  1.
</event>
<event>
 7    1  0.5855569E-013  0.5052885E+02  0.7816164E-02  0.1300439E+00
        -11   -1    0    0    0    0  0.00000000000E+00  0.00000000000E+00  0.45593999997E+02  0.45594000000E+02  0.51100000000E-03 0. -1.
         11   -1    0    0    0    0 -0.00000000000E+00 -0.00000000000E+00 -0.45593999997E+02  0.45594000000E+02  0.51100000000E-03 0.  1.
    9900012    2    1    2    0    0 -0.30419231439E+02 -0.26003325683E+02 -0.71877613740E+01  0.50528849720E+02  0.29999969209E+02 0.  0.
        -12    1    1    2    0    0  0.30419231439E+02  0.26003325683E+02  0.71877613740E+01  0.40659150280E+02  0.00000000000E+00 0.  1.
         11    1    3    3    0    0  0.28885536635E+01 -0.76144482937E+01 -0.11266333439E+01  0.82214881887E+01  0.51100000000E-03 0. -1.
        -11    1    3    3    0    0  0.11968581785E+01 -0.11819392713E+01 -0.32357995926E+01  0.36468958314E+01  0.51100000000E-03 0.  1.
        -12    1    3    3    0    0 -0.34504643281E+02 -0.17206938118E+02 -0.28253284375E+01  0.38660465700E+02  0.00000000000E+00 0.  1.
</event>
<event>
 7    1  0.5855569E-013  0.5052884E+02  0.7816164E-02  0.1300439E+00
        -11   -1    0    0    0    0  0.00000000000E+00  0.00000000000E+00  0.45593999997E+02  0.45594000000E+02  0.51100000000E-03 0.  1.
         11   -1    0    0    0    0 -0.00000000000E+00 -0.00000000000E+00 -0.45593999997E+02  0.45594000000E+02  0.51100000000E-03 0. -1.
    9900012    2    1    2    0    0  0.31079976121E+02  0.23549245557E+02 -0.11516745185E+02  0.50528839880E+02  0.29999939299E+02 0.  0.
        -12    1    1    2    0    0 -0.31079976121E+02 -0.23549245557E+02  0.11516745185E+02  0.40659160120E+02  0.00000000000E+00 0.  1.
         11    1    3    3    0    0  0.13171378196E+02  0.19522337707E+02 -0.85538966765E+01  0.25055458921E+02  0.51100000000E-03 0. -1.
        -11    1    3    3    0    0 -0.14037049108E+01  0.22139373469E+01 -0.53226316029E+01  0.59331537562E+01  0.51100000000E-03 0.  1.
         12    1    3    3    0    0  0.19312302836E+02  0.18129705033E+01  0.23597830943E+01  0.19540227203E+02  0.00000000000E+00 0. -1.
</event>
<event>
 7    1  0.5855569E-013  0.5052888E+02  0.7816164E-02  0.1300439E+00
        -11   -1    0    0    0    0  0.00000000000E+00  0.00000000000E+00  0.45593999997E+02  0.45594000000E+02  0.51100000000E-03 0.  1.
         11   -1    0    0    0    0 -0.00000000000E+00 -0.00000000000E+00 -0.45593999997E+02  0.45594000000E+02  0.51100000000E-03 0. -1.
    9900012    2    1    2    0    0 -0.14759599018E+02  0.35317841654E+02  0.13710143380E+02  0.50528883755E+02  0.30000072663E+02 0.  0.
        -12    1    1    2    0    0  0.14759599018E+02 -0.35317841654E+02 -0.13710143380E+02  0.40659116245E+02  0.00000000000E+00 0.  1.
         11    1    3    3    0    0  0.35604926767E+00  0.12123222575E+02  0.67089931051E+01  0.13860371043E+02  0.51100000000E-03 0. -1.
        -11    1    3    3    0    0 -0.37896169139E+01  0.18441367924E+02  0.13118507964E+02  0.22946470289E+02  0.51100000000E-03 0.  1.
        -12    1    3    3    0    0 -0.11326031372E+02  0.47532511550E+01 -0.61173576892E+01  0.13722042424E+02  0.00000000000E+00 0.  1.
</event>
<event>
 7    1  0.5855569E-013  0.5052886E+02  0.7816164E-02  0.1300439E+00
        -11   -1    0    0    0    0  0.00000000000E+00  0.00000000000E+00  0.45593999997E+02  0.45594000000E+02  0.51100000000E-03 0.  1.
         11   -1    0    0    0    0 -0.00000000000E+00 -0.00000000000E+00 -0.45593999997E+02  0.45594000000E+02  0.51100000000E-03 0. -1.
    9900012    2    1    2    0    0  0.13419779418E+02  0.36324218207E+02 -0.12394614236E+02  0.50528858715E+02  0.29999996550E+02 0.  0.
        -12    1    1    2    0    0 -0.13419779418E+02 -0.36324218207E+02  0.12394614236E+02  0.40659141285E+02  0.00000000000E+00 0.  1.
         11    1    3    3    0    0  0.85121703125E+01  0.30820192407E+02 -0.11690133400E+02  0.34044096736E+02  0.51100000000E-03 0. -1.
        -11    1    3    3    0    0  0.38164652807E+01  0.96000352749E+01 -0.40381980385E+01  0.11092029940E+02  0.51100000000E-03 0.  1.
        -12    1    3    3    0    0  0.10911438248E+01 -0.40960094745E+01  0.33337172025E+01  0.53927320393E+01  0.00000000000E+00 0.  1.
</event>
<event>
 7    1  0.5855569E-013  0.5052885E+02  0.7816164E-02  0.1300439E+00
        -11   -1    0    0    0    0  0.00000000000E+00  0.00000000000E+00  0.45593999997E+02  0.45594000000E+02  0.51100000000E-03 0.  1.
         11   -1    0    0    0    0 -0.00000000000E+00 -0.00000000000E+00 -0.45593999997E+02  0.45594000000E+02  0.51100000000E-03 0. -1.
    9900012    2    1    2    0    0  0.33408959198E+02  0.12781625701E+02 -0.19329708582E+02  0.50528854115E+02  0.29999982567E+02 0.  0.
        -12    1    1    2    0    0 -0.33408959198E+02 -0.12781625701E+02  0.19329708582E+02  0.40659145885E+02  0.00000000000E+00 0.  1.
         11    1    3    3    0    0  0.27569521730E+02  0.17415200558E+02 -0.12505166534E+02  0.34924875507E+02  0.51100000000E-03 0.  1.
        -11    1    3    3    0    0 -0.51539838502E+00 -0.17872077333E+00 -0.77670469360E+01  0.77861797421E+01  0.51100000000E-03 0. -1.
        -12    1    3    3    0    0  0.63548358536E+01 -0.44548540843E+01  0.94250488780E+00  0.78177988655E+01  0.00000000000E+00 0.  1.
</event>
<event>
 7    1  0.5855569E-013  0.5052885E+02  0.7816164E-02  0.1300439E+00
        -11   -1    0    0    0    0  0.00000000000E+00  0.00000000000E+00  0.45593999997E+02  0.45594000000E+02  0.51100000000E-03 0. -1.
         11   -1    0    0    0    0 -0.00000000000E+00 -0.00000000000E+00 -0.45593999997E+02  0.45594000000E+02  0.51100000000E-03 0.  1.
    9900012    2    1    2    0    0 -0.28505740653E+02 -0.38869945115E+01  0.28731181462E+02  0.50528846483E+02  0.29999959370E+02 0.  0.
        -12    1    1    2    0    0  0.28505740653E+02  0.38869945115E+01 -0.28731181462E+02  0.40659153517E+02  0.00000000000E+00 0.  1.
         11    1    3    3    0    0 -0.17136743646E+02  0.39336846576E+00  0.73866805617E+01  0.18665095005E+02  0.51100000000E-03 0. -1.
        -11    1    3    3    0    0 -0.14537817014E+02 -0.51120664992E+01  0.66079408387E+01  0.16767415717E+02  0.51100000000E-03 0.  1.
        -12    1    3    3    0    0  0.31688200072E+01  0.83170352200E+00  0.14736560061E+02  0.15096335762E+02  0.00000000000E+00 0.  1.
</event>
<event>
 7    1  0.5855569E-013  0.5052886E+02  0.7816164E-02  0.1300439E+00
        -11   -1    0    0    0    0  0.00000000000E+00  0.00000000000E+00  0.45593999997E+02  0.45594000000E+02  0.51100000000E-03 0.  1.
         11   -1    0    0    0    0 -0.00000000000E+00 -0.00000000000E+00 -0.45593999997E+02  0.45594000000E+02  0.51100000000E-03 0. -1.
    9900012    2    1    2    0    0 -0.40487648942E+02  0.32377596707E+01  0.18529036794E+01  0.50528855191E+02  0.29999985838E+02 0.  0.
        -12    1    1    2    0    0  0.40487648942E+02 -0.32377596707E+01 -0.18529036794E+01  0.40659144809E+02  0.00000000000E+00 0.  1.
         11    1    3    3    0    0 -0.52307507986E+01 -0.70522639211E+01 -0.10860070431E+01  0.88472929130E+01  0.51100000000E-03 0. -1.
        -11    1    3    3    0    0 -0.23264452600E+01 -0.34139711711E+01 -0.35270702192E+01  0.54321056043E+01  0.51100000000E-03 0.  1.
         12    1    3    3    0    0 -0.32930452884E+02  0.13703994763E+02  0.64659809416E+01  0.36249456674E+02  0.00000000000E+00 0. -1.
</event>
<event>
 7    1  0.5855569E-013  0.5052886E+02  0.7816164E-02  0.1300439E+00
        -11   -1    0    0    0    0  0.00000000000E+00  0.00000000000E+00  0.45593999997E+02  0.45594000000E+02  0.51100000000E-03 0.  1.
         11   -1    0    0    0    0 -0.00000000000E+00 -0.00000000000E+00 -0.45593999997E+02  0.45594000000E+02  0.51100000000E-03 0. -1.
    9900012    2    1    2    0    0 -0.58702253213E+01  0.24160754545E+01 -0.40160536414E+02  0.50528860179E+02  0.30000001000E+02 0.  0.
        -12    1    1    2    0    0  0.58702253213E+01 -0.24160754545E+01  0.40160536414E+02  0.40659139821E+02  0.00000000000E+00 0.  1.
         11    1    3    3    0    0 -0.63785561774E+00 -0.20818813176E+01 -0.32443820823E+01  0.39073142907E+01  0.51100000000E-03 0. -1.
        -11    1    3    3    0    0 -0.96174238299E+00 -0.75118780509E+01 -0.32122916439E+02  0.33003560734E+02  0.51100000000E-03 0.  1.
        -12    1    3    3    0    0 -0.42706273206E+01  0.12009834823E+02 -0.47932378922E+01  0.13617985155E+02  0.00000000000E+00 0.  1.
</event>
<event>
 7    1  0.5855569E-013  0.5052886E+02  0.7816164E-02  0.1300439E+00
        -11   -1    0    0    0    0  0.00000000000E+00  0.00000000000E+00  0.45593999997E+02  0.45594000000E+02  0.51100000000E-03 0.  1.
         11   -1    0    0    0    0 -0.00000000000E+00 -0.00000000000E+00 -0.45593999997E+02  0.45594000000E+02  0.51100000000E-03 0. -1.
    9900012    2    1    2    0    0 -0.23231909204E+02  0.33305883260E+02 -0.20400936933E+01  0.50528862685E+02  0.30000008616E+02 0.  0.
        -12    1    1    2    0    0  0.23231909204E+02 -0.33305883260E+02  0.20400936933E+01  0.40659137315E+02  0.00000000000E+00 0.  1.
         11    1    3    3    0    0  0.10125765800E+01 -0.21109290460E+00  0.28962267709E+01  0.30753863683E+01  0.51100000000E-03 0. -1.
        -11    1    3    3    0    0  0.32800114358E+00  0.14911348717E+02  0.38500901057E+01  0.15403866378E+02  0.51100000000E-03 0.  1.
         12    1    3    3    0    0 -0.24572486927E+02  0.18605627447E+02 -0.87864105699E+01  0.32049609938E+02  0.00000000000E+00 0. -1.
</event>
<event>
 7    1  0.5855569E-013  0.5052885E+02  0.7816164E-02  0.1300439E+00
        -11   -1    0    0    0    0  0.00000000000E+00  0.00000000000E+00  0.45593999997E+02  0.45594000000E+02  0.51100000000E-03 0. -1.
         11   -1    0    0    0    0 -0.00000000000E+00 -0.00000000000E+00 -0.45593999997E+02  0.45594000000E+02  0.51100000000E-03 0.  1.
    9900012    2    1    2    0    0  0.93856804971E+00 -0.37031427837E+02  0.16761834403E+02  0.50528847891E+02  0.29999963651E+02 0.  0.
        -12    1    1    2    0    0 -0.93856804971E+00  0.37031427837E+02 -0.16761834403E+02  0.40659152109E+02  0.00000000000E+00 0.  1.
         11    1    3    3    0    0  0.20372844044E+01 -0.26299759080E+02  0.15029216426E+02  0.30359598187E+02  0.51100000000E-03 0. -1.
        -11    1    3    3    0    0  0.67539730551E+01 -0.34155844418E+01  0.48547345948E+01  0.89917082556E+01  0.51100000000E-03 0.  1.
         12    1    3    3    0    0 -0.78526894097E+01 -0.73160843150E+01 -0.31221166177E+01  0.11177541449E+02  0.00000000000E+00 0. -1.
</event>
<event>
 7    1  0.5855569E-013  0.5052883E+02  0.7816164E-02  0.1300439E+00
        -11   -1    0    0    0    0  0.00000000000E+00  0.00000000000E+00  0.45593999997E+02  0.45594000000E+02  0.51100000000E-03 0.  1.
         11   -1    0    0    0    0 -0.00000000000E+00 -0.00000000000E+00 -0.45593999997E+02  0.45594000000E+02  0.51100000000E-03 0. -1.
    9900012    2    1    2    0    0  0.10377498673E+01 -0.37217470309E+02 -0.16338632610E+02  0.50528832072E+02  0.29999915567E+02 0.  0.
        -12    1    1    2    0    0 -0.10377498673E+01  0.37217470309E+02  0.16338632610E+02  0.40659167928E+02  0.00000000000E+00 0.  1.
         11    1    3    3    0    0 -0.12067793443E+01 -0.14504313367E+02  0.11978708955E+01  0.14603640559E+02  0.51100000000E-03 0. -1.
        -11    1    3    3    0    0 -0.37137595802E+01  0.31152074105E+01 -0.27623044302E+01  0.55791445094E+01  0.51100000000E-03 0.  1.
         12    1    3    3    0    0  0.59582887919E+01 -0.25828364353E+02 -0.14774199075E+02  0.30346047004E+02  0.00000000000E+00 0. -1.
</event>
<event>
 7    1  0.5855569E-013  0.5052888E+02  0.7816164E-02  0.1300439E+00
        -11   -1    0    0    0    0  0.00000000000E+00  0.00000000000E+00  0.45593999997E+02  0.45594000000E+02  0.51100000000E-03 0.  1.
         11   -1    0    0    0    0 -0.00000000000E+00 -0.00000000000E+00 -0.45593999997E+02  0.45594000000E+02  0.51100000000E-03 0. -1.
    9900012    2    1    2    0    0 -0.21753447265E+02  0.19168415838E+02 -0.28504800344E+02  0.50528877083E+02  0.30000052382E+02 0.  0.
        -12    1    1    2    0    0  0.21753447265E+02 -0.19168415838E+02  0.28504800344E+02  0.40659122917E+02  0.00000000000E+00 0.  1.
         11    1    3    3    0    0 -0.14472903868E+02  0.13865013319E+02 -0.49801813455E+01  0.20652015573E+02  0.51100000000E-03 0. -1.
        -11    1    3    3    0    0 -0.72846187406E+01  0.17958681520E+01 -0.15974121548E+01  0.76708890272E+01  0.51100000000E-03 0.  1.
         12    1    3    3    0    0  0.40753432368E-02  0.35075343671E+01 -0.21927206844E+02  0.22205972483E+02  0.00000000000E+00 0. -1.
</event>
<event>
 7    1  0.5855569E-013  0.5052885E+02  0.7816164E-02  0.1300439E+00
        -11   -1    0    0    0    0  0.00000000000E+00  0.00000000000E+00  0.45593999997E+02  0.45594000000E+02  0.51100000000E-03 0.  1.
         11   -1    0    0    0    0 -0.00000000000E+00 -0.00000000000E+00 -0.45593999997E+02  0.45594000000E+02  0.51100000000E-03 0. -1.
    9900012    2    1    2    0    0  0.13948421746E+02 -0.10746184975E+02 -0.36648699094E+02  0.50528854583E+02  0.29999983991E+02 0.  0.
        -12    1    1    2    0    0 -0.13948421746E+02  0.10746184975E+02  0.36648699094E+02  0.40659145417E+02  0.00000000000E+00 0.  1.
         11    1    3    3    0    0  0.57687489245E+01 -0.26339611554E+00 -0.11083362713E+01  0.58801574144E+01  0.51100000000E-03 0.  1.
        -11    1    3    3    0    0  0.15025959593E+02 -0.77810568226E+01 -0.14250181227E+02  0.22122205411E+02  0.51100000000E-03 0. -1.
         12    1    3    3    0    0 -0.68462867713E+01 -0.27017320368E+01 -0.21290181596E+02  0.22526491758E+02  0.00000000000E+00 0. -1.
</event>
<event>
 7    1  0.5855569E-013  0.5052886E+02  0.7816164E-02  0.1300439E+00
        -11   -1    0    0    0    0  0.00000000000E+00  0.00000000000E+00  0.45593999997E+02  0.45594000000E+02  0.51100000000E-03 0.  1.
         11   -1    0    0    0    0 -0.00000000000E+00 -0.00000000000E+00 -0.45593999997E+02  0.45594000000E+02  0.51100000000E-03 0. -1.
    9900012    2    1    2    0    0 -0.34421506952E+02  0.21566844046E+02  0.17879603674E+01  0.50528859512E+02  0.29999998972E+02 0.  0.
        -12    1    1    2    0    0  0.34421506952E+02 -0.21566844046E+02 -0.17879603674E+01  0.40659140488E+02  0.00000000000E+00 0.  1.
         11    1    3    3    0    0 -0.70522060535E+01  0.14567656747E+02 -0.76566214835E+01  0.17904582825E+02  0.51100000000E-03 0. -1.
        -11    1    3    3    0    0 -0.65529498924E+01 -0.11262295230E+01  0.77540467279E+01  0.10214440080E+02  0.51100000000E-03 0.  1.
         12    1    3    3    0    0 -0.20816351007E+02  0.81254168217E+01  0.16905351230E+01  0.22409836607E+02  0.00000000000E+00 0. -1.
</event>
<event>
 7    1  0.5855569E-013  0.5052881E+02  0.7816164E-02  0.1300439E+00
        -11   -1    0    0    0    0  0.00000000000E+00  0.00000000000E+00  0.45593999997E+02  0.45594000000E+02  0.51100000000E-03 0.  1.
         11   -1    0    0    0    0 -0.00000000000E+00 -0.00000000000E+00 -0.45593999997E+02  0.45594000000E+02  0.51100000000E-03 0. -1.
    9900012    2    1    2    0    0 -0.21936920078E+02  0.30827247935E+02  0.14886988622E+02  0.50528805369E+02  0.29999834401E+02 0.  0.
        -12    1    1    2    0    0  0.21936920078E+02 -0.30827247935E+02 -0.14886988622E+02  0.40659194631E+02  0.00000000000E+00 0.  1.
         11    1    3    3    0    0 -0.53164269032E+01  0.10953754152E+01  0.40180600987E+01  0.67534472334E+01  0.51100000000E-03 0. -1.
        -11    1    3    3    0    0 -0.39831597454E+01  0.12008792120E+01  0.11846295845E+02  0.12555572387E+02  0.51100000000E-03 0.  1.
         12    1    3    3    0    0 -0.12637333430E+02  0.28530993308E+02 -0.97736732250E+00  0.31219785749E+02  0.00000000000E+00 0. -1.
</event>
<event>
 7    1  0.5855569E-013  0.5052886E+02  0.7816164E-02  0.1300439E+00
        -11   -1    0    0    0    0  0.00000000000E+00  0.00000000000E+00  0.45593999997E+02  0.45594000000E+02  0.51100000000E-03 0.  1.
         11   -1    0    0    0    0 -0.00000000000E+00 -0.00000000000E+00 -0.45593999997E+02  0.45594000000E+02  0.51100000000E-03 0. -1.
    9900012    2    1    2    0    0 -0.34542264194E+02  0.15005500297E+02 -0.15324249794E+02  0.50528859741E+02  0.29999999669E+02 0.  0.
        -12    1    1    2    0    0  0.34542264194E+02 -0.15005500297E+02  0.15324249794E+02  0.40659140259E+02  0.00000000000E+00 0.  1.
         11    1    3    3    0    0  0.53039112606E+00 -0.10648455061E+01 -0.10103474759E+00  0.11939091171E+01  0.51100000000E-03 0. -1.
        -11    1    3    3    0    0  0.37256728277E+01  0.62071737202E+00 -0.51314836887E+01  0.63716601592E+01  0.51100000000E-03 0.  1.
         12    1    3    3    0    0 -0.38798328148E+02  0.15449628431E+02 -0.10091731358E+02  0.42963290465E+02  0.00000000000E+00 0. -1.
</event>
<event>
 7    1  0.5855569E-013  0.5052886E+02  0.7816164E-02  0.1300439E+00
        -11   -1    0    0    0    0  0.00000000000E+00  0.00000000000E+00  0.45593999997E+02  0.45594000000E+02  0.51100000000E-03 0.  1.
         11   -1    0    0    0    0 -0.00000000000E+00 -0.00000000000E+00 -0.45593999997E+02  0.45594000000E+02  0.51100000000E-03 0. -1.
    9900012    2    1    2    0    0  0.12457138377E+02  0.24210453994E+02 -0.30196681057E+02  0.50528856797E+02  0.29999990719E+02 0.  0.
        -12    1    1    2    0    0 -0.12457138377E+02 -0.24210453994E+02  0.30196681057E+02  0.40659143203E+02  0.00000000000E+00 0.  1.
         11    1    3    3    0    0 -0.17314838149E+00  0.74957650977E+01 -0.13841537931E+01  0.76244578002E+01  0.51100000000E-03 0. -1.
        -11    1    3    3    0    0 -0.68254801650E+01  0.76948329904E+01 -0.81291788264E+01  0.13110346406E+02  0.51100000000E-03 0.  1.
         12    1    3    3    0    0  0.19455766924E+02  0.90198559061E+01 -0.20683348438E+02  0.29794052590E+02  0.00000000000E+00 0. -1.
</event>
<event>
 7    1  0.5855569E-013  0.5052887E+02  0.7816164E-02  0.1300439E+00
        -11   -1    0    0    0    0  0.00000000000E+00  0.00000000000E+00  0.45593999997E+02  0.45594000000E+02  0.51100000000E-03 0.  1.
         11   -1    0    0    0    0 -0.00000000000E+00 -0.00000000000E+00 -0.45593999997E+02  0.45594000000E+02  0.51100000000E-03 0. -1.
    9900012    2    1    2    0    0  0.25075313715E+02 -0.31762472864E+02 -0.39418886626E+01  0.50528874006E+02  0.30000043030E+02 0.  0.
        -12    1    1    2    0    0 -0.25075313715E+02  0.31762472864E+02  0.39418886626E+01  0.40659125994E+02  0.00000000000E+00 0.  1.
         11    1    3    3    0    0  0.98600517474E+01 -0.20436316926E+02 -0.14258613395E+02  0.26798726204E+02  0.51100000000E-03 0. -1.
        -11    1    3    3    0    0  0.77286768813E+01 -0.11488814592E+02  0.60392822776E+01  0.15106231752E+02  0.51100000000E-03 0.  1.
        -12    1    3    3    0    0  0.74865850859E+01  0.16265865319E+00  0.42774424548E+01  0.86239160501E+01  0.00000000000E+00 0.  1.
</event>
<event>
 7    1  0.5855569E-013  0.5052875E+02  0.7816164E-02  0.1300439E+00
        -11   -1    0    0    0    0  0.00000000000E+00  0.00000000000E+00  0.45593999997E+02  0.45594000000E+02  0.51100000000E-03 0.  1.
         11   -1    0    0    0    0 -0.00000000000E+00 -0.00000000000E+00 -0.45593999997E+02  0.45594000000E+02  0.51100000000E-03 0. -1.
    9900012    2    1    2    0    0 -0.40305070548E+02 -0.27740496955E+01 -0.45804317415E+01  0.50528752362E+02  0.29999673277E+02 0.  0.
        -12    1    1    2    0    0  0.40305070548E+02  0.27740496955E+01  0.45804317415E+01  0.40659247638E+02  0.00000000000E+00 0.  1.
         11    1    3    3    0    0 -0.14951395665E+02 -0.19151209353E+01 -0.11234975836E+02  0.18799909649E+02  0.51100000000E-03 0.  1.
        -11    1    3    3    0    0 -0.11944380835E+02  0.41779382189E+01 -0.46500082515E+01  0.13481319605E+02  0.51100000000E-03 0. -1.
        -12    1    3    3    0    0 -0.13409294049E+02 -0.50368669791E+01  0.11304552346E+02  0.18247523108E+02  0.00000000000E+00 0.  1.
</event>
<event>
 7    1  0.5855569E-013  0.5052888E+02  0.7816164E-02  0.1300439E+00
        -11   -1    0    0    0    0  0.00000000000E+00  0.00000000000E+00  0.45593999997E+02  0.45594000000E+02  0.51100000000E-03 0. -1.
         11   -1    0    0    0    0 -0.00000000000E+00 -0.00000000000E+00 -0.45593999997E+02  0.45594000000E+02  0.51100000000E-03 0.  1.
    9900012    2    1    2    0    0  0.32097329794E+02 -0.19882300722E+02 -0.15087078139E+02  0.50528875702E+02  0.30000048185E+02 0.  0.
        -12    1    1    2    0    0 -0.32097329794E+02  0.19882300722E+02  0.15087078139E+02  0.40659124298E+02  0.00000000000E+00 0.  1.
         11    1    3    3    0    0  0.61186546054E+00 -0.12526742002E+01  0.21617872085E+01  0.25723328303E+01  0.51100000000E-03 0. -1.
        -11    1    3    3    0    0  0.10974590862E+01  0.46730123270E+01 -0.66889108583E+01  0.82330425351E+01  0.51100000000E-03 0.  1.
        -12    1    3    3    0    0  0.30388005247E+02 -0.23302638849E+02 -0.10559954489E+02  0.39723500337E+02  0.00000000000E+00 0.  1.
</event>
<event>
 7    1  0.5855569E-013  0.5052886E+02  0.7816164E-02  0.1300439E+00
        -11   -1    0    0    0    0  0.00000000000E+00  0.00000000000E+00  0.45593999997E+02  0.45594000000E+02  0.51100000000E-03 0. -1.
         11   -1    0    0    0    0 -0.00000000000E+00 -0.00000000000E+00 -0.45593999997E+02  0.45594000000E+02  0.51100000000E-03 0.  1.
    9900012    2    1    2    0    0  0.12722599799E+02  0.32227030348E+02  0.21277205909E+02  0.50528861765E+02  0.30000005822E+02 0.  0.
        -12    1    1    2    0    0 -0.12722599799E+02 -0.32227030348E+02 -0.21277205909E+02  0.40659138235E+02  0.00000000000E+00 0.  1.
         11    1    3    3    0    0  0.93862263541E+01  0.12986995142E+02  0.16879798460E+02  0.23274253679E+02  0.51100000000E-03 0. -1.
        -11    1    3    3    0    0 -0.43389834136E+01 -0.16054045059E+01  0.90464718513E-01  0.46273410094E+01  0.51100000000E-03 0.  1.
         12    1    3    3    0    0  0.76753568581E+01  0.20845439712E+02  0.43069427303E+01  0.22627267077E+02  0.00000000000E+00 0. -1.
</event>
<event>
 7    1  0.5855569E-013  0.5052886E+02  0.7816164E-02  0.1300439E+00
        -11   -1    0    0    0    0  0.00000000000E+00  0.00000000000E+00  0.45593999997E+02  0.45594000000E+02  0.51100000000E-03 0.  1.
         11   -1    0    0    0    0 -0.00000000000E+00 -0.00000000000E+00 -0.45593999997E+02  0.45594000000E+02  0.51100000000E-03 0. -1.
    9900012    2    1    2    0    0 -0.16419632503E+02 -0.99352183382E+01 -0.35844847662E+02  0.50528855901E+02  0.29999987997E+02 0.  0.
        -12    1    1    2    0    0  0.16419632503E+02  0.99352183382E+01  0.35844847662E+02  0.40659144099E+02  0.00000000000E+00 0.  1.
         11    1    3    3    0    0 -0.53579544183E+01  0.96338414941E+00  0.18631291692E+00  0.54470631841E+01  0.51100000000E-03 0. -1.
        -11    1    3    3    0    0 -0.11913103114E+02 -0.53908246216E+00 -0.60954247931E+01  0.13392790575E+02  0.51100000000E-03 0.  1.
         12    1    3    3    0    0  0.85142503009E+00 -0.10359520025E+02 -0.29935735786E+02  0.31689002142E+02  0.00000000000E+00 0. -1.
</event>
<event>
 7    1  0.5855569E-013  0.5052887E+02  0.7816164E-02  0.1300439E+00
        -11   -1    0    0    0    0  0.00000000000E+00  0.00000000000E+00  0.45593999997E+02  0.45594000000E+02  0.51100000000E-03 0.  1.
         11   -1    0    0    0    0 -0.00000000000E+00 -0.00000000000E+00 -0.45593999997E+02  0.45594000000E+02  0.51100000000E-03 0. -1.
    9900012    2    1    2    0    0 -0.34698904726E+01  0.39766290928E+02 -0.77309114524E+01  0.50528867866E+02  0.30000024364E+02 0.  0.
        -12    1    1    2    0    0  0.34698904726E+01 -0.39766290928E+02  0.77309114524E+01  0.40659132134E+02  0.00000000000E+00 0.  1.
         11    1    3    3    0    0 -0.86256920935E+01  0.77376402694E+01 -0.11075104862E+02  0.16029085719E+02  0.51100000000E-03 0. -1.
        -11    1    3    3    0    0  0.13316572415E+01  0.13918108699E+02  0.69941487047E+01  0.15633463376E+02  0.51100000000E-03 0.  1.
        -12    1    3    3    0    0  0.38241443794E+01  0.18110541960E+02 -0.36499552954E+01  0.18866318771E+02  0.00000000000E+00 0.  1.
</event>
<event>
 7    1  0.5855569E-013  0.5052885E+02  0.7816164E-02  0.1300439E+00
        -11   -1    0    0    0    0  0.00000000000E+00  0.00000000000E+00  0.45593999997E+02  0.45594000000E+02  0.51100000000E-03 0.  1.
         11   -1    0    0    0    0 -0.00000000000E+00 -0.00000000000E+00 -0.45593999997E+02  0.45594000000E+02  0.51100000000E-03 0. -1.
    9900012    2    1    2    0    0  0.26183051457E+02 -0.29224613461E+02 -0.10655328397E+02  0.50528852951E+02  0.29999979030E+02 0.  0.
        -12    1    1    2    0    0 -0.26183051457E+02  0.29224613461E+02  0.10655328397E+02  0.40659147049E+02  0.00000000000E+00 0.  1.
         11    1    3    3    0    0  0.56480061219E+01 -0.22132335025E+01 -0.90521895134E+01  0.10896811962E+02  0.51100000000E-03 0. -1.
        -11    1    3    3    0    0  0.91604693926E+01 -0.89198444485E+01  0.91367473872E+01  0.15714896677E+02  0.51100000000E-03 0.  1.
         12    1    3    3    0    0  0.11374575942E+02 -0.18091535510E+02 -0.10739886270E+02  0.23917144312E+02  0.00000000000E+00 0. -1.
</event>
<event>
 7    1  0.5855569E-013  0.5052886E+02  0.7816164E-02  0.1300439E+00
        -11   -1    0    0    0    0  0.00000000000E+00  0.00000000000E+00  0.45593999997E+02  0.45594000000E+02  0.51100000000E-03 0.  1.
         11   -1    0    0    0    0 -0.00000000000E+00 -0.00000000000E+00 -0.45593999997E+02  0.45594000000E+02  0.51100000000E-03 0. -1.
    9900012    2    1    2    0    0  0.22111572057E+02 -0.23510012576E+02 -0.24729003283E+02  0.50528856951E+02  0.29999991187E+02 0.  0.
        -12    1    1    2    0    0 -0.22111572057E+02  0.23510012576E+02  0.24729003283E+02  0.40659143049E+02  0.00000000000E+00 0.  1.
         11    1    3    3    0    0  0.16016962139E+02 -0.15268703739E+02 -0.28487770353E+02  0.36072558129E+02  0.51100000000E-03 0. -1.
        -11    1    3    3    0    0  0.26047666045E+01 -0.63686701893E+01 -0.22677919245E+01  0.72448360587E+01  0.51100000000E-03 0.  1.
         12    1    3    3    0    0  0.34898433138E+01 -0.18726386479E+01  0.60265589951E+01  0.72114627630E+01  0.00000000000E+00 0. -1.
</event>
<event>
 7    1  0.5855569E-013  0.5052886E+02  0.7816164E-02  0.1300439E+00
        -11   -1    0    0    0    0  0.00000000000E+00  0.00000000000E+00  0.45593999997E+02  0.45594000000E+02  0.51100000000E-03 0.  1.
         11   -1    0    0    0    0 -0.00000000000E+00 -0.00000000000E+00 -0.45593999997E+02  0.45594000000E+02  0.51100000000E-03 0. -1.
    9900012    2    1    2    0    0  0.21454976528E+02 -0.13633562138E+02 -0.31732880799E+02  0.50528858861E+02  0.29999996993E+02 0.  0.
        -12    1    1    2    0    0 -0.21454976528E+02  0.13633562138E+02  0.31732880799E+02  0.40659141139E+02  0.00000000000E+00 0.  1.
         11    1    3    3    0    0 -0.27004052913E+01 -0.32395750311E+01  0.65168475928E+00  0.42675201706E+01  0.51100000000E-03 0. -1.
        -11    1    3    3    0    0  0.26993225691E+02 -0.10779061295E+02 -0.24990617303E+02  0.38332145114E+02  0.51100000000E-03 0.  1.
         12    1    3    3    0    0 -0.28378438713E+01  0.38507418868E+00 -0.73939482548E+01  0.79291935759E+01  0.00000000000E+00 0. -1.
</event>
<event>
 7    1  0.5855569E-013  0.5052890E+02  0.7816164E-02  0.1300439E+00
        -11   -1    0    0    0    0  0.00000000000E+00  0.00000000000E+00  0.45593999997E+02  0.45594000000E+02  0.51100000000E-03 0.  1.
         11   -1    0    0    0    0 -0.00000000000E+00 -0.00000000000E+00 -0.45593999997E+02  0.45594000000E+02  0.51100000000E-03 0. -1.
    9900012    2    1    2    0    0  0.67323210523E+01 -0.39535290502E+02 -0.66932056611E+01  0.50528900848E+02  0.30000124617E+02 0.  0.
        -12    1    1    2    0    0 -0.67323210523E+01  0.39535290502E+02  0.66932056611E+01  0.40659099152E+02  0.00000000000E+00 0.  1.
         11    1    3    3    0    0  0.23316712841E+01 -0.94304007786E+01  0.68393942345E+01  0.11880507716E+02  0.51100000000E-03 0.  1.
        -11    1    3    3    0    0  0.23730032146E+01 -0.13879353922E+02  0.40359022427E+01  0.14647734184E+02  0.51100000000E-03 0. -1.
         12    1    3    3    0    0  0.20276465536E+01 -0.16225535802E+02 -0.17568502138E+02  0.24000658949E+02  0.00000000000E+00 0. -1.
</event>
<event>
 7    1  0.5855569E-013  0.5052886E+02  0.7816164E-02  0.1300439E+00
        -11   -1    0    0    0    0  0.00000000000E+00  0.00000000000E+00  0.45593999997E+02  0.45594000000E+02  0.51100000000E-03 0.  1.
         11   -1    0    0    0    0 -0.00000000000E+00 -0.00000000000E+00 -0.45593999997E+02  0.45594000000E+02  0.51100000000E-03 0. -1.
    9900012    2    1    2    0    0 -0.18407741458E+02 -0.65517371323E+01 -0.35656638032E+02  0.50528855385E+02  0.29999986429E+02 0.  0.
        -12    1    1    2    0    0  0.18407741458E+02  0.65517371323E+01  0.35656638032E+02  0.40659144615E+02  0.00000000000E+00 0.  1.
         11    1    3    3    0    0 -0.49255820415E+01 -0.28695400051E+01 -0.14490497148E+02  0.15571452282E+02  0.51100000000E-03 0. -1.
        -11    1    3    3    0    0 -0.18503407512E+02 -0.85893277471E+01 -0.18189795192E+02  0.27331690217E+02  0.51100000000E-03 0.  1.
        -12    1    3    3    0    0  0.50212480955E+01  0.49071306198E+01 -0.29763456920E+01  0.76257128870E+01  0.00000000000E+00 0.  1.
</event>
<event>
 7    1  0.5855569E-013  0.5052886E+02  0.7816164E-02  0.1300439E+00
        -11   -1    0    0    0    0  0.00000000000E+00  0.00000000000E+00  0.45593999997E+02  0.45594000000E+02  0.51100000000E-03 0.  1.
         11   -1    0    0    0    0 -0.00000000000E+00 -0.00000000000E+00 -0.45593999997E+02  0.45594000000E+02  0.51100000000E-03 0. -1.
    9900012    2    1    2    0    0  0.23040674743E+02  0.30326048097E+02 -0.14234598115E+02  0.50528859954E+02  0.30000000316E+02 0.  0.
        -12    1    1    2    0    0 -0.23040674743E+02 -0.30326048097E+02  0.14234598115E+02  0.40659140046E+02  0.00000000000E+00 0.  1.
         11    1    3    3    0    0  0.29684853613E+01  0.10797464348E+02 -0.11596873109E+01  0.11257975688E+02  0.51100000000E-03 0. -1.
        -11    1    3    3    0    0 -0.27741982207E+00  0.10310362951E+02  0.40925343897E+01  0.11096368051E+02  0.51100000000E-03 0.  1.
         12    1    3    3    0    0  0.20349609204E+02  0.92182207983E+01 -0.17167445194E+02  0.28174516214E+02  0.00000000000E+00 0. -1.
</event>
<event>
 7    1  0.5855569E-013  0.5052886E+02  0.7816164E-02  0.1300439E+00
        -11   -1    0    0    0    0  0.00000000000E+00  0.00000000000E+00  0.45593999997E+02  0.45594000000E+02  0.51100000000E-03 0. -1.
         11   -1    0    0    0    0 -0.00000000000E+00 -0.00000000000E+00 -0.45593999997E+02  0.45594000000E+02  0.51100000000E-03 0.  1.
    9900012    2    1    2    0    0  0.38009552024E+02 -0.12565538614E+02 -0.71096200153E+01  0.50528862006E+02  0.30000006553E+02 0.  0.
        -12    1    1    2    0    0 -0.38009552024E+02  0.12565538614E+02  0.71096200153E+01  0.40659137994E+02  0.00000000000E+00 0.  1.
         11    1    3    3    0    0  0.85229561792E+01 -0.50668183483E+01  0.52277130303E+01  0.11209032697E+02  0.51100000000E-03 0. -1.
        -11    1    3    3    0    0  0.86041941647E+00 -0.63757557463E+01  0.26856220623E+01  0.69715958740E+01  0.51100000000E-03 0.  1.
        -12    1    3    3    0    0  0.28626176428E+02 -0.11229645191E+01 -0.15022955108E+02  0.32348233435E+02  0.00000000000E+00 0.  1.
</event>
<event>
 7    1  0.5855569E-013  0.5052887E+02  0.7816164E-02  0.1300439E+00
        -11   -1    0    0    0    0  0.00000000000E+00  0.00000000000E+00  0.45593999997E+02  0.45594000000E+02  0.51100000000E-03 0.  1.
         11   -1    0    0    0    0 -0.00000000000E+00 -0.00000000000E+00 -0.45593999997E+02  0.45594000000E+02  0.51100000000E-03 0. -1.
    9900012    2    1    2    0    0  0.20109807831E+02  0.24138284775E+02 -0.25808986330E+02  0.50528868944E+02  0.30000027641E+02 0.  0.
        -12    1    1    2    0    0 -0.20109807831E+02 -0.24138284775E+02  0.25808986330E+02  0.40659131056E+02  0.00000000000E+00 0.  1.
         11    1    3    3    0    0  0.14377090505E+02  0.31582378519E+01 -0.93313868930E+01  0.17428424465E+02  0.51100000000E-03 0. -1.
        -11    1    3    3    0    0  0.85804279895E+01  0.11841340027E+02 -0.18228828496E+02  0.23369451571E+02  0.51100000000E-03 0.  1.
        -12    1    3    3    0    0 -0.28477106637E+01  0.91387068957E+01  0.17512290590E+01  0.97309929075E+01  0.00000000000E+00 0.  1.
</event>
<event>
 7    1  0.5855569E-013  0.5052886E+02  0.7816164E-02  0.1300439E+00
        -11   -1    0    0    0    0  0.00000000000E+00  0.00000000000E+00  0.45593999997E+02  0.45594000000E+02  0.51100000000E-03 0.  1.
         11   -1    0    0    0    0 -0.00000000000E+00 -0.00000000000E+00 -0.45593999997E+02  0.45594000000E+02  0.51100000000E-03 0. -1.
    9900012    2    1    2    0    0 -0.17622317338E+01 -0.26155817456E+02 -0.31079463916E+02  0.50528864191E+02  0.30000013194E+02 0.  0.
        -12    1    1    2    0    0  0.17622317338E+01  0.26155817456E+02  0.31079463916E+02  0.40659135809E+02  0.00000000000E+00 0.  1.
         11    1    3    3    0    0  0.44342811930E+01 -0.14715600232E+02 -0.51028321387E+01  0.16194154377E+02  0.51100000000E-03 0.  1.
        -11    1    3    3    0    0 -0.72050101213E+01 -0.15884681253E+02 -0.17484993562E+02  0.24697373737E+02  0.51100000000E-03 0. -1.
        -12    1    3    3    0    0  0.10084971946E+01  0.44444640289E+01 -0.84916382148E+01  0.96373360773E+01  0.00000000000E+00 0.  1.
</event>
<event>
 7    1  0.5855569E-013  0.5052884E+02  0.7816164E-02  0.1300439E+00
        -11   -1    0    0    0    0  0.00000000000E+00  0.00000000000E+00  0.45593999997E+02  0.45594000000E+02  0.51100000000E-03 0.  1.
         11   -1    0    0    0    0 -0.00000000000E+00 -0.00000000000E+00 -0.45593999997E+02  0.45594000000E+02  0.51100000000E-03 0. -1.
    9900012    2    1    2    0    0 -0.31348207501E+02 -0.16779493546E+02 -0.19720689861E+02  0.50528842043E+02  0.29999945875E+02 0.  0.
        -12    1    1    2    0    0  0.31348207501E+02  0.16779493546E+02  0.19720689861E+02  0.40659157957E+02  0.00000000000E+00 0.  1.
         11    1    3    3    0    0 -0.24680074226E+02 -0.17955141279E+02 -0.13719289313E+02  0.33462098883E+02  0.51100000000E-03 0. -1.
        -11    1    3    3    0    0 -0.18781634986E+00 -0.24965882896E+01 -0.87699950322E+01  0.91203640934E+01  0.51100000000E-03 0.  1.
        -12    1    3    3    0    0 -0.64803169248E+01  0.36722360233E+01  0.27685944842E+01  0.79463790669E+01  0.00000000000E+00 0.  1.
</event>
<event>
 7    1  0.5855569E-013  0.5052886E+02  0.7816164E-02  0.1300439E+00
        -11   -1    0    0    0    0  0.00000000000E+00  0.00000000000E+00  0.45593999997E+02  0.45594000000E+02  0.51100000000E-03 0.  1.
         11   -1    0    0    0    0 -0.00000000000E+00 -0.00000000000E+00 -0.45593999997E+02  0.45594000000E+02  0.51100000000E-03 0. -1.
    9900012    2    1    2    0    0 -0.77467320556E+01  0.33990502083E+02 -0.20923662828E+02  0.50528858893E+02  0.29999997092E+02 0.  0.
        -12    1    1    2    0    0  0.77467320556E+01 -0.33990502083E+02  0.20923662828E+02  0.40659141107E+02  0.00000000000E+00 0.  1.
         11    1    3    3    0    0 -0.10876972369E+01  0.13987054621E+02 -0.49946124070E+00  0.14038170965E+02  0.51100000000E-03 0. -1.
        -11    1    3    3    0    0 -0.78343744990E+01 -0.15139309877E+01 -0.22229750727E+01  0.82831774858E+01  0.51100000000E-03 0.  1.
        -12    1    3    3    0    0  0.11753396803E+01  0.21517378449E+02 -0.18201226515E+02  0.28207510442E+02  0.00000000000E+00 0.  1.
</event>
<event>
 7    1  0.5855569E-013  0.5052886E+02  0.7816164E-02  0.1300439E+00
        -11   -1    0    0    0    0  0.00000000000E+00  0.00000000000E+00  0.45593999997E+02  0.45594000000E+02  0.51100000000E-03 0. -1.
         11   -1    0    0    0    0 -0.00000000000E+00 -0.00000000000E+00 -0.45593999997E+02  0.45594000000E+02  0.51100000000E-03 0.  1.
    9900012    2    1    2    0    0  0.26503164704E+01 -0.32892612887E+02  0.23753268112E+02  0.50528857044E+02  0.29999991470E+02 0.  0.
        -12    1    1    2    0    0 -0.26503164704E+01  0.32892612887E+02 -0.23753268112E+02  0.40659142956E+02  0.00000000000E+00 0.  1.
         11    1    3    3    0    0 -0.64535372612E+01 -0.24919621228E+02  0.14601987686E+02  0.29594825730E+02  0.51100000000E-03 0. -1.
        -11    1    3    3    0    0 -0.25948510202E+01 -0.57620873424E+01  0.57702038047E+01  0.85574619232E+01  0.51100000000E-03 0.  1.
        -12    1    3    3    0    0  0.11698704752E+02 -0.22109043168E+01  0.33810766214E+01  0.12376569391E+02  0.00000000000E+00 0.  1.
</event>
<event>
 7    1  0.5855569E-013  0.5052886E+02  0.7816164E-02  0.1300439E+00
        -11   -1    0    0    0    0  0.00000000000E+00  0.00000000000E+00  0.45593999997E+02  0.45594000000E+02  0.51100000000E-03 0.  1.
         11   -1    0    0    0    0 -0.00000000000E+00 -0.00000000000E+00 -0.45593999997E+02  0.45594000000E+02  0.51100000000E-03 0. -1.
    9900012    2    1    2    0    0 -0.35021924534E+02 -0.58368827495E+01 -0.19813149590E+02  0.50528864556E+02  0.30000014306E+02 0.  0.
        -12    1    1    2    0    0  0.35021924534E+02  0.58368827495E+01  0.19813149590E+02  0.40659135444E+02  0.00000000000E+00 0.  1.
         11    1    3    3    0    0 -0.96271957227E+01 -0.41961381204E+01  0.27070743651E+01  0.10845216664E+02  0.51100000000E-03 0.  1.
        -11    1    3    3    0    0 -0.20988858025E+02  0.14489719458E+01 -0.53761337125E+01  0.21714845034E+02  0.51100000000E-03 0. -1.
        -12    1    3    3    0    0 -0.44058707867E+01 -0.30897165749E+01 -0.17144090243E+02  0.17968802858E+02  0.00000000000E+00 0.  1.
</event>
<event>
 7    1  0.5855569E-013  0.5052886E+02  0.7816164E-02  0.1300439E+00
        -11   -1    0    0    0    0  0.00000000000E+00  0.00000000000E+00  0.45593999997E+02  0.45594000000E+02  0.51100000000E-03 0. -1.
         11   -1    0    0    0    0 -0.00000000000E+00 -0.00000000000E+00 -0.45593999997E+02  0.45594000000E+02  0.51100000000E-03 0.  1.
    9900012    2    1    2    0    0  0.16406414598E+02 -0.10963708035E+02  0.35549857745E+02  0.50528859336E+02  0.29999998438E+02 0.  0.
        -12    1    1    2    0    0 -0.16406414598E+02  0.10963708035E+02 -0.35549857745E+02  0.40659140664E+02  0.00000000000E+00 0.  1.
         11    1    3    3    0    0  0.46107931764E+01 -0.58565125425E+01  0.18497180040E+02  0.19942512945E+02  0.51100000000E-03 0.  1.
        -11    1    3    3    0    0 -0.25050468343E+01  0.55185417562E+01  0.94264754003E+01  0.11206605262E+02  0.51100000000E-03 0. -1.
        -12    1    3    3    0    0  0.14300668256E+02 -0.10625737249E+02  0.76262023047E+01  0.19379741130E+02  0.00000000000E+00 0.  1.
</event>
<event>
 7    1  0.5855569E-013  0.5052886E+02  0.7816164E-02  0.1300439E+00
        -11   -1    0    0    0    0  0.00000000000E+00  0.00000000000E+00  0.45593999997E+02  0.45594000000E+02  0.51100000000E-03 0.  1.
         11   -1    0    0    0    0 -0.00000000000E+00 -0.00000000000E+00 -0.45593999997E+02  0.45594000000E+02  0.51100000000E-03 0. -1.
    9900012    2    1    2    0    0 -0.36131746769E+02 -0.40684736308E-01 -0.18645656584E+02  0.50528864627E+02  0.30000014521E+02 0.  0.
        -12    1    1    2    0    0  0.36131746769E+02  0.40684736308E-01  0.18645656584E+02  0.40659135373E+02  0.00000000000E+00 0.  1.
         11    1    3    3    0    0 -0.56449633835E+01 -0.43827381087E+01 -0.68748534709E+01  0.99165324302E+01  0.51100000000E-03 0. -1.
        -11    1    3    3    0    0 -0.86587684763E+01  0.38735665210E+01 -0.15782537709E+02  0.18413779783E+02  0.51100000000E-03 0.  1.
         12    1    3    3    0    0 -0.21828014909E+02  0.46848685144E+00  0.40117345960E+01  0.22198552414E+02  0.00000000000E+00 0. -1.
</event>
<event>
 7    1  0.5855569E-013  0.5052886E+02  0.7816164E-02  0.1300439E+00
        -11   -1    0    0    0    0  0.00000000000E+00  0.00000000000E+00  0.45593999997E+02  0.45594000000E+02  0.51100000000E-03 0.  1.
         11   -1    0    0    0    0 -0.00000000000E+00 -0.00000000000E+00 -0.45593999997E+02  0.45594000000E+02  0.51100000000E-03 0. -1.
    9900012    2    1    2    0    0 -0.24694561761E+02 -0.19301435127E+02 -0.25899780649E+02  0.50528863066E+02  0.30000009777E+02 0.  0.
        -12    1    1    2    0    0  0.24694561761E+02  0.19301435127E+02  0.25899780649E+02  0.40659136934E+02  0.00000000000E+00 0.  1.
         11    1    3    3    0    0 -0.37709286891E+01 -0.23971100804E+01 -0.50858644930E+01  0.67699378001E+01  0.51100000000E-03 0. -1.
        -11    1    3    3    0    0 -0.24552566509E+02 -0.58202385812E+01 -0.80893098259E+01  0.26497936392E+02  0.51100000000E-03 0.  1.
         12    1    3    3    0    0  0.36289334371E+01 -0.11084086466E+02 -0.12724606330E+02  0.17260988874E+02  0.00000000000E+00 0. -1.
</event>
<event>
 7    1  0.5855569E-013  0.5052887E+02  0.7816164E-02  0.1300439E+00
        -11   -1    0    0    0    0  0.00000000000E+00  0.00000000000E+00  0.45593999997E+02  0.45594000000E+02  0.51100000000E-03 0.  1.
         11   -1    0    0    0    0 -0.00000000000E+00 -0.00000000000E+00 -0.45593999997E+02  0.45594000000E+02  0.51100000000E-03 0. -1.
    9900012    2    1    2    0    0  0.22302889673E+02  0.33044698647E+02 -0.79871168499E+01  0.50528867791E+02  0.30000024138E+02 0.  0.
        -12    1    1    2    0    0 -0.22302889673E+02 -0.33044698647E+02  0.79871168499E+01  0.40659132209E+02  0.00000000000E+00 0.  1.
         11    1    3    3    0    0  0.10857851396E+01  0.11823706436E+02  0.95270535121E+00  0.11911616641E+02  0.51100000000E-03 0. -1.
        -11    1    3    3    0    0  0.40599340131E+01  0.14506060689E+02  0.46028768440E+01  0.15751042391E+02  0.51100000000E-03 0.  1.
         12    1    3    3    0    0  0.17157170520E+02  0.67149315223E+01 -0.13542699045E+02  0.22866208760E+02  0.00000000000E+00 0. -1.
</event>
<event>
 7    1  0.5855569E-013  0.5052887E+02  0.7816164E-02  0.1300439E+00
        -11   -1    0    0    0    0  0.00000000000E+00  0.00000000000E+00  0.45593999997E+02  0.45594000000E+02  0.51100000000E-03 0.  1.
         11   -1    0    0    0    0 -0.00000000000E+00 -0.00000000000E+00 -0.45593999997E+02  0.45594000000E+02  0.51100000000E-03 0. -1.
    9900012    2    1    2    0    0  0.18755155344E+01 -0.88086779504E+01 -0.39649145170E+02  0.50528867220E+02  0.30000022401E+02 0.  0.
        -12    1    1    2    0    0 -0.18755155344E+01  0.88086779504E+01  0.39649145170E+02  0.40659132780E+02  0.00000000000E+00 0.  1.
         11    1    3    3    0    0  0.95607736293E+01 -0.99045541434E+00 -0.18972275158E+02  0.21268206771E+02  0.51100000000E-03 0. -1.
        -11    1    3    3    0    0  0.18727461454E+01 -0.45472258831E-01  0.24339210088E+01  0.30713543576E+01  0.51100000000E-03 0.  1.
         12    1    3    3    0    0 -0.95580042403E+01 -0.77727502772E+01 -0.23110791021E+02  0.26189306091E+02  0.00000000000E+00 0. -1.
</event>
<event>
 7    1  0.5855569E-013  0.5052886E+02  0.7816164E-02  0.1300439E+00
        -11   -1    0    0    0    0  0.00000000000E+00  0.00000000000E+00  0.45593999997E+02  0.45594000000E+02  0.51100000000E-03 0.  1.
         11   -1    0    0    0    0 -0.00000000000E+00 -0.00000000000E+00 -0.45593999997E+02  0.45594000000E+02  0.51100000000E-03 0. -1.
    9900012    2    1    2    0    0  0.33052638213E+01 -0.10298842675E+02 -0.39194061793E+02  0.50528863152E+02  0.30000010037E+02 0.  0.
        -12    1    1    2    0    0 -0.33052638213E+01  0.10298842675E+02  0.39194061793E+02  0.40659136848E+02  0.00000000000E+00 0.  1.
         11    1    3    3    0    0  0.12108577629E+02 -0.99978209722E+01 -0.17670922456E+02  0.23639703406E+02  0.51100000000E-03 0. -1.
        -11    1    3    3    0    0  0.34307839561E+01 -0.94381792168E+00 -0.28640756410E+01  0.45677128151E+01  0.51100000000E-03 0.  1.
        -12    1    3    3    0    0 -0.12234097764E+02  0.64279621845E+00 -0.18659063696E+02  0.22321446931E+02  0.00000000000E+00 0.  1.
</event>
<event>
 7    1  0.5855569E-013  0.5052887E+02  0.7816164E-02  0.1300439E+00
        -11   -1    0    0    0    0  0.00000000000E+00  0.00000000000E+00  0.45593999997E+02  0.45594000000E+02  0.51100000000E-03 0.  1.
         11   -1    0    0    0    0 -0.00000000000E+00 -0.00000000000E+00 -0.45593999997E+02  0.45594000000E+02  0.51100000000E-03 0. -1.
    9900012    2    1    2    0    0 -0.19256196519E+02 -0.24282174355E+02  0.26319953613E+02  0.50528867521E+02  0.30000023316E+02 0.  0.
        -12    1    1    2    0    0  0.19256196519E+02  0.24282174355E+02 -0.26319953613E+02  0.40659132479E+02  0.00000000000E+00 0.  1.
         11    1    3    3    0    0 -0.18420876770E-01 -0.10849866604E+02  0.87220485443E+00  0.10884883381E+02  0.51100000000E-03 0. -1.
        -11    1    3    3    0    0 -0.18813078352E+00 -0.40251830194E+01  0.15808141270E+02  0.16313639147E+02  0.51100000000E-03 0.  1.
         12    1    3    3    0    0 -0.19049644859E+02 -0.94071247318E+01  0.96396074878E+01  0.23330344993E+02  0.00000000000E+00 0. -1.
</event>
<event>
 7    1  0.5855569E-013  0.5052886E+02  0.7816164E-02  0.1300439E+00
        -11   -1    0    0    0    0  0.00000000000E+00  0.00000000000E+00  0.45593999997E+02  0.45594000000E+02  0.51100000000E-03 0. -1.
         11   -1    0    0    0    0 -0.00000000000E+00 -0.00000000000E+00 -0.45593999997E+02  0.45594000000E+02  0.51100000000E-03 0.  1.
    9900012    2    1    2    0    0  0.11986612296E+02 -0.37873402984E+02  0.86655794336E+01  0.50528858410E+02  0.29999995622E+02 0.  0.
        -12    1    1    2    0    0 -0.11986612296E+02  0.37873402984E+02 -0.86655794336E+01  0.40659141590E+02  0.00000000000E+00 0.  1.
         11    1    3    3    0    0  0.12820280148E+02 -0.11717458817E+02  0.62802818586E+01  0.18468902639E+02  0.51100000000E-03 0. -1.
        -11    1    3    3    0    0  0.65654056924E+01 -0.49018855069E+01 -0.33237695780E+01  0.88419725116E+01  0.51100000000E-03 0.  1.
        -12    1    3    3    0    0 -0.73990735445E+01 -0.21254058660E+02  0.57090671530E+01  0.23217983259E+02  0.00000000000E+00 0.  1.
</event>
<event>
 7    1  0.5855569E-013  0.5052886E+02  0.7816164E-02  0.1300439E+00
        -11   -1    0    0    0    0  0.00000000000E+00  0.00000000000E+00  0.45593999997E+02  0.45594000000E+02  0.51100000000E-03 0.  1.
         11   -1    0    0    0    0 -0.00000000000E+00 -0.00000000000E+00 -0.45593999997E+02  0.45594000000E+02  0.51100000000E-03 0. -1.
    9900012    2    1    2    0    0  0.12795438057E+02 -0.30695027015E+02 -0.23393536610E+02  0.50528862359E+02  0.30000007627E+02 0.  0.
        -12    1    1    2    0    0 -0.12795438057E+02  0.30695027015E+02  0.23393536610E+02  0.40659137641E+02  0.00000000000E+00 0.  1.
         11    1    3    3    0    0 -0.81203276585E+01 -0.85040134040E+01 -0.83361197215E+01  0.14413495673E+02  0.51100000000E-03 0. -1.
        -11    1    3    3    0    0  0.92365850345E+00 -0.35726296451E+01 -0.65228060334E+01  0.74942528929E+01  0.51100000000E-03 0.  1.
         12    1    3    3    0    0  0.19992107212E+02 -0.18618383966E+02 -0.85346108556E+01  0.28621113793E+02  0.00000000000E+00 0. -1.
</event>
<event>
 7    1  0.5855569E-013  0.5052885E+02  0.7816164E-02  0.1300439E+00
        -11   -1    0    0    0    0  0.00000000000E+00  0.00000000000E+00  0.45593999997E+02  0.45594000000E+02  0.51100000000E-03 0.  1.
         11   -1    0    0    0    0 -0.00000000000E+00 -0.00000000000E+00 -0.45593999997E+02  0.45594000000E+02  0.51100000000E-03 0. -1.
    9900012    2    1    2    0    0  0.12320400283E+02 -0.77981265007E+00 -0.38739719102E+02  0.50528853341E+02  0.29999980217E+02 0.  0.
        -12    1    1    2    0    0 -0.12320400283E+02  0.77981265007E+00  0.38739719102E+02  0.40659146659E+02  0.00000000000E+00 0.  1.
         11    1    3    3    0    0  0.11936217020E+02 -0.33328492011E+01 -0.91963737933E+01  0.15432253619E+02  0.51100000000E-03 0. -1.
        -11    1    3    3    0    0  0.56904825918E+01 -0.39187624906E+01 -0.24200530023E+02  0.25167517662E+02  0.51100000000E-03 0.  1.
        -12    1    3    3    0    0 -0.53062993286E+01  0.64717990416E+01 -0.53428152855E+01  0.99290820611E+01  0.00000000000E+00 0.  1.
</event>
<event>
 7    1  0.5855569E-013  0.5052886E+02  0.7816164E-02  0.1300439E+00
        -11   -1    0    0    0    0  0.00000000000E+00  0.00000000000E+00  0.45593999997E+02  0.45594000000E+02  0.51100000000E-03 0.  1.
         11   -1    0    0    0    0 -0.00000000000E+00 -0.00000000000E+00 -0.45593999997E+02  0.45594000000E+02  0.51100000000E-03 0. -1.
    9900012    2    1    2    0    0  0.87411335549E+01 -0.92608122967E+01 -0.38613412416E+02  0.50528859839E+02  0.29999999966E+02 0.  0.
        -12    1    1    2    0    0 -0.87411335549E+01  0.92608122967E+01  0.38613412416E+02  0.40659140161E+02  0.00000000000E+00 0.  1.
         11    1    3    3    0    0  0.17975563047E+01  0.37573653783E+01 -0.98445684084E+00  0.42799718208E+01  0.51100000000E-03 0. -1.
        -11    1    3    3    0    0  0.17904068237E+01  0.76748614701E+00  0.26937575619E+01  0.33242926531E+01  0.51100000000E-03 0.  1.
         12    1    3    3    0    0  0.51531704265E+01 -0.13785663822E+02 -0.40322713138E+02  0.42924595365E+02  0.00000000000E+00 0. -1.
</event>
<event>
 7    1  0.5855569E-013  0.5052886E+02  0.7816164E-02  0.1300439E+00
        -11   -1    0    0    0    0  0.00000000000E+00  0.00000000000E+00  0.45593999997E+02  0.45594000000E+02  0.51100000000E-03 0.  1.
         11   -1    0    0    0    0 -0.00000000000E+00 -0.00000000000E+00 -0.45593999997E+02  0.45594000000E+02  0.51100000000E-03 0. -1.
    9900012    2    1    2    0    0 -0.18304245787E+02  0.28491819419E+01 -0.36193949881E+02  0.50528864992E+02  0.30000015631E+02 0.  0.
        -12    1    1    2    0    0  0.18304245787E+02 -0.28491819419E+01  0.36193949881E+02  0.40659135008E+02  0.00000000000E+00 0.  1.
         11    1    3    3    0    0 -0.19121577141E+01  0.72354967306E+01 -0.19460601627E+01  0.77327815487E+01  0.51100000000E-03 0. -1.
        -11    1    3    3    0    0  0.25500139986E+01 -0.12161706481E+01 -0.16189033758E+02  0.16433698814E+02  0.51100000000E-03 0.  1.
         12    1    3    3    0    0 -0.18942102071E+02 -0.31701441405E+01 -0.18058855961E+02  0.26362384630E+02  0.00000000000E+00 0. -1.
</event>
<event>
 7    1  0.5855569E-013  0.5052881E+02  0.7816164E-02  0.1300439E+00
        -11   -1    0    0    0    0  0.00000000000E+00  0.00000000000E+00  0.45593999997E+02  0.45594000000E+02  0.51100000000E-03 0. -1.
         11   -1    0    0    0    0 -0.00000000000E+00 -0.00000000000E+00 -0.45593999997E+02  0.45594000000E+02  0.51100000000E-03 0.  1.
    9900012    2    1    2    0    0  0.26386847524E+01  0.34302767830E+01  0.40428212885E+02  0.50528808504E+02  0.29999843930E+02 0.  0.
        -12    1    1    2    0    0 -0.26386847524E+01 -0.34302767830E+01 -0.40428212885E+02  0.40659191496E+02  0.00000000000E+00 0.  1.
         11    1    3    3    0    0  0.11178430430E+02 -0.23613951686E+01  0.21366515460E+02  0.24229351563E+02  0.51100000000E-03 0. -1.
        -11    1    3    3    0    0  0.35949309846E+01  0.16803989320E+01  0.89283021482E+00  0.40674826869E+01  0.51100000000E-03 0.  1.
         12    1    3    3    0    0 -0.12134676663E+02  0.41112730197E+01  0.18168867210E+02  0.22231974254E+02  0.00000000000E+00 0. -1.
</event>
<event>
 7    1  0.5855569E-013  0.5052877E+02  0.7816164E-02  0.1300439E+00
        -11   -1    0    0    0    0  0.00000000000E+00  0.00000000000E+00  0.45593999997E+02  0.45594000000E+02  0.51100000000E-03 0.  1.
         11   -1    0    0    0    0 -0.00000000000E+00 -0.00000000000E+00 -0.45593999997E+02  0.45594000000E+02  0.51100000000E-03 0. -1.
    9900012    2    1    2    0    0  0.25183732670E+02  0.90220933027E+01 -0.30619512348E+02  0.50528768635E+02  0.29999722742E+02 0.  0.
        -12    1    1    2    0    0 -0.25183732670E+02 -0.90220933027E+01  0.30619512348E+02  0.40659231365E+02  0.00000000000E+00 0.  1.
         11    1    3    3    0    0 -0.10646910153E+01 -0.61158861692E+00  0.97901186038E-01  0.12317436818E+01  0.51100000000E-03 0. -1.
        -11    1    3    3    0    0  0.36552554042E+00 -0.70816728620E+01 -0.25047975507E+01  0.75204860532E+01  0.51100000000E-03 0.  1.
         12    1    3    3    0    0  0.25882898144E+02  0.16715354782E+02 -0.28212615984E+02  0.41776538900E+02  0.00000000000E+00 0. -1.
</event>
<event>
 7    1  0.5855569E-013  0.5052885E+02  0.7816164E-02  0.1300439E+00
        -11   -1    0    0    0    0  0.00000000000E+00  0.00000000000E+00  0.45593999997E+02  0.45594000000E+02  0.51100000000E-03 0.  1.
         11   -1    0    0    0    0 -0.00000000000E+00 -0.00000000000E+00 -0.45593999997E+02  0.45594000000E+02  0.51100000000E-03 0. -1.
    9900012    2    1    2    0    0 -0.18368250201E+02  0.17169725920E+02 -0.31952689945E+02  0.50528849759E+02  0.29999969326E+02 0.  0.
        -12    1    1    2    0    0  0.18368250201E+02 -0.17169725920E+02  0.31952689945E+02  0.40659150241E+02  0.00000000000E+00 0.  1.
         11    1    3    3    0    0 -0.19057161541E+02  0.21793455310E+02 -0.22428325211E+02  0.36621849658E+02  0.51100000000E-03 0. -1.
        -11    1    3    3    0    0 -0.23877464799E+01  0.14793857812E+01 -0.10014598855E+01  0.29820861331E+01  0.51100000000E-03 0.  1.
        -12    1    3    3    0    0  0.30766578196E+01 -0.61031151713E+01 -0.85229048487E+01  0.10924913967E+02  0.00000000000E+00 0.  1.
</event>
<event>
 7    1  0.5855569E-013  0.5052886E+02  0.7816164E-02  0.1300439E+00
        -11   -1    0    0    0    0  0.00000000000E+00  0.00000000000E+00  0.45593999997E+02  0.45594000000E+02  0.51100000000E-03 0. -1.
         11   -1    0    0    0    0 -0.00000000000E+00 -0.00000000000E+00 -0.45593999997E+02  0.45594000000E+02  0.51100000000E-03 0.  1.
    9900012    2    1    2    0    0 -0.23334154964E+02  0.10699701347E+02  0.31530923128E+02  0.50528861911E+02  0.30000006266E+02 0.  0.
        -12    1    1    2    0    0  0.23334154964E+02 -0.10699701347E+02 -0.31530923128E+02  0.40659138089E+02  0.00000000000E+00 0.  1.
         11    1    3    3    0    0  0.19472303326E+01 -0.10015673205E+01  0.19842169055E+01  0.29549890110E+01  0.51100000000E-03 0. -1.
        -11    1    3    3    0    0  0.17800073200E+01 -0.49861751874E+01  0.26037579839E+01  0.58999936405E+01  0.51100000000E-03 0.  1.
         12    1    3    3    0    0 -0.27061392617E+02  0.16687443854E+02  0.26942948239E+02  0.41673879260E+02  0.00000000000E+00 0. -1.
</event>
<event>
 7    1  0.5855569E-013  0.5052886E+02  0.7816164E-02  0.1300439E+00
        -11   -1    0    0    0    0  0.00000000000E+00  0.00000000000E+00  0.45593999997E+02  0.45594000000E+02  0.51100000000E-03 0. -1.
         11   -1    0    0    0    0 -0.00000000000E+00 -0.00000000000E+00 -0.45593999997E+02  0.45594000000E+02  0.51100000000E-03 0.  1.
    9900012    2    1    2    0    0  0.13706130019E+02  0.29786231268E+02  0.24043460397E+02  0.50528861284E+02  0.30000004359E+02 0.  0.
        -12    1    1    2    0    0 -0.13706130019E+02 -0.29786231268E+02 -0.24043460397E+02  0.40659138716E+02  0.00000000000E+00 0.  1.
         11    1    3    3    0    0 -0.12846063716E+01  0.53888976277E+00 -0.33051640858E+01  0.35867430354E+01  0.51100000000E-03 0.  1.
        -11    1    3    3    0    0 -0.19639045550E+01  0.13703355090E+02  0.45905323671E+01  0.14584644305E+02  0.51100000000E-03 0. -1.
        -12    1    3    3    0    0  0.16954640945E+02  0.15543986415E+02  0.22758092116E+02  0.32357473944E+02  0.00000000000E+00 0.  1.
</event>
<event>
 7    1  0.5855569E-013  0.5052883E+02  0.7816164E-02  0.1300439E+00
        -11   -1    0    0    0    0  0.00000000000E+00  0.00000000000E+00  0.45593999997E+02  0.45594000000E+02  0.51100000000E-03 0. -1.
         11   -1    0    0    0    0 -0.00000000000E+00 -0.00000000000E+00 -0.45593999997E+02  0.45594000000E+02  0.51100000000E-03 0.  1.
    9900012    2    1    2    0    0  0.31921648619E+02  0.19662547935E+02 -0.15734048708E+02  0.50528834605E+02  0.29999923266E+02 0.  0.
        -12    1    1    2    0    0 -0.31921648619E+02 -0.19662547935E+02  0.15734048708E+02  0.40659165395E+02  0.00000000000E+00 0.  1.
         11    1    3    3    0    0  0.10429854327E+02  0.58085489335E+00  0.41645649286E+01  0.11245570461E+02  0.51100000000E-03 0. -1.
        -11    1    3    3    0    0 -0.16321326838E+01  0.28186958454E+00  0.17794678156E+01  0.24310108038E+01  0.51100000000E-03 0.  1.
        -12    1    3    3    0    0  0.23123926976E+02  0.18799823457E+02 -0.21678081452E+02  0.36852253340E+02  0.00000000000E+00 0.  1.
</event>
<event>
 7    1  0.5855569E-013  0.5052886E+02  0.7816164E-02  0.1300439E+00
        -11   -1    0    0    0    0  0.00000000000E+00  0.00000000000E+00  0.45593999997E+02  0.45594000000E+02  0.51100000000E-03 0.  1.
         11   -1    0    0    0    0 -0.00000000000E+00 -0.00000000000E+00 -0.45593999997E+02  0.45594000000E+02  0.51100000000E-03 0. -1.
    9900012    2    1    2    0    0  0.44764396936E+01  0.40082299415E+02 -0.51513126450E+01  0.50528864979E+02  0.30000015589E+02 0.  0.
        -12    1    1    2    0    0 -0.44764396936E+01 -0.40082299415E+02  0.51513126450E+01  0.40659135021E+02  0.00000000000E+00 0.  1.
         11    1    3    3    0    0  0.66753688931E+01  0.16923611964E+02 -0.15989091743E+01  0.18262686072E+02  0.51100000000E-03 0. -1.
        -11    1    3    3    0    0 -0.68616329374E+00 -0.15342664941E+01  0.56317419751E+01  0.58771856935E+01  0.51100000000E-03 0.  1.
         12    1    3    3    0    0 -0.15127659058E+01  0.24692953945E+02 -0.91841454459E+01  0.26388993213E+02  0.00000000000E+00 0. -1.
</event>
<event>
 7    1  0.5855569E-013  0.5052886E+02  0.7816164E-02  0.1300439E+00
        -11   -1    0    0    0    0  0.00000000000E+00  0.00000000000E+00  0.45593999997E+02  0.45594000000E+02  0.51100000000E-03 0.  1.
         11   -1    0    0    0    0 -0.00000000000E+00 -0.00000000000E+00 -0.45593999997E+02  0.45594000000E+02  0.51100000000E-03 0. -1.
    9900012    2    1    2    0    0 -0.24337540850E+02 -0.26963573687E+02 -0.18270621092E+02  0.50528858399E+02  0.29999995590E+02 0.  0.
        -12    1    1    2    0    0  0.24337540850E+02  0.26963573687E+02  0.18270621092E+02  0.40659141601E+02  0.00000000000E+00 0.  1.
         11    1    3    3    0    0 -0.10685570765E+01  0.33335512809E+01 -0.13025196181E+01  0.37350951775E+01  0.51100000000E-03 0.  1.
        -11    1    3    3    0    0 -0.20896298548E+02 -0.25076208404E+02 -0.21835686756E+02  0.39271729492E+02  0.51100000000E-03 0. -1.
         12    1    3    3    0    0 -0.23726852256E+01 -0.52209165646E+01  0.48675852821E+01  0.75220337299E+01  0.00000000000E+00 0. -1.
</event>
<event>
 7    1  0.5855569E-013  0.5052886E+02  0.7816164E-02  0.1300439E+00
        -11   -1    0    0    0    0  0.00000000000E+00  0.00000000000E+00  0.45593999997E+02  0.45594000000E+02  0.51100000000E-03 0.  1.
         11   -1    0    0    0    0 -0.00000000000E+00 -0.00000000000E+00 -0.45593999997E+02  0.45594000000E+02  0.51100000000E-03 0. -1.
    9900012    2    1    2    0    0  0.37992280421E+02 -0.14077035584E+02 -0.34042985694E+01  0.50528861406E+02  0.30000004729E+02 0.  0.
        -12    1    1    2    0    0 -0.37992280421E+02  0.14077035584E+02  0.34042985694E+01  0.40659138594E+02  0.00000000000E+00 0.  1.
         11    1    3    3    0    0  0.11398376102E+02 -0.72883389274E+01  0.51579501241E+01  0.14479202735E+02  0.51100000000E-03 0. -1.
        -11    1    3    3    0    0  0.24024571768E+02 -0.23504934198E+01  0.20876235934E+01  0.24229383824E+02  0.51100000000E-03 0.  1.
        -12    1    3    3    0    0  0.25693325508E+01 -0.44382032370E+01 -0.10649872287E+02  0.11820274847E+02  0.00000000000E+00 0.  1.
</event>
<event>
 7    1  0.5855569E-013  0.5052894E+02  0.7816164E-02  0.1300439E+00
        -11   -1    0    0    0    0  0.00000000000E+00  0.00000000000E+00  0.45593999997E+02  0.45594000000E+02  0.51100000000E-03 0.  1.
         11   -1    0    0    0    0 -0.00000000000E+00 -0.00000000000E+00 -0.45593999997E+02  0.45594000000E+02  0.51100000000E-03 0. -1.
    9900012    2    1    2    0    0 -0.82858797723E+01  0.38573610206E+02 -0.98275293181E+01  0.50528935322E+02  0.30000229405E+02 0.  0.
        -12    1    1    2    0    0  0.82858797723E+01 -0.38573610206E+02  0.98275293181E+01  0.40659064678E+02  0.00000000000E+00 0.  1.
         11    1    3    3    0    0 -0.47466425470E+01  0.21948016835E+01  0.26661644087E+01  0.58699406142E+01  0.51100000000E-03 0. -1.
        -11    1    3    3    0    0  0.82563927212E+01  0.25407608172E+02 -0.67330586699E+01  0.27550837612E+02  0.51100000000E-03 0.  1.
         12    1    3    3    0    0 -0.11795629947E+02  0.10971200350E+02 -0.57606350570E+01  0.17108157096E+02  0.00000000000E+00 0. -1.
</event>
<event>
 7    1  0.5855569E-013  0.5052888E+02  0.7816164E-02  0.1300439E+00
        -11   -1    0    0    0    0  0.00000000000E+00  0.00000000000E+00  0.45593999997E+02  0.45594000000E+02  0.51100000000E-03 0.  1.
         11   -1    0    0    0    0 -0.00000000000E+00 -0.00000000000E+00 -0.45593999997E+02  0.45594000000E+02  0.51100000000E-03 0. -1.
    9900012    2    1    2    0    0  0.64861924256E+01  0.39509535976E+02 -0.70774204785E+01  0.50528880410E+02  0.30000062495E+02 0.  0.
        -12    1    1    2    0    0 -0.64861924256E+01 -0.39509535976E+02  0.70774204785E+01  0.40659119590E+02  0.00000000000E+00 0.  1.
         11    1    3    3    0    0  0.16114597796E+01  0.15288517465E+02 -0.62899455076E+01  0.16610207213E+02  0.51100000000E-03 0. -1.
        -11    1    3    3    0    0 -0.70409713237E+01  0.13356518128E+02 -0.69944454757E+01  0.16640135861E+02  0.51100000000E-03 0.  1.
         12    1    3    3    0    0  0.11915703970E+02  0.10864500382E+02  0.62069705048E+01  0.17278537337E+02  0.00000000000E+00 0. -1.
</event>
<event>
 7    1  0.5855569E-013  0.5052886E+02  0.7816164E-02  0.1300439E+00
        -11   -1    0    0    0    0  0.00000000000E+00  0.00000000000E+00  0.45593999997E+02  0.45594000000E+02  0.51100000000E-03 0.  1.
         11   -1    0    0    0    0 -0.00000000000E+00 -0.00000000000E+00 -0.45593999997E+02  0.45594000000E+02  0.51100000000E-03 0. -1.
    9900012    2    1    2    0    0 -0.67080524154E+01  0.10837509782E+02 -0.38609796628E+02  0.50528856119E+02  0.29999988660E+02 0.  0.
        -12    1    1    2    0    0  0.67080524154E+01 -0.10837509782E+02  0.38609796628E+02  0.40659143881E+02  0.00000000000E+00 0.  1.
         11    1    3    3    0    0  0.28977074350E+01 -0.12732493849E+01  0.29751034785E+01  0.43438592684E+01  0.51100000000E-03 0.  1.
        -11    1    3    3    0    0  0.13783238947E+01  0.55036337979E+01 -0.22433411574E+02  0.23139743232E+02  0.51100000000E-03 0. -1.
        -12    1    3    3    0    0 -0.10984083745E+02  0.66071253686E+01 -0.19151488532E+02  0.23045253619E+02  0.00000000000E+00 0.  1.
</event>
<event>
 7    1  0.5855569E-013  0.5052887E+02  0.7816164E-02  0.1300439E+00
        -11   -1    0    0    0    0  0.00000000000E+00  0.00000000000E+00  0.45593999997E+02  0.45594000000E+02  0.51100000000E-03 0. -1.
         11   -1    0    0    0    0 -0.00000000000E+00 -0.00000000000E+00 -0.45593999997E+02  0.45594000000E+02  0.51100000000E-03 0.  1.
    9900012    2    1    2    0    0  0.32186369941E+02 -0.81380173845E+01 -0.23472864447E+02  0.50528866926E+02  0.30000021509E+02 0.  0.
        -12    1    1    2    0    0 -0.32186369941E+02  0.81380173845E+01  0.23472864447E+02  0.40659133074E+02  0.00000000000E+00 0.  1.
         11    1    3    3    0    0  0.10716059208E+02 -0.67340176958E+01 -0.62804397756E+01  0.14128865606E+02  0.51100000000E-03 0. -1.
        -11    1    3    3    0    0 -0.75461027450E+00 -0.47869946388E+01 -0.12538488592E+02  0.13442412386E+02  0.51100000000E-03 0.  1.
         12    1    3    3    0    0  0.22224921008E+02  0.33829949501E+01 -0.46539360800E+01  0.22957588934E+02  0.00000000000E+00 0. -1.
</event>
<event>
 7    1  0.5855569E-013  0.5052886E+02  0.7816164E-02  0.1300439E+00
        -11   -1    0    0    0    0  0.00000000000E+00  0.00000000000E+00  0.45593999997E+02  0.45594000000E+02  0.51100000000E-03 0.  1.
         11   -1    0    0    0    0 -0.00000000000E+00 -0.00000000000E+00 -0.45593999997E+02  0.45594000000E+02  0.51100000000E-03 0. -1.
    9900012    2    1    2    0    0  0.90069513026E+01 -0.12133809423E+02 -0.37746666160E+02  0.50528864383E+02  0.30000013780E+02 0.  0.
        -12    1    1    2    0    0 -0.90069513026E+01  0.12133809423E+02  0.37746666160E+02  0.40659135617E+02  0.00000000000E+00 0.  1.
         11    1    3    3    0    0 -0.12471249245E+01  0.38483394974E+00 -0.23891244456E+01  0.27223764662E+01  0.51100000000E-03 0. -1.
        -11    1    3    3    0    0  0.57175785559E+01  0.55642536972E+01 -0.16396848662E+00  0.79798815578E+01  0.51100000000E-03 0.  1.
         12    1    3    3    0    0  0.45364976712E+01 -0.18082897070E+02 -0.35193573228E+02  0.39826606360E+02  0.00000000000E+00 0. -1.
</event>
<event>
 7    1  0.5855569E-013  0.5052886E+02  0.7816164E-02  0.1300439E+00
        -11   -1    0    0    0    0  0.00000000000E+00  0.00000000000E+00  0.45593999997E+02  0.45594000000E+02  0.51100000000E-03 0. -1.
         11   -1    0    0    0    0 -0.00000000000E+00 -0.00000000000E+00 -0.45593999997E+02  0.45594000000E+02  0.51100000000E-03 0.  1.
    9900012    2    1    2    0    0 -0.38965725501E+02  0.11596542337E+02  0.59829270170E+00  0.50528861887E+02  0.30000006191E+02 0.  0.
        -12    1    1    2    0    0  0.38965725501E+02 -0.11596542337E+02 -0.59829270170E+00  0.40659138113E+02  0.00000000000E+00 0.  1.
         11    1    3    3    0    0 -0.59006239807E+01 -0.36018019642E+01 -0.60726911691E+01  0.92015172145E+01  0.51100000000E-03 0. -1.
        -11    1    3    3    0    0 -0.25102757626E+02  0.18314466117E+01  0.30570689656E+01  0.25354453416E+02  0.51100000000E-03 0.  1.
         12    1    3    3    0    0 -0.79623438940E+01  0.13366897690E+02  0.36139149052E+01  0.15972891256E+02  0.00000000000E+00 0. -1.
</event>
<event>
 7    1  0.5855569E-013  0.5052887E+02  0.7816164E-02  0.1300439E+00
        -11   -1    0    0    0    0  0.00000000000E+00  0.00000000000E+00  0.45593999997E+02  0.45594000000E+02  0.51100000000E-03 0.  1.
         11   -1    0    0    0    0 -0.00000000000E+00 -0.00000000000E+00 -0.45593999997E+02  0.45594000000E+02  0.51100000000E-03 0. -1.
    9900012    2    1    2    0    0 -0.45979823813E+01  0.31337849413E+02 -0.25494368818E+02  0.50528867087E+02  0.30000021998E+02 0.  0.
        -12    1    1    2    0    0  0.45979823813E+01 -0.31337849413E+02  0.25494368818E+02  0.40659132913E+02  0.00000000000E+00 0.  1.
         11    1    3    3    0    0 -0.82624964156E+01  0.14531848247E+02 -0.14458336258E+02  0.22101740839E+02  0.51100000000E-03 0. -1.
        -11    1    3    3    0    0 -0.75169018281E+01  0.10200513884E+02 -0.25828915253E+01  0.12931574748E+02  0.51100000000E-03 0.  1.
        -12    1    3    3    0    0  0.11181415862E+02  0.66054872819E+01 -0.84531410346E+01  0.15495551499E+02  0.00000000000E+00 0.  1.
</event>
<event>
 7    1  0.5855569E-013  0.5052886E+02  0.7816164E-02  0.1300439E+00
        -11   -1    0    0    0    0  0.00000000000E+00  0.00000000000E+00  0.45593999997E+02  0.45594000000E+02  0.51100000000E-03 0.  1.
         11   -1    0    0    0    0 -0.00000000000E+00 -0.00000000000E+00 -0.45593999997E+02  0.45594000000E+02  0.51100000000E-03 0. -1.
    9900012    2    1    2    0    0  0.37600710576E+02  0.79052230930E+01 -0.13298870962E+02  0.50528856418E+02  0.29999989568E+02 0.  0.
        -12    1    1    2    0    0 -0.37600710576E+02 -0.79052230930E+01  0.13298870962E+02  0.40659143582E+02  0.00000000000E+00 0.  1.
         11    1    3    3    0    0 -0.34894463746E+01  0.26583068615E+01  0.13008989510E+01  0.45754966630E+01  0.51100000000E-03 0. -1.
        -11    1    3    3    0    0  0.73353954729E+01  0.31676350447E+01  0.20635042575E+01  0.82522717237E+01  0.51100000000E-03 0.  1.
         12    1    3    3    0    0  0.33754761478E+02  0.20792811868E+01 -0.16663274171E+02  0.37701088031E+02  0.00000000000E+00 0. -1.
</event>
<event>
 7    1  0.5855569E-013  0.5052886E+02  0.7816164E-02  0.1300439E+00
        -11   -1    0    0    0    0  0.00000000000E+00  0.00000000000E+00  0.45593999997E+02  0.45594000000E+02  0.51100000000E-03 0. -1.
         11   -1    0    0    0    0 -0.00000000000E+00 -0.00000000000E+00 -0.45593999997E+02  0.45594000000E+02  0.51100000000E-03 0.  1.
    9900012    2    1    2    0    0  0.35485231700E+02 -0.18656964097E+02 -0.67735933035E+01  0.50528861491E+02  0.30000004987E+02 0.  0.
        -12    1    1    2    0    0 -0.35485231700E+02  0.18656964097E+02  0.67735933035E+01  0.40659138509E+02  0.00000000000E+00 0.  1.
         11    1    3    3    0    0 -0.10665816488E+01  0.16886546972E+01  0.18849442498E+01  0.27463004544E+01  0.51100000000E-03 0. -1.
        -11    1    3    3    0    0  0.25154093535E+01  0.35832500431E+01  0.20295687709E+01  0.48255688519E+01  0.51100000000E-03 0.  1.
        -12    1    3    3    0    0  0.34036403995E+02 -0.23928868837E+02 -0.10688106324E+02  0.42956992184E+02  0.00000000000E+00 0.  1.
</event>
<event>
 7    1  0.5855569E-013  0.5052887E+02  0.7816164E-02  0.1300439E+00
        -11   -1    0    0    0    0  0.00000000000E+00  0.00000000000E+00  0.45593999997E+02  0.45594000000E+02  0.51100000000E-03 0.  1.
         11   -1    0    0    0    0 -0.00000000000E+00 -0.00000000000E+00 -0.45593999997E+02  0.45594000000E+02  0.51100000000E-03 0. -1.
    9900012    2    1    2    0    0 -0.41213809698E+01 -0.33662681584E+02 -0.22427728065E+02  0.50528869430E+02  0.30000029120E+02 0.  0.
        -12    1    1    2    0    0  0.41213809698E+01  0.33662681584E+02  0.22427728065E+02  0.40659130570E+02  0.00000000000E+00 0.  1.
         11    1    3    3    0    0  0.46596202063E+01 -0.11125958054E+02 -0.39723977771E+00  0.12068836017E+02  0.51100000000E-03 0. -1.
        -11    1    3    3    0    0 -0.14466114422E+00 -0.14898535489E+02 -0.15791464582E+01  0.14982689690E+02  0.51100000000E-03 0.  1.
         12    1    3    3    0    0 -0.86363400319E+01 -0.76381880413E+01 -0.20451341829E+02  0.23477343723E+02  0.00000000000E+00 0. -1.
</event>
<event>
 7    1  0.5855569E-013  0.5052886E+02  0.7816164E-02  0.1300439E+00
        -11   -1    0    0    0    0  0.00000000000E+00  0.00000000000E+00  0.45593999997E+02  0.45594000000E+02  0.51100000000E-03 0.  1.
         11   -1    0    0    0    0 -0.00000000000E+00 -0.00000000000E+00 -0.45593999997E+02  0.45594000000E+02  0.51100000000E-03 0. -1.
    9900012    2    1    2    0    0 -0.39952910137E+02  0.72123098285E+01  0.22165915084E+01  0.50528859338E+02  0.29999998442E+02 0.  0.
        -12    1    1    2    0    0  0.39952910137E+02 -0.72123098285E+01 -0.22165915084E+01  0.40659140662E+02  0.00000000000E+00 0.  1.
         11    1    3    3    0    0 -0.54071986270E+01  0.79340628409E+00  0.41067758272E+01  0.68361464642E+01  0.51100000000E-03 0. -1.
        -11    1    3    3    0    0 -0.80949055819E+01 -0.18041973705E+01  0.10473185397E+02  0.13359275323E+02  0.51100000000E-03 0.  1.
         12    1    3    3    0    0 -0.26450805928E+02  0.82231009150E+01 -0.12363369716E+02  0.30333437551E+02  0.00000000000E+00 0. -1.
</event>
<event>
 7    1  0.5855569E-013  0.5052887E+02  0.7816164E-02  0.1300439E+00
        -11   -1    0    0    0    0  0.00000000000E+00  0.00000000000E+00  0.45593999997E+02  0.45594000000E+02  0.51100000000E-03 0. -1.
         11   -1    0    0    0    0 -0.00000000000E+00 -0.00000000000E+00 -0.45593999997E+02  0.45594000000E+02  0.51100000000E-03 0.  1.
    9900012    2    1    2    0    0  0.30223147318E+01 -0.28461492991E+02  0.28878610711E+02  0.50528866633E+02  0.30000020617E+02 0.  0.
        -12    1    1    2    0    0 -0.30223147318E+01  0.28461492991E+02 -0.28878610711E+02  0.40659133367E+02  0.00000000000E+00 0.  1.
         11    1    3    3    0    0  0.13035716062E+01  0.59078843998E+00 -0.51042181869E+01  0.53010728607E+01  0.51100000000E-03 0.  1.
        -11    1    3    3    0    0  0.20258217951E+01 -0.13283338210E+02  0.20320068433E+02  0.24360956659E+02  0.51100000000E-03 0. -1.
        -12    1    3    3    0    0 -0.30707866943E+00 -0.15768943221E+02  0.13662760464E+02  0.20866837113E+02  0.00000000000E+00 0.  1.
</event>
<event>
 7    1  0.5855569E-013  0.5052887E+02  0.7816164E-02  0.1300439E+00
        -11   -1    0    0    0    0  0.00000000000E+00  0.00000000000E+00  0.45593999997E+02  0.45594000000E+02  0.51100000000E-03 0.  1.
         11   -1    0    0    0    0 -0.00000000000E+00 -0.00000000000E+00 -0.45593999997E+02  0.45594000000E+02  0.51100000000E-03 0. -1.
    9900012    2    1    2    0    0 -0.12808591124E+02  0.25319975149E+02 -0.29120504943E+02  0.50528868722E+02  0.30000026967E+02 0.  0.
        -12    1    1    2    0    0  0.12808591124E+02 -0.25319975149E+02  0.29120504943E+02  0.40659131278E+02  0.00000000000E+00 0.  1.
         11    1    3    3    0    0 -0.10071925219E+02  0.11653627413E+02 -0.11122513613E+02  0.18998974152E+02  0.51100000000E-03 0. -1.
        -11    1    3    3    0    0 -0.58452379836E+01  0.13885735138E+02 -0.19610337878E+01  0.15192962226E+02  0.51100000000E-03 0.  1.
         12    1    3    3    0    0  0.31085720785E+01 -0.21938740245E+00 -0.16036957542E+02  0.16336932344E+02  0.00000000000E+00 0. -1.
</event>
<event>
 7    1  0.5855569E-013  0.5052883E+02  0.7816164E-02  0.1300439E+00
        -11   -1    0    0    0    0  0.00000000000E+00  0.00000000000E+00  0.45593999997E+02  0.45594000000E+02  0.51100000000E-03 0. -1.
         11   -1    0    0    0    0 -0.00000000000E+00 -0.00000000000E+00 -0.45593999997E+02  0.45594000000E+02  0.51100000000E-03 0.  1.
    9900012    2    1    2    0    0  0.17054566988E+02 -0.27653817057E+02 -0.24445370992E+02  0.50528831097E+02  0.29999912601E+02 0.  0.
        -12    1    1    2    0    0 -0.17054566988E+02  0.27653817057E+02  0.24445370992E+02  0.40659168903E+02  0.00000000000E+00 0.  1.
         11    1    3    3    0    0  0.91538867999E-01  0.10165634291E+01  0.45401064685E+00  0.11170973540E+01  0.51100000000E-03 0. -1.
        -11    1    3    3    0    0 -0.75720570222E+00  0.38898432356E+01 -0.74542075102E+01  0.84421235918E+01  0.51100000000E-03 0.  1.
         12    1    3    3    0    0  0.17720233822E+02 -0.32560223721E+02 -0.17445174129E+02  0.40969610151E+02  0.00000000000E+00 0. -1.
</event>
<event>
 7    1  0.5855569E-013  0.5052885E+02  0.7816164E-02  0.1300439E+00
        -11   -1    0    0    0    0  0.00000000000E+00  0.00000000000E+00  0.45593999997E+02  0.45594000000E+02  0.51100000000E-03 0.  1.
         11   -1    0    0    0    0 -0.00000000000E+00 -0.00000000000E+00 -0.45593999997E+02  0.45594000000E+02  0.51100000000E-03 0. -1.
    9900012    2    1    2    0    0 -0.50082901510E+01  0.11191320126E+02 -0.38766448019E+02  0.50528854554E+02  0.29999983902E+02 0.  0.
        -12    1    1    2    0    0  0.50082901510E+01 -0.11191320126E+02  0.38766448019E+02  0.40659145446E+02  0.00000000000E+00 0.  1.
         11    1    3    3    0    0  0.60306148257E+01  0.10266577678E+02 -0.18720626691E+02  0.22186320027E+02  0.51100000000E-03 0. -1.
        -11    1    3    3    0    0 -0.78783217480E+00 -0.65850591499E+01 -0.35586256654E+01  0.75264533767E+01  0.51100000000E-03 0.  1.
         12    1    3    3    0    0 -0.10251072802E+02  0.75098015985E+01 -0.16487195663E+02  0.20816081150E+02  0.00000000000E+00 0. -1.
</event>
<event>
 7    1  0.5855569E-013  0.5052886E+02  0.7816164E-02  0.1300439E+00
        -11   -1    0    0    0    0  0.00000000000E+00  0.00000000000E+00  0.45593999997E+02  0.45594000000E+02  0.51100000000E-03 0. -1.
         11   -1    0    0    0    0 -0.00000000000E+00 -0.00000000000E+00 -0.45593999997E+02  0.45594000000E+02  0.51100000000E-03 0.  1.
    9900012    2    1    2    0    0  0.35423415767E+01 -0.10238793603E+02  0.39189084055E+02  0.50528863421E+02  0.30000010855E+02 0.  0.
        -12    1    1    2    0    0 -0.35423415767E+01  0.10238793603E+02 -0.39189084055E+02  0.40659136579E+02  0.00000000000E+00 0.  1.
         11    1    3    3    0    0  0.81552923985E+01 -0.31324527960E+01  0.24979496155E+02  0.26463111741E+02  0.51100000000E-03 0. -1.
        -11    1    3    3    0    0 -0.12046306493E+01 -0.12177092828E+02  0.54729421756E+01  0.13404693994E+02  0.51100000000E-03 0.  1.
         12    1    3    3    0    0 -0.34083201726E+01  0.50707520219E+01  0.87366457243E+01  0.10661057686E+02  0.00000000000E+00 0. -1.
</event>
<event>
 7    1  0.5855569E-013  0.5052884E+02  0.7816164E-02  0.1300439E+00
        -11   -1    0    0    0    0  0.00000000000E+00  0.00000000000E+00  0.45593999997E+02  0.45594000000E+02  0.51100000000E-03 0.  1.
         11   -1    0    0    0    0 -0.00000000000E+00 -0.00000000000E+00 -0.45593999997E+02  0.45594000000E+02  0.51100000000E-03 0. -1.
    9900012    2    1    2    0    0 -0.34067021748E+02 -0.19387947871E+02 -0.10803353966E+02  0.50528844201E+02  0.29999952432E+02 0.  0.
        -12    1    1    2    0    0  0.34067021748E+02  0.19387947871E+02  0.10803353966E+02  0.40659155799E+02  0.00000000000E+00 0.  1.
         11    1    3    3    0    0 -0.14299285473E+02 -0.15767998049E+01 -0.95211514058E+01  0.17251324210E+02  0.51100000000E-03 0. -1.
        -11    1    3    3    0    0 -0.69528748236E+00  0.29388527619E+01 -0.39450913638E+01  0.49683021616E+01  0.51100000000E-03 0.  1.
         12    1    3    3    0    0 -0.19072448792E+02 -0.20750000828E+02  0.26628888035E+01  0.28309217829E+02  0.00000000000E+00 0. -1.
</event>
<event>
 7    1  0.5855569E-013  0.5052881E+02  0.7816164E-02  0.1300439E+00
        -11   -1    0    0    0    0  0.00000000000E+00  0.00000000000E+00  0.45593999997E+02  0.45594000000E+02  0.51100000000E-03 0. -1.
         11   -1    0    0    0    0 -0.00000000000E+00 -0.00000000000E+00 -0.45593999997E+02  0.45594000000E+02  0.51100000000E-03 0.  1.
    9900012    2    1    2    0    0 -0.18267830870E+02 -0.30996385097E+01  0.36191830227E+02  0.50528806959E+02  0.29999839233E+02 0.  0.
        -12    1    1    2    0    0  0.18267830870E+02  0.30996385097E+01 -0.36191830227E+02  0.40659193041E+02  0.00000000000E+00 0.  1.
         11    1    3    3    0    0 -0.45772898149E+01  0.64584231310E+01  0.53177257160E+01  0.95363000394E+01  0.51100000000E-03 0. -1.
        -11    1    3    3    0    0 -0.38232558165E+01 -0.81544035228E+00 -0.28140199107E+01  0.48167350276E+01  0.51100000000E-03 0.  1.
        -12    1    3    3    0    0 -0.98672852382E+01 -0.87426212885E+01  0.33688124421E+02  0.36175771892E+02  0.00000000000E+00 0.  1.
</event>
<event>
 7    1  0.5855569E-013  0.5052882E+02  0.7816164E-02  0.1300439E+00
        -11   -1    0    0    0    0  0.00000000000E+00  0.00000000000E+00  0.45593999997E+02  0.45594000000E+02  0.51100000000E-03 0. -1.
         11   -1    0    0    0    0 -0.00000000000E+00 -0.00000000000E+00 -0.45593999997E+02  0.45594000000E+02  0.51100000000E-03 0.  1.
    9900012    2    1    2    0    0 -0.36186156482E+01  0.66460796085E+01  0.39948766663E+02  0.50528822545E+02  0.29999886609E+02 0.  0.
        -12    1    1    2    0    0  0.36186156482E+01 -0.66460796085E+01 -0.39948766663E+02  0.40659177455E+02  0.00000000000E+00 0.  1.
         11    1    3    3    0    0 -0.28367673048E+01 -0.13894812103E+01  0.40284829809E+01  0.51192364825E+01  0.51100000000E-03 0. -1.
        -11    1    3    3    0    0 -0.11540774545E+02  0.11678476754E+02  0.21554956727E+02  0.27095985979E+02  0.51100000000E-03 0.  1.
         12    1    3    3    0    0  0.10758926201E+02 -0.36429159353E+01  0.14365326955E+02  0.18313600084E+02  0.00000000000E+00 0. -1.
</event>
<event>
 7    1  0.5855569E-013  0.5052887E+02  0.7816164E-02  0.1300439E+00
        -11   -1    0    0    0    0  0.00000000000E+00  0.00000000000E+00  0.45593999997E+02  0.45594000000E+02  0.51100000000E-03 0. -1.
         11   -1    0    0    0    0 -0.00000000000E+00 -0.00000000000E+00 -0.45593999997E+02  0.45594000000E+02  0.51100000000E-03 0.  1.
    9900012    2    1    2    0    0 -0.34410730822E+02  0.16112897542E+02  0.14472084289E+02  0.50528867120E+02  0.30000022097E+02 0.  0.
        -12    1    1    2    0    0  0.34410730822E+02 -0.16112897542E+02 -0.14472084289E+02  0.40659132880E+02  0.00000000000E+00 0.  1.
         11    1    3    3    0    0 -0.30109402291E+01  0.34314500713E+01  0.10261948831E+02  0.11231571783E+02  0.51100000000E-03 0.  1.
        -11    1    3    3    0    0 -0.15258626275E+02  0.16797854853E+01  0.10701753281E+02  0.18712960178E+02  0.51100000000E-03 0. -1.
         12    1    3    3    0    0 -0.16141164318E+02  0.11001661985E+02 -0.64916178221E+01  0.20584335159E+02  0.00000000000E+00 0. -1.
</event>
