<event>
 7    1  0.1327607E-011  0.5930195E+02  0.7816164E-02  0.1266605E+00
        -11   -1    0    0    0    0  0.00000000000E+00  0.00000000000E+00  0.45593999997E+02  0.45594000000E+02  0.51100000000E-03 0.  1.
         11   -1    0    0    0    0 -0.00000000000E+00 -0.00000000000E+00 -0.45593999997E+02  0.45594000000E+02  0.51100000000E-03 0. -1.
    9900012    2    1    2    0    0  0.10409156026E+02  0.54671804591E+01 -0.29639152870E+02  0.59301953299E+02  0.50000016909E+02 0.  0.
        -12    1    1    2    0    0 -0.10409156026E+02 -0.54671804591E+01  0.29639152870E+02  0.31886046701E+02  0.00000000000E+00 0.  1.
         11    1    3    3    0    0  0.61453387513E+01  0.13669847099E+02 -0.19829596437E+02  0.24856443896E+02  0.51100000000E-03 0. -1.
        -11    1    3    3    0    0  0.17823313632E+02 -0.66166581197E+01 -0.81790152851E+01  0.20696544755E+02  0.51100000000E-03 0.  1.
        -12    1    3    3    0    0 -0.13559496356E+02 -0.15860085198E+01 -0.16305411483E+01  0.13748964648E+02  0.00000000000E+00 0.  1.
</event>
<event>
 7    1  0.1327607E-011  0.5930197E+02  0.7816164E-02  0.1266605E+00
        -11   -1    0    0    0    0  0.00000000000E+00  0.00000000000E+00  0.45593999997E+02  0.45594000000E+02  0.51100000000E-03 0.  1.
         11   -1    0    0    0    0 -0.00000000000E+00 -0.00000000000E+00 -0.45593999997E+02  0.45594000000E+02  0.51100000000E-03 0. -1.
    9900012    2    1    2    0    0  0.25685649493E+02 -0.50755904865E+01 -0.18199034111E+02  0.59301967772E+02  0.50000043303E+02 0.  0.
        -12    1    1    2    0    0 -0.25685649493E+02  0.50755904865E+01  0.18199034111E+02  0.31886032228E+02  0.00000000000E+00 0.  1.
         11    1    3    3    0    0  0.13942153634E+01 -0.15311720038E+02 -0.91244514520E+01  0.17878708610E+02  0.51100000000E-03 0. -1.
        -11    1    3    3    0    0 -0.53458539373E+01  0.84892984054E+01 -0.57128187128E+01  0.11544810074E+02  0.51100000000E-03 0.  1.
         12    1    3    3    0    0  0.29637288067E+02  0.17468311464E+01 -0.33617639466E+01  0.29878449087E+02  0.00000000000E+00 0. -1.
</event>
<event>
 7    1  0.1327607E-011  0.5930194E+02  0.7816164E-02  0.1266605E+00
        -11   -1    0    0    0    0  0.00000000000E+00  0.00000000000E+00  0.45593999997E+02  0.45594000000E+02  0.51100000000E-03 0.  1.
         11   -1    0    0    0    0 -0.00000000000E+00 -0.00000000000E+00 -0.45593999997E+02  0.45594000000E+02  0.51100000000E-03 0. -1.
    9900012    2    1    2    0    0  0.90103063113E+01 -0.27707239718E+02 -0.12955463191E+02  0.59301940678E+02  0.49999993890E+02 0.  0.
        -12    1    1    2    0    0 -0.90103063113E+01  0.27707239718E+02  0.12955463191E+02  0.31886059322E+02  0.00000000000E+00 0.  1.
         11    1    3    3    0    0  0.29973504405E+01 -0.24314804255E+02 -0.26974282280E+02  0.36439068600E+02  0.51100000000E-03 0. -1.
        -11    1    3    3    0    0 -0.10494365835E+01 -0.77559444990E+01  0.17020151932E+01  0.80095473152E+01  0.51100000000E-03 0.  1.
        -12    1    3    3    0    0  0.70623924543E+01  0.43635090356E+01  0.12316803896E+02  0.14853324763E+02  0.00000000000E+00 0.  1.
</event>
<event>
 7    1  0.1327607E-011  0.5930196E+02  0.7816164E-02  0.1266605E+00
        -11   -1    0    0    0    0  0.00000000000E+00  0.00000000000E+00  0.45593999997E+02  0.45594000000E+02  0.51100000000E-03 0. -1.
         11   -1    0    0    0    0 -0.00000000000E+00 -0.00000000000E+00 -0.45593999997E+02  0.45594000000E+02  0.51100000000E-03 0.  1.
    9900012    2    1    2    0    0  0.20574555351E+02 -0.95007685767E+01  0.22430843922E+02  0.59301957748E+02  0.50000025022E+02 0.  0.
        -12    1    1    2    0    0 -0.20574555351E+02  0.95007685767E+01 -0.22430843922E+02  0.31886042252E+02  0.00000000000E+00 0.  1.
         11    1    3    3    0    0 -0.11336053920E+02 -0.64698947369E+01  0.16933143456E+02  0.21379827033E+02  0.51100000000E-03 0. -1.
        -11    1    3    3    0    0  0.16729189941E+02 -0.65624349597E+01  0.11370757834E+02  0.21265593871E+02  0.51100000000E-03 0.  1.
        -12    1    3    3    0    0  0.15181419330E+02  0.35315611199E+01 -0.58730573676E+01  0.16656536845E+02  0.00000000000E+00 0.  1.
</event>
<event>
 7    1  0.1327607E-011  0.5930193E+02  0.7816164E-02  0.1266605E+00
        -11   -1    0    0    0    0  0.00000000000E+00  0.00000000000E+00  0.45593999997E+02  0.45594000000E+02  0.51100000000E-03 0.  1.
         11   -1    0    0    0    0 -0.00000000000E+00 -0.00000000000E+00 -0.45593999997E+02  0.45594000000E+02  0.51100000000E-03 0. -1.
    9900012    2    1    2    0    0 -0.13431751820E+02 -0.23723362811E+02 -0.16538187165E+02  0.59301928829E+02  0.49999972281E+02 0.  0.
        -12    1    1    2    0    0  0.13431751820E+02  0.23723362811E+02  0.16538187165E+02  0.31886071171E+02  0.00000000000E+00 0.  1.
         11    1    3    3    0    0 -0.14739712133E+02 -0.18101571029E+02 -0.72557498880E+01  0.24445283680E+02  0.51100000000E-03 0. -1.
        -11    1    3    3    0    0 -0.96262811450E+01 -0.13989945879E+02  0.19416780402E+01  0.17092512637E+02  0.51100000000E-03 0.  1.
        -12    1    3    3    0    0  0.10934241458E+02  0.83681540968E+01 -0.11224115317E+02  0.17764132512E+02  0.00000000000E+00 0.  1.
</event>
<event>
 7    1  0.1327607E-011  0.5930194E+02  0.7816164E-02  0.1266605E+00
        -11   -1    0    0    0    0  0.00000000000E+00  0.00000000000E+00  0.45593999997E+02  0.45594000000E+02  0.51100000000E-03 0.  1.
         11   -1    0    0    0    0 -0.00000000000E+00 -0.00000000000E+00 -0.45593999997E+02  0.45594000000E+02  0.51100000000E-03 0. -1.
    9900012    2    1    2    0    0 -0.81304754352E+01 -0.10104184841E+02 -0.29129397457E+02  0.59301937554E+02  0.49999988194E+02 0.  0.
        -12    1    1    2    0    0  0.81304754352E+01  0.10104184841E+02  0.29129397457E+02  0.31886062446E+02  0.00000000000E+00 0.  1.
         11    1    3    3    0    0 -0.61197580502E+01 -0.76682479564E+01 -0.32927566179E+01  0.10348705799E+02  0.51100000000E-03 0. -1.
        -11    1    3    3    0    0 -0.34864767167E+01 -0.20008585515E+02 -0.36886884825E+01  0.20642321507E+02  0.51100000000E-03 0.  1.
        -12    1    3    3    0    0  0.14757593317E+01  0.17572648630E+02 -0.22147952357E+02  0.28310910248E+02  0.00000000000E+00 0.  1.
</event>
<event>
 7    1  0.1327607E-011  0.5930192E+02  0.7816164E-02  0.1266605E+00
        -11   -1    0    0    0    0  0.00000000000E+00  0.00000000000E+00  0.45593999997E+02  0.45594000000E+02  0.51100000000E-03 0.  1.
         11   -1    0    0    0    0 -0.00000000000E+00 -0.00000000000E+00 -0.45593999997E+02  0.45594000000E+02  0.51100000000E-03 0. -1.
    9900012    2    1    2    0    0  0.17571429170E+02 -0.26173830100E+02 -0.47851395657E+01  0.59301920501E+02  0.49999957092E+02 0.  0.
        -12    1    1    2    0    0 -0.17571429170E+02  0.26173830100E+02  0.47851395657E+01  0.31886079499E+02  0.00000000000E+00 0.  1.
         11    1    3    3    0    0  0.18687785346E+02  0.22640822488E+01 -0.12078124296E+02  0.22366056343E+02  0.51100000000E-03 0. -1.
        -11    1    3    3    0    0  0.89349251440E+00  0.14108188450E+01 -0.44840324059E+01  0.47849018344E+01  0.51100000000E-03 0.  1.
        -12    1    3    3    0    0 -0.20098486906E+01 -0.29848731194E+02  0.11777017137E+02  0.32150962323E+02  0.00000000000E+00 0.  1.
</event>
<event>
 7    1  0.1327607E-011  0.5930193E+02  0.7816164E-02  0.1266605E+00
        -11   -1    0    0    0    0  0.00000000000E+00  0.00000000000E+00  0.45593999997E+02  0.45594000000E+02  0.51100000000E-03 0.  1.
         11   -1    0    0    0    0 -0.00000000000E+00 -0.00000000000E+00 -0.45593999997E+02  0.45594000000E+02  0.51100000000E-03 0. -1.
    9900012    2    1    2    0    0  0.28565152997E+02 -0.72818990299E+01  0.12154316350E+02  0.59301930547E+02  0.49999975415E+02 0.  0.
        -12    1    1    2    0    0 -0.28565152997E+02  0.72818990299E+01 -0.12154316350E+02  0.31886069453E+02  0.00000000000E+00 0.  1.
         11    1    3    3    0    0  0.42115557027E+01 -0.23669908253E+01  0.55616553982E+01  0.73669436019E+01  0.51100000000E-03 0. -1.
        -11    1    3    3    0    0 -0.45789045448E+01 -0.56950197403E+01  0.19066136241E+02  0.20418549608E+02  0.51100000000E-03 0.  1.
         12    1    3    3    0    0  0.28932501839E+02  0.78011153562E+00 -0.12473475289E+02  0.31516437338E+02  0.00000000000E+00 0. -1.
</event>
<event>
 7    1  0.2169391E-011  0.5930195E+02  0.7816164E-02  0.1266605E+00
        -11   -1    0    0    0    0  0.00000000000E+00  0.00000000000E+00  0.45593999997E+02  0.45594000000E+02  0.51100000000E-03 0. -1.
         11   -1    0    0    0    0 -0.00000000000E+00 -0.00000000000E+00 -0.45593999997E+02  0.45594000000E+02  0.51100000000E-03 0.  1.
    9900012    2    1    2    0    0 -0.32418942842E+01  0.25837599880E+02  0.18401863458E+02  0.59301952506E+02  0.50000015462E+02 0.  0.
        -12    1    1    2    0    0  0.32418942842E+01 -0.25837599880E+02 -0.18401863458E+02  0.31886047494E+02  0.00000000000E+00 0.  1.
         11    1    3    3    0    0 -0.20137056189E+01  0.64708469636E+01  0.26056756057E+02  0.26923621733E+02  0.51100000000E-03 0. -1.
        -11    1    3    3    0    0 -0.53338670874E+01  0.21643142763E+02  0.12351487093E+01  0.22324904465E+02  0.51100000000E-03 0.  1.
        -12    1    3    3    0    0  0.41056784221E+01 -0.22763898474E+01 -0.88900413090E+01  0.10053426307E+02  0.00000000000E+00 0.  1.
</event>
<event>
 7    1  0.1327607E-011  0.5930194E+02  0.7816164E-02  0.1266605E+00
        -11   -1    0    0    0    0  0.00000000000E+00  0.00000000000E+00  0.45593999997E+02  0.45594000000E+02  0.51100000000E-03 0.  1.
         11   -1    0    0    0    0 -0.00000000000E+00 -0.00000000000E+00 -0.45593999997E+02  0.45594000000E+02  0.51100000000E-03 0. -1.
    9900012    2    1    2    0    0  0.24519919769E+01 -0.30201806323E+02 -0.99277150503E+01  0.59301938846E+02  0.49999990549E+02 0.  0.
        -12    1    1    2    0    0 -0.24519919769E+01  0.30201806323E+02  0.99277150503E+01  0.31886061154E+02  0.00000000000E+00 0.  1.
         11    1    3    3    0    0 -0.97567796059E+00 -0.15794112312E+02  0.60084769470E+01  0.16926539123E+02  0.51100000000E-03 0. -1.
        -11    1    3    3    0    0 -0.18443498381E+01  0.71460879616E+01  0.72055908435E+01  0.10314491706E+02  0.51100000000E-03 0.  1.
         12    1    3    3    0    0  0.52720197756E+01 -0.21553781973E+02 -0.23141782841E+02  0.32060908017E+02  0.00000000000E+00 0. -1.
</event>
<event>
 7    1  0.1327607E-011  0.5930198E+02  0.7816164E-02  0.1266605E+00
        -11   -1    0    0    0    0  0.00000000000E+00  0.00000000000E+00  0.45593999997E+02  0.45594000000E+02  0.51100000000E-03 0. -1.
         11   -1    0    0    0    0 -0.00000000000E+00 -0.00000000000E+00 -0.45593999997E+02  0.45594000000E+02  0.51100000000E-03 0.  1.
    9900012    2    1    2    0    0  0.10140767563E+02 -0.79193915322E+01  0.29174753031E+02  0.59301982008E+02  0.50000069266E+02 0.  0.
        -12    1    1    2    0    0 -0.10140767563E+02  0.79193915322E+01 -0.29174753031E+02  0.31886017992E+02  0.00000000000E+00 0.  1.
         11    1    3    3    0    0  0.13803627239E+02 -0.10475342401E+02 -0.14557707986E+01  0.17389427600E+02  0.51100000000E-03 0. -1.
        -11    1    3    3    0    0  0.19959702911E+01  0.68007825960E+01 -0.28896661789E+01  0.76540650773E+01  0.51100000000E-03 0.  1.
         12    1    3    3    0    0 -0.56588299676E+01 -0.42448317272E+01  0.33520190008E+02  0.34258489330E+02  0.00000000000E+00 0. -1.
</event>
<event>
 7    1  0.1327607E-011  0.5930193E+02  0.7816164E-02  0.1266605E+00
        -11   -1    0    0    0    0  0.00000000000E+00  0.00000000000E+00  0.45593999997E+02  0.45594000000E+02  0.51100000000E-03 0.  1.
         11   -1    0    0    0    0 -0.00000000000E+00 -0.00000000000E+00 -0.45593999997E+02  0.45594000000E+02  0.51100000000E-03 0. -1.
    9900012    2    1    2    0    0 -0.42686755291E+00  0.72728912350E+01 -0.31042616396E+02  0.59301934148E+02  0.49999981982E+02 0.  0.
        -12    1    1    2    0    0  0.42686755291E+00 -0.72728912350E+01  0.31042616396E+02  0.31886065852E+02  0.00000000000E+00 0.  1.
         11    1    3    3    0    0 -0.12174720969E+02  0.11891622004E+02 -0.90173820881E+01  0.19260002195E+02  0.51100000000E-03 0. -1.
        -11    1    3    3    0    0 -0.93403176559E+01  0.24062829190E+01 -0.12675710884E+02  0.15928131657E+02  0.51100000000E-03 0.  1.
        -12    1    3    3    0    0  0.21088171072E+02 -0.70250136879E+01 -0.93495234233E+01  0.24113800296E+02  0.00000000000E+00 0.  1.
</event>
<event>
 7    1  0.1327607E-011  0.5930199E+02  0.7816164E-02  0.1266605E+00
        -11   -1    0    0    0    0  0.00000000000E+00  0.00000000000E+00  0.45593999997E+02  0.45594000000E+02  0.51100000000E-03 0. -1.
         11   -1    0    0    0    0 -0.00000000000E+00 -0.00000000000E+00 -0.45593999997E+02  0.45594000000E+02  0.51100000000E-03 0.  1.
    9900012    2    1    2    0    0 -0.18186956232E+02  0.26122880141E+01 -0.26060093182E+02  0.59301986102E+02  0.50000076733E+02 0.  0.
        -12    1    1    2    0    0  0.18186956232E+02 -0.26122880141E+01  0.26060093182E+02  0.31886013898E+02  0.00000000000E+00 0.  1.
         11    1    3    3    0    0 -0.27502135994E+02  0.36140417888E+01 -0.19825089766E+02  0.34094911157E+02  0.51100000000E-03 0. -1.
        -11    1    3    3    0    0 -0.63961965357E+01  0.26024909849E+01 -0.59023348163E+01  0.90841535651E+01  0.51100000000E-03 0.  1.
         12    1    3    3    0    0  0.15711376297E+02 -0.36042447595E+01 -0.33266859917E+00  0.16122921380E+02  0.00000000000E+00 0. -1.
</event>
<event>
 7    1  0.1327607E-011  0.5930197E+02  0.7816164E-02  0.1266605E+00
        -11   -1    0    0    0    0  0.00000000000E+00  0.00000000000E+00  0.45593999997E+02  0.45594000000E+02  0.51100000000E-03 0.  1.
         11   -1    0    0    0    0 -0.00000000000E+00 -0.00000000000E+00 -0.45593999997E+02  0.45594000000E+02  0.51100000000E-03 0. -1.
    9900012    2    1    2    0    0  0.13098286260E+02 -0.21527739856E+02 -0.19537398371E+02  0.59301974513E+02  0.50000055598E+02 0.  0.
        -12    1    1    2    0    0 -0.13098286260E+02  0.21527739856E+02  0.19537398371E+02  0.31886025487E+02  0.00000000000E+00 0.  1.
         11    1    3    3    0    0 -0.11567281130E+02  0.18518749713E+01 -0.35254665852E+01  0.12233574644E+02  0.51100000000E-03 0. -1.
        -11    1    3    3    0    0 -0.38655689943E+01  0.33867342473E+01 -0.19460245505E+01  0.54954166651E+01  0.51100000000E-03 0.  1.
         12    1    3    3    0    0  0.28531136384E+02 -0.26766349075E+02 -0.14065907235E+02  0.41572983204E+02  0.00000000000E+00 0. -1.
</event>
<event>
 7    1  0.1327607E-011  0.5930193E+02  0.7816164E-02  0.1266605E+00
        -11   -1    0    0    0    0  0.00000000000E+00  0.00000000000E+00  0.45593999997E+02  0.45594000000E+02  0.51100000000E-03 0.  1.
         11   -1    0    0    0    0 -0.00000000000E+00 -0.00000000000E+00 -0.45593999997E+02  0.45594000000E+02  0.51100000000E-03 0. -1.
    9900012    2    1    2    0    0 -0.70774155303E+01  0.16681518975E+02 -0.26236585941E+02  0.59301932074E+02  0.49999978200E+02 0.  0.
        -12    1    1    2    0    0  0.70774155303E+01 -0.16681518975E+02  0.26236585941E+02  0.31886067926E+02  0.00000000000E+00 0.  1.
         11    1    3    3    0    0 -0.12733740869E+02  0.99397155466E+01 -0.70894172987E+01  0.17641030003E+02  0.51100000000E-03 0. -1.
        -11    1    3    3    0    0 -0.10522490500E+02 -0.46465669460E+00  0.50448330251E+01  0.11678572373E+02  0.51100000000E-03 0.  1.
        -12    1    3    3    0    0  0.16178815839E+02  0.72064601227E+01 -0.24192001668E+02  0.29982329698E+02  0.00000000000E+00 0.  1.
</event>
<event>
 7    1  0.1327607E-011  0.5930194E+02  0.7816164E-02  0.1266605E+00
        -11   -1    0    0    0    0  0.00000000000E+00  0.00000000000E+00  0.45593999997E+02  0.45594000000E+02  0.51100000000E-03 0.  1.
         11   -1    0    0    0    0 -0.00000000000E+00 -0.00000000000E+00 -0.45593999997E+02  0.45594000000E+02  0.51100000000E-03 0. -1.
    9900012    2    1    2    0    0 -0.82390274115E+01  0.25759668628E+02 -0.16890204322E+02  0.59301935606E+02  0.49999984641E+02 0.  0.
        -12    1    1    2    0    0  0.82390274115E+01 -0.25759668628E+02  0.16890204322E+02  0.31886064394E+02  0.00000000000E+00 0.  1.
         11    1    3    3    0    0 -0.91206775681E+01 -0.81816666882E+01  0.40063023306E-01  0.12252674582E+02  0.51100000000E-03 0. -1.
        -11    1    3    3    0    0  0.11912486470E+02  0.13952772462E+02  0.45682082282E+00  0.18351999314E+02  0.51100000000E-03 0.  1.
         12    1    3    3    0    0 -0.11030836313E+02  0.19988562853E+02 -0.17387088168E+02  0.28697261711E+02  0.00000000000E+00 0. -1.
</event>
<event>
 7    1  0.1327607E-011  0.5930182E+02  0.7816164E-02  0.1266605E+00
        -11   -1    0    0    0    0  0.00000000000E+00  0.00000000000E+00  0.45593999997E+02  0.45594000000E+02  0.51100000000E-03 0.  1.
         11   -1    0    0    0    0 -0.00000000000E+00 -0.00000000000E+00 -0.45593999997E+02  0.45594000000E+02  0.51100000000E-03 0. -1.
    9900012    2    1    2    0    0 -0.23290566285E+02  0.60483514310E-01 -0.21777847823E+02  0.59301815031E+02  0.49999764740E+02 0.  0.
        -12    1    1    2    0    0  0.23290566285E+02 -0.60483514310E-01  0.21777847823E+02  0.31886184969E+02  0.00000000000E+00 0.  1.
         11    1    3    3    0    0  0.53614524082E+01 -0.66149353073E+01 -0.15087581030E+02  0.17324481021E+02  0.51100000000E-03 0. -1.
        -11    1    3    3    0    0 -0.12878929264E+02 -0.17961499309E+00 -0.17451351743E+02  0.21689830761E+02  0.51100000000E-03 0.  1.
        -12    1    3    3    0    0 -0.15773089429E+02  0.68550338147E+01  0.10761084951E+02  0.20287503248E+02  0.00000000000E+00 0.  1.
</event>
<event>
 7    1  0.1327607E-011  0.5930194E+02  0.7816164E-02  0.1266605E+00
        -11   -1    0    0    0    0  0.00000000000E+00  0.00000000000E+00  0.45593999997E+02  0.45594000000E+02  0.51100000000E-03 0. -1.
         11   -1    0    0    0    0 -0.00000000000E+00 -0.00000000000E+00 -0.45593999997E+02  0.45594000000E+02  0.51100000000E-03 0.  1.
    9900012    2    1    2    0    0 -0.44674254371E+01  0.13232091061E+01  0.31543807775E+02  0.59301943779E+02  0.49999999547E+02 0.  0.
        -12    1    1    2    0    0  0.44674254371E+01 -0.13232091061E+01 -0.31543807775E+02  0.31886056221E+02  0.00000000000E+00 0.  1.
         11    1    3    3    0    0  0.31812128342E+01 -0.92271611868E+01  0.18893567695E+02  0.21265641753E+02  0.51100000000E-03 0. -1.
        -11    1    3    3    0    0 -0.13336738055E+02  0.49516314106E+01 -0.77003398833E+01  0.16176602553E+02  0.51100000000E-03 0.  1.
         12    1    3    3    0    0  0.56880997836E+01  0.55987388823E+01  0.20350579964E+02  0.21859699474E+02  0.00000000000E+00 0. -1.
</event>
<event>
 7    1  0.1327607E-011  0.5930196E+02  0.7816164E-02  0.1266605E+00
        -11   -1    0    0    0    0  0.00000000000E+00  0.00000000000E+00  0.45593999997E+02  0.45594000000E+02  0.51100000000E-03 0. -1.
         11   -1    0    0    0    0 -0.00000000000E+00 -0.00000000000E+00 -0.45593999997E+02  0.45594000000E+02  0.51100000000E-03 0.  1.
    9900012    2    1    2    0    0 -0.26672925723E+02 -0.97613049927E+01  0.14491081133E+02  0.59301961140E+02  0.50000031209E+02 0.  0.
        -12    1    1    2    0    0  0.26672925723E+02  0.97613049927E+01 -0.14491081133E+02  0.31886038860E+02  0.00000000000E+00 0.  1.
         11    1    3    3    0    0 -0.19297935929E+02 -0.16991744157E+02  0.63191065878E+01  0.26477552926E+02  0.51100000000E-03 0. -1.
        -11    1    3    3    0    0  0.40250913261E+01  0.22344193557E+01 -0.98785110550E+01  0.10898576557E+02  0.51100000000E-03 0.  1.
        -12    1    3    3    0    0 -0.11400081120E+02  0.49960198085E+01  0.18050485601E+02  0.21925831658E+02  0.00000000000E+00 0.  1.
</event>
<event>
 7    1  0.1327607E-011  0.5930196E+02  0.7816164E-02  0.1266605E+00
        -11   -1    0    0    0    0  0.00000000000E+00  0.00000000000E+00  0.45593999997E+02  0.45594000000E+02  0.51100000000E-03 0. -1.
         11   -1    0    0    0    0 -0.00000000000E+00 -0.00000000000E+00 -0.45593999997E+02  0.45594000000E+02  0.51100000000E-03 0.  1.
    9900012    2    1    2    0    0  0.26399904295E+02  0.14583582530E+02  0.10348125979E+02  0.59301960148E+02  0.50000029399E+02 0.  0.
        -12    1    1    2    0    0 -0.26399904295E+02 -0.14583582530E+02 -0.10348125979E+02  0.31886039852E+02  0.00000000000E+00 0.  1.
         11    1    3    3    0    0  0.37850251703E+01  0.44064793218E+01 -0.11121612595E+02  0.12547260359E+02  0.51100000000E-03 0. -1.
        -11    1    3    3    0    0 -0.55001032969E+00  0.10893277275E+02 -0.46309365301E+01  0.11849539002E+02  0.51100000000E-03 0.  1.
         12    1    3    3    0    0  0.23164889454E+02 -0.71617406710E+00  0.26100675103E+02  0.34905160787E+02  0.00000000000E+00 0. -1.
</event>
<event>
 7    1  0.1327607E-011  0.5930208E+02  0.7816164E-02  0.1266604E+00
        -11   -1    0    0    0    0  0.00000000000E+00  0.00000000000E+00  0.45593999997E+02  0.45594000000E+02  0.51100000000E-03 0.  1.
         11   -1    0    0    0    0 -0.00000000000E+00 -0.00000000000E+00 -0.45593999997E+02  0.45594000000E+02  0.51100000000E-03 0. -1.
    9900012    2    1    2    0    0 -0.13729723227E+02  0.12829695062E+02 -0.25760538908E+02  0.59302082417E+02  0.50000252389E+02 0.  0.
        -12    1    1    2    0    0  0.13729723227E+02 -0.12829695062E+02  0.25760538908E+02  0.31885917583E+02  0.00000000000E+00 0.  1.
         11    1    3    3    0    0 -0.28979997281E+01  0.16121198153E+02  0.42599214258E+01  0.16924490040E+02  0.51100000000E-03 0. -1.
        -11    1    3    3    0    0 -0.18809798447E+02 -0.46168188855E+01 -0.12420785956E+02  0.23008682237E+02  0.51100000000E-03 0.  1.
         12    1    3    3    0    0  0.79780749482E+01  0.13253157945E+01 -0.17599674378E+02  0.19368910141E+02  0.00000000000E+00 0. -1.
</event>
<event>
 7    1  0.1327607E-011  0.5930194E+02  0.7816164E-02  0.1266605E+00
        -11   -1    0    0    0    0  0.00000000000E+00  0.00000000000E+00  0.45593999997E+02  0.45594000000E+02  0.51100000000E-03 0.  1.
         11   -1    0    0    0    0 -0.00000000000E+00 -0.00000000000E+00 -0.45593999997E+02  0.45594000000E+02  0.51100000000E-03 0. -1.
    9900012    2    1    2    0    0  0.52742180201E+01 -0.31443826590E+02  0.43498313059E+00  0.59301940089E+02  0.49999992816E+02 0.  0.
        -12    1    1    2    0    0 -0.52742180201E+01  0.31443826590E+02 -0.43498313059E+00  0.31886059911E+02  0.00000000000E+00 0.  1.
         11    1    3    3    0    0 -0.51261130526E+00  0.19174353538E+01  0.31255060140E+01  0.37024474056E+01  0.51100000000E-03 0. -1.
        -11    1    3    3    0    0 -0.39478818546E+01 -0.57662541014E+01  0.18299183981E+02  0.19588149278E+02  0.51100000000E-03 0.  1.
         12    1    3    3    0    0  0.97347111800E+01 -0.27595007842E+02 -0.20989706865E+02  0.36011343405E+02  0.00000000000E+00 0. -1.
</event>
<event>
 7    1  0.1327607E-011  0.5930191E+02  0.7816164E-02  0.1266605E+00
        -11   -1    0    0    0    0  0.00000000000E+00  0.00000000000E+00  0.45593999997E+02  0.45594000000E+02  0.51100000000E-03 0. -1.
         11   -1    0    0    0    0 -0.00000000000E+00 -0.00000000000E+00 -0.45593999997E+02  0.45594000000E+02  0.51100000000E-03 0.  1.
    9900012    2    1    2    0    0 -0.90496122327E+01 -0.10729396771E+02  0.28630533352E+02  0.59301907786E+02  0.49999933904E+02 0.  0.
        -12    1    1    2    0    0  0.90496122327E+01  0.10729396771E+02 -0.28630533352E+02  0.31886092214E+02  0.00000000000E+00 0.  1.
         11    1    3    3    0    0  0.17249976484E+01 -0.85756336361E+01  0.22795705591E+01  0.90395548199E+01  0.51100000000E-03 0. -1.
        -11    1    3    3    0    0  0.74534291703E+01 -0.13634827343E+02 -0.85217012430E+00  0.15562400754E+02  0.51100000000E-03 0.  1.
         12    1    3    3    0    0 -0.18228039051E+02  0.11481064207E+02  0.27203132917E+02  0.34699952212E+02  0.00000000000E+00 0. -1.
</event>
<event>
 7    1  0.1327607E-011  0.5930193E+02  0.7816164E-02  0.1266605E+00
        -11   -1    0    0    0    0  0.00000000000E+00  0.00000000000E+00  0.45593999997E+02  0.45594000000E+02  0.51100000000E-03 0.  1.
         11   -1    0    0    0    0 -0.00000000000E+00 -0.00000000000E+00 -0.45593999997E+02  0.45594000000E+02  0.51100000000E-03 0. -1.
    9900012    2    1    2    0    0 -0.10266220541E+02 -0.29960185189E+02 -0.37031346721E+01  0.59301934279E+02  0.49999982221E+02 0.  0.
        -12    1    1    2    0    0  0.10266220541E+02  0.29960185189E+02  0.37031346721E+01  0.31886065721E+02  0.00000000000E+00 0.  1.
         11    1    3    3    0    0 -0.52263484944E+01 -0.21093433535E+02  0.68561101889E+00  0.21742072569E+02  0.51100000000E-03 0. -1.
        -11    1    3    3    0    0  0.12634176474E+02 -0.10890531917E+02 -0.93096756926E+01  0.19102255426E+02  0.51100000000E-03 0.  1.
         12    1    3    3    0    0 -0.17674048520E+02  0.20237802625E+01  0.49209300015E+01  0.18457606284E+02  0.00000000000E+00 0. -1.
</event>
<event>
 7    1  0.1327607E-011  0.5930195E+02  0.7816164E-02  0.1266605E+00
        -11   -1    0    0    0    0  0.00000000000E+00  0.00000000000E+00  0.45593999997E+02  0.45594000000E+02  0.51100000000E-03 0.  1.
         11   -1    0    0    0    0 -0.00000000000E+00 -0.00000000000E+00 -0.45593999997E+02  0.45594000000E+02  0.51100000000E-03 0. -1.
    9900012    2    1    2    0    0  0.59267837410E+01 -0.24208192885E+02 -0.19888608132E+02  0.59301951300E+02  0.50000013263E+02 0.  0.
        -12    1    1    2    0    0 -0.59267837410E+01  0.24208192885E+02  0.19888608132E+02  0.31886048700E+02  0.00000000000E+00 0.  1.
         11    1    3    3    0    0 -0.54563975447E+01 -0.37056059381E+01 -0.31074511493E+01  0.72910933639E+01  0.51100000000E-03 0. -1.
        -11    1    3    3    0    0 -0.12729643931E+02  0.29210008173E+01 -0.12577841372E+02  0.18132241291E+02  0.51100000000E-03 0.  1.
         12    1    3    3    0    0  0.24112825217E+02 -0.23423587764E+02 -0.42033156114E+01  0.33878616645E+02  0.00000000000E+00 0. -1.
</event>
<event>
 7    1  0.1327607E-011  0.5930192E+02  0.7816164E-02  0.1266605E+00
        -11   -1    0    0    0    0  0.00000000000E+00  0.00000000000E+00  0.45593999997E+02  0.45594000000E+02  0.51100000000E-03 0.  1.
         11   -1    0    0    0    0 -0.00000000000E+00 -0.00000000000E+00 -0.45593999997E+02  0.45594000000E+02  0.51100000000E-03 0. -1.
    9900012    2    1    2    0    0 -0.62025628391E+01  0.11073004219E+02 -0.29251310552E+02  0.59301915618E+02  0.49999948188E+02 0.  0.
        -12    1    1    2    0    0  0.62025628391E+01 -0.11073004219E+02  0.29251310552E+02  0.31886084382E+02  0.00000000000E+00 0.  1.
         11    1    3    3    0    0 -0.75147824670E+01  0.16521423703E+02 -0.39870759237E+02  0.43807611657E+02  0.51100000000E-03 0. -1.
        -11    1    3    3    0    0  0.10453541188E+01  0.34367147146E+00 -0.16156774808E+01  0.19548118316E+01  0.51100000000E-03 0.  1.
        -12    1    3    3    0    0  0.26686550909E+00 -0.57920909557E+01  0.12235126166E+02  0.13539492130E+02  0.00000000000E+00 0.  1.
</event>
<event>
 7    1  0.1327607E-011  0.5930193E+02  0.7816164E-02  0.1266605E+00
        -11   -1    0    0    0    0  0.00000000000E+00  0.00000000000E+00  0.45593999997E+02  0.45594000000E+02  0.51100000000E-03 0.  1.
         11   -1    0    0    0    0 -0.00000000000E+00 -0.00000000000E+00 -0.45593999997E+02  0.45594000000E+02  0.51100000000E-03 0. -1.
    9900012    2    1    2    0    0  0.13940991347E+02 -0.12142442167E+02 -0.25979444320E+02  0.59301926729E+02  0.49999968451E+02 0.  0.
        -12    1    1    2    0    0 -0.13940991347E+02  0.12142442167E+02  0.25979444320E+02  0.31886073271E+02  0.00000000000E+00 0.  1.
         11    1    3    3    0    0  0.83660881243E+01 -0.48106596973E+00 -0.12937421244E+02  0.15414270131E+02  0.51100000000E-03 0. -1.
        -11    1    3    3    0    0 -0.67289549079E+01  0.12752914579E+02 -0.27743293733E+01  0.14683751842E+02  0.51100000000E-03 0.  1.
         12    1    3    3    0    0  0.12303858130E+02 -0.24414290776E+02 -0.10267693702E+02  0.29203904755E+02  0.00000000000E+00 0. -1.
</event>
<event>
 7    1  0.1327607E-011  0.5930200E+02  0.7816164E-02  0.1266605E+00
        -11   -1    0    0    0    0  0.00000000000E+00  0.00000000000E+00  0.45593999997E+02  0.45594000000E+02  0.51100000000E-03 0.  1.
         11   -1    0    0    0    0 -0.00000000000E+00 -0.00000000000E+00 -0.45593999997E+02  0.45594000000E+02  0.51100000000E-03 0. -1.
    9900012    2    1    2    0    0  0.18601867529E+02 -0.12595024633E+02 -0.22628582702E+02  0.59302001879E+02  0.50000105507E+02 0.  0.
        -12    1    1    2    0    0 -0.18601867529E+02  0.12595024633E+02  0.22628582702E+02  0.31885998121E+02  0.00000000000E+00 0.  1.
         11    1    3    3    0    0  0.21999343401E+01  0.14103039456E+02 -0.13461452032E+02  0.19620043936E+02  0.51100000000E-03 0. -1.
        -11    1    3    3    0    0  0.85449249770E+01 -0.11231050510E+02  0.71901534896E+01  0.15838262085E+02  0.51100000000E-03 0.  1.
        -12    1    3    3    0    0  0.78570082115E+01 -0.15467013578E+02 -0.16357284160E+02  0.23843695858E+02  0.00000000000E+00 0.  1.
</event>
<event>
 7    1  0.1327607E-011  0.5930188E+02  0.7816164E-02  0.1266605E+00
        -11   -1    0    0    0    0  0.00000000000E+00  0.00000000000E+00  0.45593999997E+02  0.45594000000E+02  0.51100000000E-03 0.  1.
         11   -1    0    0    0    0 -0.00000000000E+00 -0.00000000000E+00 -0.45593999997E+02  0.45594000000E+02  0.51100000000E-03 0. -1.
    9900012    2    1    2    0    0  0.30158482323E+02  0.10352307710E+02 -0.14165564107E+00  0.59301883942E+02  0.49999890418E+02 0.  0.
        -12    1    1    2    0    0 -0.30158482323E+02 -0.10352307710E+02  0.14165564107E+00  0.31886116058E+02  0.00000000000E+00 0.  1.
         11    1    3    3    0    0  0.89254475847E+01  0.91518312776E+01 -0.15995577608E+02  0.20476282221E+02  0.51100000000E-03 0. -1.
        -11    1    3    3    0    0 -0.53993510891E+01 -0.44469427066E+01 -0.59090413398E+00  0.70197905649E+01  0.51100000000E-03 0.  1.
         12    1    3    3    0    0  0.26632385827E+02  0.56474191392E+01  0.16444826101E+02  0.31805811156E+02  0.00000000000E+00 0. -1.
</event>
<event>
 7    1  0.1327607E-011  0.5930192E+02  0.7816164E-02  0.1266605E+00
        -11   -1    0    0    0    0  0.00000000000E+00  0.00000000000E+00  0.45593999997E+02  0.45594000000E+02  0.51100000000E-03 0.  1.
         11   -1    0    0    0    0 -0.00000000000E+00 -0.00000000000E+00 -0.45593999997E+02  0.45594000000E+02  0.51100000000E-03 0. -1.
    9900012    2    1    2    0    0 -0.17563175641E+02 -0.10274275440E+02 -0.24549870453E+02  0.59301921318E+02  0.49999958584E+02 0.  0.
        -12    1    1    2    0    0  0.17563175641E+02  0.10274275440E+02  0.24549870453E+02  0.31886078682E+02  0.00000000000E+00 0.  1.
         11    1    3    3    0    0  0.66514766838E+01  0.21862105152E+01 -0.17392585531E+02  0.18748965044E+02  0.51100000000E-03 0. -1.
        -11    1    3    3    0    0 -0.79076307795E+01 -0.18333490528E+01  0.11176863974E+02  0.13813547041E+02  0.51100000000E-03 0.  1.
         12    1    3    3    0    0 -0.16307021545E+02 -0.10627136903E+02 -0.18334148896E+02  0.26739409234E+02  0.00000000000E+00 0. -1.
</event>
<event>
 7    1  0.1327607E-011  0.5930195E+02  0.7816164E-02  0.1266605E+00
        -11   -1    0    0    0    0  0.00000000000E+00  0.00000000000E+00  0.45593999997E+02  0.45594000000E+02  0.51100000000E-03 0.  1.
         11   -1    0    0    0    0 -0.00000000000E+00 -0.00000000000E+00 -0.45593999997E+02  0.45594000000E+02  0.51100000000E-03 0. -1.
    9900012    2    1    2    0    0 -0.14269924096E+02 -0.75878303688E+01 -0.27486615716E+02  0.59301953727E+02  0.50000017688E+02 0.  0.
        -12    1    1    2    0    0  0.14269924096E+02  0.75878303688E+01  0.27486615716E+02  0.31886046273E+02  0.00000000000E+00 0.  1.
         11    1    3    3    0    0 -0.49281483470E+01 -0.22891642596E+02 -0.13047029502E+02  0.26805576396E+02  0.51100000000E-03 0. -1.
        -11    1    3    3    0    0 -0.71780771004E+01 -0.49644227174E+01 -0.44596905720E+01  0.98009756676E+01  0.51100000000E-03 0.  1.
        -12    1    3    3    0    0 -0.21636986486E+01  0.20268234944E+02 -0.99798956423E+01  0.22695401663E+02  0.00000000000E+00 0.  1.
</event>
<event>
 7    1  0.1327607E-011  0.5930194E+02  0.7816164E-02  0.1266605E+00
        -11   -1    0    0    0    0  0.00000000000E+00  0.00000000000E+00  0.45593999997E+02  0.45594000000E+02  0.51100000000E-03 0.  1.
         11   -1    0    0    0    0 -0.00000000000E+00 -0.00000000000E+00 -0.45593999997E+02  0.45594000000E+02  0.51100000000E-03 0. -1.
    9900012    2    1    2    0    0 -0.15180219950E+02 -0.98544072512E+01 -0.26252098842E+02  0.59301935433E+02  0.49999984324E+02 0.  0.
        -12    1    1    2    0    0  0.15180219950E+02  0.98544072512E+01  0.26252098842E+02  0.31886064567E+02  0.00000000000E+00 0.  1.
         11    1    3    3    0    0 -0.98910064340E+01 -0.10868488422E+02  0.55187773650E+01  0.15697546073E+02  0.51100000000E-03 0. -1.
        -11    1    3    3    0    0  0.69211382857E+01 -0.10443213920E+02 -0.94076156296E+01  0.15667357922E+02  0.51100000000E-03 0.  1.
         12    1    3    3    0    0 -0.12210351802E+02  0.11457295091E+02 -0.22363260577E+02  0.27937031438E+02  0.00000000000E+00 0. -1.
</event>
<event>
 7    1  0.1327607E-011  0.5930196E+02  0.7816164E-02  0.1266605E+00
        -11   -1    0    0    0    0  0.00000000000E+00  0.00000000000E+00  0.45593999997E+02  0.45594000000E+02  0.51100000000E-03 0.  1.
         11   -1    0    0    0    0 -0.00000000000E+00 -0.00000000000E+00 -0.45593999997E+02  0.45594000000E+02  0.51100000000E-03 0. -1.
    9900012    2    1    2    0    0 -0.10555133463E+02  0.24244496175E+02 -0.17818904446E+02  0.59301956143E+02  0.50000022096E+02 0.  0.
        -12    1    1    2    0    0  0.10555133463E+02 -0.24244496175E+02  0.17818904446E+02  0.31886043857E+02  0.00000000000E+00 0.  1.
         11    1    3    3    0    0  0.13912615027E+01  0.15949506129E+02 -0.11680659661E+01  0.16052623857E+02  0.51100000000E-03 0. -1.
        -11    1    3    3    0    0 -0.31289860967E+01  0.20461072447E+02  0.16376232533E+00  0.20699585938E+02  0.51100000000E-03 0.  1.
        -12    1    3    3    0    0 -0.88174088686E+01 -0.12166082401E+02 -0.16814600805E+02  0.22549746348E+02  0.00000000000E+00 0.  1.
</event>
<event>
 7    1  0.1327607E-011  0.5930187E+02  0.7816164E-02  0.1266605E+00
        -11   -1    0    0    0    0  0.00000000000E+00  0.00000000000E+00  0.45593999997E+02  0.45594000000E+02  0.51100000000E-03 0.  1.
         11   -1    0    0    0    0 -0.00000000000E+00 -0.00000000000E+00 -0.45593999997E+02  0.45594000000E+02  0.51100000000E-03 0. -1.
    9900012    2    1    2    0    0  0.14586271129E+02  0.21628068958E+02 -0.18335555251E+02  0.59301870434E+02  0.49999865783E+02 0.  0.
        -12    1    1    2    0    0 -0.14586271129E+02 -0.21628068958E+02  0.18335555251E+02  0.31886129566E+02  0.00000000000E+00 0.  1.
         11    1    3    3    0    0  0.97633292366E+01 -0.68164740474E+01 -0.28879236884E+01  0.12252633175E+02  0.51100000000E-03 0. -1.
        -11    1    3    3    0    0  0.20816009903E+01  0.16348612260E+02  0.96188129841E+01  0.19082236478E+02  0.51100000000E-03 0.  1.
         12    1    3    3    0    0  0.27413409022E+01  0.12095930746E+02 -0.25066444547E+02  0.27967000782E+02  0.00000000000E+00 0. -1.
</event>
<event>
 7    1  0.1327607E-011  0.5930209E+02  0.7816164E-02  0.1266604E+00
        -11   -1    0    0    0    0  0.00000000000E+00  0.00000000000E+00  0.45593999997E+02  0.45594000000E+02  0.51100000000E-03 0.  1.
         11   -1    0    0    0    0 -0.00000000000E+00 -0.00000000000E+00 -0.45593999997E+02  0.45594000000E+02  0.51100000000E-03 0. -1.
    9900012    2    1    2    0    0 -0.14859782795E+02 -0.20477177254E+02 -0.19405761248E+02  0.59302086141E+02  0.50000259180E+02 0.  0.
        -12    1    1    2    0    0  0.14859782795E+02  0.20477177254E+02  0.19405761248E+02  0.31885913859E+02  0.00000000000E+00 0.  1.
         11    1    3    3    0    0 -0.52366651382E+01 -0.19030425129E+02 -0.24693481173E+02  0.31612462022E+02  0.51100000000E-03 0. -1.
        -11    1    3    3    0    0  0.57810399619E+01 -0.84126743115E+01  0.29322730969E+01  0.10620345469E+02  0.51100000000E-03 0.  1.
        -12    1    3    3    0    0 -0.15404157619E+02  0.69659221868E+01  0.23554468289E+01  0.17069278650E+02  0.00000000000E+00 0.  1.
</event>
<event>
 7    1  0.1327607E-011  0.5930193E+02  0.7816164E-02  0.1266605E+00
        -11   -1    0    0    0    0  0.00000000000E+00  0.00000000000E+00  0.45593999997E+02  0.45594000000E+02  0.51100000000E-03 0. -1.
         11   -1    0    0    0    0 -0.00000000000E+00 -0.00000000000E+00 -0.45593999997E+02  0.45594000000E+02  0.51100000000E-03 0.  1.
    9900012    2    1    2    0    0 -0.51213481486E+01 -0.15178604466E+02  0.27569967551E+02  0.59301931708E+02  0.49999977531E+02 0.  0.
        -12    1    1    2    0    0  0.51213481486E+01  0.15178604466E+02 -0.27569967551E+02  0.31886068292E+02  0.00000000000E+00 0.  1.
         11    1    3    3    0    0  0.11998130796E+01 -0.16652524533E+02  0.32625058178E+02  0.36648881922E+02  0.51100000000E-03 0. -1.
        -11    1    3    3    0    0 -0.18107305890E+01 -0.32583946992E+01  0.75687067239E+01  0.84368953422E+01  0.51100000000E-03 0.  1.
        -12    1    3    3    0    0 -0.45104306392E+01  0.47323147658E+01 -0.12623797351E+02  0.14216154443E+02  0.00000000000E+00 0.  1.
</event>
<event>
 7    1  0.1327607E-011  0.5930196E+02  0.7816164E-02  0.1266605E+00
        -11   -1    0    0    0    0  0.00000000000E+00  0.00000000000E+00  0.45593999997E+02  0.45594000000E+02  0.51100000000E-03 0.  1.
         11   -1    0    0    0    0 -0.00000000000E+00 -0.00000000000E+00 -0.45593999997E+02  0.45594000000E+02  0.51100000000E-03 0. -1.
    9900012    2    1    2    0    0  0.40210299037E+01  0.17956206946E+02 -0.26040848871E+02  0.59301955101E+02  0.50000020196E+02 0.  0.
        -12    1    1    2    0    0 -0.40210299037E+01 -0.17956206946E+02  0.26040848871E+02  0.31886044899E+02  0.00000000000E+00 0.  1.
         11    1    3    3    0    0  0.74755615756E+01  0.12351823863E+02 -0.94963344255E+01  0.17280970499E+02  0.51100000000E-03 0. -1.
        -11    1    3    3    0    0  0.85258676928E+01 -0.63645161069E+01  0.72068933295E+01  0.12850556288E+02  0.51100000000E-03 0.  1.
         12    1    3    3    0    0 -0.11980399365E+02  0.11968899190E+02 -0.23751407775E+02  0.29170428314E+02  0.00000000000E+00 0. -1.
</event>
<event>
 7    1  0.1327607E-011  0.5930195E+02  0.7816164E-02  0.1266605E+00
        -11   -1    0    0    0    0  0.00000000000E+00  0.00000000000E+00  0.45593999997E+02  0.45594000000E+02  0.51100000000E-03 0. -1.
         11   -1    0    0    0    0 -0.00000000000E+00 -0.00000000000E+00 -0.45593999997E+02  0.45594000000E+02  0.51100000000E-03 0.  1.
    9900012    2    1    2    0    0 -0.15679671396E+01  0.19953008143E+01  0.31784912393E+02  0.59301946589E+02  0.50000004671E+02 0.  0.
        -12    1    1    2    0    0  0.15679671396E+01 -0.19953008143E+01 -0.31784912393E+02  0.31886053411E+02  0.00000000000E+00 0.  1.
         11    1    3    3    0    0 -0.25403850433E+01 -0.21489669064E+01 -0.11436605291E+01  0.35184619651E+01  0.51100000000E-03 0. -1.
        -11    1    3    3    0    0  0.14995633057E+02 -0.11835894139E+02  0.34105869374E+01  0.19405914160E+02  0.51100000000E-03 0.  1.
         12    1    3    3    0    0 -0.14023215153E+02  0.15980161860E+02  0.29517985985E+02  0.36377570464E+02  0.00000000000E+00 0. -1.
</event>
<event>
 7    1  0.1327607E-011  0.5930190E+02  0.7816164E-02  0.1266605E+00
        -11   -1    0    0    0    0  0.00000000000E+00  0.00000000000E+00  0.45593999997E+02  0.45594000000E+02  0.51100000000E-03 0.  1.
         11   -1    0    0    0    0 -0.00000000000E+00 -0.00000000000E+00 -0.45593999997E+02  0.45594000000E+02  0.51100000000E-03 0. -1.
    9900012    2    1    2    0    0  0.27107366206E+02 -0.41968491333E+01  0.16257319744E+02  0.59301901297E+02  0.49999922069E+02 0.  0.
        -12    1    1    2    0    0 -0.27107366206E+02  0.41968491333E+01 -0.16257319744E+02  0.31886098703E+02  0.00000000000E+00 0.  1.
         11    1    3    3    0    0  0.10292294051E+02 -0.69086219447E+01 -0.10257812665E+02  0.16089844466E+02  0.51100000000E-03 0. -1.
        -11    1    3    3    0    0  0.14363376117E+02  0.14606490472E+02  0.10232181329E+02  0.22898770107E+02  0.51100000000E-03 0.  1.
         12    1    3    3    0    0  0.24516960375E+01 -0.11894717660E+02  0.16282951079E+02  0.20313286724E+02  0.00000000000E+00 0. -1.
</event>
<event>
 7    1  0.1327607E-011  0.5930195E+02  0.7816164E-02  0.1266605E+00
        -11   -1    0    0    0    0  0.00000000000E+00  0.00000000000E+00  0.45593999997E+02  0.45594000000E+02  0.51100000000E-03 0.  1.
         11   -1    0    0    0    0 -0.00000000000E+00 -0.00000000000E+00 -0.45593999997E+02  0.45594000000E+02  0.51100000000E-03 0. -1.
    9900012    2    1    2    0    0  0.21911296356E+02 -0.22982975687E+02 -0.28979115128E+01  0.59301953356E+02  0.50000017012E+02 0.  0.
        -12    1    1    2    0    0 -0.21911296356E+02  0.22982975687E+02  0.28979115128E+01  0.31886046644E+02  0.00000000000E+00 0.  1.
         11    1    3    3    0    0  0.10204113427E+02 -0.17515994848E+02 -0.21022996814E+02  0.29204458592E+02  0.51100000000E-03 0. -1.
        -11    1    3    3    0    0 -0.72290503872E+00 -0.19419528846E+01 -0.39836142348E+01  0.44903179547E+01  0.51100000000E-03 0.  1.
         12    1    3    3    0    0  0.12430087968E+02 -0.35250279551E+01  0.22108699536E+02  0.25607176810E+02  0.00000000000E+00 0. -1.
</event>
<event>
 7    1  0.1327607E-011  0.5930196E+02  0.7816164E-02  0.1266605E+00
        -11   -1    0    0    0    0  0.00000000000E+00  0.00000000000E+00  0.45593999997E+02  0.45594000000E+02  0.51100000000E-03 0. -1.
         11   -1    0    0    0    0 -0.00000000000E+00 -0.00000000000E+00 -0.45593999997E+02  0.45594000000E+02  0.51100000000E-03 0.  1.
    9900012    2    1    2    0    0  0.26952182561E+02  0.43437911420E+01  0.16475163865E+02  0.59301957746E+02  0.50000025018E+02 0.  0.
        -12    1    1    2    0    0 -0.26952182561E+02 -0.43437911420E+01 -0.16475163865E+02  0.31886042254E+02  0.00000000000E+00 0.  1.
         11    1    3    3    0    0  0.16599391252E+02  0.14637459270E+02  0.25177204988E+00  0.22132744820E+02  0.51100000000E-03 0. -1.
        -11    1    3    3    0    0  0.94542835914E+01  0.80231975387E+01 -0.41582123412E+00  0.12406775751E+02  0.51100000000E-03 0.  1.
        -12    1    3    3    0    0  0.89850771728E+00 -0.18316865667E+02  0.16639213049E+02  0.24762437175E+02  0.00000000000E+00 0.  1.
</event>
<event>
 7    1  0.1327607E-011  0.5930192E+02  0.7816164E-02  0.1266605E+00
        -11   -1    0    0    0    0  0.00000000000E+00  0.00000000000E+00  0.45593999997E+02  0.45594000000E+02  0.51100000000E-03 0.  1.
         11   -1    0    0    0    0 -0.00000000000E+00 -0.00000000000E+00 -0.45593999997E+02  0.45594000000E+02  0.51100000000E-03 0. -1.
    9900012    2    1    2    0    0  0.15266341943E+02  0.16013162306E+02 -0.22961694468E+02  0.59301921906E+02  0.49999959655E+02 0.  0.
        -12    1    1    2    0    0 -0.15266341943E+02 -0.16013162306E+02  0.22961694468E+02  0.31886078094E+02  0.00000000000E+00 0.  1.
         11    1    3    3    0    0 -0.13042099519E+02 -0.23287780182E+01 -0.64588982687E+01  0.14738959733E+02  0.51100000000E-03 0. -1.
        -11    1    3    3    0    0  0.51748965839E+01  0.27941703057E+01  0.62505231593E+01  0.85823063553E+01  0.51100000000E-03 0.  1.
        -12    1    3    3    0    0  0.23133544878E+02  0.15547770019E+02 -0.22753319359E+02  0.35980655817E+02  0.00000000000E+00 0.  1.
</event>
<event>
 7    1  0.1327607E-011  0.5930197E+02  0.7816164E-02  0.1266605E+00
        -11   -1    0    0    0    0  0.00000000000E+00  0.00000000000E+00  0.45593999997E+02  0.45594000000E+02  0.51100000000E-03 0. -1.
         11   -1    0    0    0    0 -0.00000000000E+00 -0.00000000000E+00 -0.45593999997E+02  0.45594000000E+02  0.51100000000E-03 0.  1.
    9900012    2    1    2    0    0 -0.12301723928E+02  0.28648045096E+02 -0.66840062703E+01  0.59301971097E+02  0.50000049367E+02 0.  0.
        -12    1    1    2    0    0  0.12301723928E+02 -0.28648045096E+02  0.66840062703E+01  0.31886028903E+02  0.00000000000E+00 0.  1.
         11    1    3    3    0    0  0.18560820617E+01  0.14101397128E+02  0.78921247031E+01  0.16265917563E+02  0.51100000000E-03 0. -1.
        -11    1    3    3    0    0 -0.13760839515E+02 -0.27766426572E+01  0.67343315596E+01  0.15569896288E+02  0.51100000000E-03 0.  1.
         12    1    3    3    0    0 -0.39696647403E+00  0.17323290625E+02 -0.21310462533E+02  0.27466157245E+02  0.00000000000E+00 0. -1.
</event>
<event>
 7    1  0.1327607E-011  0.5930195E+02  0.7816164E-02  0.1266605E+00
        -11   -1    0    0    0    0  0.00000000000E+00  0.00000000000E+00  0.45593999997E+02  0.45594000000E+02  0.51100000000E-03 0. -1.
         11   -1    0    0    0    0 -0.00000000000E+00 -0.00000000000E+00 -0.45593999997E+02  0.45594000000E+02  0.51100000000E-03 0.  1.
    9900012    2    1    2    0    0  0.19298280008E+02 -0.24516802553E+02 -0.65744172413E+01  0.59301950060E+02  0.50000011002E+02 0.  0.
        -12    1    1    2    0    0 -0.19298280008E+02  0.24516802553E+02  0.65744172413E+01  0.31886049940E+02  0.00000000000E+00 0.  1.
         11    1    3    3    0    0  0.27299191121E+01 -0.20583037897E+02  0.11510384477E+01  0.20795162831E+02  0.51100000000E-03 0. -1.
        -11    1    3    3    0    0  0.11475360510E+02 -0.18605144365E+02 -0.70259184221E+01  0.22960810648E+02  0.51100000000E-03 0.  1.
         12    1    3    3    0    0  0.50930003861E+01  0.14671379708E+02 -0.69953726693E+00  0.15545976581E+02  0.00000000000E+00 0. -1.
</event>
<event>
 7    1  0.1327607E-011  0.5930194E+02  0.7816164E-02  0.1266605E+00
        -11   -1    0    0    0    0  0.00000000000E+00  0.00000000000E+00  0.45593999997E+02  0.45594000000E+02  0.51100000000E-03 0.  1.
         11   -1    0    0    0    0 -0.00000000000E+00 -0.00000000000E+00 -0.45593999997E+02  0.45594000000E+02  0.51100000000E-03 0. -1.
    9900012    2    1    2    0    0  0.27833221748E+02 -0.14275942211E+02 -0.61830592821E+01  0.59301937512E+02  0.49999988117E+02 0.  0.
        -12    1    1    2    0    0 -0.27833221748E+02  0.14275942211E+02  0.61830592821E+01  0.31886062488E+02  0.00000000000E+00 0.  1.
         11    1    3    3    0    0  0.22215620027E+02 -0.78892182499E+01 -0.11241047663E+02  0.26117708372E+02  0.51100000000E-03 0. -1.
        -11    1    3    3    0    0 -0.62075683670E+00  0.12648160581E+02  0.68827810498E+00  0.12682075230E+02  0.51100000000E-03 0.  1.
        -12    1    3    3    0    0  0.62383585581E+01 -0.19034884543E+02  0.43697102758E+01  0.20502153910E+02  0.00000000000E+00 0.  1.
</event>
<event>
 7    1  0.1327607E-011  0.5930192E+02  0.7816164E-02  0.1266605E+00
        -11   -1    0    0    0    0  0.00000000000E+00  0.00000000000E+00  0.45593999997E+02  0.45594000000E+02  0.51100000000E-03 0.  1.
         11   -1    0    0    0    0 -0.00000000000E+00 -0.00000000000E+00 -0.45593999997E+02  0.45594000000E+02  0.51100000000E-03 0. -1.
    9900012    2    1    2    0    0  0.12646909188E+02  0.29243879878E+02  0.12543642658E+01  0.59301917581E+02  0.49999951767E+02 0.  0.
        -12    1    1    2    0    0 -0.12646909188E+02 -0.29243879878E+02 -0.12543642658E+01  0.31886082419E+02  0.00000000000E+00 0.  1.
         11    1    3    3    0    0  0.74344745411E+01  0.11585738156E+02  0.62647664849E+01  0.15124418656E+02  0.51100000000E-03 0.  1.
        -11    1    3    3    0    0  0.13912071310E+02 -0.55157673496E+01 -0.11164084436E+02  0.18670998879E+02  0.51100000000E-03 0. -1.
         12    1    3    3    0    0 -0.86996366629E+01  0.23173909072E+02  0.61536822171E+01  0.25506500045E+02  0.00000000000E+00 0. -1.
</event>
<event>
 7    1  0.1327607E-011  0.5930195E+02  0.7816164E-02  0.1266605E+00
        -11   -1    0    0    0    0  0.00000000000E+00  0.00000000000E+00  0.45593999997E+02  0.45594000000E+02  0.51100000000E-03 0.  1.
         11   -1    0    0    0    0 -0.00000000000E+00 -0.00000000000E+00 -0.45593999997E+02  0.45594000000E+02  0.51100000000E-03 0. -1.
    9900012    2    1    2    0    0 -0.13578258683E+02 -0.19380337975E+02 -0.21371793551E+02  0.59301950253E+02  0.50000011354E+02 0.  0.
        -12    1    1    2    0    0  0.13578258683E+02  0.19380337975E+02  0.21371793551E+02  0.31886049747E+02  0.00000000000E+00 0.  1.
         11    1    3    3    0    0 -0.57941401136E+01  0.37524940821E+01  0.61150341594E+01  0.92220884037E+01  0.51100000000E-03 0.  1.
        -11    1    3    3    0    0 -0.20636806067E+02 -0.17642839530E+02 -0.13555578962E+02  0.30346355178E+02  0.51100000000E-03 0. -1.
         12    1    3    3    0    0  0.12852687498E+02 -0.54899925269E+01 -0.13931248748E+02  0.19733506671E+02  0.00000000000E+00 0. -1.
</event>
<event>
 7    1  0.1327607E-011  0.5930195E+02  0.7816164E-02  0.1266605E+00
        -11   -1    0    0    0    0  0.00000000000E+00  0.00000000000E+00  0.45593999997E+02  0.45594000000E+02  0.51100000000E-03 0.  1.
         11   -1    0    0    0    0 -0.00000000000E+00 -0.00000000000E+00 -0.45593999997E+02  0.45594000000E+02  0.51100000000E-03 0. -1.
    9900012    2    1    2    0    0 -0.21697112076E+02  0.12849648457E+02 -0.19515182061E+02  0.59301945544E+02  0.50000002764E+02 0.  0.
        -12    1    1    2    0    0  0.21697112076E+02 -0.12849648457E+02  0.19515182061E+02  0.31886054456E+02  0.00000000000E+00 0.  1.
         11    1    3    3    0    0  0.27273221634E+01  0.12014762475E+02 -0.10461459270E+02  0.16162763805E+02  0.51100000000E-03 0. -1.
        -11    1    3    3    0    0 -0.99450216639E+01 -0.13168972935E+02 -0.14826849387E+02  0.22184696686E+02  0.51100000000E-03 0.  1.
         12    1    3    3    0    0 -0.14479412576E+02  0.14003858917E+02  0.57731265958E+01  0.20954485052E+02  0.00000000000E+00 0. -1.
</event>
<event>
 7    1  0.1327607E-011  0.5930192E+02  0.7816164E-02  0.1266605E+00
        -11   -1    0    0    0    0  0.00000000000E+00  0.00000000000E+00  0.45593999997E+02  0.45594000000E+02  0.51100000000E-03 0. -1.
         11   -1    0    0    0    0 -0.00000000000E+00 -0.00000000000E+00 -0.45593999997E+02  0.45594000000E+02  0.51100000000E-03 0.  1.
    9900012    2    1    2    0    0 -0.18488479436E+02  0.25872945145E+02 -0.23428434130E+01  0.59301920317E+02  0.49999956757E+02 0.  0.
        -12    1    1    2    0    0  0.18488479436E+02 -0.25872945145E+02  0.23428434130E+01  0.31886079683E+02  0.00000000000E+00 0.  1.
         11    1    3    3    0    0  0.26396443308E+01 -0.19540805897E+01  0.35381386469E+01  0.48274815887E+01  0.51100000000E-03 0. -1.
        -11    1    3    3    0    0  0.17853708656E+01 -0.70338819539E+01  0.77208401929E+01  0.10595962345E+02  0.51100000000E-03 0.  1.
         12    1    3    3    0    0 -0.22913494632E+02  0.34860907688E+02 -0.13601822253E+02  0.43878476383E+02  0.00000000000E+00 0. -1.
</event>
<event>
 7    1  0.1327607E-011  0.5930193E+02  0.7816164E-02  0.1266605E+00
        -11   -1    0    0    0    0  0.00000000000E+00  0.00000000000E+00  0.45593999997E+02  0.45594000000E+02  0.51100000000E-03 0.  1.
         11   -1    0    0    0    0 -0.00000000000E+00 -0.00000000000E+00 -0.45593999997E+02  0.45594000000E+02  0.51100000000E-03 0. -1.
    9900012    2    1    2    0    0 -0.10111003946E+02  0.79931128499E+01 -0.29165039076E+02  0.59301925326E+02  0.49999965892E+02 0.  0.
        -12    1    1    2    0    0  0.10111003946E+02 -0.79931128499E+01  0.29165039076E+02  0.31886074674E+02  0.00000000000E+00 0.  1.
         11    1    3    3    0    0 -0.51209213358E+01 -0.40650488354E+01  0.10088132618E+02  0.12021600448E+02  0.51100000000E-03 0. -1.
        -11    1    3    3    0    0  0.28167566084E+01  0.15540428478E+02 -0.15896140484E+02  0.22408175241E+02  0.51100000000E-03 0.  1.
         12    1    3    3    0    0 -0.78068392187E+01 -0.34822667931E+01 -0.23357031210E+02  0.24872149636E+02  0.00000000000E+00 0. -1.
</event>
<event>
 7    1  0.1327607E-011  0.5930195E+02  0.7816164E-02  0.1266605E+00
        -11   -1    0    0    0    0  0.00000000000E+00  0.00000000000E+00  0.45593999997E+02  0.45594000000E+02  0.51100000000E-03 0.  1.
         11   -1    0    0    0    0 -0.00000000000E+00 -0.00000000000E+00 -0.45593999997E+02  0.45594000000E+02  0.51100000000E-03 0. -1.
    9900012    2    1    2    0    0  0.30208887672E+02  0.25072118234E+01 -0.98922926001E+01  0.59301945706E+02  0.50000003062E+02 0.  0.
        -12    1    1    2    0    0 -0.30208887672E+02 -0.25072118234E+01  0.98922926001E+01  0.31886054294E+02  0.00000000000E+00 0.  1.
         11    1    3    3    0    0  0.23987430315E+02  0.17722503448E+02 -0.39436208238E+01  0.30083817694E+02  0.51100000000E-03 0. -1.
        -11    1    3    3    0    0  0.50781334811E+01 -0.12514575397E+01 -0.12649156850E+02  0.13687759309E+02  0.51100000000E-03 0.  1.
        -12    1    3    3    0    0  0.11433238763E+01 -0.13963834085E+02  0.67004850736E+01  0.15530368704E+02  0.00000000000E+00 0.  1.
</event>
<event>
 7    1  0.1327607E-011  0.5930195E+02  0.7816164E-02  0.1266605E+00
        -11   -1    0    0    0    0  0.00000000000E+00  0.00000000000E+00  0.45593999997E+02  0.45594000000E+02  0.51100000000E-03 0. -1.
         11   -1    0    0    0    0 -0.00000000000E+00 -0.00000000000E+00 -0.45593999997E+02  0.45594000000E+02  0.51100000000E-03 0.  1.
    9900012    2    1    2    0    0  0.17893398306E+02  0.26247595732E+02 -0.27586865892E+01  0.59301947621E+02  0.50000006552E+02 0.  0.
        -12    1    1    2    0    0 -0.17893398306E+02 -0.26247595732E+02  0.27586865892E+01  0.31886052379E+02  0.00000000000E+00 0.  1.
         11    1    3    3    0    0  0.16669315405E+02  0.22612419073E+01 -0.13968449336E+02  0.21865426320E+02  0.51100000000E-03 0. -1.
        -11    1    3    3    0    0 -0.36461824918E+01 -0.13805650101E+01 -0.54491102028E+01  0.67002543813E+01  0.51100000000E-03 0.  1.
        -12    1    3    3    0    0  0.48702653928E+01  0.25366918835E+02  0.16658872950E+02  0.30736266919E+02  0.00000000000E+00 0.  1.
</event>
<event>
 7    1  0.1327607E-011  0.5930194E+02  0.7816164E-02  0.1266605E+00
        -11   -1    0    0    0    0  0.00000000000E+00  0.00000000000E+00  0.45593999997E+02  0.45594000000E+02  0.51100000000E-03 0.  1.
         11   -1    0    0    0    0 -0.00000000000E+00 -0.00000000000E+00 -0.45593999997E+02  0.45594000000E+02  0.51100000000E-03 0. -1.
    9900012    2    1    2    0    0 -0.19200822231E+02 -0.25453863818E+02  0.38747754759E+00  0.59301938838E+02  0.49999990535E+02 0.  0.
        -12    1    1    2    0    0  0.19200822231E+02  0.25453863818E+02 -0.38747754759E+00  0.31886061162E+02  0.00000000000E+00 0.  1.
         11    1    3    3    0    0 -0.24912631870E+02 -0.23410050127E+02 -0.84282532266E+01  0.35209446550E+02  0.51100000000E-03 0. -1.
        -11    1    3    3    0    0  0.40611768554E+00 -0.11485815774E+02  0.56625179912E+01  0.12812220956E+02  0.51100000000E-03 0.  1.
        -12    1    3    3    0    0  0.53056919536E+01  0.94420020835E+01  0.31532127830E+01  0.11280271331E+02  0.00000000000E+00 0.  1.
</event>
<event>
 7    1  0.1327607E-011  0.5930197E+02  0.7816164E-02  0.1266605E+00
        -11   -1    0    0    0    0  0.00000000000E+00  0.00000000000E+00  0.45593999997E+02  0.45594000000E+02  0.51100000000E-03 0.  1.
         11   -1    0    0    0    0 -0.00000000000E+00 -0.00000000000E+00 -0.45593999997E+02  0.45594000000E+02  0.51100000000E-03 0. -1.
    9900012    2    1    2    0    0  0.21896857281E+02 -0.17829067498E+02 -0.14811165963E+02  0.59301974161E+02  0.50000054956E+02 0.  0.
        -12    1    1    2    0    0 -0.21896857281E+02  0.17829067498E+02  0.14811165963E+02  0.31886025839E+02  0.00000000000E+00 0.  1.
         11    1    3    3    0    0  0.27914959394E+02 -0.11820696224E+02 -0.16708853725E+02  0.34614442221E+02  0.51100000000E-03 0. -1.
        -11    1    3    3    0    0  0.86247779000E+01 -0.47717179114E+01 -0.10051045232E+00  0.98572911219E+01  0.51100000000E-03 0.  1.
        -12    1    3    3    0    0 -0.14642880013E+02 -0.12366533626E+01  0.19981982148E+01  0.14830240818E+02  0.00000000000E+00 0.  1.
</event>
<event>
 7    1  0.1327607E-011  0.5930194E+02  0.7816164E-02  0.1266605E+00
        -11   -1    0    0    0    0  0.00000000000E+00  0.00000000000E+00  0.45593999997E+02  0.45594000000E+02  0.51100000000E-03 0. -1.
         11   -1    0    0    0    0 -0.00000000000E+00 -0.00000000000E+00 -0.45593999997E+02  0.45594000000E+02  0.51100000000E-03 0.  1.
    9900012    2    1    2    0    0  0.27536936468E+02  0.15409468180E+02  0.45811011149E+01  0.59301936163E+02  0.49999985656E+02 0.  0.
        -12    1    1    2    0    0 -0.27536936468E+02 -0.15409468180E+02 -0.45811011149E+01  0.31886063837E+02  0.00000000000E+00 0.  1.
         11    1    3    3    0    0  0.26084638155E+01  0.90877972528E+00 -0.26217079371E+01  0.38083220497E+01  0.51100000000E-03 0. -1.
        -11    1    3    3    0    0  0.28657476909E+02  0.82489840802E+00 -0.12455102446E+02  0.31257975260E+02  0.51100000000E-03 0.  1.
         12    1    3    3    0    0 -0.37290042568E+01  0.13675790046E+02  0.19657911498E+02  0.24235638853E+02  0.00000000000E+00 0. -1.
</event>
<event>
 7    1  0.1327607E-011  0.5930193E+02  0.7816164E-02  0.1266605E+00
        -11   -1    0    0    0    0  0.00000000000E+00  0.00000000000E+00  0.45593999997E+02  0.45594000000E+02  0.51100000000E-03 0. -1.
         11   -1    0    0    0    0 -0.00000000000E+00 -0.00000000000E+00 -0.45593999997E+02  0.45594000000E+02  0.51100000000E-03 0.  1.
    9900012    2    1    2    0    0 -0.13851068872E+02 -0.20160006616E+02  0.20455891850E+02  0.59301929576E+02  0.49999973644E+02 0.  0.
        -12    1    1    2    0    0  0.13851068872E+02  0.20160006616E+02 -0.20455891850E+02  0.31886070424E+02  0.00000000000E+00 0.  1.
         11    1    3    3    0    0  0.70987660036E+00  0.64712321656E+01  0.20702226332E+02  0.21701680716E+02  0.51100000000E-03 0. -1.
        -11    1    3    3    0    0  0.34328562471E+01  0.14688505732E+01  0.18497193335E+01  0.41669516308E+01  0.51100000000E-03 0.  1.
         12    1    3    3    0    0 -0.17993801719E+02 -0.28100089355E+02 -0.20960538150E+01  0.33433297230E+02  0.00000000000E+00 0. -1.
</event>
<event>
 7    1  0.1327607E-011  0.5930199E+02  0.7816164E-02  0.1266605E+00
        -11   -1    0    0    0    0  0.00000000000E+00  0.00000000000E+00  0.45593999997E+02  0.45594000000E+02  0.51100000000E-03 0. -1.
         11   -1    0    0    0    0 -0.00000000000E+00 -0.00000000000E+00 -0.45593999997E+02  0.45594000000E+02  0.51100000000E-03 0.  1.
    9900012    2    1    2    0    0 -0.20520984285E+02  0.24096671554E+02 -0.38674348102E+01  0.59301993226E+02  0.50000089725E+02 0.  0.
        -12    1    1    2    0    0  0.20520984285E+02 -0.24096671554E+02  0.38674348102E+01  0.31886006774E+02  0.00000000000E+00 0.  1.
         11    1    3    3    0    0 -0.52775198468E+01 -0.93976970171E+01 -0.13798946235E+02  0.17509421533E+02  0.51100000000E-03 0. -1.
        -11    1    3    3    0    0 -0.21117380609E+01  0.21338650255E+01 -0.40413253433E+01  0.50343945392E+01  0.51100000000E-03 0.  1.
         12    1    3    3    0    0 -0.13131726377E+02  0.31360503546E+02  0.13972836769E+02  0.36758177153E+02  0.00000000000E+00 0. -1.
</event>
<event>
 7    1  0.1327607E-011  0.5930197E+02  0.7816164E-02  0.1266605E+00
        -11   -1    0    0    0    0  0.00000000000E+00  0.00000000000E+00  0.45593999997E+02  0.45594000000E+02  0.51100000000E-03 0. -1.
         11   -1    0    0    0    0 -0.00000000000E+00 -0.00000000000E+00 -0.45593999997E+02  0.45594000000E+02  0.51100000000E-03 0.  1.
    9900012    2    1    2    0    0 -0.36654401455E+01  0.72430115683E+01  0.30835404822E+02  0.59301970793E+02  0.50000048814E+02 0.  0.
        -12    1    1    2    0    0  0.36654401455E+01 -0.72430115683E+01 -0.30835404822E+02  0.31886029207E+02  0.00000000000E+00 0.  1.
         11    1    3    3    0    0 -0.12674724480E+02 -0.32131353353E+01  0.80394582390E+01  0.15349454986E+02  0.51100000000E-03 0.  1.
        -11    1    3    3    0    0 -0.63552983587E+01 -0.99062739089E+01  0.46828523894E+01  0.12667011753E+02  0.51100000000E-03 0. -1.
         12    1    3    3    0    0  0.15364582693E+02  0.20362420813E+02  0.18113094194E+02  0.31285504054E+02  0.00000000000E+00 0. -1.
</event>
<event>
 7    1  0.1327607E-011  0.5930194E+02  0.7816164E-02  0.1266605E+00
        -11   -1    0    0    0    0  0.00000000000E+00  0.00000000000E+00  0.45593999997E+02  0.45594000000E+02  0.51100000000E-03 0.  1.
         11   -1    0    0    0    0 -0.00000000000E+00 -0.00000000000E+00 -0.45593999997E+02  0.45594000000E+02  0.51100000000E-03 0. -1.
    9900012    2    1    2    0    0 -0.30884647851E+02  0.36350970383E+01 -0.70459333072E+01  0.59301943807E+02  0.49999999598E+02 0.  0.
        -12    1    1    2    0    0  0.30884647851E+02 -0.36350970383E+01  0.70459333072E+01  0.31886056193E+02  0.00000000000E+00 0.  1.
         11    1    3    3    0    0 -0.80523914032E+01 -0.20769185153E+01 -0.76908559264E+01  0.11327129512E+02  0.51100000000E-03 0. -1.
        -11    1    3    3    0    0 -0.43494891028E+01 -0.17191841876E+02 -0.40006028713E+01  0.18179172317E+02  0.51100000000E-03 0.  1.
        -12    1    3    3    0    0 -0.18482767345E+02  0.22903857429E+02  0.46455254904E+01  0.29795641979E+02  0.00000000000E+00 0.  1.
</event>
<event>
 7    1  0.1327607E-011  0.5930194E+02  0.7816164E-02  0.1266605E+00
        -11   -1    0    0    0    0  0.00000000000E+00  0.00000000000E+00  0.45593999997E+02  0.45594000000E+02  0.51100000000E-03 0.  1.
         11   -1    0    0    0    0 -0.00000000000E+00 -0.00000000000E+00 -0.45593999997E+02  0.45594000000E+02  0.51100000000E-03 0. -1.
    9900012    2    1    2    0    0  0.25968616522E+02 -0.16761525998E+02  0.78359972595E+01  0.59301942688E+02  0.49999997557E+02 0.  0.
        -12    1    1    2    0    0 -0.25968616522E+02  0.16761525998E+02 -0.78359972595E+01  0.31886057312E+02  0.00000000000E+00 0.  1.
         11    1    3    3    0    0  0.10176340913E+02  0.70814296839E+01  0.17001407696E+01  0.12513793974E+02  0.51100000000E-03 0. -1.
        -11    1    3    3    0    0 -0.23232432941E+01 -0.20596312443E+00  0.15418919041E+02  0.15594324123E+02  0.51100000000E-03 0.  1.
         12    1    3    3    0    0  0.18115518903E+02 -0.23636992557E+02 -0.92830625507E+01  0.31193824591E+02  0.00000000000E+00 0. -1.
</event>
<event>
 7    1  0.1327607E-011  0.5930196E+02  0.7816164E-02  0.1266605E+00
        -11   -1    0    0    0    0  0.00000000000E+00  0.00000000000E+00  0.45593999997E+02  0.45594000000E+02  0.51100000000E-03 0.  1.
         11   -1    0    0    0    0 -0.00000000000E+00 -0.00000000000E+00 -0.45593999997E+02  0.45594000000E+02  0.51100000000E-03 0. -1.
    9900012    2    1    2    0    0  0.14834723252E+02 -0.17489222894E+02 -0.22153503601E+02  0.59301958333E+02  0.50000026089E+02 0.  0.
        -12    1    1    2    0    0 -0.14834723252E+02  0.17489222894E+02  0.22153503601E+02  0.31886041667E+02  0.00000000000E+00 0.  1.
         11    1    3    3    0    0 -0.10976850556E+02 -0.23038199082E+01  0.20327699820E+01  0.11398727488E+02  0.51100000000E-03 0. -1.
        -11    1    3    3    0    0 -0.56234810944E+01  0.12910421100E+01 -0.23338033201E+01  0.62239029192E+01  0.51100000000E-03 0.  1.
        -12    1    3    3    0    0  0.31435054903E+02 -0.16476445096E+02 -0.21852470263E+02  0.41679327925E+02  0.00000000000E+00 0.  1.
</event>
<event>
 7    1  0.1327607E-011  0.5930195E+02  0.7816164E-02  0.1266605E+00
        -11   -1    0    0    0    0  0.00000000000E+00  0.00000000000E+00  0.45593999997E+02  0.45594000000E+02  0.51100000000E-03 0.  1.
         11   -1    0    0    0    0 -0.00000000000E+00 -0.00000000000E+00 -0.45593999997E+02  0.45594000000E+02  0.51100000000E-03 0. -1.
    9900012    2    1    2    0    0  0.13997001772E+02 -0.96405932117E+01 -0.26978940178E+02  0.59301948046E+02  0.50000007328E+02 0.  0.
        -12    1    1    2    0    0 -0.13997001772E+02  0.96405932117E+01  0.26978940178E+02  0.31886051954E+02  0.00000000000E+00 0.  1.
         11    1    3    3    0    0  0.55427874529E+01  0.14107593950E+02 -0.23903545642E+02  0.28304172737E+02  0.51100000000E-03 0. -1.
        -11    1    3    3    0    0 -0.48558421712E+00  0.16709608386E+01 -0.36529369209E+01  0.40462143499E+01  0.51100000000E-03 0.  1.
        -12    1    3    3    0    0  0.89397985366E+01 -0.25419148000E+02  0.57754238478E+00  0.26951560959E+02  0.00000000000E+00 0.  1.
</event>
<event>
 7    1  0.1327607E-011  0.5930194E+02  0.7816164E-02  0.1266605E+00
        -11   -1    0    0    0    0  0.00000000000E+00  0.00000000000E+00  0.45593999997E+02  0.45594000000E+02  0.51100000000E-03 0.  1.
         11   -1    0    0    0    0 -0.00000000000E+00 -0.00000000000E+00 -0.45593999997E+02  0.45594000000E+02  0.51100000000E-03 0. -1.
    9900012    2    1    2    0    0 -0.12744914431E+02  0.23131347553E+02 -0.17866969086E+02  0.59301942423E+02  0.49999997074E+02 0.  0.
        -12    1    1    2    0    0  0.12744914431E+02 -0.23131347553E+02  0.17866969086E+02  0.31886057577E+02  0.00000000000E+00 0.  1.
         11    1    3    3    0    0 -0.24859667185E+01 -0.35147713894E+01 -0.58884205083E+01  0.72943227780E+01  0.51100000000E-03 0. -1.
        -11    1    3    3    0    0 -0.96040089397E+01 -0.94220768789E+01 -0.81519812343E+01  0.15731094009E+02  0.51100000000E-03 0.  1.
         12    1    3    3    0    0 -0.65493877304E+00  0.36068195821E+02 -0.38265673432E+01  0.36276525636E+02  0.00000000000E+00 0. -1.
</event>
<event>
 7    1  0.1327607E-011  0.5930194E+02  0.7816164E-02  0.1266605E+00
        -11   -1    0    0    0    0  0.00000000000E+00  0.00000000000E+00  0.45593999997E+02  0.45594000000E+02  0.51100000000E-03 0.  1.
         11   -1    0    0    0    0 -0.00000000000E+00 -0.00000000000E+00 -0.45593999997E+02  0.45594000000E+02  0.51100000000E-03 0. -1.
    9900012    2    1    2    0    0 -0.89072084940E+01 -0.30434417438E+02  0.33359452323E+01  0.59301942568E+02  0.49999997339E+02 0.  0.
        -12    1    1    2    0    0  0.89072084940E+01  0.30434417438E+02 -0.33359452323E+01  0.31886057432E+02  0.00000000000E+00 0.  1.
         11    1    3    3    0    0  0.11493919824E+01 -0.22969485309E+02 -0.45711436496E+01  0.23448106786E+02  0.51100000000E-03 0. -1.
        -11    1    3    3    0    0  0.99972332298E+01 -0.56117105395E+01  0.10502577289E+02  0.15547993356E+02  0.51100000000E-03 0.  1.
        -12    1    3    3    0    0 -0.20053833706E+02 -0.18532215891E+01 -0.25954884076E+01  0.20305842426E+02  0.00000000000E+00 0.  1.
</event>
<event>
 7    1  0.1327607E-011  0.5930194E+02  0.7816164E-02  0.1266605E+00
        -11   -1    0    0    0    0  0.00000000000E+00  0.00000000000E+00  0.45593999997E+02  0.45594000000E+02  0.51100000000E-03 0. -1.
         11   -1    0    0    0    0 -0.00000000000E+00 -0.00000000000E+00 -0.45593999997E+02  0.45594000000E+02  0.51100000000E-03 0.  1.
    9900012    2    1    2    0    0  0.45917527730E+01  0.27682829462E+02  0.15142565457E+02  0.59301944597E+02  0.50000001038E+02 0.  0.
        -12    1    1    2    0    0 -0.45917527730E+01 -0.27682829462E+02 -0.15142565457E+02  0.31886055403E+02  0.00000000000E+00 0.  1.
         11    1    3    3    0    0  0.52582644747E+01  0.97646443595E+01  0.10983531640E+02  0.15608830588E+02  0.51100000000E-03 0. -1.
        -11    1    3    3    0    0  0.13005054685E+02  0.17970368928E+02  0.14543256690E+02  0.26524930201E+02  0.51100000000E-03 0.  1.
        -12    1    3    3    0    0 -0.13671566386E+02 -0.52183825885E-01 -0.10384222873E+02  0.17168183809E+02  0.00000000000E+00 0.  1.
</event>
<event>
 7    1  0.1327607E-011  0.5930194E+02  0.7816164E-02  0.1266605E+00
        -11   -1    0    0    0    0  0.00000000000E+00  0.00000000000E+00  0.45593999997E+02  0.45594000000E+02  0.51100000000E-03 0.  1.
         11   -1    0    0    0    0 -0.00000000000E+00 -0.00000000000E+00 -0.45593999997E+02  0.45594000000E+02  0.51100000000E-03 0. -1.
    9900012    2    1    2    0    0 -0.37484896195E+01 -0.27241647885E+02 -0.16141942616E+02  0.59301939326E+02  0.49999991424E+02 0.  0.
        -12    1    1    2    0    0  0.37484896195E+01  0.27241647885E+02  0.16141942616E+02  0.31886060674E+02  0.00000000000E+00 0.  1.
         11    1    3    3    0    0 -0.12888921050E+02  0.18901155111E+01  0.47587427904E+01  0.13868758261E+02  0.51100000000E-03 0. -1.
        -11    1    3    3    0    0  0.65291185666E+01 -0.36935920597E+00  0.36837847652E+01  0.75057368684E+01  0.51100000000E-03 0.  1.
         12    1    3    3    0    0  0.26113128641E+01 -0.28762404190E+02 -0.24584470171E+02  0.37927444197E+02  0.00000000000E+00 0. -1.
</event>
<event>
 7    1  0.1327607E-011  0.5930195E+02  0.7816164E-02  0.1266605E+00
        -11   -1    0    0    0    0  0.00000000000E+00  0.00000000000E+00  0.45593999997E+02  0.45594000000E+02  0.51100000000E-03 0.  1.
         11   -1    0    0    0    0 -0.00000000000E+00 -0.00000000000E+00 -0.45593999997E+02  0.45594000000E+02  0.51100000000E-03 0. -1.
    9900012    2    1    2    0    0  0.19885644046E+02 -0.14940185592E+02 -0.19951746294E+02  0.59301950310E+02  0.50000011458E+02 0.  0.
        -12    1    1    2    0    0 -0.19885644046E+02  0.14940185592E+02  0.19951746294E+02  0.31886049690E+02  0.00000000000E+00 0.  1.
         11    1    3    3    0    0  0.15522771422E+02 -0.99217613728E+01 -0.18953586519E+02  0.26431727593E+02  0.51100000000E-03 0. -1.
        -11    1    3    3    0    0 -0.93541324461E+01 -0.57296471298E+01 -0.11263660009E+02  0.15722553454E+02  0.51100000000E-03 0.  1.
        -12    1    3    3    0    0  0.13717005071E+02  0.71122291074E+00  0.10265500234E+02  0.17147669264E+02  0.00000000000E+00 0.  1.
</event>
<event>
 7    1  0.1327607E-011  0.5930194E+02  0.7816164E-02  0.1266605E+00
        -11   -1    0    0    0    0  0.00000000000E+00  0.00000000000E+00  0.45593999997E+02  0.45594000000E+02  0.51100000000E-03 0. -1.
         11   -1    0    0    0    0 -0.00000000000E+00 -0.00000000000E+00 -0.45593999997E+02  0.45594000000E+02  0.51100000000E-03 0.  1.
    9900012    2    1    2    0    0  0.19290082043E+02 -0.20528890066E+02 -0.14939147714E+02  0.59301941495E+02  0.49999995381E+02 0.  0.
        -12    1    1    2    0    0 -0.19290082043E+02  0.20528890066E+02  0.14939147714E+02  0.31886058505E+02  0.00000000000E+00 0.  1.
         11    1    3    3    0    0  0.86209251279E+01 -0.20333983468E+02 -0.97704765262E+01  0.24150640686E+02  0.51100000000E-03 0.  1.
        -11    1    3    3    0    0  0.17596408392E+01 -0.17455364996E+00  0.13948388342E+02  0.14060026404E+02  0.51100000000E-03 0. -1.
         12    1    3    3    0    0  0.89095160758E+01 -0.20352948044E-01 -0.19117059530E+02  0.21091274405E+02  0.00000000000E+00 0. -1.
</event>
<event>
 7    1  0.1327607E-011  0.5930194E+02  0.7816164E-02  0.1266605E+00
        -11   -1    0    0    0    0  0.00000000000E+00  0.00000000000E+00  0.45593999997E+02  0.45594000000E+02  0.51100000000E-03 0.  1.
         11   -1    0    0    0    0 -0.00000000000E+00 -0.00000000000E+00 -0.45593999997E+02  0.45594000000E+02  0.51100000000E-03 0. -1.
    9900012    2    1    2    0    0  0.30148273459E+02  0.39771108714E+00 -0.10375167589E+02  0.59301942401E+02  0.49999997034E+02 0.  0.
        -12    1    1    2    0    0 -0.30148273459E+02 -0.39771108714E+00  0.10375167589E+02  0.31886057599E+02  0.00000000000E+00 0.  1.
         11    1    3    3    0    0  0.43825713646E+01  0.71631513717E+01 -0.19916657653E+02  0.21614599734E+02  0.51100000000E-03 0. -1.
        -11    1    3    3    0    0  0.84010556405E+01  0.91105299070E+01  0.26248174692E+00  0.12395498699E+02  0.51100000000E-03 0.  1.
        -12    1    3    3    0    0  0.17364646454E+02 -0.15875970192E+02  0.92790083166E+01  0.25291843969E+02  0.00000000000E+00 0.  1.
</event>
<event>
 7    1  0.1327607E-011  0.5930194E+02  0.7816164E-02  0.1266605E+00
        -11   -1    0    0    0    0  0.00000000000E+00  0.00000000000E+00  0.45593999997E+02  0.45594000000E+02  0.51100000000E-03 0.  1.
         11   -1    0    0    0    0 -0.00000000000E+00 -0.00000000000E+00 -0.45593999997E+02  0.45594000000E+02  0.51100000000E-03 0. -1.
    9900012    2    1    2    0    0  0.83975415869E+01 -0.58322352477E+01 -0.30202433031E+02  0.59301942958E+02  0.49999998049E+02 0.  0.
        -12    1    1    2    0    0 -0.83975415869E+01  0.58322352477E+01  0.30202433031E+02  0.31886057042E+02  0.00000000000E+00 0.  1.
         11    1    3    3    0    0 -0.74747341078E+01 -0.15510561165E+02 -0.15109085035E+02  0.22907064598E+02  0.51100000000E-03 0. -1.
        -11    1    3    3    0    0  0.54124345094E+00 -0.28019837995E+01  0.65122289595E+01  0.71100762280E+01  0.51100000000E-03 0.  1.
         12    1    3    3    0    0  0.15331032244E+02  0.12480309717E+02 -0.21605576956E+02  0.29284802132E+02  0.00000000000E+00 0. -1.
</event>
<event>
 7    1  0.1327607E-011  0.5930197E+02  0.7816164E-02  0.1266605E+00
        -11   -1    0    0    0    0  0.00000000000E+00  0.00000000000E+00  0.45593999997E+02  0.45594000000E+02  0.51100000000E-03 0.  1.
         11   -1    0    0    0    0 -0.00000000000E+00 -0.00000000000E+00 -0.45593999997E+02  0.45594000000E+02  0.51100000000E-03 0. -1.
    9900012    2    1    2    0    0 -0.11848149650E+02  0.28118039837E+02 -0.92583157502E+01  0.59301965048E+02  0.50000038337E+02 0.  0.
        -12    1    1    2    0    0  0.11848149650E+02 -0.28118039837E+02  0.92583157502E+01  0.31886034952E+02  0.00000000000E+00 0.  1.
         11    1    3    3    0    0  0.63982979891E+01 -0.14744752004E+01 -0.63821631982E+01  0.91566534074E+01  0.51100000000E-03 0. -1.
        -11    1    3    3    0    0  0.38205436947E+01  0.18608469349E+02 -0.13498784346E+02  0.23304267093E+02  0.51100000000E-03 0.  1.
         12    1    3    3    0    0 -0.22066991333E+02  0.10984045688E+02  0.10622631795E+02  0.26841044548E+02  0.00000000000E+00 0. -1.
</event>
<event>
 7    1  0.1327607E-011  0.5930193E+02  0.7816164E-02  0.1266605E+00
        -11   -1    0    0    0    0  0.00000000000E+00  0.00000000000E+00  0.45593999997E+02  0.45594000000E+02  0.51100000000E-03 0.  1.
         11   -1    0    0    0    0 -0.00000000000E+00 -0.00000000000E+00 -0.45593999997E+02  0.45594000000E+02  0.51100000000E-03 0. -1.
    9900012    2    1    2    0    0  0.38697354764E+00 -0.28697406756E+02  0.13893538960E+02  0.59301932073E+02  0.49999978197E+02 0.  0.
        -12    1    1    2    0    0 -0.38697354764E+00  0.28697406756E+02 -0.13893538960E+02  0.31886067927E+02  0.00000000000E+00 0.  1.
         11    1    3    3    0    0 -0.85348278256E+01 -0.30119426461E+02  0.15729605047E+02  0.35034891345E+02  0.51100000000E-03 0. -1.
        -11    1    3    3    0    0 -0.43609517155E+01 -0.22539847612E+01  0.65111087966E+01  0.81543169665E+01  0.51100000000E-03 0.  1.
         12    1    3    3    0    0  0.13282753089E+02  0.36760044669E+01 -0.83471748837E+01  0.16112723761E+02  0.00000000000E+00 0. -1.
</event>
<event>
 7    1  0.1327607E-011  0.5930194E+02  0.7816164E-02  0.1266605E+00
        -11   -1    0    0    0    0  0.00000000000E+00  0.00000000000E+00  0.45593999997E+02  0.45594000000E+02  0.51100000000E-03 0. -1.
         11   -1    0    0    0    0 -0.00000000000E+00 -0.00000000000E+00 -0.45593999997E+02  0.45594000000E+02  0.51100000000E-03 0.  1.
    9900012    2    1    2    0    0 -0.69720730164E+01 -0.26963482250E+02  0.15526811411E+02  0.59301936433E+02  0.49999986149E+02 0.  0.
        -12    1    1    2    0    0  0.69720730164E+01  0.26963482250E+02 -0.15526811411E+02  0.31886063567E+02  0.00000000000E+00 0.  1.
         11    1    3    3    0    0 -0.11819567493E+02  0.49949395076E+01  0.11330620805E+02  0.17118252379E+02  0.51100000000E-03 0. -1.
        -11    1    3    3    0    0 -0.22150302939E+01  0.44028931102E+01  0.70145366314E+00  0.49783395269E+01  0.51100000000E-03 0.  1.
        -12    1    3    3    0    0  0.70625247707E+01 -0.36361314868E+02  0.34947369428E+01  0.37205344527E+02  0.00000000000E+00 0.  1.
</event>
<event>
 7    1  0.1327607E-011  0.5930199E+02  0.7816164E-02  0.1266605E+00
        -11   -1    0    0    0    0  0.00000000000E+00  0.00000000000E+00  0.45593999997E+02  0.45594000000E+02  0.51100000000E-03 0. -1.
         11   -1    0    0    0    0 -0.00000000000E+00 -0.00000000000E+00 -0.45593999997E+02  0.45594000000E+02  0.51100000000E-03 0.  1.
    9900012    2    1    2    0    0  0.22826876808E+02  0.22062339317E+02 -0.29840148165E+01  0.59301992640E+02  0.50000088657E+02 0.  0.
        -12    1    1    2    0    0 -0.22826876808E+02 -0.22062339317E+02  0.29840148165E+01  0.31886007360E+02  0.00000000000E+00 0.  1.
         11    1    3    3    0    0  0.56186996117E+01  0.27453547083E+01  0.47319064295E+00  0.62714167017E+01  0.51100000000E-03 0. -1.
        -11    1    3    3    0    0  0.32225640040E+01 -0.77948655893E+01  0.15119428326E+02  0.17313057543E+02  0.51100000000E-03 0.  1.
        -12    1    3    3    0    0  0.13985613192E+02  0.27111850198E+02 -0.18576633785E+02  0.35717518395E+02  0.00000000000E+00 0.  1.
</event>
<event>
 7    1  0.1327607E-011  0.5930223E+02  0.7816164E-02  0.1266604E+00
        -11   -1    0    0    0    0  0.00000000000E+00  0.00000000000E+00  0.45593999997E+02  0.45594000000E+02  0.51100000000E-03 0.  1.
         11   -1    0    0    0    0 -0.00000000000E+00 -0.00000000000E+00 -0.45593999997E+02  0.45594000000E+02  0.51100000000E-03 0. -1.
    9900012    2    1    2    0    0 -0.26720603898E+02 -0.14637335206E+02 -0.94053136810E+01  0.59302232328E+02  0.50000525787E+02 0.  0.
        -12    1    1    2    0    0  0.26720603898E+02  0.14637335206E+02  0.94053136810E+01  0.31885767672E+02  0.00000000000E+00 0.  1.
         11    1    3    3    0    0 -0.20678192928E+02 -0.13524766598E+02  0.33913581857E+01  0.24940093923E+02  0.51100000000E-03 0. -1.
        -11    1    3    3    0    0 -0.17089155638E+02  0.66926221147E+01 -0.78237811850E+01  0.19950989537E+02  0.51100000000E-03 0.  1.
        -12    1    3    3    0    0  0.11046744668E+02 -0.78051907224E+01 -0.49728906817E+01  0.14411148868E+02  0.00000000000E+00 0.  1.
</event>
<event>
 7    1  0.1327607E-011  0.5930194E+02  0.7816164E-02  0.1266605E+00
        -11   -1    0    0    0    0  0.00000000000E+00  0.00000000000E+00  0.45593999997E+02  0.45594000000E+02  0.51100000000E-03 0.  1.
         11   -1    0    0    0    0 -0.00000000000E+00 -0.00000000000E+00 -0.45593999997E+02  0.45594000000E+02  0.51100000000E-03 0. -1.
    9900012    2    1    2    0    0  0.16312887211E+02  0.68050101190E+00 -0.27388818798E+02  0.59301940884E+02  0.49999994267E+02 0.  0.
        -12    1    1    2    0    0 -0.16312887211E+02 -0.68050101190E+00  0.27388818798E+02  0.31886059116E+02  0.00000000000E+00 0.  1.
         11    1    3    3    0    0 -0.80403914915E+00  0.16956918485E+02 -0.17974275983E+02  0.24723635672E+02  0.51100000000E-03 0. -1.
        -11    1    3    3    0    0 -0.34783248693E+01  0.33411262455E+01 -0.11388714043E+01  0.49556933745E+01  0.51100000000E-03 0.  1.
        -12    1    3    3    0    0  0.20595251229E+02 -0.19617543719E+02 -0.82756714108E+01  0.29622611837E+02  0.00000000000E+00 0.  1.
</event>
<event>
 7    1  0.1327607E-011  0.5930194E+02  0.7816164E-02  0.1266605E+00
        -11   -1    0    0    0    0  0.00000000000E+00  0.00000000000E+00  0.45593999997E+02  0.45594000000E+02  0.51100000000E-03 0.  1.
         11   -1    0    0    0    0 -0.00000000000E+00 -0.00000000000E+00 -0.45593999997E+02  0.45594000000E+02  0.51100000000E-03 0. -1.
    9900012    2    1    2    0    0 -0.10117095581E+02 -0.29607770201E+02  0.61437011979E+01  0.59301941234E+02  0.49999994904E+02 0.  0.
        -12    1    1    2    0    0  0.10117095581E+02  0.29607770201E+02 -0.61437011979E+01  0.31886058766E+02  0.00000000000E+00 0.  1.
         11    1    3    3    0    0 -0.58421706385E+01 -0.32261371253E+02  0.43354877569E+00  0.32788946273E+02  0.51100000000E-03 0. -1.
        -11    1    3    3    0    0  0.10714653152E+02  0.38654572965E+00  0.27124585158E+01  0.11059414145E+02  0.51100000000E-03 0.  1.
        -12    1    3    3    0    0 -0.14989578094E+02  0.22670553226E+01  0.29976939064E+01  0.15453580816E+02  0.00000000000E+00 0.  1.
</event>
<event>
 7    1  0.1327607E-011  0.5930195E+02  0.7816164E-02  0.1266605E+00
        -11   -1    0    0    0    0  0.00000000000E+00  0.00000000000E+00  0.45593999997E+02  0.45594000000E+02  0.51100000000E-03 0.  1.
         11   -1    0    0    0    0 -0.00000000000E+00 -0.00000000000E+00 -0.45593999997E+02  0.45594000000E+02  0.51100000000E-03 0. -1.
    9900012    2    1    2    0    0  0.25404894923E+02  0.18937401950E+02 -0.35617503692E+01  0.59301953767E+02  0.50000017762E+02 0.  0.
        -12    1    1    2    0    0 -0.25404894923E+02 -0.18937401950E+02  0.35617503692E+01  0.31886046233E+02  0.00000000000E+00 0.  1.
         11    1    3    3    0    0  0.19868848454E+02  0.26311199120E+02 -0.58485867407E+01  0.33485165449E+02  0.51100000000E-03 0. -1.
        -11    1    3    3    0    0  0.10725154113E+02 -0.90163419062E+01 -0.65274751810E+01  0.15457402260E+02  0.51100000000E-03 0.  1.
        -12    1    3    3    0    0 -0.51891076445E+01  0.16425447368E+01  0.88143115525E+01  0.10359386058E+02  0.00000000000E+00 0.  1.
</event>
<event>
 7    1  0.1327607E-011  0.5930193E+02  0.7816164E-02  0.1266605E+00
        -11   -1    0    0    0    0  0.00000000000E+00  0.00000000000E+00  0.45593999997E+02  0.45594000000E+02  0.51100000000E-03 0.  1.
         11   -1    0    0    0    0 -0.00000000000E+00 -0.00000000000E+00 -0.45593999997E+02  0.45594000000E+02  0.51100000000E-03 0. -1.
    9900012    2    1    2    0    0 -0.19737982138E+02  0.23915793364E+02 -0.74275349313E+01  0.59301931157E+02  0.49999976526E+02 0.  0.
        -12    1    1    2    0    0  0.19737982138E+02 -0.23915793364E+02  0.74275349313E+01  0.31886068843E+02  0.00000000000E+00 0.  1.
         11    1    3    3    0    0 -0.90508443952E+01  0.16774895143E+02 -0.42939386598E+01  0.19538495356E+02  0.51100000000E-03 0. -1.
        -11    1    3    3    0    0  0.69601657263E+01  0.27432550282E+01  0.13294732999E+02  0.15255139490E+02  0.51100000000E-03 0.  1.
         12    1    3    3    0    0 -0.17647303469E+02  0.43976431934E+01 -0.16428329271E+02  0.24508296310E+02  0.00000000000E+00 0. -1.
</event>
<event>
 7    1  0.1327607E-011  0.5930191E+02  0.7816164E-02  0.1266605E+00
        -11   -1    0    0    0    0  0.00000000000E+00  0.00000000000E+00  0.45593999997E+02  0.45594000000E+02  0.51100000000E-03 0.  1.
         11   -1    0    0    0    0 -0.00000000000E+00 -0.00000000000E+00 -0.45593999997E+02  0.45594000000E+02  0.51100000000E-03 0. -1.
    9900012    2    1    2    0    0 -0.23223580999E+02  0.13072018775E+02 -0.17507430688E+02  0.59301913402E+02  0.49999944145E+02 0.  0.
        -12    1    1    2    0    0  0.23223580999E+02 -0.13072018775E+02  0.17507430688E+02  0.31886086598E+02  0.00000000000E+00 0.  1.
         11    1    3    3    0    0 -0.14443523743E+02  0.17029756165E+02 -0.65858976571E+01  0.23280936867E+02  0.51100000000E-03 0.  1.
        -11    1    3    3    0    0 -0.92848787001E+01  0.13757277435E+02 -0.56133869997E+01  0.17520895205E+02  0.51100000000E-03 0. -1.
         12    1    3    3    0    0  0.50482144455E+00 -0.17715014825E+02 -0.53081460309E+01  0.18500081330E+02  0.00000000000E+00 0. -1.
</event>
<event>
 7    1  0.1327607E-011  0.5930193E+02  0.7816164E-02  0.1266605E+00
        -11   -1    0    0    0    0  0.00000000000E+00  0.00000000000E+00  0.45593999997E+02  0.45594000000E+02  0.51100000000E-03 0. -1.
         11   -1    0    0    0    0 -0.00000000000E+00 -0.00000000000E+00 -0.45593999997E+02  0.45594000000E+02  0.51100000000E-03 0.  1.
    9900012    2    1    2    0    0  0.20391020864E+02 -0.22789289273E+02 -0.90319316991E+01  0.59301933644E+02  0.49999981063E+02 0.  0.
        -12    1    1    2    0    0 -0.20391020864E+02  0.22789289273E+02  0.90319316991E+01  0.31886066356E+02  0.00000000000E+00 0.  1.
         11    1    3    3    0    0  0.28438379334E+00 -0.17044733338E+02 -0.24770942867E+02  0.30069975383E+02  0.51100000000E-03 0.  1.
        -11    1    3    3    0    0  0.18708523058E+02 -0.26392386275E+01  0.75199498103E+01  0.20335291022E+02  0.51100000000E-03 0. -1.
        -12    1    3    3    0    0  0.13981140127E+01 -0.31053173074E+01  0.82190613578E+01  0.88966672398E+01  0.00000000000E+00 0.  1.
</event>
<event>
 7    1  0.1327607E-011  0.5930194E+02  0.7816164E-02  0.1266605E+00
        -11   -1    0    0    0    0  0.00000000000E+00  0.00000000000E+00  0.45593999997E+02  0.45594000000E+02  0.51100000000E-03 0. -1.
         11   -1    0    0    0    0 -0.00000000000E+00 -0.00000000000E+00 -0.45593999997E+02  0.45594000000E+02  0.51100000000E-03 0.  1.
    9900012    2    1    2    0    0  0.29029169528E+02 -0.52123303214E+01  0.12118563371E+02  0.59301942717E+02  0.49999997610E+02 0.  0.
        -12    1    1    2    0    0 -0.29029169528E+02  0.52123303214E+01 -0.12118563371E+02  0.31886057283E+02  0.00000000000E+00 0.  1.
         11    1    3    3    0    0  0.92655576617E+01  0.11068803432E+02 -0.37791143452E+01  0.14921483629E+02  0.51100000000E-03 0. -1.
        -11    1    3    3    0    0  0.82826687286E+01  0.98222667154E+01  0.37513934252E+01  0.13384785302E+02  0.51100000000E-03 0.  1.
         12    1    3    3    0    0  0.11480943137E+02 -0.26103400469E+02  0.12146284291E+02  0.30995673786E+02  0.00000000000E+00 0. -1.
</event>
<event>
 7    1  0.1327607E-011  0.5930193E+02  0.7816164E-02  0.1266605E+00
        -11   -1    0    0    0    0  0.00000000000E+00  0.00000000000E+00  0.45593999997E+02  0.45594000000E+02  0.51100000000E-03 0. -1.
         11   -1    0    0    0    0 -0.00000000000E+00 -0.00000000000E+00 -0.45593999997E+02  0.45594000000E+02  0.51100000000E-03 0.  1.
    9900012    2    1    2    0    0 -0.10177302695E+02 -0.18043528687E+02  0.24239950076E+02  0.59301927848E+02  0.49999970492E+02 0.  0.
        -12    1    1    2    0    0  0.10177302695E+02  0.18043528687E+02 -0.24239950076E+02  0.31886072152E+02  0.00000000000E+00 0.  1.
         11    1    3    3    0    0  0.70821719226E+01 -0.10779910787E+01 -0.96807985332E+00  0.72288590228E+01  0.51100000000E-03 0. -1.
        -11    1    3    3    0    0 -0.42618466593E+01  0.12582346368E+02  0.73011520558E+01  0.15158680638E+02  0.51100000000E-03 0.  1.
         12    1    3    3    0    0 -0.12997627958E+02 -0.29547883977E+02  0.17906877873E+02  0.36914388187E+02  0.00000000000E+00 0. -1.
</event>
<event>
 7    1  0.1327607E-011  0.5930194E+02  0.7816164E-02  0.1266605E+00
        -11   -1    0    0    0    0  0.00000000000E+00  0.00000000000E+00  0.45593999997E+02  0.45594000000E+02  0.51100000000E-03 0.  1.
         11   -1    0    0    0    0 -0.00000000000E+00 -0.00000000000E+00 -0.45593999997E+02  0.45594000000E+02  0.51100000000E-03 0. -1.
    9900012    2    1    2    0    0 -0.28153543181E+01 -0.15181445025E+02 -0.27898361213E+02  0.59301936408E+02  0.49999986104E+02 0.  0.
        -12    1    1    2    0    0  0.28153543181E+01  0.15181445025E+02  0.27898361213E+02  0.31886063592E+02  0.00000000000E+00 0.  1.
         11    1    3    3    0    0  0.13390467893E+02  0.61605709277E+01 -0.17068539961E+02  0.22551991513E+02  0.51100000000E-03 0. -1.
        -11    1    3    3    0    0  0.43378122697E+01 -0.26634922034E+01 -0.70981981869E+01  0.87347137197E+01  0.51100000000E-03 0.  1.
        -12    1    3    3    0    0 -0.20543634480E+02 -0.18678523750E+02 -0.37316230659E+01  0.28015231176E+02  0.00000000000E+00 0.  1.
</event>
<event>
 7    1  0.1327607E-011  0.5930196E+02  0.7816164E-02  0.1266605E+00
        -11   -1    0    0    0    0  0.00000000000E+00  0.00000000000E+00  0.45593999997E+02  0.45594000000E+02  0.51100000000E-03 0.  1.
         11   -1    0    0    0    0 -0.00000000000E+00 -0.00000000000E+00 -0.45593999997E+02  0.45594000000E+02  0.51100000000E-03 0. -1.
    9900012    2    1    2    0    0  0.10475258037E+02  0.16550210384E+02 -0.25161067186E+02  0.59301956083E+02  0.50000021987E+02 0.  0.
        -12    1    1    2    0    0 -0.10475258037E+02 -0.16550210384E+02  0.25161067186E+02  0.31886043917E+02  0.00000000000E+00 0.  1.
         11    1    3    3    0    0  0.11303620227E+02 -0.88787096695E+01 -0.56129540241E+01  0.15430766953E+02  0.51100000000E-03 0. -1.
        -11    1    3    3    0    0  0.14077136467E+02  0.15905753175E+02 -0.77533850846E+01  0.22611362978E+02  0.51100000000E-03 0.  1.
         12    1    3    3    0    0 -0.14905498657E+02  0.95231668781E+01 -0.11794728078E+02  0.21259826152E+02  0.00000000000E+00 0. -1.
</event>
<event>
 7    1  0.1327607E-011  0.5930214E+02  0.7816164E-02  0.1266604E+00
        -11   -1    0    0    0    0  0.00000000000E+00  0.00000000000E+00  0.45593999997E+02  0.45594000000E+02  0.51100000000E-03 0. -1.
         11   -1    0    0    0    0 -0.00000000000E+00 -0.00000000000E+00 -0.45593999997E+02  0.45594000000E+02  0.51100000000E-03 0.  1.
    9900012    2    1    2    0    0 -0.22768519005E+02  0.18749291813E+02  0.12114725858E+02  0.59302141320E+02  0.50000359812E+02 0.  0.
        -12    1    1    2    0    0  0.22768519005E+02 -0.18749291813E+02 -0.12114725858E+02  0.31885858680E+02  0.00000000000E+00 0.  1.
         11    1    3    3    0    0 -0.86506356853E+01  0.25900958766E+02  0.15068591550E+02  0.31189030352E+02  0.51100000000E-03 0. -1.
        -11    1    3    3    0    0  0.41883723308E+01  0.39836974980E+00 -0.67467298350E+01  0.79510706805E+01  0.51100000000E-03 0.  1.
         12    1    3    3    0    0 -0.18306255650E+02 -0.75500367022E+01  0.37928641428E+01  0.20162040287E+02  0.00000000000E+00 0. -1.
</event>
<event>
 7    1  0.1327607E-011  0.5930196E+02  0.7816164E-02  0.1266605E+00
        -11   -1    0    0    0    0  0.00000000000E+00  0.00000000000E+00  0.45593999997E+02  0.45594000000E+02  0.51100000000E-03 0. -1.
         11   -1    0    0    0    0 -0.00000000000E+00 -0.00000000000E+00 -0.45593999997E+02  0.45594000000E+02  0.51100000000E-03 0.  1.
    9900012    2    1    2    0    0  0.10683110118E+02 -0.22788469818E+02  0.19577441037E+02  0.59301962366E+02  0.50000033445E+02 0.  0.
        -12    1    1    2    0    0 -0.10683110118E+02  0.22788469818E+02 -0.19577441037E+02  0.31886037634E+02  0.00000000000E+00 0.  1.
         11    1    3    3    0    0  0.11362063269E+00 -0.32374989558E+02  0.23449444001E+02  0.39975358444E+02  0.51100000000E-03 0. -1.
        -11    1    3    3    0    0 -0.25185009649E+01  0.37108675707E+01 -0.17948886343E+01  0.48306325371E+01  0.51100000000E-03 0.  1.
        -12    1    3    3    0    0  0.13087990450E+02  0.58756521699E+01 -0.20771143292E+01  0.14495971385E+02  0.00000000000E+00 0.  1.
</event>
<event>
 7    1  0.1327607E-011  0.5930194E+02  0.7816164E-02  0.1266605E+00
        -11   -1    0    0    0    0  0.00000000000E+00  0.00000000000E+00  0.45593999997E+02  0.45594000000E+02  0.51100000000E-03 0.  1.
         11   -1    0    0    0    0 -0.00000000000E+00 -0.00000000000E+00 -0.45593999997E+02  0.45594000000E+02  0.51100000000E-03 0. -1.
    9900012    2    1    2    0    0 -0.15497870705E+02  0.25785988937E+02  0.10565010434E+02  0.59301942430E+02  0.49999997087E+02 0.  0.
        -12    1    1    2    0    0  0.15497870705E+02 -0.25785988937E+02 -0.10565010434E+02  0.31886057570E+02  0.00000000000E+00 0.  1.
         11    1    3    3    0    0  0.99967935622E+01 -0.51571759978E+01  0.21227871534E+01  0.11447208016E+02  0.51100000000E-03 0. -1.
        -11    1    3    3    0    0  0.44398284703E+01  0.18364076526E+01  0.32037740288E+01  0.57748279802E+01  0.51100000000E-03 0.  1.
        -12    1    3    3    0    0 -0.29934492738E+02  0.29106757282E+02  0.52384492518E+01  0.42079906434E+02  0.00000000000E+00 0.  1.
</event>
<event>
 7    1  0.1327607E-011  0.5930190E+02  0.7816164E-02  0.1266605E+00
        -11   -1    0    0    0    0  0.00000000000E+00  0.00000000000E+00  0.45593999997E+02  0.45594000000E+02  0.51100000000E-03 0.  1.
         11   -1    0    0    0    0 -0.00000000000E+00 -0.00000000000E+00 -0.45593999997E+02  0.45594000000E+02  0.51100000000E-03 0. -1.
    9900012    2    1    2    0    0  0.29885590331E+02  0.92762319135E+01 -0.61258812147E+01  0.59301899445E+02  0.49999918692E+02 0.  0.
        -12    1    1    2    0    0 -0.29885590331E+02 -0.92762319135E+01  0.61258812147E+01  0.31886100555E+02  0.00000000000E+00 0.  1.
         11    1    3    3    0    0  0.22392655527E+02 -0.15325829650E+01  0.78836190139E+01  0.23789310228E+02  0.51100000000E-03 0. -1.
        -11    1    3    3    0    0 -0.25065160106E+01 -0.17349973557E+01  0.78369822340E+01  0.84089909700E+01  0.51100000000E-03 0.  1.
         12    1    3    3    0    0  0.99994508146E+01  0.12543812234E+02 -0.21846482463E+02  0.27103598247E+02  0.00000000000E+00 0. -1.
</event>
<event>
 7    1  0.1327607E-011  0.5930195E+02  0.7816164E-02  0.1266605E+00
        -11   -1    0    0    0    0  0.00000000000E+00  0.00000000000E+00  0.45593999997E+02  0.45594000000E+02  0.51100000000E-03 0.  1.
         11   -1    0    0    0    0 -0.00000000000E+00 -0.00000000000E+00 -0.45593999997E+02  0.45594000000E+02  0.51100000000E-03 0. -1.
    9900012    2    1    2    0    0 -0.71517788314E+01  0.27038590476E+02 -0.15312966074E+02  0.59301949047E+02  0.50000009154E+02 0.  0.
        -12    1    1    2    0    0  0.71517788314E+01 -0.27038590476E+02  0.15312966074E+02  0.31886050953E+02  0.00000000000E+00 0.  1.
         11    1    3    3    0    0  0.31943955864E+01  0.21102143478E+02 -0.16742783400E+02  0.27126102167E+02  0.51100000000E-03 0. -1.
        -11    1    3    3    0    0  0.23148351294E+01  0.13748714189E+02 -0.64260189064E+01  0.15351850793E+02  0.51100000000E-03 0.  1.
        -12    1    3    3    0    0 -0.12661009547E+02 -0.78122671912E+01  0.78558362323E+01  0.16823996087E+02  0.00000000000E+00 0.  1.
</event>
<event>
 7    1  0.1327607E-011  0.5930195E+02  0.7816164E-02  0.1266605E+00
        -11   -1    0    0    0    0  0.00000000000E+00  0.00000000000E+00  0.45593999997E+02  0.45594000000E+02  0.51100000000E-03 0. -1.
         11   -1    0    0    0    0 -0.00000000000E+00 -0.00000000000E+00 -0.45593999997E+02  0.45594000000E+02  0.51100000000E-03 0.  1.
    9900012    2    1    2    0    0 -0.12421427390E+02 -0.17153329450E+02  0.23836776296E+02  0.59301945465E+02  0.50000002621E+02 0.  0.
        -12    1    1    2    0    0  0.12421427390E+02  0.17153329450E+02 -0.23836776296E+02  0.31886054535E+02  0.00000000000E+00 0.  1.
         11    1    3    3    0    0  0.14370811914E+02 -0.12323276513E+02  0.42906910615E+01  0.19411167124E+02  0.51100000000E-03 0.  1.
        -11    1    3    3    0    0 -0.10848094372E+02 -0.63338545115E+01  0.20284157546E+02  0.23858874913E+02  0.51100000000E-03 0. -1.
        -12    1    3    3    0    0 -0.15944144932E+02  0.15038015739E+01 -0.73807231198E+00  0.16031903428E+02  0.00000000000E+00 0.  1.
</event>
<event>
 7    1  0.1327607E-011  0.5930192E+02  0.7816164E-02  0.1266605E+00
        -11   -1    0    0    0    0  0.00000000000E+00  0.00000000000E+00  0.45593999997E+02  0.45594000000E+02  0.51100000000E-03 0. -1.
         11   -1    0    0    0    0 -0.00000000000E+00 -0.00000000000E+00 -0.45593999997E+02  0.45594000000E+02  0.51100000000E-03 0.  1.
    9900012    2    1    2    0    0  0.20947723344E+02 -0.53565646939E+01  0.23435490704E+02  0.59301919602E+02  0.49999955454E+02 0.  0.
        -12    1    1    2    0    0 -0.20947723344E+02  0.53565646939E+01 -0.23435490704E+02  0.31886080398E+02  0.00000000000E+00 0.  1.
         11    1    3    3    0    0  0.14670431446E+02 -0.53623200122E+01  0.23251877199E+02  0.28011173276E+02  0.51100000000E-03 0. -1.
        -11    1    3    3    0    0  0.11018491663E+02  0.37166618232E+01  0.12810953752E+02  0.17301481727E+02  0.51100000000E-03 0.  1.
        -12    1    3    3    0    0 -0.47411997653E+01 -0.37109065050E+01 -0.12627340248E+02  0.13989264600E+02  0.00000000000E+00 0.  1.
</event>
<event>
 7    1  0.1327607E-011  0.5930194E+02  0.7816164E-02  0.1266605E+00
        -11   -1    0    0    0    0  0.00000000000E+00  0.00000000000E+00  0.45593999997E+02  0.45594000000E+02  0.51100000000E-03 0. -1.
         11   -1    0    0    0    0 -0.00000000000E+00 -0.00000000000E+00 -0.45593999997E+02  0.45594000000E+02  0.51100000000E-03 0.  1.
    9900012    2    1    2    0    0  0.30396643521E+02 -0.90269708654E-01 -0.96310170256E+01  0.59301943879E+02  0.49999999729E+02 0.  0.
        -12    1    1    2    0    0 -0.30396643521E+02  0.90269708654E-01  0.96310170256E+01  0.31886056121E+02  0.00000000000E+00 0.  1.
         11    1    3    3    0    0  0.20226341155E+02  0.12686395613E+02 -0.30986506890E+01  0.24075945392E+02  0.51100000000E-03 0.  1.
        -11    1    3    3    0    0  0.11145299815E+02 -0.22581153582E+01  0.10306885450E+02  0.15347595280E+02  0.51100000000E-03 0. -1.
         12    1    3    3    0    0 -0.97499744829E+00 -0.10518549963E+02 -0.16839251786E+02  0.19878403208E+02  0.00000000000E+00 0. -1.
</event>
<event>
 7    1  0.1327607E-011  0.5930196E+02  0.7816164E-02  0.1266605E+00
        -11   -1    0    0    0    0  0.00000000000E+00  0.00000000000E+00  0.45593999997E+02  0.45594000000E+02  0.51100000000E-03 0.  1.
         11   -1    0    0    0    0 -0.00000000000E+00 -0.00000000000E+00 -0.45593999997E+02  0.45594000000E+02  0.51100000000E-03 0. -1.
    9900012    2    1    2    0    0  0.23775821991E+02 -0.76252972182E+01 -0.19831402718E+02  0.59301962259E+02  0.50000033250E+02 0.  0.
        -12    1    1    2    0    0 -0.23775821991E+02  0.76252972182E+01  0.19831402718E+02  0.31886037741E+02  0.00000000000E+00 0.  1.
         11    1    3    3    0    0  0.18706217259E+02 -0.63006212027E+01 -0.22353023891E+01  0.19864968379E+02  0.51100000000E-03 0. -1.
        -11    1    3    3    0    0 -0.12502676184E+02 -0.63947200163E+01  0.20862902905E-01  0.14043140367E+02  0.51100000000E-03 0.  1.
         12    1    3    3    0    0  0.17572280916E+02  0.50700440007E+01 -0.17616963232E+02  0.25393853514E+02  0.00000000000E+00 0. -1.
</event>
<event>
 7    1  0.1327607E-011  0.5930195E+02  0.7816164E-02  0.1266605E+00
        -11   -1    0    0    0    0  0.00000000000E+00  0.00000000000E+00  0.45593999997E+02  0.45594000000E+02  0.51100000000E-03 0.  1.
         11   -1    0    0    0    0 -0.00000000000E+00 -0.00000000000E+00 -0.45593999997E+02  0.45594000000E+02  0.51100000000E-03 0. -1.
    9900012    2    1    2    0    0 -0.18886424498E+02 -0.99998827436E+01 -0.23664860435E+02  0.59301948119E+02  0.50000007461E+02 0.  0.
        -12    1    1    2    0    0  0.18886424498E+02  0.99998827436E+01  0.23664860435E+02  0.31886051881E+02  0.00000000000E+00 0.  1.
         11    1    3    3    0    0 -0.14104324050E+02 -0.97687099008E+00 -0.31699994592E+02  0.34709881752E+02  0.51100000000E-03 0. -1.
        -11    1    3    3    0    0 -0.11238863972E+02  0.10074631295E+01  0.45247144715E+01  0.12157305896E+02  0.51100000000E-03 0.  1.
        -12    1    3    3    0    0  0.64567635241E+01 -0.10030474883E+02  0.35104196862E+01  0.12434760470E+02  0.00000000000E+00 0.  1.
</event>
<event>
 7    1  0.1327607E-011  0.5930195E+02  0.7816164E-02  0.1266605E+00
        -11   -1    0    0    0    0  0.00000000000E+00  0.00000000000E+00  0.45593999997E+02  0.45594000000E+02  0.51100000000E-03 0.  1.
         11   -1    0    0    0    0 -0.00000000000E+00 -0.00000000000E+00 -0.45593999997E+02  0.45594000000E+02  0.51100000000E-03 0. -1.
    9900012    2    1    2    0    0 -0.20223997317E+02 -0.10986937605E+02 -0.22068014149E+02  0.59301951109E+02  0.50000012914E+02 0.  0.
        -12    1    1    2    0    0  0.20223997317E+02  0.10986937605E+02  0.22068014149E+02  0.31886048891E+02  0.00000000000E+00 0.  1.
         11    1    3    3    0    0 -0.31817431297E+02 -0.49167911108E+01 -0.95043861449E+01  0.33568692638E+02  0.51100000000E-03 0. -1.
        -11    1    3    3    0    0  0.35477878216E+01  0.32116687960E+01 -0.12569573993E+02  0.13449751131E+02  0.51100000000E-03 0.  1.
        -12    1    3    3    0    0  0.80456461586E+01 -0.92818152905E+01  0.59459887806E-02  0.12283507339E+02  0.00000000000E+00 0.  1.
</event>
<event>
 7    1  0.1327607E-011  0.5930194E+02  0.7816164E-02  0.1266605E+00
        -11   -1    0    0    0    0  0.00000000000E+00  0.00000000000E+00  0.45593999997E+02  0.45594000000E+02  0.51100000000E-03 0. -1.
         11   -1    0    0    0    0 -0.00000000000E+00 -0.00000000000E+00 -0.45593999997E+02  0.45594000000E+02  0.51100000000E-03 0.  1.
    9900012    2    1    2    0    0 -0.22182588666E+02 -0.22903177228E+02  0.31269572806E+00  0.59301944338E+02  0.50000000566E+02 0.  0.
        -12    1    1    2    0    0  0.22182588666E+02  0.22903177228E+02 -0.31269572806E+00  0.31886055662E+02  0.00000000000E+00 0.  1.
         11    1    3    3    0    0 -0.74502758944E+01 -0.12430108274E+02  0.89945464171E-01  0.14492145909E+02  0.51100000000E-03 0. -1.
        -11    1    3    3    0    0 -0.28186453681E+02 -0.56053649808E+01 -0.57457606917E+01  0.29307167278E+02  0.51100000000E-03 0.  1.
        -12    1    3    3    0    0  0.13454140909E+02 -0.48677039733E+01  0.59685109556E+01  0.15502631151E+02  0.00000000000E+00 0.  1.
</event>
<event>
 7    1  0.1327607E-011  0.5930197E+02  0.7816164E-02  0.1266605E+00
        -11   -1    0    0    0    0  0.00000000000E+00  0.00000000000E+00  0.45593999997E+02  0.45594000000E+02  0.51100000000E-03 0.  1.
         11   -1    0    0    0    0 -0.00000000000E+00 -0.00000000000E+00 -0.45593999997E+02  0.45594000000E+02  0.51100000000E-03 0. -1.
    9900012    2    1    2    0    0  0.77481366162E+01  0.30654436678E+02 -0.41219898167E+01  0.59301970001E+02  0.50000047369E+02 0.  0.
        -12    1    1    2    0    0 -0.77481366162E+01 -0.30654436678E+02  0.41219898167E+01  0.31886029999E+02  0.00000000000E+00 0.  1.
         11    1    3    3    0    0 -0.75906246875E+01 -0.19702495633E+01 -0.10967580949E+02  0.13482852021E+02  0.51100000000E-03 0. -1.
        -11    1    3    3    0    0 -0.19768442574E+01  0.59883256484E+01  0.12074215930E+02  0.13621844511E+02  0.51100000000E-03 0.  1.
        -12    1    3    3    0    0  0.17315605561E+02  0.26636360593E+02 -0.52286247981E+01  0.32197273469E+02  0.00000000000E+00 0.  1.
</event>
<event>
 7    1  0.1327607E-011  0.5930198E+02  0.7816164E-02  0.1266605E+00
        -11   -1    0    0    0    0  0.00000000000E+00  0.00000000000E+00  0.45593999997E+02  0.45594000000E+02  0.51100000000E-03 0.  1.
         11   -1    0    0    0    0 -0.00000000000E+00 -0.00000000000E+00 -0.45593999997E+02  0.45594000000E+02  0.51100000000E-03 0. -1.
    9900012    2    1    2    0    0  0.19812913310E+01  0.26051805333E+02 -0.18278299500E+02  0.59301979410E+02  0.50000064530E+02 0.  0.
        -12    1    1    2    0    0 -0.19812913310E+01 -0.26051805333E+02  0.18278299500E+02  0.31886020590E+02  0.00000000000E+00 0.  1.
         11    1    3    3    0    0 -0.17832096774E+02  0.45037754400E+01 -0.70480151900E+01  0.19696248043E+02  0.51100000000E-03 0. -1.
        -11    1    3    3    0    0  0.10506562405E+02  0.21545070723E+02 -0.16319478213E+02  0.28998332632E+02  0.51100000000E-03 0.  1.
        -12    1    3    3    0    0  0.93068256998E+01  0.29591701221E-02  0.50891939029E+01  0.10607398736E+02  0.00000000000E+00 0.  1.
</event>
<event>
 7    1  0.1327607E-011  0.5930190E+02  0.7816164E-02  0.1266605E+00
        -11   -1    0    0    0    0  0.00000000000E+00  0.00000000000E+00  0.45593999997E+02  0.45594000000E+02  0.51100000000E-03 0. -1.
         11   -1    0    0    0    0 -0.00000000000E+00 -0.00000000000E+00 -0.45593999997E+02  0.45594000000E+02  0.51100000000E-03 0.  1.
    9900012    2    1    2    0    0 -0.30362970259E+01  0.26729562401E+02 -0.17118257508E+02  0.59301900429E+02  0.49999920486E+02 0.  0.
        -12    1    1    2    0    0  0.30362970259E+01 -0.26729562401E+02  0.17118257508E+02  0.31886099571E+02  0.00000000000E+00 0.  1.
         11    1    3    3    0    0  0.13942218747E+01  0.12933585580E+02 -0.16430612556E+02  0.20956777420E+02  0.51100000000E-03 0. -1.
        -11    1    3    3    0    0 -0.19817158781E+02  0.10050289894E+02 -0.26932721820E+01  0.22382623269E+02  0.51100000000E-03 0.  1.
        -12    1    3    3    0    0  0.15386639880E+02  0.37456869265E+01  0.20056272301E+01  0.15962499740E+02  0.00000000000E+00 0.  1.
</event>
<event>
 7    1  0.1327607E-011  0.5930196E+02  0.7816164E-02  0.1266605E+00
        -11   -1    0    0    0    0  0.00000000000E+00  0.00000000000E+00  0.45593999997E+02  0.45594000000E+02  0.51100000000E-03 0. -1.
         11   -1    0    0    0    0 -0.00000000000E+00 -0.00000000000E+00 -0.45593999997E+02  0.45594000000E+02  0.51100000000E-03 0.  1.
    9900012    2    1    2    0    0 -0.25415862043E+02 -0.18591996776E+02  0.50090799317E+01  0.59301964353E+02  0.50000037069E+02 0.  0.
        -12    1    1    2    0    0  0.25415862043E+02  0.18591996776E+02 -0.50090799317E+01  0.31886035647E+02  0.00000000000E+00 0.  1.
         11    1    3    3    0    0  0.11344494989E+01 -0.33592123615E+01  0.13622145651E+02  0.14076012779E+02  0.51100000000E-03 0. -1.
        -11    1    3    3    0    0 -0.35893597950E+01 -0.46752182592E+01  0.11503168677E+02  0.12925326278E+02  0.51100000000E-03 0.  1.
        -12    1    3    3    0    0 -0.22960951747E+02 -0.10557566155E+02 -0.20116234397E+02  0.32300625296E+02  0.00000000000E+00 0.  1.
</event>
<event>
 7    1  0.1327607E-011  0.5930194E+02  0.7816164E-02  0.1266605E+00
        -11   -1    0    0    0    0  0.00000000000E+00  0.00000000000E+00  0.45593999997E+02  0.45594000000E+02  0.51100000000E-03 0. -1.
         11   -1    0    0    0    0 -0.00000000000E+00 -0.00000000000E+00 -0.45593999997E+02  0.45594000000E+02  0.51100000000E-03 0.  1.
    9900012    2    1    2    0    0 -0.86249476438E+01  0.19918397632E+02  0.23357832625E+02  0.59301943000E+02  0.49999998125E+02 0.  0.
        -12    1    1    2    0    0  0.86249476438E+01 -0.19918397632E+02 -0.23357832625E+02  0.31886057000E+02  0.00000000000E+00 0.  1.
         11    1    3    3    0    0 -0.10879181258E+02  0.14578633948E+02  0.11371895377E+02  0.21452579270E+02  0.51100000000E-03 0. -1.
        -11    1    3    3    0    0 -0.10188299743E+02  0.81059464034E+01 -0.71525040002E+01  0.14854835323E+02  0.51100000000E-03 0.  1.
         12    1    3    3    0    0  0.12442533357E+02 -0.27661827194E+01  0.19138441249E+02  0.22994528406E+02  0.00000000000E+00 0. -1.
</event>
<event>
 7    1  0.1327607E-011  0.5930197E+02  0.7816164E-02  0.1266605E+00
        -11   -1    0    0    0    0  0.00000000000E+00  0.00000000000E+00  0.45593999997E+02  0.45594000000E+02  0.51100000000E-03 0.  1.
         11   -1    0    0    0    0 -0.00000000000E+00 -0.00000000000E+00 -0.45593999997E+02  0.45594000000E+02  0.51100000000E-03 0. -1.
    9900012    2    1    2    0    0 -0.18563292937E+02  0.25508367701E+02  0.46310097550E+01  0.59301969849E+02  0.50000047092E+02 0.  0.
        -12    1    1    2    0    0  0.18563292937E+02 -0.25508367701E+02 -0.46310097550E+01  0.31886030151E+02  0.00000000000E+00 0.  1.
         11    1    3    3    0    0 -0.14096238248E+02 -0.25686755180E+01 -0.14846731278E+02  0.20633163998E+02  0.51100000000E-03 0. -1.
        -11    1    3    3    0    0 -0.12501117171E+01 -0.23350683817E+01  0.55517797639E+00  0.27062051842E+01  0.51100000000E-03 0.  1.
        -12    1    3    3    0    0 -0.32169429719E+01  0.30412111601E+02  0.18922563057E+02  0.35962600667E+02  0.00000000000E+00 0.  1.
</event>
<event>
 7    1  0.1327607E-011  0.5930194E+02  0.7816164E-02  0.1266605E+00
        -11   -1    0    0    0    0  0.00000000000E+00  0.00000000000E+00  0.45593999997E+02  0.45594000000E+02  0.51100000000E-03 0. -1.
         11   -1    0    0    0    0 -0.00000000000E+00 -0.00000000000E+00 -0.45593999997E+02  0.45594000000E+02  0.51100000000E-03 0.  1.
    9900012    2    1    2    0    0 -0.30478228479E+02 -0.48411146685E+01  0.80225922083E+01  0.59301940535E+02  0.49999993631E+02 0.  0.
        -12    1    1    2    0    0  0.30478228479E+02  0.48411146685E+01 -0.80225922083E+01  0.31886059465E+02  0.00000000000E+00 0.  1.
         11    1    3    3    0    0 -0.35891848217E+00  0.10100274124E+02 -0.65669008414E+01  0.12052740218E+02  0.51100000000E-03 0. -1.
        -11    1    3    3    0    0 -0.11431878715E+02 -0.98428489511E+01 -0.83364781980E+01  0.17235614159E+02  0.51100000000E-03 0.  1.
         12    1    3    3    0    0 -0.18687431282E+02 -0.50985398411E+01  0.22925971248E+02  0.30013586158E+02  0.00000000000E+00 0. -1.
</event>
<event>
 7    1  0.1327607E-011  0.5930193E+02  0.7816164E-02  0.1266605E+00
        -11   -1    0    0    0    0  0.00000000000E+00  0.00000000000E+00  0.45593999997E+02  0.45594000000E+02  0.51100000000E-03 0. -1.
         11   -1    0    0    0    0 -0.00000000000E+00 -0.00000000000E+00 -0.45593999997E+02  0.45594000000E+02  0.51100000000E-03 0.  1.
    9900012    2    1    2    0    0 -0.12693527744E+02  0.91478095045E+01  0.27783329457E+02  0.59301929984E+02  0.49999974388E+02 0.  0.
        -12    1    1    2    0    0  0.12693527744E+02 -0.91478095045E+01 -0.27783329457E+02  0.31886070016E+02  0.00000000000E+00 0.  1.
         11    1    3    3    0    0 -0.24523505279E+00 -0.58427573509E+00 -0.73204174651E+01  0.73477908578E+01  0.51100000000E-03 0. -1.
        -11    1    3    3    0    0 -0.93326277617E+01 -0.12638258440E+02  0.14031174246E+02  0.21064125150E+02  0.51100000000E-03 0.  1.
         12    1    3    3    0    0 -0.31156649295E+01  0.22370343680E+02  0.21072572676E+02  0.30890013977E+02  0.00000000000E+00 0. -1.
</event>
<event>
 7    1  0.1327607E-011  0.5930211E+02  0.7816164E-02  0.1266604E+00
        -11   -1    0    0    0    0  0.00000000000E+00  0.00000000000E+00  0.45593999997E+02  0.45594000000E+02  0.51100000000E-03 0. -1.
         11   -1    0    0    0    0 -0.00000000000E+00 -0.00000000000E+00 -0.45593999997E+02  0.45594000000E+02  0.51100000000E-03 0.  1.
    9900012    2    1    2    0    0 -0.14526665094E+02  0.21545431098E+02  0.18479183987E+02  0.59302112200E+02  0.50000306705E+02 0.  0.
        -12    1    1    2    0    0  0.14526665094E+02 -0.21545431098E+02 -0.18479183987E+02  0.31885887800E+02  0.00000000000E+00 0.  1.
         11    1    3    3    0    0 -0.10557542543E+02  0.80018255393E+01 -0.45230757295E+01  0.13998183126E+02  0.51100000000E-03 0. -1.
        -11    1    3    3    0    0  0.10037700425E+02  0.12670726207E+02 -0.23418866999E+01  0.16333620726E+02  0.51100000000E-03 0.  1.
         12    1    3    3    0    0 -0.14006822975E+02  0.87287935207E+00  0.25344146417E+02  0.28970308349E+02  0.00000000000E+00 0. -1.
</event>
<event>
 7    1  0.1327607E-011  0.5930196E+02  0.7816164E-02  0.1266605E+00
        -11   -1    0    0    0    0  0.00000000000E+00  0.00000000000E+00  0.45593999997E+02  0.45594000000E+02  0.51100000000E-03 0.  1.
         11   -1    0    0    0    0 -0.00000000000E+00 -0.00000000000E+00 -0.45593999997E+02  0.45594000000E+02  0.51100000000E-03 0. -1.
    9900012    2    1    2    0    0  0.82702802808E+01  0.32147947917E+01 -0.30626576997E+02  0.59301958226E+02  0.50000025893E+02 0.  0.
        -12    1    1    2    0    0 -0.82702802808E+01 -0.32147947917E+01  0.30626576997E+02  0.31886041774E+02  0.00000000000E+00 0.  1.
         11    1    3    3    0    0  0.41637104369E+01 -0.11362714390E+02 -0.22577335667E+01  0.12310366527E+02  0.51100000000E-03 0. -1.
        -11    1    3    3    0    0  0.10571877633E+02 -0.73210021865E+01 -0.37073632150E+01  0.13383056899E+02  0.51100000000E-03 0.  1.
         12    1    3    3    0    0 -0.64653077893E+01  0.21898511368E+02 -0.24661480216E+02  0.33608534799E+02  0.00000000000E+00 0. -1.
</event>
<event>
 7    1  0.1327607E-011  0.5930195E+02  0.7816164E-02  0.1266605E+00
        -11   -1    0    0    0    0  0.00000000000E+00  0.00000000000E+00  0.45593999997E+02  0.45594000000E+02  0.51100000000E-03 0.  1.
         11   -1    0    0    0    0 -0.00000000000E+00 -0.00000000000E+00 -0.45593999997E+02  0.45594000000E+02  0.51100000000E-03 0. -1.
    9900012    2    1    2    0    0 -0.23399353861E+02 -0.57262205695E+01 -0.20890208916E+02  0.59301949889E+02  0.50000010689E+02 0.  0.
        -12    1    1    2    0    0  0.23399353861E+02  0.57262205695E+01  0.20890208916E+02  0.31886050111E+02  0.00000000000E+00 0.  1.
         11    1    3    3    0    0  0.31019187668E+00  0.12617859107E+02 -0.10592367737E+02  0.16477403982E+02  0.51100000000E-03 0. -1.
        -11    1    3    3    0    0  0.57078901620E+01 -0.35768071179E+01  0.29358215992E+01  0.73479662481E+01  0.51100000000E-03 0.  1.
         12    1    3    3    0    0 -0.29417435900E+02 -0.14767272559E+02 -0.13233662778E+02  0.35476579659E+02  0.00000000000E+00 0. -1.
</event>
<event>
 7    1  0.1327607E-011  0.5930193E+02  0.7816164E-02  0.1266605E+00
        -11   -1    0    0    0    0  0.00000000000E+00  0.00000000000E+00  0.45593999997E+02  0.45594000000E+02  0.51100000000E-03 0. -1.
         11   -1    0    0    0    0 -0.00000000000E+00 -0.00000000000E+00 -0.45593999997E+02  0.45594000000E+02  0.51100000000E-03 0.  1.
    9900012    2    1    2    0    0 -0.24511350517E+02 -0.18060515646E+02 -0.94727627420E+01  0.59301925241E+02  0.49999965737E+02 0.  0.
        -12    1    1    2    0    0  0.24511350517E+02  0.18060515646E+02  0.94727627420E+01  0.31886074759E+02  0.00000000000E+00 0.  1.
         11    1    3    3    0    0 -0.23176394435E+02 -0.30387939173E+00  0.30237594164E+01  0.23374788191E+02  0.51100000000E-03 0. -1.
        -11    1    3    3    0    0 -0.72822873384E+01  0.58103687865E+01 -0.44459400219E+01  0.10322716564E+02  0.51100000000E-03 0.  1.
         12    1    3    3    0    0  0.59473312570E+01 -0.23567005041E+02 -0.80505821364E+01  0.25604420486E+02  0.00000000000E+00 0. -1.
</event>
<event>
 7    1  0.1327607E-011  0.5930195E+02  0.7816164E-02  0.1266605E+00
        -11   -1    0    0    0    0  0.00000000000E+00  0.00000000000E+00  0.45593999997E+02  0.45594000000E+02  0.51100000000E-03 0. -1.
         11   -1    0    0    0    0 -0.00000000000E+00 -0.00000000000E+00 -0.45593999997E+02  0.45594000000E+02  0.51100000000E-03 0.  1.
    9900012    2    1    2    0    0  0.29079266081E+02  0.12711037915E+02  0.30896399905E+01  0.59301951703E+02  0.50000013998E+02 0.  0.
        -12    1    1    2    0    0 -0.29079266081E+02 -0.12711037915E+02 -0.30896399905E+01  0.31886048297E+02  0.00000000000E+00 0.  1.
         11    1    3    3    0    0  0.11693961609E+02 -0.84984130437E+01  0.13673227088E+02  0.19897962248E+02  0.51100000000E-03 0. -1.
        -11    1    3    3    0    0 -0.60886080882E+01  0.96923089872E+01 -0.57677099868E+01  0.12817116708E+02  0.51100000000E-03 0.  1.
        -12    1    3    3    0    0  0.23473912561E+02  0.11517141972E+02 -0.48158771110E+01  0.26586872747E+02  0.00000000000E+00 0.  1.
</event>
<event>
 7    1  0.1327607E-011  0.5930195E+02  0.7816164E-02  0.1266605E+00
        -11   -1    0    0    0    0  0.00000000000E+00  0.00000000000E+00  0.45593999997E+02  0.45594000000E+02  0.51100000000E-03 0.  1.
         11   -1    0    0    0    0 -0.00000000000E+00 -0.00000000000E+00 -0.45593999997E+02  0.45594000000E+02  0.51100000000E-03 0. -1.
    9900012    2    1    2    0    0 -0.16331250456E+02 -0.25251109086E+02 -0.10601510953E+02  0.59301948410E+02  0.50000007992E+02 0.  0.
        -12    1    1    2    0    0  0.16331250456E+02  0.25251109086E+02  0.10601510953E+02  0.31886051590E+02  0.00000000000E+00 0.  1.
         11    1    3    3    0    0 -0.19828915815E+02 -0.26867538487E+02 -0.21222628037E+02  0.39565773945E+02  0.51100000000E-03 0. -1.
        -11    1    3    3    0    0  0.57492056408E+00 -0.44609061793E+01 -0.23811014939E+01  0.50891907196E+01  0.51100000000E-03 0.  1.
        -12    1    3    3    0    0  0.29227447949E+01  0.60773355806E+01  0.13002218578E+02  0.14646983746E+02  0.00000000000E+00 0.  1.
</event>
<event>
 7    1  0.1327607E-011  0.5930201E+02  0.7816164E-02  0.1266605E+00
        -11   -1    0    0    0    0  0.00000000000E+00  0.00000000000E+00  0.45593999997E+02  0.45594000000E+02  0.51100000000E-03 0. -1.
         11   -1    0    0    0    0 -0.00000000000E+00 -0.00000000000E+00 -0.45593999997E+02  0.45594000000E+02  0.51100000000E-03 0.  1.
    9900012    2    1    2    0    0 -0.76209872682E+01  0.30940255666E+02  0.11566041458E+01  0.59302006198E+02  0.50000113383E+02 0.  0.
        -12    1    1    2    0    0  0.76209872682E+01 -0.30940255666E+02 -0.11566041458E+01  0.31885993802E+02  0.00000000000E+00 0.  1.
         11    1    3    3    0    0 -0.32138079895E+01  0.13070389912E+02  0.56287412211E+01  0.14589255713E+02  0.51100000000E-03 0. -1.
        -11    1    3    3    0    0 -0.81988529953E+01 -0.10713732686E+02  0.49621671725E+01  0.14374573448E+02  0.51100000000E-03 0.  1.
         12    1    3    3    0    0  0.37916737166E+01  0.28583598439E+02 -0.94343042479E+01  0.30338177037E+02  0.00000000000E+00 0. -1.
</event>
<event>
 7    1  0.1327607E-011  0.5930195E+02  0.7816164E-02  0.1266605E+00
        -11   -1    0    0    0    0  0.00000000000E+00  0.00000000000E+00  0.45593999997E+02  0.45594000000E+02  0.51100000000E-03 0.  1.
         11   -1    0    0    0    0 -0.00000000000E+00 -0.00000000000E+00 -0.45593999997E+02  0.45594000000E+02  0.51100000000E-03 0. -1.
    9900012    2    1    2    0    0  0.21403703779E+02 -0.23317304009E+02  0.38607076634E+01  0.59301948734E+02  0.50000008583E+02 0.  0.
        -12    1    1    2    0    0 -0.21403703779E+02  0.23317304009E+02 -0.38607076634E+01  0.31886051266E+02  0.00000000000E+00 0.  1.
         11    1    3    3    0    0 -0.29441453972E+00  0.66477844575E+01  0.37452454190E+01  0.76358746470E+01  0.51100000000E-03 0. -1.
        -11    1    3    3    0    0 -0.10156297426E+02 -0.72100244504E+01  0.11243580137E+01  0.12505959027E+02  0.51100000000E-03 0.  1.
         12    1    3    3    0    0  0.31854415745E+02 -0.22755064016E+02 -0.10088957693E+01  0.39160115060E+02  0.00000000000E+00 0. -1.
</event>
<event>
 7    1  0.1327607E-011  0.5930199E+02  0.7816164E-02  0.1266605E+00
        -11   -1    0    0    0    0  0.00000000000E+00  0.00000000000E+00  0.45593999997E+02  0.45594000000E+02  0.51100000000E-03 0.  1.
         11   -1    0    0    0    0 -0.00000000000E+00 -0.00000000000E+00 -0.45593999997E+02  0.45594000000E+02  0.51100000000E-03 0. -1.
    9900012    2    1    2    0    0 -0.17937819835E+02 -0.26179127848E+02 -0.30992984953E+01  0.59301987918E+02  0.50000080045E+02 0.  0.
        -12    1    1    2    0    0  0.17937819835E+02  0.26179127848E+02  0.30992984953E+01  0.31886012082E+02  0.00000000000E+00 0.  1.
         11    1    3    3    0    0 -0.46248323848E+01 -0.12844804841E+02 -0.16488444962E+02  0.21406702304E+02  0.51100000000E-03 0. -1.
        -11    1    3    3    0    0  0.12231752757E+01  0.87429304392E+01  0.16873167277E+01  0.89878823101E+01  0.51100000000E-03 0.  1.
        -12    1    3    3    0    0 -0.14536162726E+02 -0.22077253447E+02  0.11701829739E+02  0.28907403304E+02  0.00000000000E+00 0.  1.
</event>
<event>
 7    1  0.1327607E-011  0.5930193E+02  0.7816164E-02  0.1266605E+00
        -11   -1    0    0    0    0  0.00000000000E+00  0.00000000000E+00  0.45593999997E+02  0.45594000000E+02  0.51100000000E-03 0.  1.
         11   -1    0    0    0    0 -0.00000000000E+00 -0.00000000000E+00 -0.45593999997E+02  0.45594000000E+02  0.51100000000E-03 0. -1.
    9900012    2    1    2    0    0  0.15136502214E+02 -0.27457801631E+02 -0.58031693962E+01  0.59301931809E+02  0.49999977715E+02 0.  0.
        -12    1    1    2    0    0 -0.15136502214E+02  0.27457801631E+02  0.58031693962E+01  0.31886068191E+02  0.00000000000E+00 0.  1.
         11    1    3    3    0    0  0.77067631586E+01 -0.12807970462E+01  0.21426511395E+01  0.81009625122E+01  0.51100000000E-03 0. -1.
        -11    1    3    3    0    0  0.16153914599E+02 -0.18159242904E+02  0.12680515537E+02  0.27413546547E+02  0.51100000000E-03 0.  1.
         12    1    3    3    0    0 -0.87241755439E+01 -0.80177616808E+01 -0.20626336073E+02  0.23787422750E+02  0.00000000000E+00 0. -1.
</event>
<event>
 7    1  0.1327607E-011  0.5930193E+02  0.7816164E-02  0.1266605E+00
        -11   -1    0    0    0    0  0.00000000000E+00  0.00000000000E+00  0.45593999997E+02  0.45594000000E+02  0.51100000000E-03 0. -1.
         11   -1    0    0    0    0 -0.00000000000E+00 -0.00000000000E+00 -0.45593999997E+02  0.45594000000E+02  0.51100000000E-03 0.  1.
    9900012    2    1    2    0    0 -0.34899076638E+01  0.13167918668E+02  0.28829637295E+02  0.59301928995E+02  0.49999972584E+02 0.  0.
        -12    1    1    2    0    0  0.34899076638E+01 -0.13167918668E+02 -0.28829637295E+02  0.31886071005E+02  0.00000000000E+00 0.  1.
         11    1    3    3    0    0  0.89185433739E+01  0.10403558331E+02  0.19379437271E+02  0.23734722055E+02  0.51100000000E-03 0. -1.
        -11    1    3    3    0    0  0.58980851351E+00 -0.13146551405E+02  0.53416996067E+00  0.13170612201E+02  0.51100000000E-03 0.  1.
         12    1    3    3    0    0 -0.12998259551E+02  0.15910911742E+02  0.89160300640E+01  0.22396594739E+02  0.00000000000E+00 0. -1.
</event>
<event>
 7    1  0.1327607E-011  0.5930192E+02  0.7816164E-02  0.1266605E+00
        -11   -1    0    0    0    0  0.00000000000E+00  0.00000000000E+00  0.45593999997E+02  0.45594000000E+02  0.51100000000E-03 0. -1.
         11   -1    0    0    0    0 -0.00000000000E+00 -0.00000000000E+00 -0.45593999997E+02  0.45594000000E+02  0.51100000000E-03 0.  1.
    9900012    2    1    2    0    0 -0.14008441023E+02  0.27829644527E+02  0.67820567734E+01  0.59301924223E+02  0.49999963881E+02 0.  0.
        -12    1    1    2    0    0  0.14008441023E+02 -0.27829644527E+02 -0.67820567734E+01  0.31886075777E+02  0.00000000000E+00 0.  1.
         11    1    3    3    0    0 -0.19921721905E+01 -0.40517383715E+01  0.30379779523E+00  0.45252212354E+01  0.51100000000E-03 0. -1.
        -11    1    3    3    0    0 -0.17383602318E+02 -0.27477709087E+01 -0.42940403979E+01  0.18115701965E+02  0.51100000000E-03 0.  1.
         12    1    3    3    0    0  0.53673334853E+01  0.34629153807E+02  0.10772299376E+02  0.36661001022E+02  0.00000000000E+00 0. -1.
</event>
<event>
 7    1  0.1327607E-011  0.5930191E+02  0.7816164E-02  0.1266605E+00
        -11   -1    0    0    0    0  0.00000000000E+00  0.00000000000E+00  0.45593999997E+02  0.45594000000E+02  0.51100000000E-03 0.  1.
         11   -1    0    0    0    0 -0.00000000000E+00 -0.00000000000E+00 -0.45593999997E+02  0.45594000000E+02  0.51100000000E-03 0. -1.
    9900012    2    1    2    0    0 -0.16778478863E+02 -0.25836385407E+02 -0.82271957353E+01  0.59301907208E+02  0.49999932850E+02 0.  0.
        -12    1    1    2    0    0  0.16778478863E+02  0.25836385407E+02  0.82271957353E+01  0.31886092792E+02  0.00000000000E+00 0.  1.
         11    1    3    3    0    0 -0.72416288545E+01 -0.19254278938E+02  0.83153649293E+01  0.22188144133E+02  0.51100000000E-03 0. -1.
        -11    1    3    3    0    0  0.10010381048E+01 -0.11261950753E+02  0.52446912085E+01  0.12463562820E+02  0.51100000000E-03 0.  1.
         12    1    3    3    0    0 -0.10537888114E+02  0.46798442844E+01 -0.21787251873E+02  0.24650200255E+02  0.00000000000E+00 0. -1.
</event>
<event>
 7    1  0.1327607E-011  0.5930188E+02  0.7816164E-02  0.1266605E+00
        -11   -1    0    0    0    0  0.00000000000E+00  0.00000000000E+00  0.45593999997E+02  0.45594000000E+02  0.51100000000E-03 0.  1.
         11   -1    0    0    0    0 -0.00000000000E+00 -0.00000000000E+00 -0.45593999997E+02  0.45594000000E+02  0.51100000000E-03 0. -1.
    9900012    2    1    2    0    0  0.16063382908E+02 -0.19697106659E+02  0.19254003328E+02  0.59301875661E+02  0.49999875316E+02 0.  0.
        -12    1    1    2    0    0 -0.16063382908E+02  0.19697106659E+02 -0.19254003328E+02  0.31886124339E+02  0.00000000000E+00 0.  1.
         11    1    3    3    0    0 -0.12668342908E+02 -0.57256204702E+00  0.10396151399E+02  0.16398009132E+02  0.51100000000E-03 0. -1.
        -11    1    3    3    0    0  0.56573473617E+01 -0.49182307665E+01  0.13471675646E+02  0.15416893916E+02  0.51100000000E-03 0.  1.
         12    1    3    3    0    0  0.23074378454E+02 -0.14206313846E+02 -0.46138237175E+01  0.27486972613E+02  0.00000000000E+00 0. -1.
</event>
<event>
 7    1  0.1327607E-011  0.5930197E+02  0.7816164E-02  0.1266605E+00
        -11   -1    0    0    0    0  0.00000000000E+00  0.00000000000E+00  0.45593999997E+02  0.45594000000E+02  0.51100000000E-03 0.  1.
         11   -1    0    0    0    0 -0.00000000000E+00 -0.00000000000E+00 -0.45593999997E+02  0.45594000000E+02  0.51100000000E-03 0. -1.
    9900012    2    1    2    0    0  0.13958283416E+02 -0.13155410797E+02 -0.25471950522E+02  0.59301972143E+02  0.50000051275E+02 0.  0.
        -12    1    1    2    0    0 -0.13958283416E+02  0.13155410797E+02  0.25471950522E+02  0.31886027857E+02  0.00000000000E+00 0.  1.
         11    1    3    3    0    0  0.16614407515E+02  0.14887899376E+02 -0.97269056904E+01  0.24337230317E+02  0.51100000000E-03 0.  1.
        -11    1    3    3    0    0  0.49849723440E+01 -0.80098874010E+01 -0.24910531312E+01  0.97577452012E+01  0.51100000000E-03 0. -1.
        -12    1    3    3    0    0 -0.76410964436E+01 -0.20033422773E+02 -0.13253991700E+02  0.25206996625E+02  0.00000000000E+00 0.  1.
</event>
<event>
 7    1  0.1327607E-011  0.5930187E+02  0.7816164E-02  0.1266605E+00
        -11   -1    0    0    0    0  0.00000000000E+00  0.00000000000E+00  0.45593999997E+02  0.45594000000E+02  0.51100000000E-03 0.  1.
         11   -1    0    0    0    0 -0.00000000000E+00 -0.00000000000E+00 -0.45593999997E+02  0.45594000000E+02  0.51100000000E-03 0. -1.
    9900012    2    1    2    0    0 -0.15278833161E+02  0.27563495598E+02  0.48513903267E+01  0.59301874170E+02  0.49999872597E+02 0.  0.
        -12    1    1    2    0    0  0.15278833161E+02 -0.27563495598E+02 -0.48513903267E+01  0.31886125830E+02  0.00000000000E+00 0.  1.
         11    1    3    3    0    0 -0.94573197457E+01  0.15112344517E+02 -0.18310600234E+02  0.25555859108E+02  0.51100000000E-03 0. -1.
        -11    1    3    3    0    0 -0.62207782403E+01  0.11335375367E+02  0.26488632235E+01  0.13198685285E+02  0.51100000000E-03 0.  1.
         12    1    3    3    0    0  0.39926482505E+00  0.11157757140E+01  0.20513127337E+02  0.20547329777E+02  0.00000000000E+00 0. -1.
</event>
<event>
 7    1  0.1327607E-011  0.5930194E+02  0.7816164E-02  0.1266605E+00
        -11   -1    0    0    0    0  0.00000000000E+00  0.00000000000E+00  0.45593999997E+02  0.45594000000E+02  0.51100000000E-03 0.  1.
         11   -1    0    0    0    0 -0.00000000000E+00 -0.00000000000E+00 -0.45593999997E+02  0.45594000000E+02  0.51100000000E-03 0. -1.
    9900012    2    1    2    0    0  0.12252671682E+02 -0.95059129109E+01 -0.27860910535E+02  0.59301942240E+02  0.49999996740E+02 0.  0.
        -12    1    1    2    0    0 -0.12252671682E+02  0.95059129109E+01  0.27860910535E+02  0.31886057760E+02  0.00000000000E+00 0.  1.
         11    1    3    3    0    0  0.83087218620E+01 -0.91086882715E+01 -0.21560740843E+02  0.24836839714E+02  0.51100000000E-03 0. -1.
        -11    1    3    3    0    0 -0.13902773308E+02 -0.24618370643E+01 -0.83168644085E+01  0.16386518277E+02  0.51100000000E-03 0.  1.
        -12    1    3    3    0    0  0.17846723128E+02  0.20646124248E+01  0.20166947162E+01  0.18078584249E+02  0.00000000000E+00 0.  1.
</event>
<event>
 7    1  0.1327607E-011  0.5930194E+02  0.7816164E-02  0.1266605E+00
        -11   -1    0    0    0    0  0.00000000000E+00  0.00000000000E+00  0.45593999997E+02  0.45594000000E+02  0.51100000000E-03 0.  1.
         11   -1    0    0    0    0 -0.00000000000E+00 -0.00000000000E+00 -0.45593999997E+02  0.45594000000E+02  0.51100000000E-03 0. -1.
    9900012    2    1    2    0    0 -0.44187207230E+01  0.25213917637E+02 -0.19011944301E+02  0.59301940953E+02  0.49999994393E+02 0.  0.
        -12    1    1    2    0    0  0.44187207230E+01 -0.25213917637E+02  0.19011944301E+02  0.31886059047E+02  0.00000000000E+00 0.  1.
         11    1    3    3    0    0  0.14361483943E+00 -0.82785508668E+00  0.25618494529E+01  0.26961161227E+01  0.51100000000E-03 0. -1.
        -11    1    3    3    0    0  0.20350622893E+01 -0.11122092979E+02 -0.14192778613E+02  0.18146002199E+02  0.51100000000E-03 0.  1.
         12    1    3    3    0    0 -0.65973978518E+01  0.37163865703E+02 -0.73810151408E+01  0.38459822632E+02  0.00000000000E+00 0. -1.
</event>
<event>
 7    1  0.1327607E-011  0.5930193E+02  0.7816164E-02  0.1266605E+00
        -11   -1    0    0    0    0  0.00000000000E+00  0.00000000000E+00  0.45593999997E+02  0.45594000000E+02  0.51100000000E-03 0.  1.
         11   -1    0    0    0    0 -0.00000000000E+00 -0.00000000000E+00 -0.45593999997E+02  0.45594000000E+02  0.51100000000E-03 0. -1.
    9900012    2    1    2    0    0  0.87585091615E+01  0.19209475522E+02 -0.23895738617E+02  0.59301925349E+02  0.49999965935E+02 0.  0.
        -12    1    1    2    0    0 -0.87585091615E+01 -0.19209475522E+02  0.23895738617E+02  0.31886074651E+02  0.00000000000E+00 0.  1.
         11    1    3    3    0    0  0.82860949013E+01 -0.28357530851E+01 -0.84190177415E+01  0.12148280712E+02  0.51100000000E-03 0. -1.
        -11    1    3    3    0    0  0.13255725691E+02  0.19739778908E+02 -0.22197450918E+02  0.32528448510E+02  0.51100000000E-03 0.  1.
        -12    1    3    3    0    0 -0.12783311431E+02  0.23054496998E+01  0.67207300426E+01  0.14625196128E+02  0.00000000000E+00 0.  1.
</event>
<event>
 7    1  0.1327607E-011  0.5930189E+02  0.7816164E-02  0.1266605E+00
        -11   -1    0    0    0    0  0.00000000000E+00  0.00000000000E+00  0.45593999997E+02  0.45594000000E+02  0.51100000000E-03 0. -1.
         11   -1    0    0    0    0 -0.00000000000E+00 -0.00000000000E+00 -0.45593999997E+02  0.45594000000E+02  0.51100000000E-03 0.  1.
    9900012    2    1    2    0    0 -0.20887670558E+02 -0.12164302572E+02  0.20795641009E+02  0.59301894509E+02  0.49999909690E+02 0.  0.
        -12    1    1    2    0    0  0.20887670558E+02  0.12164302572E+02 -0.20795641009E+02  0.31886105491E+02  0.00000000000E+00 0.  1.
         11    1    3    3    0    0  0.13821684819E+02 -0.45443473355E+01  0.77855513339E+01  0.16501662758E+02  0.51100000000E-03 0. -1.
        -11    1    3    3    0    0  0.10243511372E+01 -0.24915616535E+01 -0.23439048112E+01  0.35708633061E+01  0.51100000000E-03 0.  1.
         12    1    3    3    0    0 -0.35733706514E+02 -0.51283935826E+01  0.15353994487E+02  0.39229368446E+02  0.00000000000E+00 0. -1.
</event>
<event>
 7    1  0.1327607E-011  0.5930193E+02  0.7816164E-02  0.1266605E+00
        -11   -1    0    0    0    0  0.00000000000E+00  0.00000000000E+00  0.45593999997E+02  0.45594000000E+02  0.51100000000E-03 0.  1.
         11   -1    0    0    0    0 -0.00000000000E+00 -0.00000000000E+00 -0.45593999997E+02  0.45594000000E+02  0.51100000000E-03 0. -1.
    9900012    2    1    2    0    0  0.27749882704E+02  0.11290741956E+02 -0.10917171104E+02  0.59301929861E+02  0.49999974163E+02 0.  0.
        -12    1    1    2    0    0 -0.27749882704E+02 -0.11290741956E+02  0.10917171104E+02  0.31886070139E+02  0.00000000000E+00 0.  1.
         11    1    3    3    0    0  0.88837343389E+01  0.54516037051E+01 -0.17188464061E+02  0.20101841105E+02  0.51100000000E-03 0. -1.
        -11    1    3    3    0    0  0.28512183751E+02  0.32038561239E+01  0.48979140749E+01  0.29106681001E+02  0.51100000000E-03 0.  1.
        -12    1    3    3    0    0 -0.96460353863E+01  0.26352821273E+01  0.13733788817E+01  0.10093407755E+02  0.00000000000E+00 0.  1.
</event>
<event>
 7    1  0.1327607E-011  0.5930196E+02  0.7816164E-02  0.1266605E+00
        -11   -1    0    0    0    0  0.00000000000E+00  0.00000000000E+00  0.45593999997E+02  0.45594000000E+02  0.51100000000E-03 0.  1.
         11   -1    0    0    0    0 -0.00000000000E+00 -0.00000000000E+00 -0.45593999997E+02  0.45594000000E+02  0.51100000000E-03 0. -1.
    9900012    2    1    2    0    0 -0.11162036621E+02  0.13933275731E+02 -0.26419543431E+02  0.59301960590E+02  0.50000030206E+02 0.  0.
        -12    1    1    2    0    0  0.11162036621E+02 -0.13933275731E+02  0.26419543431E+02  0.31886039410E+02  0.00000000000E+00 0.  1.
         11    1    3    3    0    0 -0.18503374314E+01 -0.53485780274E+01  0.12504946524E+01  0.57960997802E+01  0.51100000000E-03 0. -1.
        -11    1    3    3    0    0  0.12387748473E+02  0.15247944962E+02 -0.21462101875E+01  0.19762650537E+02  0.51100000000E-03 0.  1.
         12    1    3    3    0    0 -0.21699447663E+02  0.40339087964E+01 -0.25523827896E+02  0.33743210273E+02  0.00000000000E+00 0. -1.
</event>
<event>
 7    1  0.1327607E-011  0.5930193E+02  0.7816164E-02  0.1266605E+00
        -11   -1    0    0    0    0  0.00000000000E+00  0.00000000000E+00  0.45593999997E+02  0.45594000000E+02  0.51100000000E-03 0.  1.
         11   -1    0    0    0    0 -0.00000000000E+00 -0.00000000000E+00 -0.45593999997E+02  0.45594000000E+02  0.51100000000E-03 0. -1.
    9900012    2    1    2    0    0  0.15446518276E+02 -0.19539309077E+02  0.19908338040E+02  0.59301930164E+02  0.49999974716E+02 0.  0.
        -12    1    1    2    0    0 -0.15446518276E+02  0.19539309077E+02 -0.19908338040E+02  0.31886069836E+02  0.00000000000E+00 0.  1.
         11    1    3    3    0    0 -0.68368530515E+00  0.76060033968E+01  0.94144866773E+01  0.12122346016E+02  0.51100000000E-03 0. -1.
        -11    1    3    3    0    0  0.18135238755E+01  0.78317119554E+01  0.34193593134E+00  0.80462103777E+01  0.51100000000E-03 0.  1.
        -12    1    3    3    0    0  0.14316679706E+02 -0.34977024429E+02  0.10151915431E+02  0.39133373770E+02  0.00000000000E+00 0.  1.
</event>
<event>
 7    1  0.1327607E-011  0.5930198E+02  0.7816164E-02  0.1266605E+00
        -11   -1    0    0    0    0  0.00000000000E+00  0.00000000000E+00  0.45593999997E+02  0.45594000000E+02  0.51100000000E-03 0.  1.
         11   -1    0    0    0    0 -0.00000000000E+00 -0.00000000000E+00 -0.45593999997E+02  0.45594000000E+02  0.51100000000E-03 0. -1.
    9900012    2    1    2    0    0  0.19488101568E+01 -0.81335536106E+01 -0.30769559701E+02  0.59301978618E+02  0.50000063085E+02 0.  0.
        -12    1    1    2    0    0 -0.19488101568E+01  0.81335536106E+01  0.30769559701E+02  0.31886021382E+02  0.00000000000E+00 0.  1.
         11    1    3    3    0    0 -0.20063262778E+01 -0.94890260580E+01 -0.38388551645E+02  0.39594795849E+02  0.51100000000E-03 0. -1.
        -11    1    3    3    0    0  0.99404398407E+01  0.33767284941E+01  0.98180183683E+00  0.10544125125E+02  0.51100000000E-03 0.  1.
        -12    1    3    3    0    0 -0.59853034061E+01 -0.20212560468E+01  0.66371901071E+01  0.91630576440E+01  0.00000000000E+00 0.  1.
</event>
<event>
 7    1  0.1327607E-011  0.5930195E+02  0.7816164E-02  0.1266605E+00
        -11   -1    0    0    0    0  0.00000000000E+00  0.00000000000E+00  0.45593999997E+02  0.45594000000E+02  0.51100000000E-03 0.  1.
         11   -1    0    0    0    0 -0.00000000000E+00 -0.00000000000E+00 -0.45593999997E+02  0.45594000000E+02  0.51100000000E-03 0. -1.
    9900012    2    1    2    0    0 -0.25494247006E+02 -0.64029357686E+01 -0.18048990351E+02  0.59301948668E+02  0.50000008463E+02 0.  0.
        -12    1    1    2    0    0  0.25494247006E+02  0.64029357686E+01  0.18048990351E+02  0.31886051332E+02  0.00000000000E+00 0.  1.
         11    1    3    3    0    0 -0.12656320453E+02 -0.58654027643E+01 -0.60710680439E+01  0.15213259495E+02  0.51100000000E-03 0. -1.
        -11    1    3    3    0    0 -0.21867332094E+02 -0.97158205450E+01  0.32488497814E+01  0.24148134647E+02  0.51100000000E-03 0.  1.
        -12    1    3    3    0    0  0.90294055411E+01  0.91782875407E+01 -0.15226772088E+02  0.19940554527E+02  0.00000000000E+00 0.  1.
</event>
<event>
 7    1  0.1327607E-011  0.5930184E+02  0.7816164E-02  0.1266605E+00
        -11   -1    0    0    0    0  0.00000000000E+00  0.00000000000E+00  0.45593999997E+02  0.45594000000E+02  0.51100000000E-03 0. -1.
         11   -1    0    0    0    0 -0.00000000000E+00 -0.00000000000E+00 -0.45593999997E+02  0.45594000000E+02  0.51100000000E-03 0.  1.
    9900012    2    1    2    0    0  0.11262906464E+02  0.72770867971E+01  0.28929537381E+02  0.59301840192E+02  0.49999810627E+02 0.  0.
        -12    1    1    2    0    0 -0.11262906464E+02 -0.72770867971E+01 -0.28929537381E+02  0.31886159808E+02  0.00000000000E+00 0.  1.
         11    1    3    3    0    0 -0.83645720850E+01 -0.90336474535E+00  0.50947561400E+01  0.98355820578E+01  0.51100000000E-03 0.  1.
        -11    1    3    3    0    0  0.20986180185E+01  0.15197606567E+02  0.26276902404E+02  0.30427734769E+02  0.51100000000E-03 0. -1.
         12    1    3    3    0    0  0.17528860530E+02 -0.70171550248E+01 -0.24421211633E+01  0.19038523365E+02  0.00000000000E+00 0. -1.
</event>
<event>
 7    1  0.1327607E-011  0.5930195E+02  0.7816164E-02  0.1266605E+00
        -11   -1    0    0    0    0  0.00000000000E+00  0.00000000000E+00  0.45593999997E+02  0.45594000000E+02  0.51100000000E-03 0.  1.
         11   -1    0    0    0    0 -0.00000000000E+00 -0.00000000000E+00 -0.45593999997E+02  0.45594000000E+02  0.51100000000E-03 0. -1.
    9900012    2    1    2    0    0  0.12262007338E+02  0.14231105215E+02 -0.25765074143E+02  0.59301949364E+02  0.50000009732E+02 0.  0.
        -12    1    1    2    0    0 -0.12262007338E+02 -0.14231105215E+02  0.25765074143E+02  0.31886050636E+02  0.00000000000E+00 0.  1.
         11    1    3    3    0    0  0.14395112615E+02  0.29380567341E+02 -0.15110976656E+02  0.36038571285E+02  0.51100000000E-03 0. -1.
        -11    1    3    3    0    0  0.10543293860E+01 -0.50532202737E+01  0.30115398661E+01  0.59762879964E+01  0.51100000000E-03 0.  1.
        -12    1    3    3    0    0 -0.31874346625E+01 -0.10096241853E+02 -0.13665637352E+02  0.17287090083E+02  0.00000000000E+00 0.  1.
</event>
<event>
 7    1  0.1327607E-011  0.5930192E+02  0.7816164E-02  0.1266605E+00
        -11   -1    0    0    0    0  0.00000000000E+00  0.00000000000E+00  0.45593999997E+02  0.45594000000E+02  0.51100000000E-03 0. -1.
         11   -1    0    0    0    0 -0.00000000000E+00 -0.00000000000E+00 -0.45593999997E+02  0.45594000000E+02  0.51100000000E-03 0.  1.
    9900012    2    1    2    0    0  0.96417508987E+01 -0.30322500299E+02  0.20747884951E+01  0.59301919462E+02  0.49999955197E+02 0.  0.
        -12    1    1    2    0    0 -0.96417508987E+01  0.30322500299E+02 -0.20747884951E+01  0.31886080538E+02  0.00000000000E+00 0.  1.
         11    1    3    3    0    0  0.10189446550E+02 -0.15492105448E+02  0.64000862037E+01  0.19616096856E+02  0.51100000000E-03 0. -1.
        -11    1    3    3    0    0  0.11495984898E+02 -0.90534914449E+01  0.11763281559E+02  0.18774934605E+02  0.51100000000E-03 0.  1.
        -12    1    3    3    0    0 -0.12043680549E+02 -0.57769034068E+01 -0.16088579267E+02  0.20910888001E+02  0.00000000000E+00 0.  1.
</event>
<event>
 7    1  0.1327607E-011  0.5930191E+02  0.7816164E-02  0.1266605E+00
        -11   -1    0    0    0    0  0.00000000000E+00  0.00000000000E+00  0.45593999997E+02  0.45594000000E+02  0.51100000000E-03 0. -1.
         11   -1    0    0    0    0 -0.00000000000E+00 -0.00000000000E+00 -0.45593999997E+02  0.45594000000E+02  0.51100000000E-03 0.  1.
    9900012    2    1    2    0    0 -0.26649065255E+02 -0.15220129579E+02  0.86543347975E+01  0.59301913157E+02  0.49999943699E+02 0.  0.
        -12    1    1    2    0    0  0.26649065255E+02  0.15220129579E+02 -0.86543347975E+01  0.31886086843E+02  0.00000000000E+00 0.  1.
         11    1    3    3    0    0 -0.10472055531E+02 -0.37190763958E+01  0.12473715714E+02  0.16705958825E+02  0.51100000000E-03 0. -1.
        -11    1    3    3    0    0  0.24575970080E+01 -0.39576836205E+01  0.14603008610E+02  0.15328108280E+02  0.51100000000E-03 0.  1.
        -12    1    3    3    0    0 -0.18634606733E+02 -0.75433695626E+01 -0.18422389527E+02  0.27267846052E+02  0.00000000000E+00 0.  1.
</event>
<event>
 7    1  0.1327607E-011  0.5930188E+02  0.7816164E-02  0.1266605E+00
        -11   -1    0    0    0    0  0.00000000000E+00  0.00000000000E+00  0.45593999997E+02  0.45594000000E+02  0.51100000000E-03 0.  1.
         11   -1    0    0    0    0 -0.00000000000E+00 -0.00000000000E+00 -0.45593999997E+02  0.45594000000E+02  0.51100000000E-03 0. -1.
    9900012    2    1    2    0    0 -0.38646058690E+01  0.29314662094E+02 -0.11934816294E+02  0.59301883394E+02  0.49999889419E+02 0.  0.
        -12    1    1    2    0    0  0.38646058690E+01 -0.29314662094E+02  0.11934816294E+02  0.31886116606E+02  0.00000000000E+00 0.  1.
         11    1    3    3    0    0 -0.18629778363E+02  0.86319775783E+01  0.44474273061E+01  0.21008552750E+02  0.51100000000E-03 0. -1.
        -11    1    3    3    0    0 -0.15303936541E+01  0.18033657797E+02 -0.82691710327E+01  0.19898093077E+02  0.51100000000E-03 0.  1.
         12    1    3    3    0    0  0.16295566148E+02  0.26490267185E+01 -0.81130725677E+01  0.18395237566E+02  0.00000000000E+00 0. -1.
</event>
<event>
 7    1  0.1327607E-011  0.5930196E+02  0.7816164E-02  0.1266605E+00
        -11   -1    0    0    0    0  0.00000000000E+00  0.00000000000E+00  0.45593999997E+02  0.45594000000E+02  0.51100000000E-03 0.  1.
         11   -1    0    0    0    0 -0.00000000000E+00 -0.00000000000E+00 -0.45593999997E+02  0.45594000000E+02  0.51100000000E-03 0. -1.
    9900012    2    1    2    0    0  0.20995389107E+02 -0.18013332560E+02  0.15856649456E+02  0.59301955315E+02  0.50000020586E+02 0.  0.
        -12    1    1    2    0    0 -0.20995389107E+02  0.18013332560E+02 -0.15856649456E+02  0.31886044685E+02  0.00000000000E+00 0.  1.
         11    1    3    3    0    0  0.97040297330E+01 -0.16651407041E+02  0.24348966078E+02  0.31053336356E+02  0.51100000000E-03 0. -1.
        -11    1    3    3    0    0  0.70127900649E+01  0.40308169968E+01  0.73789457358E+01  0.10948769364E+02  0.51100000000E-03 0.  1.
         12    1    3    3    0    0  0.42785693091E+01 -0.53927425156E+01 -0.15871262358E+02  0.17299849595E+02  0.00000000000E+00 0. -1.
</event>
<event>
 7    1  0.1327607E-011  0.5930195E+02  0.7816164E-02  0.1266605E+00
        -11   -1    0    0    0    0  0.00000000000E+00  0.00000000000E+00  0.45593999997E+02  0.45594000000E+02  0.51100000000E-03 0.  1.
         11   -1    0    0    0    0 -0.00000000000E+00 -0.00000000000E+00 -0.45593999997E+02  0.45594000000E+02  0.51100000000E-03 0. -1.
    9900012    2    1    2    0    0 -0.15237335497E+02  0.31278824755E+01 -0.27834513159E+02  0.59301950313E+02  0.50000011463E+02 0.  0.
        -12    1    1    2    0    0  0.15237335497E+02 -0.31278824755E+01  0.27834513159E+02  0.31886049687E+02  0.00000000000E+00 0.  1.
         11    1    3    3    0    0 -0.21311719288E+02 -0.14984426729E+02 -0.58243827454E+01  0.26695427661E+02  0.51100000000E-03 0. -1.
        -11    1    3    3    0    0  0.58197730784E+01  0.28765264217E+01 -0.87427109148E+00  0.65504590023E+01  0.51100000000E-03 0.  1.
        -12    1    3    3    0    0  0.25461071269E+00  0.15235782783E+02 -0.21135859323E+02  0.26056063650E+02  0.00000000000E+00 0.  1.
</event>
<event>
 7    1  0.1327607E-011  0.5930193E+02  0.7816164E-02  0.1266605E+00
        -11   -1    0    0    0    0  0.00000000000E+00  0.00000000000E+00  0.45593999997E+02  0.45594000000E+02  0.51100000000E-03 0.  1.
         11   -1    0    0    0    0 -0.00000000000E+00 -0.00000000000E+00 -0.45593999997E+02  0.45594000000E+02  0.51100000000E-03 0. -1.
    9900012    2    1    2    0    0 -0.25490812693E+02  0.14703166382E+02 -0.12278304550E+02  0.59301931004E+02  0.49999976247E+02 0.  0.
        -12    1    1    2    0    0  0.25490812693E+02 -0.14703166382E+02  0.12278304550E+02  0.31886068996E+02  0.00000000000E+00 0.  1.
         11    1    3    3    0    0 -0.11286176645E+02  0.17223512668E+02 -0.15652959357E+02  0.25865852176E+02  0.51100000000E-03 0. -1.
        -11    1    3    3    0    0 -0.13199394997E+02  0.11060208650E+02  0.80883891409E+01  0.19025621746E+02  0.51100000000E-03 0.  1.
         12    1    3    3    0    0 -0.10052410514E+01 -0.13580554936E+02 -0.47137343335E+01  0.14410457082E+02  0.00000000000E+00 0. -1.
</event>
<event>
 7    1  0.1327607E-011  0.5930196E+02  0.7816164E-02  0.1266605E+00
        -11   -1    0    0    0    0  0.00000000000E+00  0.00000000000E+00  0.45593999997E+02  0.45594000000E+02  0.51100000000E-03 0.  1.
         11   -1    0    0    0    0 -0.00000000000E+00 -0.00000000000E+00 -0.45593999997E+02  0.45594000000E+02  0.51100000000E-03 0. -1.
    9900012    2    1    2    0    0 -0.27202832850E+01  0.31578419289E+02 -0.34818353213E+01  0.59301957864E+02  0.50000025233E+02 0.  0.
        -12    1    1    2    0    0  0.27202832850E+01 -0.31578419289E+02  0.34818353213E+01  0.31886042136E+02  0.00000000000E+00 0.  1.
         11    1    3    3    0    0 -0.18461587380E+02  0.28184008142E+02 -0.71547288074E+01  0.34443557715E+02  0.51100000000E-03 0. -1.
        -11    1    3    3    0    0 -0.80204680221E+00  0.50681643072E+01 -0.40381310018E+01  0.65296302167E+01  0.51100000000E-03 0.  1.
        -12    1    3    3    0    0  0.16543350897E+02 -0.16737531605E+01  0.77110244880E+01  0.18328769932E+02  0.00000000000E+00 0.  1.
</event>
<event>
 7    1  0.1327607E-011  0.5930191E+02  0.7816164E-02  0.1266605E+00
        -11   -1    0    0    0    0  0.00000000000E+00  0.00000000000E+00  0.45593999997E+02  0.45594000000E+02  0.51100000000E-03 0. -1.
         11   -1    0    0    0    0 -0.00000000000E+00 -0.00000000000E+00 -0.45593999997E+02  0.45594000000E+02  0.51100000000E-03 0.  1.
    9900012    2    1    2    0    0  0.21408999743E+02 -0.13945193125E+02  0.19076398159E+02  0.59301911372E+02  0.49999940443E+02 0.  0.
        -12    1    1    2    0    0 -0.21408999743E+02  0.13945193125E+02 -0.19076398159E+02  0.31886088628E+02  0.00000000000E+00 0.  1.
         11    1    3    3    0    0 -0.23368596453E+00 -0.14988396161E+02  0.39504616162E+01  0.15502024895E+02  0.51100000000E-03 0. -1.
        -11    1    3    3    0    0 -0.35051725249E+01 -0.10384852456E+02 -0.22192369624E+01  0.11182862242E+02  0.51100000000E-03 0.  1.
         12    1    3    3    0    0  0.25147858233E+02  0.11428055492E+02  0.17345173505E+02  0.32617024235E+02  0.00000000000E+00 0. -1.
</event>
<event>
 7    1  0.1327607E-011  0.5930193E+02  0.7816164E-02  0.1266605E+00
        -11   -1    0    0    0    0  0.00000000000E+00  0.00000000000E+00  0.45593999997E+02  0.45594000000E+02  0.51100000000E-03 0.  1.
         11   -1    0    0    0    0 -0.00000000000E+00 -0.00000000000E+00 -0.45593999997E+02  0.45594000000E+02  0.51100000000E-03 0. -1.
    9900012    2    1    2    0    0  0.98052719023E+00 -0.29948619057E+02 -0.10901400793E+02  0.59301925356E+02  0.49999965947E+02 0.  0.
        -12    1    1    2    0    0 -0.98052719023E+00  0.29948619057E+02  0.10901400793E+02  0.31886074644E+02  0.00000000000E+00 0.  1.
         11    1    3    3    0    0  0.56975866577E+01 -0.19932964568E+02 -0.18430615822E+02  0.27739379409E+02  0.51100000000E-03 0. -1.
        -11    1    3    3    0    0 -0.96757642699E+01  0.75634602647E+01  0.43128492080E+01  0.13016413252E+02  0.51100000000E-03 0.  1.
         12    1    3    3    0    0  0.49587048024E+01 -0.17579114754E+02  0.32163658216E+01  0.18546132695E+02  0.00000000000E+00 0. -1.
</event>
<event>
 7    1  0.1327607E-011  0.5930196E+02  0.7816164E-02  0.1266605E+00
        -11   -1    0    0    0    0  0.00000000000E+00  0.00000000000E+00  0.45593999997E+02  0.45594000000E+02  0.51100000000E-03 0. -1.
         11   -1    0    0    0    0 -0.00000000000E+00 -0.00000000000E+00 -0.45593999997E+02  0.45594000000E+02  0.51100000000E-03 0.  1.
    9900012    2    1    2    0    0 -0.33227157281E+01 -0.29624172135E+02  0.11317574900E+02  0.59301960482E+02  0.50000030009E+02 0.  0.
        -12    1    1    2    0    0  0.33227157281E+01  0.29624172135E+02 -0.11317574900E+02  0.31886039518E+02  0.00000000000E+00 0.  1.
         11    1    3    3    0    0 -0.11293417221E+02 -0.18805009990E+01  0.98780072067E+01  0.15121262618E+02  0.51100000000E-03 0. -1.
        -11    1    3    3    0    0  0.50299371777E+01  0.73426418615E+01 -0.53249011422E+00  0.89161765068E+01  0.51100000000E-03 0.  1.
        -12    1    3    3    0    0  0.29407643153E+01 -0.35086312998E+02  0.19720578075E+01  0.35264521357E+02  0.00000000000E+00 0.  1.
</event>
<event>
 7    1  0.1327607E-011  0.5930194E+02  0.7816164E-02  0.1266605E+00
        -11   -1    0    0    0    0  0.00000000000E+00  0.00000000000E+00  0.45593999997E+02  0.45594000000E+02  0.51100000000E-03 0. -1.
         11   -1    0    0    0    0 -0.00000000000E+00 -0.00000000000E+00 -0.45593999997E+02  0.45594000000E+02  0.51100000000E-03 0.  1.
    9900012    2    1    2    0    0  0.23122271956E+02  0.12184192919E+02  0.18265462399E+02  0.59301935110E+02  0.49999983736E+02 0.  0.
        -12    1    1    2    0    0 -0.23122271956E+02 -0.12184192919E+02 -0.18265462399E+02  0.31886064890E+02  0.00000000000E+00 0.  1.
         11    1    3    3    0    0  0.29788038181E+02  0.10328151498E+01 -0.76584209388E+00  0.29815775022E+02  0.51100000000E-03 0. -1.
        -11    1    3    3    0    0  0.41580094259E+01  0.36592210811E+01 -0.88853665456E+00  0.56096736940E+01  0.51100000000E-03 0.  1.
        -12    1    3    3    0    0 -0.10823775650E+02  0.74921566882E+01  0.19919841148E+02  0.23876486394E+02  0.00000000000E+00 0.  1.
</event>
<event>
 7    1  0.1327607E-011  0.5930196E+02  0.7816164E-02  0.1266605E+00
        -11   -1    0    0    0    0  0.00000000000E+00  0.00000000000E+00  0.45593999997E+02  0.45594000000E+02  0.51100000000E-03 0.  1.
         11   -1    0    0    0    0 -0.00000000000E+00 -0.00000000000E+00 -0.45593999997E+02  0.45594000000E+02  0.51100000000E-03 0. -1.
    9900012    2    1    2    0    0  0.13438075540E+01 -0.31856810948E+02 -0.23913156075E+00  0.59301962203E+02  0.50000033147E+02 0.  0.
        -12    1    1    2    0    0 -0.13438075540E+01  0.31856810948E+02  0.23913156075E+00  0.31886037797E+02  0.00000000000E+00 0.  1.
         11    1    3    3    0    0  0.13295368310E+02 -0.20238581759E+02 -0.20318659651E+02  0.31610361282E+02  0.51100000000E-03 0. -1.
        -11    1    3    3    0    0 -0.73106544722E+01 -0.10320298077E+01  0.94147155212E+01  0.11964431576E+02  0.51100000000E-03 0.  1.
        -12    1    3    3    0    0 -0.46409062838E+01 -0.10586199381E+02  0.10664812569E+02  0.15727169345E+02  0.00000000000E+00 0.  1.
</event>
<event>
 7    1  0.1327607E-011  0.5930199E+02  0.7816164E-02  0.1266605E+00
        -11   -1    0    0    0    0  0.00000000000E+00  0.00000000000E+00  0.45593999997E+02  0.45594000000E+02  0.51100000000E-03 0.  1.
         11   -1    0    0    0    0 -0.00000000000E+00 -0.00000000000E+00 -0.45593999997E+02  0.45594000000E+02  0.51100000000E-03 0. -1.
    9900012    2    1    2    0    0 -0.83296512381E+01 -0.29910366461E+02 -0.72597737636E+01  0.59301993246E+02  0.50000089763E+02 0.  0.
        -12    1    1    2    0    0  0.83296512381E+01  0.29910366461E+02  0.72597737636E+01  0.31886006754E+02  0.00000000000E+00 0.  1.
         11    1    3    3    0    0 -0.12692519036E+02  0.40272617351E+00  0.52696409910E-01  0.12699015908E+02  0.51100000000E-03 0. -1.
        -11    1    3    3    0    0 -0.12715055494E+02 -0.83409406586E+01  0.52266593602E+01  0.16079859937E+02  0.51100000000E-03 0.  1.
         12    1    3    3    0    0  0.17077923292E+02 -0.21972151976E+02 -0.12539129534E+02  0.30523117401E+02  0.00000000000E+00 0. -1.
</event>
<event>
 7    1  0.1327607E-011  0.5930191E+02  0.7816164E-02  0.1266605E+00
        -11   -1    0    0    0    0  0.00000000000E+00  0.00000000000E+00  0.45593999997E+02  0.45594000000E+02  0.51100000000E-03 0. -1.
         11   -1    0    0    0    0 -0.00000000000E+00 -0.00000000000E+00 -0.45593999997E+02  0.45594000000E+02  0.51100000000E-03 0.  1.
    9900012    2    1    2    0    0 -0.15599974951E+02  0.15067464956E+02 -0.23373811231E+02  0.59301909457E+02  0.49999936950E+02 0.  0.
        -12    1    1    2    0    0  0.15599974951E+02 -0.15067464956E+02  0.23373811231E+02  0.31886090543E+02  0.00000000000E+00 0.  1.
         11    1    3    3    0    0  0.21761587333E+01 -0.50320039392E+01 -0.29621907050E+01  0.62314769125E+01  0.51100000000E-03 0. -1.
        -11    1    3    3    0    0 -0.17728714805E+02  0.64674539204E+01 -0.30669184392E+02  0.36010195228E+02  0.51100000000E-03 0.  1.
         12    1    3    3    0    0 -0.47418879183E-01  0.13632014975E+02  0.10257563865E+02  0.17060237316E+02  0.00000000000E+00 0. -1.
</event>
<event>
 7    1  0.1327607E-011  0.5930195E+02  0.7816164E-02  0.1266605E+00
        -11   -1    0    0    0    0  0.00000000000E+00  0.00000000000E+00  0.45593999997E+02  0.45594000000E+02  0.51100000000E-03 0.  1.
         11   -1    0    0    0    0 -0.00000000000E+00 -0.00000000000E+00 -0.45593999997E+02  0.45594000000E+02  0.51100000000E-03 0. -1.
    9900012    2    1    2    0    0 -0.62627629116E+01 -0.29018716407E+02 -0.11636661752E+02  0.59301952927E+02  0.50000016231E+02 0.  0.
        -12    1    1    2    0    0  0.62627629116E+01  0.29018716407E+02  0.11636661752E+02  0.31886047073E+02  0.00000000000E+00 0.  1.
         11    1    3    3    0    0 -0.65604591762E+00 -0.57350834505E+01  0.13365129696E+01  0.59251873903E+01  0.51100000000E-03 0. -1.
        -11    1    3    3    0    0 -0.19823265609E+02 -0.16190240622E+02  0.82265429890E+01  0.26884228846E+02  0.51100000000E-03 0.  1.
        -12    1    3    3    0    0  0.14216548615E+02 -0.70933923339E+01 -0.21199717711E+02  0.26492536691E+02  0.00000000000E+00 0.  1.
</event>
<event>
 7    1  0.1327607E-011  0.5930193E+02  0.7816164E-02  0.1266605E+00
        -11   -1    0    0    0    0  0.00000000000E+00  0.00000000000E+00  0.45593999997E+02  0.45594000000E+02  0.51100000000E-03 0.  1.
         11   -1    0    0    0    0 -0.00000000000E+00 -0.00000000000E+00 -0.45593999997E+02  0.45594000000E+02  0.51100000000E-03 0. -1.
    9900012    2    1    2    0    0 -0.24637936958E+02  0.16224422086E+02 -0.12102131189E+02  0.59301931115E+02  0.49999976451E+02 0.  0.
        -12    1    1    2    0    0  0.24637936958E+02 -0.16224422086E+02  0.12102131189E+02  0.31886068885E+02  0.00000000000E+00 0.  1.
         11    1    3    3    0    0 -0.11672845447E+02  0.17294645373E+02 -0.70646369285E+01  0.22028825992E+02  0.51100000000E-03 0. -1.
        -11    1    3    3    0    0 -0.11269714080E+02  0.14914480815E+01  0.13974595596E+02  0.18014444070E+02  0.51100000000E-03 0.  1.
         12    1    3    3    0    0 -0.16953774308E+01 -0.25616713683E+01 -0.19012089857E+02  0.19258661053E+02  0.00000000000E+00 0. -1.
</event>
<event>
 7    1  0.1327607E-011  0.5930197E+02  0.7816164E-02  0.1266605E+00
        -11   -1    0    0    0    0  0.00000000000E+00  0.00000000000E+00  0.45593999997E+02  0.45594000000E+02  0.51100000000E-03 0.  1.
         11   -1    0    0    0    0 -0.00000000000E+00 -0.00000000000E+00 -0.45593999997E+02  0.45594000000E+02  0.51100000000E-03 0. -1.
    9900012    2    1    2    0    0  0.31742882614E+02  0.29989605373E+01  0.33813062054E+00  0.59301973385E+02  0.50000053541E+02 0.  0.
        -12    1    1    2    0    0 -0.31742882614E+02 -0.29989605373E+01 -0.33813062054E+00  0.31886026615E+02  0.00000000000E+00 0.  1.
         11    1    3    3    0    0  0.13284374909E+02  0.12500251884E+02 -0.50770610664E+01  0.18934293311E+02  0.51100000000E-03 0. -1.
        -11    1    3    3    0    0  0.16354589610E+02 -0.82403202806E-01  0.18122360337E+02  0.24411049467E+02  0.51100000000E-03 0.  1.
         12    1    3    3    0    0  0.21039180954E+01 -0.94188881435E+01 -0.12707168650E+02  0.15956630607E+02  0.00000000000E+00 0. -1.
</event>
<event>
 7    1  0.1327607E-011  0.5930194E+02  0.7816164E-02  0.1266605E+00
        -11   -1    0    0    0    0  0.00000000000E+00  0.00000000000E+00  0.45593999997E+02  0.45594000000E+02  0.51100000000E-03 0. -1.
         11   -1    0    0    0    0 -0.00000000000E+00 -0.00000000000E+00 -0.45593999997E+02  0.45594000000E+02  0.51100000000E-03 0.  1.
    9900012    2    1    2    0    0  0.14879538905E+02  0.20940330804E+02  0.18889748509E+02  0.59301941433E+02  0.49999995268E+02 0.  0.
        -12    1    1    2    0    0 -0.14879538905E+02 -0.20940330804E+02 -0.18889748509E+02  0.31886058567E+02  0.00000000000E+00 0.  1.
         11    1    3    3    0    0  0.54505198797E+01 -0.30970609873E+01  0.13985794765E+02  0.15326526325E+02  0.51100000000E-03 0. -1.
        -11    1    3    3    0    0  0.82500349101E+01  0.80164666181E+00  0.16135945927E+02  0.18140409714E+02  0.51100000000E-03 0.  1.
        -12    1    3    3    0    0  0.11789841151E+01  0.23235745130E+02 -0.11231992183E+02  0.25835005393E+02  0.00000000000E+00 0.  1.
</event>
<event>
 7    1  0.1327607E-011  0.5930194E+02  0.7816164E-02  0.1266605E+00
        -11   -1    0    0    0    0  0.00000000000E+00  0.00000000000E+00  0.45593999997E+02  0.45594000000E+02  0.51100000000E-03 0.  1.
         11   -1    0    0    0    0 -0.00000000000E+00 -0.00000000000E+00 -0.45593999997E+02  0.45594000000E+02  0.51100000000E-03 0. -1.
    9900012    2    1    2    0    0  0.23058304484E+02  0.17727053237E+02  0.13068545116E+02  0.59301942018E+02  0.49999996335E+02 0.  0.
        -12    1    1    2    0    0 -0.23058304484E+02 -0.17727053237E+02 -0.13068545116E+02  0.31886057982E+02  0.00000000000E+00 0.  1.
         11    1    3    3    0    0  0.12054116485E+02  0.10245743443E+02 -0.12103179269E+02  0.19918933998E+02  0.51100000000E-03 0. -1.
        -11    1    3    3    0    0  0.15638790036E+02  0.13078103620E+02  0.10321939664E+02  0.22850623334E+02  0.51100000000E-03 0.  1.
        -12    1    3    3    0    0 -0.46346020364E+01 -0.55967938250E+01  0.14849784721E+02  0.16532384686E+02  0.00000000000E+00 0.  1.
</event>
<event>
 7    1  0.1327607E-011  0.5930199E+02  0.7816164E-02  0.1266605E+00
        -11   -1    0    0    0    0  0.00000000000E+00  0.00000000000E+00  0.45593999997E+02  0.45594000000E+02  0.51100000000E-03 0.  1.
         11   -1    0    0    0    0 -0.00000000000E+00 -0.00000000000E+00 -0.45593999997E+02  0.45594000000E+02  0.51100000000E-03 0. -1.
    9900012    2    1    2    0    0  0.10738900504E+02  0.25148804472E+02 -0.16399127892E+02  0.59301988239E+02  0.50000080631E+02 0.  0.
        -12    1    1    2    0    0 -0.10738900504E+02 -0.25148804472E+02  0.16399127892E+02  0.31886011761E+02  0.00000000000E+00 0.  1.
         11    1    3    3    0    0 -0.61405458907E+01  0.52139669318E+01 -0.22983599350E+01  0.83770050527E+01  0.51100000000E-03 0. -1.
        -11    1    3    3    0    0  0.15161851261E+02 -0.10323767282E+02 -0.79910398629E+01  0.20007963987E+02  0.51100000000E-03 0.  1.
         12    1    3    3    0    0  0.17175951341E+01  0.30258604822E+02 -0.61097280938E+01  0.30917019200E+02  0.00000000000E+00 0. -1.
</event>
<event>
 7    1  0.1327607E-011  0.5930204E+02  0.7816164E-02  0.1266604E+00
        -11   -1    0    0    0    0  0.00000000000E+00  0.00000000000E+00  0.45593999997E+02  0.45594000000E+02  0.51100000000E-03 0. -1.
         11   -1    0    0    0    0 -0.00000000000E+00 -0.00000000000E+00 -0.45593999997E+02  0.45594000000E+02  0.51100000000E-03 0.  1.
    9900012    2    1    2    0    0  0.11414430958E+02  0.10265749602E+02  0.27947080244E+02  0.59302044735E+02  0.50000183666E+02 0.  0.
        -12    1    1    2    0    0 -0.11414430958E+02 -0.10265749602E+02 -0.27947080244E+02  0.31885955265E+02  0.00000000000E+00 0.  1.
         11    1    3    3    0    0 -0.40025705398E+00  0.97495483455E+01  0.50893939664E+01  0.11005263734E+02  0.51100000000E-03 0. -1.
        -11    1    3    3    0    0 -0.41035740880E+01  0.17928966475E+02  0.61729698924E+01  0.19400843196E+02  0.51100000000E-03 0.  1.
         12    1    3    3    0    0  0.15918262100E+02 -0.17412765218E+02  0.16684716385E+02  0.28895937806E+02  0.00000000000E+00 0. -1.
</event>
<event>
 7    1  0.1327607E-011  0.5930196E+02  0.7816164E-02  0.1266605E+00
        -11   -1    0    0    0    0  0.00000000000E+00  0.00000000000E+00  0.45593999997E+02  0.45594000000E+02  0.51100000000E-03 0.  1.
         11   -1    0    0    0    0 -0.00000000000E+00 -0.00000000000E+00 -0.45593999997E+02  0.45594000000E+02  0.51100000000E-03 0. -1.
    9900012    2    1    2    0    0  0.20688200783E+01 -0.54666072799E+01 -0.31345745082E+02  0.59301960007E+02  0.50000029143E+02 0.  0.
        -12    1    1    2    0    0 -0.20688200783E+01  0.54666072799E+01  0.31345745082E+02  0.31886039993E+02  0.00000000000E+00 0.  1.
         11    1    3    3    0    0  0.87059940587E+01 -0.48933440657E+01 -0.62483158300E+01  0.11780517801E+02  0.51100000000E-03 0. -1.
        -11    1    3    3    0    0  0.15309745743E+02 -0.72181206163E+01 -0.14379641544E+02  0.22209540093E+02  0.51100000000E-03 0.  1.
         12    1    3    3    0    0 -0.21946919723E+02  0.66448574021E+01 -0.10717787708E+02  0.25311902113E+02  0.00000000000E+00 0. -1.
</event>
<event>
 7    1  0.1327607E-011  0.5930195E+02  0.7816164E-02  0.1266605E+00
        -11   -1    0    0    0    0  0.00000000000E+00  0.00000000000E+00  0.45593999997E+02  0.45594000000E+02  0.51100000000E-03 0.  1.
         11   -1    0    0    0    0 -0.00000000000E+00 -0.00000000000E+00 -0.45593999997E+02  0.45594000000E+02  0.51100000000E-03 0. -1.
    9900012    2    1    2    0    0 -0.24675986439E+02 -0.25910895448E+01 -0.20027541644E+02  0.59301945429E+02  0.50000002556E+02 0.  0.
        -12    1    1    2    0    0  0.24675986439E+02  0.25910895448E+01  0.20027541644E+02  0.31886054571E+02  0.00000000000E+00 0.  1.
         11    1    3    3    0    0 -0.11001393845E+02 -0.35537440394E+01  0.95944853177E+01  0.15023778220E+02  0.51100000000E-03 0. -1.
        -11    1    3    3    0    0 -0.47460787277E+01 -0.66560040620E+01  0.36824797157E+01  0.89659528485E+01  0.51100000000E-03 0.  1.
         12    1    3    3    0    0 -0.89285138667E+01  0.76186585566E+01 -0.33304506677E+02  0.35312214361E+02  0.00000000000E+00 0. -1.
</event>
<event>
 7    1  0.1327607E-011  0.5930194E+02  0.7816164E-02  0.1266605E+00
        -11   -1    0    0    0    0  0.00000000000E+00  0.00000000000E+00  0.45593999997E+02  0.45594000000E+02  0.51100000000E-03 0.  1.
         11   -1    0    0    0    0 -0.00000000000E+00 -0.00000000000E+00 -0.45593999997E+02  0.45594000000E+02  0.51100000000E-03 0. -1.
    9900012    2    1    2    0    0 -0.11410217409E+02 -0.14807656632E+02  0.25831393309E+02  0.59301942913E+02  0.49999997968E+02 0.  0.
        -12    1    1    2    0    0  0.11410217409E+02  0.14807656632E+02 -0.25831393309E+02  0.31886057087E+02  0.00000000000E+00 0.  1.
         11    1    3    3    0    0  0.15367731718E+02  0.22277025998E+01  0.29908197217E+01  0.15813754769E+02  0.51100000000E-03 0.  1.
        -11    1    3    3    0    0 -0.35181880372E+01 -0.12439323841E+02  0.11061849580E+02  0.17014080671E+02  0.51100000000E-03 0. -1.
        -12    1    3    3    0    0 -0.23259761090E+02 -0.45960353910E+01  0.11778724007E+02  0.26474107473E+02  0.00000000000E+00 0.  1.
</event>
<event>
 7    1  0.1327607E-011  0.5930194E+02  0.7816164E-02  0.1266605E+00
        -11   -1    0    0    0    0  0.00000000000E+00  0.00000000000E+00  0.45593999997E+02  0.45594000000E+02  0.51100000000E-03 0.  1.
         11   -1    0    0    0    0 -0.00000000000E+00 -0.00000000000E+00 -0.45593999997E+02  0.45594000000E+02  0.51100000000E-03 0. -1.
    9900012    2    1    2    0    0  0.29578745009E+02 -0.11620672540E+02 -0.26035993710E+01  0.59301938527E+02  0.49999989968E+02 0.  0.
        -12    1    1    2    0    0 -0.29578745009E+02  0.11620672540E+02  0.26035993710E+01  0.31886061473E+02  0.00000000000E+00 0.  1.
         11    1    3    3    0    0  0.24368497919E+02  0.15472676558E+01  0.61123174851E+01  0.25170978394E+02  0.51100000000E-03 0. -1.
        -11    1    3    3    0    0  0.19335048778E+01  0.52576770280E+01 -0.13668589690E+02  0.14771998958E+02  0.51100000000E-03 0.  1.
        -12    1    3    3    0    0  0.32767422122E+01 -0.18425617224E+02  0.49526728334E+01  0.19358961176E+02  0.00000000000E+00 0.  1.
</event>
<event>
 7    1  0.1327607E-011  0.5930204E+02  0.7816164E-02  0.1266604E+00
        -11   -1    0    0    0    0  0.00000000000E+00  0.00000000000E+00  0.45593999997E+02  0.45594000000E+02  0.51100000000E-03 0.  1.
         11   -1    0    0    0    0 -0.00000000000E+00 -0.00000000000E+00 -0.45593999997E+02  0.45594000000E+02  0.51100000000E-03 0. -1.
    9900012    2    1    2    0    0  0.82252138681E+01  0.25292142024E+01 -0.30702823425E+02  0.59302040175E+02  0.50000175350E+02 0.  0.
        -12    1    1    2    0    0 -0.82252138681E+01 -0.25292142024E+01  0.30702823425E+02  0.31885959825E+02  0.00000000000E+00 0.  1.
         11    1    3    3    0    0 -0.10499397379E+02  0.66076934405E+01 -0.27164190361E+00  0.12408575563E+02  0.51100000000E-03 0. -1.
        -11    1    3    3    0    0  0.54234311484E+00  0.72416046389E+01  0.24393888535E+01  0.76606521942E+01  0.51100000000E-03 0.  1.
         12    1    3    3    0    0  0.18182268132E+02 -0.11320083877E+02 -0.32870570375E+02  0.39232812418E+02  0.00000000000E+00 0. -1.
</event>
<event>
 7    1  0.1327607E-011  0.5930194E+02  0.7816164E-02  0.1266605E+00
        -11   -1    0    0    0    0  0.00000000000E+00  0.00000000000E+00  0.45593999997E+02  0.45594000000E+02  0.51100000000E-03 0. -1.
         11   -1    0    0    0    0 -0.00000000000E+00 -0.00000000000E+00 -0.45593999997E+02  0.45594000000E+02  0.51100000000E-03 0.  1.
    9900012    2    1    2    0    0 -0.25545367482E+02  0.19009499704E+02 -0.16714390588E+01  0.59301943685E+02  0.49999999375E+02 0.  0.
        -12    1    1    2    0    0  0.25545367482E+02 -0.19009499704E+02  0.16714390588E+01  0.31886056315E+02  0.00000000000E+00 0.  1.
         11    1    3    3    0    0 -0.16435115219E+02  0.22840254811E+02  0.10100093281E+02  0.29896523822E+02  0.51100000000E-03 0. -1.
        -11    1    3    3    0    0 -0.37341405824E+01  0.63739882183E+01  0.50937434867E+01  0.89731685967E+01  0.51100000000E-03 0.  1.
        -12    1    3    3    0    0 -0.53761116802E+01 -0.10204743325E+02 -0.16865275826E+02  0.20432251266E+02  0.00000000000E+00 0.  1.
</event>
<event>
 7    1  0.1327607E-011  0.5930192E+02  0.7816164E-02  0.1266605E+00
        -11   -1    0    0    0    0  0.00000000000E+00  0.00000000000E+00  0.45593999997E+02  0.45594000000E+02  0.51100000000E-03 0.  1.
         11   -1    0    0    0    0 -0.00000000000E+00 -0.00000000000E+00 -0.45593999997E+02  0.45594000000E+02  0.51100000000E-03 0. -1.
    9900012    2    1    2    0    0  0.94745095547E+01  0.18206111160E+02 -0.24402728603E+02  0.59301921876E+02  0.49999959601E+02 0.  0.
        -12    1    1    2    0    0 -0.94745095547E+01 -0.18206111160E+02  0.24402728603E+02  0.31886078124E+02  0.00000000000E+00 0.  1.
         11    1    3    3    0    0  0.23784046233E+01 -0.21787405949E+01 -0.13949309867E+02  0.14317365860E+02  0.51100000000E-03 0. -1.
        -11    1    3    3    0    0  0.39217528625E+01 -0.79701119192E+01 -0.13637583832E+02  0.16275334791E+02  0.51100000000E-03 0.  1.
        -12    1    3    3    0    0  0.31743520689E+01  0.28354963674E+02  0.31841650965E+01  0.28709221225E+02  0.00000000000E+00 0.  1.
</event>
<event>
 7    1  0.1327607E-011  0.5930195E+02  0.7816164E-02  0.1266605E+00
        -11   -1    0    0    0    0  0.00000000000E+00  0.00000000000E+00  0.45593999997E+02  0.45594000000E+02  0.51100000000E-03 0.  1.
         11   -1    0    0    0    0 -0.00000000000E+00 -0.00000000000E+00 -0.45593999997E+02  0.45594000000E+02  0.51100000000E-03 0. -1.
    9900012    2    1    2    0    0  0.13087428924E+02 -0.12274364578E+02 -0.26358668722E+02  0.59301949156E+02  0.50000009352E+02 0.  0.
        -12    1    1    2    0    0 -0.13087428924E+02  0.12274364578E+02  0.26358668722E+02  0.31886050844E+02  0.00000000000E+00 0.  1.
         11    1    3    3    0    0  0.74381596759E+01 -0.23410475860E+02 -0.23082089938E+02  0.33706964792E+02  0.51100000000E-03 0. -1.
        -11    1    3    3    0    0 -0.26200504972E+01 -0.43185338565E+01 -0.60148420900E+01  0.78544716503E+01  0.51100000000E-03 0.  1.
        -12    1    3    3    0    0  0.82693197451E+01  0.15454645138E+02  0.27382633059E+01  0.17740512713E+02  0.00000000000E+00 0.  1.
</event>
<event>
 7    1  0.1327607E-011  0.5930200E+02  0.7816164E-02  0.1266605E+00
        -11   -1    0    0    0    0  0.00000000000E+00  0.00000000000E+00  0.45593999997E+02  0.45594000000E+02  0.51100000000E-03 0.  1.
         11   -1    0    0    0    0 -0.00000000000E+00 -0.00000000000E+00 -0.45593999997E+02  0.45594000000E+02  0.51100000000E-03 0. -1.
    9900012    2    1    2    0    0  0.24054648796E+02 -0.20632728571E+02  0.35187450002E+01  0.59301997062E+02  0.50000096722E+02 0.  0.
        -12    1    1    2    0    0 -0.24054648796E+02  0.20632728571E+02 -0.35187450002E+01  0.31886002938E+02  0.00000000000E+00 0.  1.
         11    1    3    3    0    0  0.23926617694E+01  0.61954053242E+01 -0.99215144377E+01  0.11939192874E+02  0.51100000000E-03 0. -1.
        -11    1    3    3    0    0  0.12029979651E+00 -0.10112285859E+01 -0.76201551570E+01  0.76879008950E+01  0.51100000000E-03 0.  1.
        -12    1    3    3    0    0  0.21541687230E+02 -0.25816905309E+02  0.21060414595E+02  0.39674903294E+02  0.00000000000E+00 0.  1.
</event>
<event>
 7    1  0.1327607E-011  0.5930194E+02  0.7816164E-02  0.1266605E+00
        -11   -1    0    0    0    0  0.00000000000E+00  0.00000000000E+00  0.45593999997E+02  0.45594000000E+02  0.51100000000E-03 0. -1.
         11   -1    0    0    0    0 -0.00000000000E+00 -0.00000000000E+00 -0.45593999997E+02  0.45594000000E+02  0.51100000000E-03 0.  1.
    9900012    2    1    2    0    0  0.22172872161E+02 -0.82069283049E+01  0.21394643648E+02  0.59301941779E+02  0.49999995898E+02 0.  0.
        -12    1    1    2    0    0 -0.22172872161E+02  0.82069283049E+01 -0.21394643648E+02  0.31886058221E+02  0.00000000000E+00 0.  1.
         11    1    3    3    0    0  0.87994709565E+01 -0.17371259298E+01 -0.68803057933E+01  0.11304286960E+02  0.51100000000E-03 0. -1.
        -11    1    3    3    0    0  0.18368277340E+02 -0.53159289726E+01 -0.14142374923E+00  0.19122570805E+02  0.51100000000E-03 0.  1.
         12    1    3    3    0    0 -0.49948761351E+01 -0.11538734025E+01  0.28416373191E+02  0.28875084013E+02  0.00000000000E+00 0. -1.
</event>
<event>
 7    1  0.1327607E-011  0.5930195E+02  0.7816164E-02  0.1266605E+00
        -11   -1    0    0    0    0  0.00000000000E+00  0.00000000000E+00  0.45593999997E+02  0.45594000000E+02  0.51100000000E-03 0.  1.
         11   -1    0    0    0    0 -0.00000000000E+00 -0.00000000000E+00 -0.45593999997E+02  0.45594000000E+02  0.51100000000E-03 0. -1.
    9900012    2    1    2    0    0 -0.17140724575E+02  0.21092499181E+02  0.16673999786E+02  0.59301949296E+02  0.50000009607E+02 0.  0.
        -12    1    1    2    0    0  0.17140724575E+02 -0.21092499181E+02 -0.16673999786E+02  0.31886050704E+02  0.00000000000E+00 0.  1.
         11    1    3    3    0    0 -0.80839248725E+01  0.16927314640E+02  0.90198370137E+01  0.20814448883E+02  0.51100000000E-03 0. -1.
        -11    1    3    3    0    0  0.11044582369E+02 -0.76697561234E+01 -0.12827082897E+01  0.13507527513E+02  0.51100000000E-03 0.  1.
         12    1    3    3    0    0 -0.20101382071E+02  0.11834940664E+02  0.89368710623E+01  0.24979972900E+02  0.00000000000E+00 0. -1.
</event>
<event>
 7    1  0.1327607E-011  0.5930192E+02  0.7816164E-02  0.1266605E+00
        -11   -1    0    0    0    0  0.00000000000E+00  0.00000000000E+00  0.45593999997E+02  0.45594000000E+02  0.51100000000E-03 0. -1.
         11   -1    0    0    0    0 -0.00000000000E+00 -0.00000000000E+00 -0.45593999997E+02  0.45594000000E+02  0.51100000000E-03 0.  1.
    9900012    2    1    2    0    0  0.23393717350E+02 -0.13886506742E+02  0.16631920901E+02  0.59301923512E+02  0.49999962584E+02 0.  0.
        -12    1    1    2    0    0 -0.23393717350E+02  0.13886506742E+02 -0.16631920901E+02  0.31886076488E+02  0.00000000000E+00 0.  1.
         11    1    3    3    0    0 -0.59693127107E+01 -0.29577192684E+01  0.26474258709E+01  0.71686582783E+01  0.51100000000E-03 0. -1.
        -11    1    3    3    0    0 -0.65117575869E+01 -0.92172415033E+01 -0.39912201118E+01  0.11970395400E+02  0.51100000000E-03 0.  1.
         12    1    3    3    0    0  0.35874787647E+02 -0.17115459706E+01  0.17975715142E+02  0.40162869833E+02  0.00000000000E+00 0. -1.
</event>
<event>
 7    1  0.1327607E-011  0.5930197E+02  0.7816164E-02  0.1266605E+00
        -11   -1    0    0    0    0  0.00000000000E+00  0.00000000000E+00  0.45593999997E+02  0.45594000000E+02  0.51100000000E-03 0.  1.
         11   -1    0    0    0    0 -0.00000000000E+00 -0.00000000000E+00 -0.45593999997E+02  0.45594000000E+02  0.51100000000E-03 0. -1.
    9900012    2    1    2    0    0  0.37418920685E+01  0.30796675960E+02 -0.73676170274E+01  0.59301971914E+02  0.50000050858E+02 0.  0.
        -12    1    1    2    0    0 -0.37418920685E+01 -0.30796675960E+02  0.73676170274E+01  0.31886028086E+02  0.00000000000E+00 0.  1.
         11    1    3    3    0    0 -0.48354629557E+01 -0.52760032925E+01 -0.60549590333E+01  0.93744568853E+01  0.51100000000E-03 0. -1.
        -11    1    3    3    0    0  0.19643160071E+01 -0.65633360271E+00  0.10562876590E+02  0.10763998945E+02  0.51100000000E-03 0.  1.
         12    1    3    3    0    0  0.66130390171E+01  0.36729012855E+02 -0.11875534584E+02  0.39163516083E+02  0.00000000000E+00 0. -1.
</event>
<event>
 7    1  0.1327607E-011  0.5930197E+02  0.7816164E-02  0.1266605E+00
        -11   -1    0    0    0    0  0.00000000000E+00  0.00000000000E+00  0.45593999997E+02  0.45594000000E+02  0.51100000000E-03 0. -1.
         11   -1    0    0    0    0 -0.00000000000E+00 -0.00000000000E+00 -0.45593999997E+02  0.45594000000E+02  0.51100000000E-03 0.  1.
    9900012    2    1    2    0    0  0.29095479956E+02  0.62495214255E+01  0.11450563337E+02  0.59301970572E+02  0.50000048411E+02 0.  0.
        -12    1    1    2    0    0 -0.29095479956E+02 -0.62495214255E+01 -0.11450563337E+02  0.31886029428E+02  0.00000000000E+00 0.  1.
         11    1    3    3    0    0  0.25270260351E+02 -0.11442242559E+02  0.12708255562E+02  0.30512468479E+02  0.51100000000E-03 0. -1.
        -11    1    3    3    0    0  0.90736716044E+01  0.15171499200E+01  0.52379319700E+01  0.10586273747E+02  0.51100000000E-03 0.  1.
        -12    1    3    3    0    0 -0.52484519992E+01  0.16174614064E+02 -0.64956241955E+01  0.18203228346E+02  0.00000000000E+00 0.  1.
</event>
<event>
 7    1  0.1327607E-011  0.5930198E+02  0.7816164E-02  0.1266605E+00
        -11   -1    0    0    0    0  0.00000000000E+00  0.00000000000E+00  0.45593999997E+02  0.45594000000E+02  0.51100000000E-03 0. -1.
         11   -1    0    0    0    0 -0.00000000000E+00 -0.00000000000E+00 -0.45593999997E+02  0.45594000000E+02  0.51100000000E-03 0.  1.
    9900012    2    1    2    0    0  0.76299757626E+01 -0.18452347128E+02  0.24859860145E+02  0.59301979692E+02  0.50000065043E+02 0.  0.
        -12    1    1    2    0    0 -0.76299757626E+01  0.18452347128E+02 -0.24859860145E+02  0.31886020308E+02  0.00000000000E+00 0.  1.
         11    1    3    3    0    0  0.19072274178E+02 -0.16694084166E+01  0.22807162679E+02  0.29777596218E+02  0.51100000000E-03 0. -1.
        -11    1    3    3    0    0 -0.16939509184E+01  0.28983463803E+01  0.63145691659E+01  0.71514799494E+01  0.51100000000E-03 0.  1.
        -12    1    3    3    0    0 -0.97483474965E+01 -0.19681285091E+02 -0.42618717003E+01  0.22372903525E+02  0.00000000000E+00 0.  1.
</event>
<event>
 7    1  0.1327607E-011  0.5930193E+02  0.7816164E-02  0.1266605E+00
        -11   -1    0    0    0    0  0.00000000000E+00  0.00000000000E+00  0.45593999997E+02  0.45594000000E+02  0.51100000000E-03 0.  1.
         11   -1    0    0    0    0 -0.00000000000E+00 -0.00000000000E+00 -0.45593999997E+02  0.45594000000E+02  0.51100000000E-03 0. -1.
    9900012    2    1    2    0    0  0.30423352500E+02 -0.93315762742E+01 -0.20156842474E+01  0.59301926613E+02  0.49999968239E+02 0.  0.
        -12    1    1    2    0    0 -0.30423352500E+02  0.93315762742E+01  0.20156842474E+01  0.31886073387E+02  0.00000000000E+00 0.  1.
         11    1    3    3    0    0  0.66729905500E+01 -0.77212627451E+01  0.10927554896E+02  0.14951861340E+02  0.51100000000E-03 0. -1.
        -11    1    3    3    0    0  0.17004456058E+02 -0.17182825529E+02 -0.22219397956E+01  0.24276285460E+02  0.51100000000E-03 0.  1.
        -12    1    3    3    0    0  0.67459058916E+01  0.15572512000E+02 -0.10721299348E+02  0.20073779813E+02  0.00000000000E+00 0.  1.
</event>
<event>
 7    1  0.1327607E-011  0.5930195E+02  0.7816164E-02  0.1266605E+00
        -11   -1    0    0    0    0  0.00000000000E+00  0.00000000000E+00  0.45593999997E+02  0.45594000000E+02  0.51100000000E-03 0. -1.
         11   -1    0    0    0    0 -0.00000000000E+00 -0.00000000000E+00 -0.45593999997E+02  0.45594000000E+02  0.51100000000E-03 0.  1.
    9900012    2    1    2    0    0  0.23221615063E+02  0.15524868744E+02  0.15377103363E+02  0.59301948763E+02  0.50000008636E+02 0.  0.
        -12    1    1    2    0    0 -0.23221615063E+02 -0.15524868744E+02 -0.15377103363E+02  0.31886051237E+02  0.00000000000E+00 0.  1.
         11    1    3    3    0    0  0.27719951591E+02 -0.25793600425E+01  0.23651524801E+02  0.36530034768E+02  0.51100000000E-03 0. -1.
        -11    1    3    3    0    0  0.29438138422E+01  0.85974493515E+01 -0.27478501519E+01  0.94938325247E+01  0.51100000000E-03 0.  1.
        -12    1    3    3    0    0 -0.74421503699E+01  0.95067794348E+01 -0.55265712866E+01  0.13278081470E+02  0.00000000000E+00 0.  1.
</event>
<event>
 7    1  0.1327607E-011  0.5930195E+02  0.7816164E-02  0.1266605E+00
        -11   -1    0    0    0    0  0.00000000000E+00  0.00000000000E+00  0.45593999997E+02  0.45594000000E+02  0.51100000000E-03 0. -1.
         11   -1    0    0    0    0 -0.00000000000E+00 -0.00000000000E+00 -0.45593999997E+02  0.45594000000E+02  0.51100000000E-03 0.  1.
    9900012    2    1    2    0    0 -0.15280146938E+01  0.13212096576E+02  0.28979748263E+02  0.59301950790E+02  0.50000012333E+02 0.  0.
        -12    1    1    2    0    0  0.15280146938E+01 -0.13212096576E+02 -0.28979748263E+02  0.31886049210E+02  0.00000000000E+00 0.  1.
         11    1    3    3    0    0  0.32049517045E+01 -0.51551111581E+01  0.85858069345E+01  0.10514892651E+02  0.51100000000E-03 0. -1.
        -11    1    3    3    0    0  0.11390875882E+02 -0.59523594500E+01  0.13827774102E+02  0.18878293706E+02  0.51100000000E-03 0.  1.
        -12    1    3    3    0    0 -0.16123842280E+02  0.24319567184E+02  0.65661672263E+01  0.29908764433E+02  0.00000000000E+00 0.  1.
</event>
<event>
 7    1  0.1327607E-011  0.5930194E+02  0.7816164E-02  0.1266605E+00
        -11   -1    0    0    0    0  0.00000000000E+00  0.00000000000E+00  0.45593999997E+02  0.45594000000E+02  0.51100000000E-03 0. -1.
         11   -1    0    0    0    0 -0.00000000000E+00 -0.00000000000E+00 -0.45593999997E+02  0.45594000000E+02  0.51100000000E-03 0.  1.
    9900012    2    1    2    0    0 -0.25243800559E+02 -0.77447291738E+00  0.19464619881E+02  0.59301941885E+02  0.49999996092E+02 0.  0.
        -12    1    1    2    0    0  0.25243800559E+02  0.77447291738E+00 -0.19464619881E+02  0.31886058115E+02  0.00000000000E+00 0.  1.
         11    1    3    3    0    0 -0.24610373527E+02  0.14055699225E+02  0.11204390097E+02  0.30475753043E+02  0.51100000000E-03 0. -1.
        -11    1    3    3    0    0 -0.11931709575E+02 -0.74909624332E+01  0.51414947171E+01  0.14997172391E+02  0.51100000000E-03 0.  1.
        -12    1    3    3    0    0  0.11298282543E+02 -0.73392097087E+01  0.31187350669E+01  0.13829016450E+02  0.00000000000E+00 0.  1.
</event>
<event>
 7    1  0.1327607E-011  0.5930192E+02  0.7816164E-02  0.1266605E+00
        -11   -1    0    0    0    0  0.00000000000E+00  0.00000000000E+00  0.45593999997E+02  0.45594000000E+02  0.51100000000E-03 0. -1.
         11   -1    0    0    0    0 -0.00000000000E+00 -0.00000000000E+00 -0.45593999997E+02  0.45594000000E+02  0.51100000000E-03 0.  1.
    9900012    2    1    2    0    0 -0.28485409183E+02 -0.66954992578E+01 -0.12667815213E+02  0.59301924843E+02  0.49999965012E+02 0.  0.
        -12    1    1    2    0    0  0.28485409183E+02  0.66954992578E+01  0.12667815213E+02  0.31886075157E+02  0.00000000000E+00 0.  1.
         11    1    3    3    0    0 -0.18523629175E+02 -0.17388591107E+02  0.54381437324E+01  0.25981942691E+02  0.51100000000E-03 0. -1.
        -11    1    3    3    0    0 -0.99737600025E+01  0.14023541242E+02 -0.25319661129E+01  0.17393862429E+02  0.51100000000E-03 0.  1.
        -12    1    3    3    0    0  0.11979995260E-01 -0.33304493931E+01 -0.15573992832E+02  0.15926119723E+02  0.00000000000E+00 0.  1.
</event>
<event>
 7    1  0.1327607E-011  0.5930194E+02  0.7816164E-02  0.1266605E+00
        -11   -1    0    0    0    0  0.00000000000E+00  0.00000000000E+00  0.45593999997E+02  0.45594000000E+02  0.51100000000E-03 0. -1.
         11   -1    0    0    0    0 -0.00000000000E+00 -0.00000000000E+00 -0.45593999997E+02  0.45594000000E+02  0.51100000000E-03 0.  1.
    9900012    2    1    2    0    0 -0.23129320900E+02  0.11777838907E+02  0.18521281160E+02  0.59301939873E+02  0.49999992422E+02 0.  0.
        -12    1    1    2    0    0  0.23129320900E+02 -0.11777838907E+02 -0.18521281160E+02  0.31886060127E+02  0.00000000000E+00 0.  1.
         11    1    3    3    0    0  0.40322723618E+01  0.12457269209E+02  0.12762362239E+02  0.18284437829E+02  0.51100000000E-03 0. -1.
        -11    1    3    3    0    0 -0.14539040794E+02 -0.99115455560E+01  0.14765891274E+02  0.22970720231E+02  0.51100000000E-03 0.  1.
         12    1    3    3    0    0 -0.12622552468E+02  0.92321152537E+01 -0.90069723522E+01  0.18046781813E+02  0.00000000000E+00 0. -1.
</event>
<event>
 7    1  0.1327607E-011  0.5930194E+02  0.7816164E-02  0.1266605E+00
        -11   -1    0    0    0    0  0.00000000000E+00  0.00000000000E+00  0.45593999997E+02  0.45594000000E+02  0.51100000000E-03 0.  1.
         11   -1    0    0    0    0 -0.00000000000E+00 -0.00000000000E+00 -0.45593999997E+02  0.45594000000E+02  0.51100000000E-03 0. -1.
    9900012    2    1    2    0    0 -0.26037234436E+02  0.15513696555E+02  0.99049596220E+01  0.59301943753E+02  0.49999999499E+02 0.  0.
        -12    1    1    2    0    0  0.26037234436E+02 -0.15513696555E+02 -0.99049596220E+01  0.31886056247E+02  0.00000000000E+00 0.  1.
         11    1    3    3    0    0  0.50390782669E+01  0.94811963747E+01  0.93766323217E+01  0.14255056241E+02  0.51100000000E-03 0. -1.
        -11    1    3    3    0    0  0.42412028934E+01  0.28427778097E+01  0.73361814201E+01  0.89380504445E+01  0.51100000000E-03 0.  1.
         12    1    3    3    0    0 -0.35317515596E+02  0.31897223708E+01 -0.68078541198E+01  0.36108837068E+02  0.00000000000E+00 0. -1.
</event>
<event>
 7    1  0.1327607E-011  0.5930194E+02  0.7816164E-02  0.1266605E+00
        -11   -1    0    0    0    0  0.00000000000E+00  0.00000000000E+00  0.45593999997E+02  0.45594000000E+02  0.51100000000E-03 0.  1.
         11   -1    0    0    0    0 -0.00000000000E+00 -0.00000000000E+00 -0.45593999997E+02  0.45594000000E+02  0.51100000000E-03 0. -1.
    9900012    2    1    2    0    0 -0.10081467119E+02 -0.27527646734E+02 -0.12542461558E+02  0.59301942610E+02  0.49999997414E+02 0.  0.
        -12    1    1    2    0    0  0.10081467119E+02  0.27527646734E+02  0.12542461558E+02  0.31886057390E+02  0.00000000000E+00 0.  1.
         11    1    3    3    0    0  0.16054142849E+02 -0.15076348356E+02 -0.98508015973E+01  0.24126128466E+02  0.51100000000E-03 0. -1.
        -11    1    3    3    0    0 -0.18645318312E+01 -0.41453200692E+01  0.64950261133E+01  0.79275167549E+01  0.51100000000E-03 0.  1.
         12    1    3    3    0    0 -0.24271078137E+02 -0.83059783084E+01 -0.91866860741E+01  0.27248297389E+02  0.00000000000E+00 0. -1.
</event>
<event>
 7    1  0.1327607E-011  0.5930193E+02  0.7816164E-02  0.1266605E+00
        -11   -1    0    0    0    0  0.00000000000E+00  0.00000000000E+00  0.45593999997E+02  0.45594000000E+02  0.51100000000E-03 0. -1.
         11   -1    0    0    0    0 -0.00000000000E+00 -0.00000000000E+00 -0.45593999997E+02  0.45594000000E+02  0.51100000000E-03 0.  1.
    9900012    2    1    2    0    0 -0.23008854703E+02 -0.14959371647E+02  0.16233638579E+02  0.59301933822E+02  0.49999981387E+02 0.  0.
        -12    1    1    2    0    0  0.23008854703E+02  0.14959371647E+02 -0.16233638579E+02  0.31886066178E+02  0.00000000000E+00 0.  1.
         11    1    3    3    0    0 -0.16987083298E+02 -0.42318032949E+00  0.10081533409E+02  0.19757970460E+02  0.51100000000E-03 0. -1.
        -11    1    3    3    0    0 -0.14716099748E+02 -0.10872821112E+02  0.17133235470E+02  0.25066503320E+02  0.51100000000E-03 0.  1.
        -12    1    3    3    0    0  0.86943283434E+01 -0.36633702049E+01 -0.10981130300E+02  0.14477460042E+02  0.00000000000E+00 0.  1.
</event>
<event>
 7    1  0.1327607E-011  0.5930195E+02  0.7816164E-02  0.1266605E+00
        -11   -1    0    0    0    0  0.00000000000E+00  0.00000000000E+00  0.45593999997E+02  0.45594000000E+02  0.51100000000E-03 0. -1.
         11   -1    0    0    0    0 -0.00000000000E+00 -0.00000000000E+00 -0.45593999997E+02  0.45594000000E+02  0.51100000000E-03 0.  1.
    9900012    2    1    2    0    0  0.30468486588E+02 -0.37735672587E+01  0.86111353495E+01  0.59301950749E+02  0.50000012258E+02 0.  0.
        -12    1    1    2    0    0 -0.30468486588E+02  0.37735672587E+01 -0.86111353495E+01  0.31886049251E+02  0.00000000000E+00 0.  1.
         11    1    3    3    0    0 -0.10159531175E+02 -0.95818412277E+00 -0.22214905291E+01  0.10443620586E+02  0.51100000000E-03 0. -1.
        -11    1    3    3    0    0  0.46394338838E+01  0.82109653755E+01 -0.79216847607E+00  0.94642395529E+01  0.51100000000E-03 0.  1.
         12    1    3    3    0    0  0.35988583880E+02 -0.11026348511E+02  0.11624794355E+02  0.39394090610E+02  0.00000000000E+00 0. -1.
</event>
<event>
 7    1  0.1327607E-011  0.5930194E+02  0.7816164E-02  0.1266605E+00
        -11   -1    0    0    0    0  0.00000000000E+00  0.00000000000E+00  0.45593999997E+02  0.45594000000E+02  0.51100000000E-03 0. -1.
         11   -1    0    0    0    0 -0.00000000000E+00 -0.00000000000E+00 -0.45593999997E+02  0.45594000000E+02  0.51100000000E-03 0.  1.
    9900012    2    1    2    0    0 -0.24907458166E+02  0.19322352479E+02  0.47943851413E+01  0.59301938681E+02  0.49999990248E+02 0.  0.
        -12    1    1    2    0    0  0.24907458166E+02 -0.19322352479E+02 -0.47943851413E+01  0.31886061319E+02  0.00000000000E+00 0.  1.
         11    1    3    3    0    0 -0.85355864222E+01  0.14930642702E+02  0.33959166675E+01  0.17530333064E+02  0.51100000000E-03 0. -1.
        -11    1    3    3    0    0  0.42578060617E+01  0.16940229637E+02  0.22423108460E+01  0.17610458563E+02  0.51100000000E-03 0.  1.
        -12    1    3    3    0    0 -0.20629677805E+02 -0.12548519860E+02 -0.84384237224E+00  0.24161147054E+02  0.00000000000E+00 0.  1.
</event>
<event>
 7    1  0.1327607E-011  0.5930199E+02  0.7816164E-02  0.1266605E+00
        -11   -1    0    0    0    0  0.00000000000E+00  0.00000000000E+00  0.45593999997E+02  0.45594000000E+02  0.51100000000E-03 0. -1.
         11   -1    0    0    0    0 -0.00000000000E+00 -0.00000000000E+00 -0.45593999997E+02  0.45594000000E+02  0.51100000000E-03 0.  1.
    9900012    2    1    2    0    0 -0.56690494045E+01  0.15306860911E+02  0.27391232794E+02  0.59301988239E+02  0.50000080630E+02 0.  0.
        -12    1    1    2    0    0  0.56690494045E+01 -0.15306860911E+02 -0.27391232794E+02  0.31886011761E+02  0.00000000000E+00 0.  1.
         11    1    3    3    0    0 -0.14122565602E+02  0.15867831617E+02  0.67858479404E+01  0.22299835693E+02  0.51100000000E-03 0. -1.
        -11    1    3    3    0    0 -0.50803640543E+01  0.11472908854E+01 -0.54831267631E+01  0.75624767545E+01  0.51100000000E-03 0.  1.
         12    1    3    3    0    0  0.13533880252E+02 -0.17082615912E+01  0.26088511616E+02  0.29439675791E+02  0.00000000000E+00 0. -1.
</event>
<event>
 7    1  0.1327607E-011  0.5930195E+02  0.7816164E-02  0.1266605E+00
        -11   -1    0    0    0    0  0.00000000000E+00  0.00000000000E+00  0.45593999997E+02  0.45594000000E+02  0.51100000000E-03 0. -1.
         11   -1    0    0    0    0 -0.00000000000E+00 -0.00000000000E+00 -0.45593999997E+02  0.45594000000E+02  0.51100000000E-03 0.  1.
    9900012    2    1    2    0    0 -0.21990522819E+02 -0.17450487287E+02  0.15120103305E+02  0.59301950945E+02  0.50000012615E+02 0.  0.
        -12    1    1    2    0    0  0.21990522819E+02  0.17450487287E+02 -0.15120103305E+02  0.31886049055E+02  0.00000000000E+00 0.  1.
         11    1    3    3    0    0 -0.81320263819E+00  0.97006647224E+01  0.33830366325E+01  0.10305781470E+02  0.51100000000E-03 0. -1.
        -11    1    3    3    0    0 -0.18893418938E+02 -0.70033343221E+00  0.12095632246E+02  0.22444510816E+02  0.51100000000E-03 0.  1.
        -12    1    3    3    0    0 -0.22839012430E+01 -0.26450818577E+02 -0.35856557371E+00  0.26551658659E+02  0.00000000000E+00 0.  1.
</event>
<event>
 7    1  0.1327607E-011  0.5930197E+02  0.7816164E-02  0.1266605E+00
        -11   -1    0    0    0    0  0.00000000000E+00  0.00000000000E+00  0.45593999997E+02  0.45594000000E+02  0.51100000000E-03 0.  1.
         11   -1    0    0    0    0 -0.00000000000E+00 -0.00000000000E+00 -0.45593999997E+02  0.45594000000E+02  0.51100000000E-03 0. -1.
    9900012    2    1    2    0    0  0.25503162287E+02 -0.17790756817E+02 -0.70566549582E+01  0.59301973374E+02  0.50000053521E+02 0.  0.
        -12    1    1    2    0    0 -0.25503162287E+02  0.17790756817E+02  0.70566549582E+01  0.31886026626E+02  0.00000000000E+00 0.  1.
         11    1    3    3    0    0  0.67366591159E+01  0.11854146895E+02 -0.16382310586E+01  0.13732704611E+02  0.51100000000E-03 0.  1.
        -11    1    3    3    0    0  0.48350124201E+01  0.30293673588E+00  0.84547711114E+01  0.97443455694E+01  0.51100000000E-03 0. -1.
         12    1    3    3    0    0  0.13931490751E+02 -0.29947840448E+02 -0.13873195011E+02  0.35824923194E+02  0.00000000000E+00 0. -1.
</event>
<event>
 7    1  0.1327607E-011  0.5930195E+02  0.7816164E-02  0.1266605E+00
        -11   -1    0    0    0    0  0.00000000000E+00  0.00000000000E+00  0.45593999997E+02  0.45594000000E+02  0.51100000000E-03 0. -1.
         11   -1    0    0    0    0 -0.00000000000E+00 -0.00000000000E+00 -0.45593999997E+02  0.45594000000E+02  0.51100000000E-03 0.  1.
    9900012    2    1    2    0    0  0.18083116454E+02 -0.46901818026E+01  0.25840341647E+02  0.59301950348E+02  0.50000011526E+02 0.  0.
        -12    1    1    2    0    0 -0.18083116454E+02  0.46901818026E+01 -0.25840341647E+02  0.31886049652E+02  0.00000000000E+00 0.  1.
         11    1    3    3    0    0  0.18264145670E+02  0.80991038398E+01  0.23406342581E+02  0.30773874851E+02  0.51100000000E-03 0. -1.
        -11    1    3    3    0    0  0.53366402245E+01  0.40142650511E+01 -0.59602113240E+01  0.89508754920E+01  0.51100000000E-03 0.  1.
        -12    1    3    3    0    0 -0.55176694408E+01 -0.16803550693E+02  0.83942103896E+01  0.19577200005E+02  0.00000000000E+00 0.  1.
</event>
<event>
 7    1  0.1327607E-011  0.5930188E+02  0.7816164E-02  0.1266605E+00
        -11   -1    0    0    0    0  0.00000000000E+00  0.00000000000E+00  0.45593999997E+02  0.45594000000E+02  0.51100000000E-03 0. -1.
         11   -1    0    0    0    0 -0.00000000000E+00 -0.00000000000E+00 -0.45593999997E+02  0.45594000000E+02  0.51100000000E-03 0.  1.
    9900012    2    1    2    0    0  0.62273029154E+01  0.26464566796E+02  0.16660485657E+02  0.59301884219E+02  0.49999890922E+02 0.  0.
        -12    1    1    2    0    0 -0.62273029154E+01 -0.26464566796E+02 -0.16660485657E+02  0.31886115781E+02  0.00000000000E+00 0.  1.
         11    1    3    3    0    0 -0.99739851348E+01  0.18165950302E+02 -0.31400832033E+00  0.20726329423E+02  0.51100000000E-03 0. -1.
        -11    1    3    3    0    0 -0.34706553936E+01  0.10443019674E+02  0.15119526270E+02  0.18700325764E+02  0.51100000000E-03 0.  1.
        -12    1    3    3    0    0  0.19671943444E+02 -0.21444031810E+01  0.18549677073E+01  0.19875229032E+02  0.00000000000E+00 0.  1.
</event>
<event>
 7    1  0.1327607E-011  0.5930193E+02  0.7816164E-02  0.1266605E+00
        -11   -1    0    0    0    0  0.00000000000E+00  0.00000000000E+00  0.45593999997E+02  0.45594000000E+02  0.51100000000E-03 0. -1.
         11   -1    0    0    0    0 -0.00000000000E+00 -0.00000000000E+00 -0.45593999997E+02  0.45594000000E+02  0.51100000000E-03 0.  1.
    9900012    2    1    2    0    0 -0.16391302863E+02  0.18840048416E+02  0.19826727789E+02  0.59301931433E+02  0.49999977030E+02 0.  0.
        -12    1    1    2    0    0  0.16391302863E+02 -0.18840048416E+02 -0.19826727789E+02  0.31886068567E+02  0.00000000000E+00 0.  1.
         11    1    3    3    0    0 -0.29290649012E+01 -0.75153934630E+01 -0.11838464882E+01  0.81524261952E+01  0.51100000000E-03 0. -1.
        -11    1    3    3    0    0  0.36914260708E+01  0.12175474782E+02 -0.76629435550E+01  0.14852256286E+02  0.51100000000E-03 0.  1.
         12    1    3    3    0    0 -0.17153664032E+02  0.14179967097E+02  0.28673517832E+02  0.36297248952E+02  0.00000000000E+00 0. -1.
</event>
<event>
 7    1  0.1327607E-011  0.5930195E+02  0.7816164E-02  0.1266605E+00
        -11   -1    0    0    0    0  0.00000000000E+00  0.00000000000E+00  0.45593999997E+02  0.45594000000E+02  0.51100000000E-03 0.  1.
         11   -1    0    0    0    0 -0.00000000000E+00 -0.00000000000E+00 -0.45593999997E+02  0.45594000000E+02  0.51100000000E-03 0. -1.
    9900012    2    1    2    0    0  0.11372648355E+02  0.29785957946E+02 -0.42403030842E+00  0.59301949397E+02  0.50000009792E+02 0.  0.
        -12    1    1    2    0    0 -0.11372648355E+02 -0.29785957946E+02  0.42403030842E+00  0.31886050603E+02  0.00000000000E+00 0.  1.
         11    1    3    3    0    0  0.10400881599E+01  0.28986033313E+02 -0.95197012726E+01  0.30526981888E+02  0.51100000000E-03 0. -1.
        -11    1    3    3    0    0 -0.63925203919E+01  0.64761496069E+01  0.58479442947E+01  0.10816805602E+02  0.51100000000E-03 0.  1.
        -12    1    3    3    0    0  0.16725080587E+02 -0.56762249738E+01  0.32477266695E+01  0.17958161908E+02  0.00000000000E+00 0.  1.
</event>
<event>
 7    1  0.1327607E-011  0.5930194E+02  0.7816164E-02  0.1266605E+00
        -11   -1    0    0    0    0  0.00000000000E+00  0.00000000000E+00  0.45593999997E+02  0.45594000000E+02  0.51100000000E-03 0. -1.
         11   -1    0    0    0    0 -0.00000000000E+00 -0.00000000000E+00 -0.45593999997E+02  0.45594000000E+02  0.51100000000E-03 0.  1.
    9900012    2    1    2    0    0  0.29029931690E+02  0.13117212145E+02 -0.13865042169E+01  0.59301943763E+02  0.49999999518E+02 0.  0.
        -12    1    1    2    0    0 -0.29029931690E+02 -0.13117212145E+02  0.13865042169E+01  0.31886056237E+02  0.00000000000E+00 0.  1.
         11    1    3    3    0    0  0.23543303513E+02  0.63376684525E+01  0.10407771954E+02  0.26509901905E+02  0.51100000000E-03 0. -1.
        -11    1    3    3    0    0  0.10311629487E+02 -0.92513902471E+01 -0.51180660864E+01  0.14768633143E+02  0.51100000000E-03 0.  1.
         12    1    3    3    0    0 -0.48250013100E+01  0.16030933940E+02 -0.66762100848E+01  0.18023408716E+02  0.00000000000E+00 0. -1.
</event>
<event>
 7    1  0.1327607E-011  0.5930195E+02  0.7816164E-02  0.1266605E+00
        -11   -1    0    0    0    0  0.00000000000E+00  0.00000000000E+00  0.45593999997E+02  0.45594000000E+02  0.51100000000E-03 0.  1.
         11   -1    0    0    0    0 -0.00000000000E+00 -0.00000000000E+00 -0.45593999997E+02  0.45594000000E+02  0.51100000000E-03 0. -1.
    9900012    2    1    2    0    0  0.12067812767E+02 -0.25386058639E+02 -0.15054433513E+02  0.59301952164E+02  0.50000014839E+02 0.  0.
        -12    1    1    2    0    0 -0.12067812767E+02  0.25386058639E+02  0.15054433513E+02  0.31886047836E+02  0.00000000000E+00 0.  1.
         11    1    3    3    0    0  0.25257072625E+02 -0.16603160701E+02 -0.37181668397E+01  0.30453397639E+02  0.51100000000E-03 0. -1.
        -11    1    3    3    0    0 -0.86467609064E+00 -0.11455725886E+02 -0.11473876084E+02  0.16236722359E+02  0.51100000000E-03 0.  1.
        -12    1    3    3    0    0 -0.12324583767E+02  0.26728279477E+01  0.13760941070E+00  0.12611832167E+02  0.00000000000E+00 0.  1.
</event>
<event>
 7    1  0.1327607E-011  0.5930168E+02  0.7816164E-02  0.1266606E+00
        -11   -1    0    0    0    0  0.00000000000E+00  0.00000000000E+00  0.45593999997E+02  0.45594000000E+02  0.51100000000E-03 0.  1.
         11   -1    0    0    0    0 -0.00000000000E+00 -0.00000000000E+00 -0.45593999997E+02  0.45594000000E+02  0.51100000000E-03 0. -1.
    9900012    2    1    2    0    0 -0.14805424050E+02  0.55906657489E+01 -0.27681780343E+02  0.59301684946E+02  0.49999527494E+02 0.  0.
        -12    1    1    2    0    0  0.14805424050E+02 -0.55906657489E+01  0.27681780343E+02  0.31886315054E+02  0.00000000000E+00 0.  1.
         11    1    3    3    0    0 -0.49790822204E+01  0.43099637117E+01  0.50875159841E+01  0.83216504435E+01  0.51100000000E-03 0. -1.
        -11    1    3    3    0    0  0.86304978855E+00  0.11915940479E+02  0.28657113513E+01  0.12286040626E+02  0.51100000000E-03 0.  1.
         12    1    3    3    0    0 -0.10689391618E+02 -0.10635238442E+02 -0.35635007678E+02  0.38693993876E+02  0.00000000000E+00 0. -1.
</event>
<event>
 7    1  0.1327607E-011  0.5930194E+02  0.7816164E-02  0.1266605E+00
        -11   -1    0    0    0    0  0.00000000000E+00  0.00000000000E+00  0.45593999997E+02  0.45594000000E+02  0.51100000000E-03 0.  1.
         11   -1    0    0    0    0 -0.00000000000E+00 -0.00000000000E+00 -0.45593999997E+02  0.45594000000E+02  0.51100000000E-03 0. -1.
    9900012    2    1    2    0    0 -0.19337745698E+02 -0.13696352028E+02 -0.21335003461E+02  0.59301939720E+02  0.49999992143E+02 0.  0.
        -12    1    1    2    0    0  0.19337745698E+02  0.13696352028E+02  0.21335003461E+02  0.31886060280E+02  0.00000000000E+00 0.  1.
         11    1    3    3    0    0  0.66036753395E+01  0.12740401691E+02 -0.13497338439E+02  0.19700368231E+02  0.51100000000E-03 0.  1.
        -11    1    3    3    0    0 -0.15787978944E+02 -0.94851567883E+01 -0.73650428645E+01  0.19836137101E+02  0.51100000000E-03 0. -1.
        -12    1    3    3    0    0 -0.10153442093E+02 -0.16951596931E+02 -0.47262215726E+00  0.19765434388E+02  0.00000000000E+00 0.  1.
</event>
<event>
 7    1  0.1327607E-011  0.5930196E+02  0.7816164E-02  0.1266605E+00
        -11   -1    0    0    0    0  0.00000000000E+00  0.00000000000E+00  0.45593999997E+02  0.45594000000E+02  0.51100000000E-03 0.  1.
         11   -1    0    0    0    0 -0.00000000000E+00 -0.00000000000E+00 -0.45593999997E+02  0.45594000000E+02  0.51100000000E-03 0. -1.
    9900012    2    1    2    0    0 -0.17061503018E+02 -0.14609555451E+02 -0.22631520803E+02  0.59301957135E+02  0.50000023905E+02 0.  0.
        -12    1    1    2    0    0  0.17061503018E+02  0.14609555451E+02  0.22631520803E+02  0.31886042865E+02  0.00000000000E+00 0.  1.
         11    1    3    3    0    0 -0.12947256843E+02 -0.18946683410E+01 -0.22157629001E+02  0.25732892396E+02  0.51100000000E-03 0. -1.
        -11    1    3    3    0    0 -0.14137894320E+02  0.29538528509E+01  0.27176448733E+01  0.14696628742E+02  0.51100000000E-03 0.  1.
        -12    1    3    3    0    0  0.10023648145E+02 -0.15668739961E+02 -0.31915366756E+01  0.18872435997E+02  0.00000000000E+00 0.  1.
</event>
<event>
 7    1  0.1327607E-011  0.5930198E+02  0.7816164E-02  0.1266605E+00
        -11   -1    0    0    0    0  0.00000000000E+00  0.00000000000E+00  0.45593999997E+02  0.45594000000E+02  0.51100000000E-03 0.  1.
         11   -1    0    0    0    0 -0.00000000000E+00 -0.00000000000E+00 -0.45593999997E+02  0.45594000000E+02  0.51100000000E-03 0. -1.
    9900012    2    1    2    0    0 -0.23723778279E+02 -0.40818664274E+01 -0.20910266028E+02  0.59301976185E+02  0.50000058647E+02 0.  0.
        -12    1    1    2    0    0  0.23723778279E+02  0.40818664274E+01  0.20910266028E+02  0.31886023815E+02  0.00000000000E+00 0.  1.
         11    1    3    3    0    0  0.52448864905E+01 -0.47787464405E+01 -0.19109502236E+02  0.20384266674E+02  0.51100000000E-03 0. -1.
        -11    1    3    3    0    0  0.52110812753E+00  0.18408624278E+01 -0.84517481767E+01  0.86655857080E+01  0.51100000000E-03 0.  1.
        -12    1    3    3    0    0 -0.29489772897E+02 -0.11439824146E+01  0.66509843850E+01  0.30252123803E+02  0.00000000000E+00 0.  1.
</event>
<event>
 7    1  0.1327607E-011  0.5930170E+02  0.7816164E-02  0.1266606E+00
        -11   -1    0    0    0    0  0.00000000000E+00  0.00000000000E+00  0.45593999997E+02  0.45594000000E+02  0.51100000000E-03 0.  1.
         11   -1    0    0    0    0 -0.00000000000E+00 -0.00000000000E+00 -0.45593999997E+02  0.45594000000E+02  0.51100000000E-03 0. -1.
    9900012    2    1    2    0    0 -0.27723268294E+01  0.25317641322E+02 -0.19185075456E+02  0.59301703909E+02  0.49999562078E+02 0.  0.
        -12    1    1    2    0    0  0.27723268294E+01 -0.25317641322E+02  0.19185075456E+02  0.31886296091E+02  0.00000000000E+00 0.  1.
         11    1    3    3    0    0  0.10724627542E+02 -0.38816839664E+01 -0.98895581182E+01  0.15095975171E+02  0.51100000000E-03 0.  1.
        -11    1    3    3    0    0 -0.60069265120E+01 -0.44168330337E+01 -0.60702736812E+01  0.96145620282E+01  0.51100000000E-03 0. -1.
         12    1    3    3    0    0 -0.74900278589E+01  0.33616158323E+02 -0.32252436565E+01  0.34591166710E+02  0.00000000000E+00 0. -1.
</event>
<event>
 7    1  0.1327607E-011  0.5930193E+02  0.7816164E-02  0.1266605E+00
        -11   -1    0    0    0    0  0.00000000000E+00  0.00000000000E+00  0.45593999997E+02  0.45594000000E+02  0.51100000000E-03 0.  1.
         11   -1    0    0    0    0 -0.00000000000E+00 -0.00000000000E+00 -0.45593999997E+02  0.45594000000E+02  0.51100000000E-03 0. -1.
    9900012    2    1    2    0    0 -0.23460737200E+02  0.15551314962E+01 -0.21538265221E+02  0.59301929488E+02  0.49999973484E+02 0.  0.
        -12    1    1    2    0    0  0.23460737200E+02 -0.15551314962E+01  0.21538265221E+02  0.31886070512E+02  0.00000000000E+00 0.  1.
         11    1    3    3    0    0 -0.11428591775E+02 -0.51754683560E+01 -0.70686833754E+01  0.14400155124E+02  0.51100000000E-03 0. -1.
        -11    1    3    3    0    0 -0.24018178908E+02 -0.58905758195E+01 -0.55559003438E+01  0.25346396794E+02  0.51100000000E-03 0.  1.
        -12    1    3    3    0    0  0.11986033483E+02  0.12621175672E+02 -0.89136815020E+01  0.19555377570E+02  0.00000000000E+00 0.  1.
</event>
<event>
 7    1  0.1327607E-011  0.5930194E+02  0.7816164E-02  0.1266605E+00
        -11   -1    0    0    0    0  0.00000000000E+00  0.00000000000E+00  0.45593999997E+02  0.45594000000E+02  0.51100000000E-03 0. -1.
         11   -1    0    0    0    0 -0.00000000000E+00 -0.00000000000E+00 -0.45593999997E+02  0.45594000000E+02  0.51100000000E-03 0.  1.
    9900012    2    1    2    0    0  0.15036645002E+02 -0.23147449464E+02  0.15962952254E+02  0.59301937931E+02  0.49999988881E+02 0.  0.
        -12    1    1    2    0    0 -0.15036645002E+02  0.23147449464E+02 -0.15962952254E+02  0.31886062069E+02  0.00000000000E+00 0.  1.
         11    1    3    3    0    0  0.11121382290E+02 -0.68725779112E+01  0.87739190624E+01  0.15744812706E+02  0.51100000000E-03 0. -1.
        -11    1    3    3    0    0  0.17743649584E+01 -0.25731503040E+02  0.16086128052E+02  0.30397732411E+02  0.51100000000E-03 0.  1.
        -12    1    3    3    0    0  0.21408977536E+01  0.94566314876E+01 -0.88970948606E+01  0.13159392814E+02  0.00000000000E+00 0.  1.
</event>
<event>
 7    1  0.1327607E-011  0.5930196E+02  0.7816164E-02  0.1266605E+00
        -11   -1    0    0    0    0  0.00000000000E+00  0.00000000000E+00  0.45593999997E+02  0.45594000000E+02  0.51100000000E-03 0.  1.
         11   -1    0    0    0    0 -0.00000000000E+00 -0.00000000000E+00 -0.45593999997E+02  0.45594000000E+02  0.51100000000E-03 0. -1.
    9900012    2    1    2    0    0  0.65882427306E+01  0.17780313749E+02 -0.25635422638E+02  0.59301962412E+02  0.50000033528E+02 0.  0.
        -12    1    1    2    0    0 -0.65882427306E+01 -0.17780313749E+02  0.25635422638E+02  0.31886037588E+02  0.00000000000E+00 0.  1.
         11    1    3    3    0    0  0.77427670817E+01 -0.29313535720E+01 -0.86132597606E+01  0.11947029748E+02  0.51100000000E-03 0. -1.
        -11    1    3    3    0    0  0.13523934298E+02  0.62015119270E+01  0.63477116803E+01  0.16175567777E+02  0.51100000000E-03 0.  1.
         12    1    3    3    0    0 -0.14678458649E+02  0.14510155394E+02 -0.23369874557E+02  0.31179364886E+02  0.00000000000E+00 0. -1.
</event>
<event>
 7    1  0.1327607E-011  0.5930193E+02  0.7816164E-02  0.1266605E+00
        -11   -1    0    0    0    0  0.00000000000E+00  0.00000000000E+00  0.45593999997E+02  0.45594000000E+02  0.51100000000E-03 0. -1.
         11   -1    0    0    0    0 -0.00000000000E+00 -0.00000000000E+00 -0.45593999997E+02  0.45594000000E+02  0.51100000000E-03 0.  1.
    9900012    2    1    2    0    0  0.13320427564E+01  0.31776992731E+02  0.22736688789E+01  0.59301934468E+02  0.49999982565E+02 0.  0.
        -12    1    1    2    0    0 -0.13320427564E+01 -0.31776992731E+02 -0.22736688789E+01  0.31886065532E+02  0.00000000000E+00 0.  1.
         11    1    3    3    0    0 -0.11274861580E+02  0.15364310697E+01 -0.21183844699E+01  0.11574570277E+02  0.51100000000E-03 0. -1.
        -11    1    3    3    0    0  0.13120224676E+02  0.24391776305E+01 -0.97540625645E+01  0.16529719291E+02  0.51100000000E-03 0.  1.
        -12    1    3    3    0    0 -0.51332033976E+00  0.27801384031E+02  0.14146115913E+02  0.31197644899E+02  0.00000000000E+00 0.  1.
</event>
<event>
 7    1  0.1327607E-011  0.5930194E+02  0.7816164E-02  0.1266605E+00
        -11   -1    0    0    0    0  0.00000000000E+00  0.00000000000E+00  0.45593999997E+02  0.45594000000E+02  0.51100000000E-03 0. -1.
         11   -1    0    0    0    0 -0.00000000000E+00 -0.00000000000E+00 -0.45593999997E+02  0.45594000000E+02  0.51100000000E-03 0.  1.
    9900012    2    1    2    0    0 -0.13065349596E+02  0.12774850304E+02  0.26130831517E+02  0.59301944801E+02  0.50000001411E+02 0.  0.
        -12    1    1    2    0    0  0.13065349596E+02 -0.12774850304E+02 -0.26130831517E+02  0.31886055199E+02  0.00000000000E+00 0.  1.
         11    1    3    3    0    0 -0.18346257662E+02  0.41134404260E+01  0.23838948275E+02  0.30361176154E+02  0.51100000000E-03 0. -1.
        -11    1    3    3    0    0 -0.78777236749E+01 -0.34875474431E+01  0.61946096063E+01  0.10611065258E+02  0.51100000000E-03 0.  1.
        -12    1    3    3    0    0  0.13158631740E+02  0.12148957321E+02 -0.39027263650E+01  0.18329703390E+02  0.00000000000E+00 0.  1.
</event>
<event>
 7    1  0.1327607E-011  0.5930195E+02  0.7816164E-02  0.1266605E+00
        -11   -1    0    0    0    0  0.00000000000E+00  0.00000000000E+00  0.45593999997E+02  0.45594000000E+02  0.51100000000E-03 0.  1.
         11   -1    0    0    0    0 -0.00000000000E+00 -0.00000000000E+00 -0.45593999997E+02  0.45594000000E+02  0.51100000000E-03 0. -1.
    9900012    2    1    2    0    0  0.22322279473E+02  0.19186275914E+02 -0.12260628713E+02  0.59301947238E+02  0.50000005854E+02 0.  0.
        -12    1    1    2    0    0 -0.22322279473E+02 -0.19186275914E+02  0.12260628713E+02  0.31886052762E+02  0.00000000000E+00 0.  1.
         11    1    3    3    0    0  0.14705679112E+01  0.65047428153E+01 -0.15290316946E+02  0.16681368098E+02  0.51100000000E-03 0. -1.
        -11    1    3    3    0    0 -0.49669351379E+01  0.22348531490E+01 -0.10369647425E+02  0.11713009913E+02  0.51100000000E-03 0.  1.
        -12    1    3    3    0    0  0.25818646700E+02  0.10446679949E+02  0.13399335657E+02  0.30907569226E+02  0.00000000000E+00 0.  1.
</event>
<event>
 7    1  0.1327607E-011  0.5930196E+02  0.7816164E-02  0.1266605E+00
        -11   -1    0    0    0    0  0.00000000000E+00  0.00000000000E+00  0.45593999997E+02  0.45594000000E+02  0.51100000000E-03 0.  1.
         11   -1    0    0    0    0 -0.00000000000E+00 -0.00000000000E+00 -0.45593999997E+02  0.45594000000E+02  0.51100000000E-03 0. -1.
    9900012    2    1    2    0    0 -0.12437494520E+02  0.23667468143E+02 -0.17374680811E+02  0.59301955223E+02  0.50000020418E+02 0.  0.
        -12    1    1    2    0    0  0.12437494520E+02 -0.23667468143E+02  0.17374680811E+02  0.31886044777E+02  0.00000000000E+00 0.  1.
         11    1    3    3    0    0  0.46208518667E+01  0.12258026441E+02  0.65934883245E+01  0.14665796015E+02  0.51100000000E-03 0. -1.
        -11    1    3    3    0    0 -0.11046492664E+02  0.34974948268E+01  0.60108071222E+01  0.13053247594E+02  0.51100000000E-03 0.  1.
         12    1    3    3    0    0 -0.60118537227E+01  0.79119468748E+01 -0.29978976258E+02  0.31582911614E+02  0.00000000000E+00 0. -1.
</event>
<event>
 7    1  0.1327607E-011  0.5930195E+02  0.7816164E-02  0.1266605E+00
        -11   -1    0    0    0    0  0.00000000000E+00  0.00000000000E+00  0.45593999997E+02  0.45594000000E+02  0.51100000000E-03 0.  1.
         11   -1    0    0    0    0 -0.00000000000E+00 -0.00000000000E+00 -0.45593999997E+02  0.45594000000E+02  0.51100000000E-03 0. -1.
    9900012    2    1    2    0    0  0.18073785840E+02  0.97119136246E+01 -0.24407723037E+02  0.59301953762E+02  0.50000017752E+02 0.  0.
        -12    1    1    2    0    0 -0.18073785840E+02 -0.97119136246E+01  0.24407723037E+02  0.31886046238E+02  0.00000000000E+00 0.  1.
         11    1    3    3    0    0  0.23766179236E+02 -0.14773201697E+02 -0.13601565251E+02  0.31114005550E+02  0.51100000000E-03 0. -1.
        -11    1    3    3    0    0 -0.42464738099E+00  0.13990175474E+00  0.63563200632E+00  0.77712689295E+00  0.51100000000E-03 0.  1.
         12    1    3    3    0    0 -0.52677460149E+01  0.24345213567E+02 -0.11441789793E+02  0.27410821318E+02  0.00000000000E+00 0. -1.
</event>
<event>
 7    1  0.1327607E-011  0.5930197E+02  0.7816164E-02  0.1266605E+00
        -11   -1    0    0    0    0  0.00000000000E+00  0.00000000000E+00  0.45593999997E+02  0.45594000000E+02  0.51100000000E-03 0. -1.
         11   -1    0    0    0    0 -0.00000000000E+00 -0.00000000000E+00 -0.45593999997E+02  0.45594000000E+02  0.51100000000E-03 0.  1.
    9900012    2    1    2    0    0 -0.20418756570E+02 -0.30177423637E+01  0.24304044399E+02  0.59301969155E+02  0.50000045827E+02 0.  0.
        -12    1    1    2    0    0  0.20418756570E+02  0.30177423637E+01 -0.24304044399E+02  0.31886030845E+02  0.00000000000E+00 0.  1.
         11    1    3    3    0    0 -0.53971070164E+01  0.96879386420E+01  0.71888592820E+00  0.11113132615E+02  0.51100000000E-03 0. -1.
        -11    1    3    3    0    0 -0.49783078126E+01 -0.11065333439E+02 -0.83120270906E+01  0.14707649282E+02  0.51100000000E-03 0.  1.
         12    1    3    3    0    0 -0.10043341741E+02 -0.16403475671E+01  0.31897185562E+02  0.33481187259E+02  0.00000000000E+00 0. -1.
</event>
<event>
 7    1  0.1327607E-011  0.5930195E+02  0.7816164E-02  0.1266605E+00
        -11   -1    0    0    0    0  0.00000000000E+00  0.00000000000E+00  0.45593999997E+02  0.45594000000E+02  0.51100000000E-03 0.  1.
         11   -1    0    0    0    0 -0.00000000000E+00 -0.00000000000E+00 -0.45593999997E+02  0.45594000000E+02  0.51100000000E-03 0. -1.
    9900012    2    1    2    0    0  0.11571297376E+02  0.76806664218E+01 -0.28702487225E+02  0.59301947680E+02  0.50000006661E+02 0.  0.
        -12    1    1    2    0    0 -0.11571297376E+02 -0.76806664218E+01  0.28702487225E+02  0.31886052320E+02  0.00000000000E+00 0.  1.
         11    1    3    3    0    0 -0.21838997204E+01 -0.91140337389E+01  0.50343619284E+01  0.10638600908E+02  0.51100000000E-03 0. -1.
        -11    1    3    3    0    0  0.15972775415E+01 -0.28338269602E+01  0.35447773928E+01  0.48111659513E+01  0.51100000000E-03 0.  1.
         12    1    3    3    0    0  0.12157919555E+02  0.19628527121E+02 -0.37281626546E+02  0.43852180821E+02  0.00000000000E+00 0. -1.
</event>
<event>
 7    1  0.1327607E-011  0.5930190E+02  0.7816164E-02  0.1266605E+00
        -11   -1    0    0    0    0  0.00000000000E+00  0.00000000000E+00  0.45593999997E+02  0.45594000000E+02  0.51100000000E-03 0.  1.
         11   -1    0    0    0    0 -0.00000000000E+00 -0.00000000000E+00 -0.45593999997E+02  0.45594000000E+02  0.51100000000E-03 0. -1.
    9900012    2    1    2    0    0 -0.10558952824E+02 -0.10167034016E+02 -0.28317187946E+02  0.59301902738E+02  0.49999924697E+02 0.  0.
        -12    1    1    2    0    0  0.10558952824E+02  0.10167034016E+02  0.28317187946E+02  0.31886097262E+02  0.00000000000E+00 0.  1.
         11    1    3    3    0    0 -0.83934467094E+01 -0.19007127582E+02 -0.18228700937E+02  0.27640665417E+02  0.51100000000E-03 0. -1.
        -11    1    3    3    0    0  0.82617327523E+01 -0.55254275810E+01 -0.97266385019E+01  0.13906619821E+02  0.51100000000E-03 0.  1.
        -12    1    3    3    0    0 -0.10427238867E+02  0.14365521148E+02 -0.36184850772E+00  0.17754617500E+02  0.00000000000E+00 0.  1.
</event>
<event>
 7    1  0.1327607E-011  0.5930193E+02  0.7816164E-02  0.1266605E+00
        -11   -1    0    0    0    0  0.00000000000E+00  0.00000000000E+00  0.45593999997E+02  0.45594000000E+02  0.51100000000E-03 0. -1.
         11   -1    0    0    0    0 -0.00000000000E+00 -0.00000000000E+00 -0.45593999997E+02  0.45594000000E+02  0.51100000000E-03 0.  1.
    9900012    2    1    2    0    0 -0.20823685510E+02 -0.21821887589E+02  0.10339293419E+02  0.59301927106E+02  0.49999969139E+02 0.  0.
        -12    1    1    2    0    0  0.20823685510E+02  0.21821887589E+02 -0.10339293419E+02  0.31886072894E+02  0.00000000000E+00 0.  1.
         11    1    3    3    0    0 -0.84178725004E+00 -0.32838410497E-01  0.16280033406E+02  0.16301814994E+02  0.51100000000E-03 0. -1.
        -11    1    3    3    0    0 -0.38596415030E+01  0.76939631529E+01 -0.35528384576E+01  0.93121728344E+01  0.51100000000E-03 0.  1.
        -12    1    3    3    0    0 -0.16122256757E+02 -0.29483012331E+02 -0.23879015289E+01  0.33687939278E+02  0.00000000000E+00 0.  1.
</event>
<event>
 7    1  0.1327607E-011  0.5930195E+02  0.7816164E-02  0.1266605E+00
        -11   -1    0    0    0    0  0.00000000000E+00  0.00000000000E+00  0.45593999997E+02  0.45594000000E+02  0.51100000000E-03 0.  1.
         11   -1    0    0    0    0 -0.00000000000E+00 -0.00000000000E+00 -0.45593999997E+02  0.45594000000E+02  0.51100000000E-03 0. -1.
    9900012    2    1    2    0    0 -0.78141032547E+01  0.36067330525E+01 -0.30702626319E+02  0.59301952959E+02  0.50000016289E+02 0.  0.
        -12    1    1    2    0    0  0.78141032547E+01 -0.36067330525E+01  0.30702626319E+02  0.31886047041E+02  0.00000000000E+00 0.  1.
         11    1    3    3    0    0 -0.95923167808E+01  0.88659880404E+01 -0.92932652514E+01  0.16030691328E+02  0.51100000000E-03 0. -1.
        -11    1    3    3    0    0  0.56790780413E+01  0.14218470621E+02 -0.18991629516E+01  0.15428015244E+02  0.51100000000E-03 0.  1.
        -12    1    3    3    0    0 -0.39008645151E+01 -0.19477725609E+02 -0.19510198116E+02  0.27843246387E+02  0.00000000000E+00 0.  1.
</event>
<event>
 7    1  0.1327607E-011  0.5930183E+02  0.7816164E-02  0.1266605E+00
        -11   -1    0    0    0    0  0.00000000000E+00  0.00000000000E+00  0.45593999997E+02  0.45594000000E+02  0.51100000000E-03 0.  1.
         11   -1    0    0    0    0 -0.00000000000E+00 -0.00000000000E+00 -0.45593999997E+02  0.45594000000E+02  0.51100000000E-03 0. -1.
    9900012    2    1    2    0    0  0.12201706290E+02  0.23683872385E+02 -0.17519147941E+02  0.59301827572E+02  0.49999787613E+02 0.  0.
        -12    1    1    2    0    0 -0.12201706290E+02 -0.23683872385E+02  0.17519147941E+02  0.31886172428E+02  0.00000000000E+00 0.  1.
         11    1    3    3    0    0  0.19602145981E+02  0.27288295870E+02  0.30743471641E+01  0.33739395805E+02  0.51100000000E-03 0. -1.
        -11    1    3    3    0    0 -0.12016598075E+01  0.42920755388E+01 -0.10102777077E+02  0.11042282539E+02  0.51100000000E-03 0.  1.
        -12    1    3    3    0    0 -0.61987798842E+01 -0.78964990238E+01 -0.10490718028E+02  0.14520149229E+02  0.00000000000E+00 0.  1.
</event>
<event>
 7    1  0.1327607E-011  0.5930211E+02  0.7816164E-02  0.1266604E+00
        -11   -1    0    0    0    0  0.00000000000E+00  0.00000000000E+00  0.45593999997E+02  0.45594000000E+02  0.51100000000E-03 0.  1.
         11   -1    0    0    0    0 -0.00000000000E+00 -0.00000000000E+00 -0.45593999997E+02  0.45594000000E+02  0.51100000000E-03 0. -1.
    9900012    2    1    2    0    0  0.92596814282E+00  0.22061399078E+02 -0.23003206588E+02  0.59302105633E+02  0.50000294728E+02 0.  0.
        -12    1    1    2    0    0 -0.92596814282E+00 -0.22061399078E+02  0.23003206588E+02  0.31885894367E+02  0.00000000000E+00 0.  1.
         11    1    3    3    0    0 -0.77655030818E+01  0.18776327698E+02 -0.29991604109E+02  0.36226369363E+02  0.51100000000E-03 0. -1.
        -11    1    3    3    0    0 -0.46877633481E+01  0.20412358854E+01  0.81152788166E+01  0.95916380082E+01  0.51100000000E-03 0.  1.
        -12    1    3    3    0    0  0.13379234573E+02  0.12438354945E+01 -0.11268812957E+01  0.13484098262E+02  0.00000000000E+00 0.  1.
</event>
<event>
 7    1  0.1327607E-011  0.5930196E+02  0.7816164E-02  0.1266605E+00
        -11   -1    0    0    0    0  0.00000000000E+00  0.00000000000E+00  0.45593999997E+02  0.45594000000E+02  0.51100000000E-03 0. -1.
         11   -1    0    0    0    0 -0.00000000000E+00 -0.00000000000E+00 -0.45593999997E+02  0.45594000000E+02  0.51100000000E-03 0.  1.
    9900012    2    1    2    0    0 -0.68930690790E+01 -0.17836377924E+02  0.25516051603E+02  0.59301958097E+02  0.50000025660E+02 0.  0.
        -12    1    1    2    0    0  0.68930690790E+01  0.17836377924E+02 -0.25516051603E+02  0.31886041903E+02  0.00000000000E+00 0.  1.
         11    1    3    3    0    0 -0.19650088010E+00  0.22540776757E+01 -0.22462461006E+01  0.31882754852E+01  0.51100000000E-03 0.  1.
        -11    1    3    3    0    0  0.51117468164E+01  0.94238687048E+01 -0.37448578107E+01  0.11356197302E+02  0.51100000000E-03 0. -1.
         12    1    3    3    0    0 -0.11808315015E+02 -0.29514324305E+02  0.31507155515E+02  0.44757485310E+02  0.00000000000E+00 0. -1.
</event>
<event>
 7    1  0.1327607E-011  0.5930196E+02  0.7816164E-02  0.1266605E+00
        -11   -1    0    0    0    0  0.00000000000E+00  0.00000000000E+00  0.45593999997E+02  0.45594000000E+02  0.51100000000E-03 0. -1.
         11   -1    0    0    0    0 -0.00000000000E+00 -0.00000000000E+00 -0.45593999997E+02  0.45594000000E+02  0.51100000000E-03 0.  1.
    9900012    2    1    2    0    0 -0.19272172081E+02  0.23637693736E+02  0.93038764756E+01  0.59301963881E+02  0.50000036208E+02 0.  0.
        -12    1    1    2    0    0  0.19272172081E+02 -0.23637693736E+02 -0.93038764756E+01  0.31886036119E+02  0.00000000000E+00 0.  1.
         11    1    3    3    0    0  0.12923896886E+01 -0.14429465388E+01  0.16238282505E+02  0.16353415081E+02  0.51100000000E-03 0. -1.
        -11    1    3    3    0    0 -0.28228497036E+01 -0.55230218422E+01 -0.41537292983E+01  0.74649660457E+01  0.51100000000E-03 0.  1.
         12    1    3    3    0    0 -0.17741712066E+02  0.30603662117E+02 -0.27806767312E+01  0.35483582755E+02  0.00000000000E+00 0. -1.
</event>
<event>
 7    1  0.1327607E-011  0.5930194E+02  0.7816164E-02  0.1266605E+00
        -11   -1    0    0    0    0  0.00000000000E+00  0.00000000000E+00  0.45593999997E+02  0.45594000000E+02  0.51100000000E-03 0.  1.
         11   -1    0    0    0    0 -0.00000000000E+00 -0.00000000000E+00 -0.45593999997E+02  0.45594000000E+02  0.51100000000E-03 0. -1.
    9900012    2    1    2    0    0  0.11313951676E+02 -0.22582544608E+02 -0.19461346072E+02  0.59301940124E+02  0.49999992880E+02 0.  0.
        -12    1    1    2    0    0 -0.11313951676E+02  0.22582544608E+02  0.19461346072E+02  0.31886059876E+02  0.00000000000E+00 0.  1.
         11    1    3    3    0    0  0.37817272610E+01 -0.54618530618E+00 -0.20090379301E+02  0.20450504155E+02  0.51100000000E-03 0. -1.
        -11    1    3    3    0    0  0.44160487261E+01 -0.24277746325E+02 -0.10695292436E+02  0.26894232346E+02  0.51100000000E-03 0.  1.
        -12    1    3    3    0    0  0.31161756887E+01  0.22413870223E+01  0.11324325665E+02  0.11957203623E+02  0.00000000000E+00 0.  1.
</event>
<event>
 7    1  0.1327607E-011  0.5930192E+02  0.7816164E-02  0.1266605E+00
        -11   -1    0    0    0    0  0.00000000000E+00  0.00000000000E+00  0.45593999997E+02  0.45594000000E+02  0.51100000000E-03 0.  1.
         11   -1    0    0    0    0 -0.00000000000E+00 -0.00000000000E+00 -0.45593999997E+02  0.45594000000E+02  0.51100000000E-03 0. -1.
    9900012    2    1    2    0    0  0.61930956923E+01  0.14106576510E+02 -0.27917239506E+02  0.59301918448E+02  0.49999953349E+02 0.  0.
        -12    1    1    2    0    0 -0.61930956923E+01 -0.14106576510E+02  0.27917239506E+02  0.31886081552E+02  0.00000000000E+00 0.  1.
         11    1    3    3    0    0  0.83174138434E+01 -0.44983332886E+01 -0.27821454334E+02  0.29384480545E+02  0.51100000000E-03 0. -1.
        -11    1    3    3    0    0 -0.49192564150E+01  0.60989113014E+01 -0.10715304591E+02  0.13274545396E+02  0.51100000000E-03 0.  1.
        -12    1    3    3    0    0  0.27949382639E+01  0.12505998497E+02  0.10619519418E+02  0.16642892507E+02  0.00000000000E+00 0.  1.
</event>
<event>
 7    1  0.1327607E-011  0.5930193E+02  0.7816164E-02  0.1266605E+00
        -11   -1    0    0    0    0  0.00000000000E+00  0.00000000000E+00  0.45593999997E+02  0.45594000000E+02  0.51100000000E-03 0.  1.
         11   -1    0    0    0    0 -0.00000000000E+00 -0.00000000000E+00 -0.45593999997E+02  0.45594000000E+02  0.51100000000E-03 0. -1.
    9900012    2    1    2    0    0 -0.86868082724E+01  0.17324769668E+02 -0.25320212986E+02  0.59301929880E+02  0.49999974198E+02 0.  0.
        -12    1    1    2    0    0  0.86868082724E+01 -0.17324769668E+02  0.25320212986E+02  0.31886070120E+02  0.00000000000E+00 0.  1.
         11    1    3    3    0    0 -0.10459495114E+02  0.16602070960E+02 -0.15865136771E+02  0.25233556294E+02  0.51100000000E-03 0. -1.
        -11    1    3    3    0    0 -0.91924128726E+01 -0.63854477446E+01 -0.15942481166E+02  0.19479145343E+02  0.51100000000E-03 0.  1.
        -12    1    3    3    0    0  0.10965099714E+02  0.71081464531E+01  0.64874049506E+01  0.14589228243E+02  0.00000000000E+00 0.  1.
</event>
<event>
 7    1  0.1327607E-011  0.5930197E+02  0.7816164E-02  0.1266605E+00
        -11   -1    0    0    0    0  0.00000000000E+00  0.00000000000E+00  0.45593999997E+02  0.45594000000E+02  0.51100000000E-03 0.  1.
         11   -1    0    0    0    0 -0.00000000000E+00 -0.00000000000E+00 -0.45593999997E+02  0.45594000000E+02  0.51100000000E-03 0. -1.
    9900012    2    1    2    0    0  0.25350482311E+02 -0.17256419090E+02 -0.87343096978E+01  0.59301966708E+02  0.50000041363E+02 0.  0.
        -12    1    1    2    0    0 -0.25350482311E+02  0.17256419090E+02  0.87343096978E+01  0.31886033292E+02  0.00000000000E+00 0.  1.
         11    1    3    3    0    0  0.45738619910E+01  0.70815182695E+01 -0.49604763642E+01  0.97813312251E+01  0.51100000000E-03 0. -1.
        -11    1    3    3    0    0  0.18452846504E+00 -0.58567585452E+01  0.14986301972E+02  0.16091144101E+02  0.51100000000E-03 0.  1.
         12    1    3    3    0    0  0.20592091855E+02 -0.18481178815E+02 -0.18760135306E+02  0.33429491382E+02  0.00000000000E+00 0. -1.
</event>
<event>
 7    1  0.1327607E-011  0.5930192E+02  0.7816164E-02  0.1266605E+00
        -11   -1    0    0    0    0  0.00000000000E+00  0.00000000000E+00  0.45593999997E+02  0.45594000000E+02  0.51100000000E-03 0. -1.
         11   -1    0    0    0    0 -0.00000000000E+00 -0.00000000000E+00 -0.45593999997E+02  0.45594000000E+02  0.51100000000E-03 0.  1.
    9900012    2    1    2    0    0 -0.12978096615E+02  0.58059165395E+01  0.28540885419E+02  0.59301924683E+02  0.49999964720E+02 0.  0.
        -12    1    1    2    0    0  0.12978096615E+02 -0.58059165395E+01 -0.28540885419E+02  0.31886075317E+02  0.00000000000E+00 0.  1.
         11    1    3    3    0    0 -0.27426989566E+02  0.12283074864E+01  0.13964383471E+02  0.30801826276E+02  0.51100000000E-03 0. -1.
        -11    1    3    3    0    0  0.56829603973E+01  0.11331369777E+02  0.11240118226E+02  0.16942143840E+02  0.51100000000E-03 0.  1.
        -12    1    3    3    0    0  0.87659325538E+01 -0.67537607234E+01  0.33363837216E+01  0.11557954568E+02  0.00000000000E+00 0.  1.
</event>
<event>
 7    1  0.1327607E-011  0.5930197E+02  0.7816164E-02  0.1266605E+00
        -11   -1    0    0    0    0  0.00000000000E+00  0.00000000000E+00  0.45593999997E+02  0.45594000000E+02  0.51100000000E-03 0. -1.
         11   -1    0    0    0    0 -0.00000000000E+00 -0.00000000000E+00 -0.45593999997E+02  0.45594000000E+02  0.51100000000E-03 0.  1.
    9900012    2    1    2    0    0  0.10015266969E+02  0.95475584875E+01  0.28727299302E+02  0.59301965899E+02  0.50000039888E+02 0.  0.
        -12    1    1    2    0    0 -0.10015266969E+02 -0.95475584875E+01 -0.28727299302E+02  0.31886034101E+02  0.00000000000E+00 0.  1.
         11    1    3    3    0    0 -0.61110883893E+01  0.38504919504E+01 -0.94876502876E+01  0.11924227346E+02  0.51100000000E-03 0.  1.
        -11    1    3    3    0    0  0.18664878992E+02  0.53663916266E+01  0.16417555140E+02  0.25430532514E+02  0.51100000000E-03 0. -1.
        -12    1    3    3    0    0 -0.25385236344E+01  0.33067491048E+00  0.21797394449E+02  0.21947206039E+02  0.00000000000E+00 0.  1.
</event>
<event>
 7    1  0.1327607E-011  0.5930200E+02  0.7816164E-02  0.1266605E+00
        -11   -1    0    0    0    0  0.00000000000E+00  0.00000000000E+00  0.45593999997E+02  0.45594000000E+02  0.51100000000E-03 0.  1.
         11   -1    0    0    0    0 -0.00000000000E+00 -0.00000000000E+00 -0.45593999997E+02  0.45594000000E+02  0.51100000000E-03 0. -1.
    9900012    2    1    2    0    0  0.24127921553E+02  0.43006682698E+01 -0.20397661650E+02  0.59302000771E+02  0.50000103486E+02 0.  0.
        -12    1    1    2    0    0 -0.24127921553E+02 -0.43006682698E+01  0.20397661650E+02  0.31885999229E+02  0.00000000000E+00 0.  1.
         11    1    3    3    0    0  0.22205032234E+01  0.11952012835E+02 -0.23214403689E+02  0.26204766442E+02  0.51100000000E-03 0. -1.
        -11    1    3    3    0    0  0.44987533122E+01  0.38244436246E+00 -0.93546221857E+01  0.10387203741E+02  0.51100000000E-03 0.  1.
        -12    1    3    3    0    0  0.17408665018E+02 -0.80337889274E+01  0.12171364225E+02  0.22710030588E+02  0.00000000000E+00 0.  1.
</event>
<event>
 7    1  0.1327607E-011  0.5930194E+02  0.7816164E-02  0.1266605E+00
        -11   -1    0    0    0    0  0.00000000000E+00  0.00000000000E+00  0.45593999997E+02  0.45594000000E+02  0.51100000000E-03 0.  1.
         11   -1    0    0    0    0 -0.00000000000E+00 -0.00000000000E+00 -0.45593999997E+02  0.45594000000E+02  0.51100000000E-03 0. -1.
    9900012    2    1    2    0    0  0.14660815012E+02 -0.26367230011E+02 -0.10322345760E+02  0.59301935061E+02  0.49999983648E+02 0.  0.
        -12    1    1    2    0    0 -0.14660815012E+02  0.26367230011E+02  0.10322345760E+02  0.31886064939E+02  0.00000000000E+00 0.  1.
         11    1    3    3    0    0  0.22160162542E+02 -0.91537365276E+01 -0.15559947014E+02  0.28582785863E+02  0.51100000000E-03 0. -1.
        -11    1    3    3    0    0  0.85072265205E+01 -0.40982325677E+01  0.31468002081E+00  0.94481446341E+01  0.51100000000E-03 0.  1.
        -12    1    3    3    0    0 -0.16006574051E+02 -0.13115260916E+02  0.49229212333E+01  0.21271004565E+02  0.00000000000E+00 0.  1.
</event>
<event>
 7    1  0.1327607E-011  0.5930197E+02  0.7816164E-02  0.1266605E+00
        -11   -1    0    0    0    0  0.00000000000E+00  0.00000000000E+00  0.45593999997E+02  0.45594000000E+02  0.51100000000E-03 0.  1.
         11   -1    0    0    0    0 -0.00000000000E+00 -0.00000000000E+00 -0.45593999997E+02  0.45594000000E+02  0.51100000000E-03 0. -1.
    9900012    2    1    2    0    0 -0.13268129921E+01  0.21969282724E+02 -0.23071828721E+02  0.59301967060E+02  0.50000042005E+02 0.  0.
        -12    1    1    2    0    0  0.13268129921E+01 -0.21969282724E+02  0.23071828721E+02  0.31886032940E+02  0.00000000000E+00 0.  1.
         11    1    3    3    0    0 -0.47295279545E+01  0.43640741387E+01 -0.13488779904E+02  0.14945258824E+02  0.51100000000E-03 0. -1.
        -11    1    3    3    0    0  0.15435250807E+01  0.30325746702E+02 -0.54288450236E+01  0.30846486692E+02  0.51100000000E-03 0.  1.
         12    1    3    3    0    0  0.18591898816E+01 -0.12720538117E+02 -0.41542037934E+01  0.13510221543E+02  0.00000000000E+00 0. -1.
</event>
<event>
 7    1  0.1327607E-011  0.5930188E+02  0.7816164E-02  0.1266605E+00
        -11   -1    0    0    0    0  0.00000000000E+00  0.00000000000E+00  0.45593999997E+02  0.45594000000E+02  0.51100000000E-03 0.  1.
         11   -1    0    0    0    0 -0.00000000000E+00 -0.00000000000E+00 -0.45593999997E+02  0.45594000000E+02  0.51100000000E-03 0. -1.
    9900012    2    1    2    0    0 -0.25676527901E+02 -0.18721226500E+02 -0.26374866256E+01  0.59301878530E+02  0.49999880547E+02 0.  0.
        -12    1    1    2    0    0  0.25676527901E+02  0.18721226500E+02  0.26374866256E+01  0.31886121470E+02  0.00000000000E+00 0.  1.
         11    1    3    3    0    0  0.65356872234E+01 -0.20574095311E+02 -0.50976506807E+01  0.22180952371E+02  0.51100000000E-03 0. -1.
        -11    1    3    3    0    0 -0.15936172567E+02 -0.53733145328E+01 -0.53886799554E+01  0.17659897426E+02  0.51100000000E-03 0.  1.
        -12    1    3    3    0    0 -0.16276042557E+02  0.72261833440E+01  0.78488440106E+01  0.19461028733E+02  0.00000000000E+00 0.  1.
</event>
<event>
 7    1  0.1327607E-011  0.5930195E+02  0.7816164E-02  0.1266605E+00
        -11   -1    0    0    0    0  0.00000000000E+00  0.00000000000E+00  0.45593999997E+02  0.45594000000E+02  0.51100000000E-03 0.  1.
         11   -1    0    0    0    0 -0.00000000000E+00 -0.00000000000E+00 -0.45593999997E+02  0.45594000000E+02  0.51100000000E-03 0. -1.
    9900012    2    1    2    0    0 -0.12707706364E+02 -0.29003074398E+02  0.37491179065E+01  0.59301952728E+02  0.50000015867E+02 0.  0.
        -12    1    1    2    0    0  0.12707706364E+02  0.29003074398E+02 -0.37491179065E+01  0.31886047272E+02  0.00000000000E+00 0.  1.
         11    1    3    3    0    0 -0.75297070218E+01 -0.44712361963E+01 -0.44348793151E+01  0.98161395547E+01  0.51100000000E-03 0. -1.
        -11    1    3    3    0    0 -0.11063366914E+02  0.90074421309E+01  0.56342837781E+01  0.15338750118E+02  0.51100000000E-03 0.  1.
        -12    1    3    3    0    0  0.58853675718E+01 -0.33539280332E+02  0.25497134435E+01  0.34147063055E+02  0.00000000000E+00 0.  1.
</event>
<event>
 7    1  0.1327607E-011  0.5930187E+02  0.7816164E-02  0.1266605E+00
        -11   -1    0    0    0    0  0.00000000000E+00  0.00000000000E+00  0.45593999997E+02  0.45594000000E+02  0.51100000000E-03 0.  1.
         11   -1    0    0    0    0 -0.00000000000E+00 -0.00000000000E+00 -0.45593999997E+02  0.45594000000E+02  0.51100000000E-03 0. -1.
    9900012    2    1    2    0    0  0.25932364591E+02  0.93193187475E+01 -0.16043319149E+02  0.59301869402E+02  0.49999863900E+02 0.  0.
        -12    1    1    2    0    0 -0.25932364591E+02 -0.93193187475E+01  0.16043319149E+02  0.31886130598E+02  0.00000000000E+00 0.  1.
         11    1    3    3    0    0  0.92288302492E+01 -0.97873140950E+01 -0.21662738141E+02  0.25499746057E+02  0.51100000000E-03 0. -1.
        -11    1    3    3    0    0  0.31638975936E+01 -0.61834294854E+00  0.90735830025E+01  0.96292525540E+01  0.51100000000E-03 0.  1.
        -12    1    3    3    0    0  0.13539636748E+02  0.19724975791E+02 -0.34541640107E+01  0.24172870790E+02  0.00000000000E+00 0.  1.
</event>
<event>
 7    1  0.1327607E-011  0.5930193E+02  0.7816164E-02  0.1266605E+00
        -11   -1    0    0    0    0  0.00000000000E+00  0.00000000000E+00  0.45593999997E+02  0.45594000000E+02  0.51100000000E-03 0. -1.
         11   -1    0    0    0    0 -0.00000000000E+00 -0.00000000000E+00 -0.45593999997E+02  0.45594000000E+02  0.51100000000E-03 0.  1.
    9900012    2    1    2    0    0  0.14910700259E+02 -0.60524977118E+01  0.27527430959E+02  0.59301934611E+02  0.49999982827E+02 0.  0.
        -12    1    1    2    0    0 -0.14910700259E+02  0.60524977118E+01 -0.27527430959E+02  0.31886065389E+02  0.00000000000E+00 0.  1.
         11    1    3    3    0    0  0.10150381402E+00 -0.30705755755E+00  0.18872789914E+02  0.18875560568E+02  0.51100000000E-03 0. -1.
        -11    1    3    3    0    0  0.20828519135E+00 -0.23523079286E+01  0.20923075464E+02  0.21055921316E+02  0.51100000000E-03 0.  1.
        -12    1    3    3    0    0  0.14600911254E+02 -0.33931322256E+01 -0.12268434419E+02  0.19370452727E+02  0.00000000000E+00 0.  1.
</event>
<event>
 7    1  0.1327607E-011  0.5930194E+02  0.7816164E-02  0.1266605E+00
        -11   -1    0    0    0    0  0.00000000000E+00  0.00000000000E+00  0.45593999997E+02  0.45594000000E+02  0.51100000000E-03 0. -1.
         11   -1    0    0    0    0 -0.00000000000E+00 -0.00000000000E+00 -0.45593999997E+02  0.45594000000E+02  0.51100000000E-03 0.  1.
    9900012    2    1    2    0    0 -0.17548676364E+02 -0.15545358049E+02  0.21612651038E+02  0.59301939034E+02  0.49999990893E+02 0.  0.
        -12    1    1    2    0    0  0.17548676364E+02  0.15545358049E+02 -0.21612651038E+02  0.31886060966E+02  0.00000000000E+00 0.  1.
         11    1    3    3    0    0  0.40491310335E+01 -0.57075109227E+01  0.12955046010E+02  0.14724277926E+02  0.51100000000E-03 0. -1.
        -11    1    3    3    0    0 -0.19515134835E+02 -0.60102482220E+01  0.22311606711E+02  0.30245187479E+02  0.51100000000E-03 0.  1.
        -12    1    3    3    0    0 -0.20826725623E+01 -0.38275989044E+01 -0.13654001683E+02  0.14332473629E+02  0.00000000000E+00 0.  1.
</event>
<event>
 7    1  0.1327607E-011  0.5930196E+02  0.7816164E-02  0.1266605E+00
        -11   -1    0    0    0    0  0.00000000000E+00  0.00000000000E+00  0.45593999997E+02  0.45594000000E+02  0.51100000000E-03 0.  1.
         11   -1    0    0    0    0 -0.00000000000E+00 -0.00000000000E+00 -0.45593999997E+02  0.45594000000E+02  0.51100000000E-03 0. -1.
    9900012    2    1    2    0    0 -0.13715886028E+02 -0.20644336860E+02  0.20060051581E+02  0.59301955351E+02  0.50000020651E+02 0.  0.
        -12    1    1    2    0    0  0.13715886028E+02  0.20644336860E+02 -0.20060051581E+02  0.31886044649E+02  0.00000000000E+00 0.  1.
         11    1    3    3    0    0  0.76661169277E+01  0.24585302439E+01  0.50450328381E+00  0.80664889223E+01  0.51100000000E-03 0.  1.
        -11    1    3    3    0    0 -0.29422190443E+02 -0.83983600598E+01  0.12559727602E+02  0.33074831819E+02  0.51100000000E-03 0. -1.
         12    1    3    3    0    0  0.80401874873E+01 -0.14704507044E+02  0.69958206955E+01  0.18160634610E+02  0.00000000000E+00 0. -1.
</event>
<event>
 7    1  0.1327607E-011  0.5930193E+02  0.7816164E-02  0.1266605E+00
        -11   -1    0    0    0    0  0.00000000000E+00  0.00000000000E+00  0.45593999997E+02  0.45594000000E+02  0.51100000000E-03 0.  1.
         11   -1    0    0    0    0 -0.00000000000E+00 -0.00000000000E+00 -0.45593999997E+02  0.45594000000E+02  0.51100000000E-03 0. -1.
    9900012    2    1    2    0    0 -0.29949978681E+02  0.10554397881E+02  0.28852597124E+01  0.59301933118E+02  0.49999980103E+02 0.  0.
        -12    1    1    2    0    0  0.29949978681E+02 -0.10554397881E+02 -0.28852597124E+01  0.31886066882E+02  0.00000000000E+00 0.  1.
         11    1    3    3    0    0 -0.16313289657E+02  0.12091748187E+01  0.37351331364E+01  0.16779056677E+02  0.51100000000E-03 0. -1.
        -11    1    3    3    0    0 -0.26706084572E+02  0.62171077944E+01  0.49895499542E+01  0.27870468089E+02  0.51100000000E-03 0.  1.
        -12    1    3    3    0    0  0.13069395548E+02  0.31281152676E+01 -0.58394233783E+01  0.14652408352E+02  0.00000000000E+00 0.  1.
</event>
<event>
 7    1  0.1327607E-011  0.5930194E+02  0.7816164E-02  0.1266605E+00
        -11   -1    0    0    0    0  0.00000000000E+00  0.00000000000E+00  0.45593999997E+02  0.45594000000E+02  0.51100000000E-03 0.  1.
         11   -1    0    0    0    0 -0.00000000000E+00 -0.00000000000E+00 -0.45593999997E+02  0.45594000000E+02  0.51100000000E-03 0. -1.
    9900012    2    1    2    0    0 -0.52271214076E+01  0.46981400910E+01 -0.31101861168E+02  0.59301935856E+02  0.49999985096E+02 0.  0.
        -12    1    1    2    0    0  0.52271214076E+01 -0.46981400910E+01  0.31101861168E+02  0.31886064144E+02  0.00000000000E+00 0.  1.
         11    1    3    3    0    0  0.13833594044E+01  0.54739669493E+01  0.48297581018E+01  0.74299771861E+01  0.51100000000E-03 0. -1.
        -11    1    3    3    0    0  0.64982881718E+01  0.84713846502E+01  0.18406697798E+01  0.10834213057E+02  0.51100000000E-03 0.  1.
         12    1    3    3    0    0 -0.13108768984E+02 -0.92472115084E+01 -0.37772289049E+02  0.41037745613E+02  0.00000000000E+00 0. -1.
</event>
<event>
 7    1  0.1327607E-011  0.5930195E+02  0.7816164E-02  0.1266605E+00
        -11   -1    0    0    0    0  0.00000000000E+00  0.00000000000E+00  0.45593999997E+02  0.45594000000E+02  0.51100000000E-03 0. -1.
         11   -1    0    0    0    0 -0.00000000000E+00 -0.00000000000E+00 -0.45593999997E+02  0.45594000000E+02  0.51100000000E-03 0.  1.
    9900012    2    1    2    0    0 -0.26950276260E+02 -0.15092766999E+02  0.79127224225E+01  0.59301950035E+02  0.50000010956E+02 0.  0.
        -12    1    1    2    0    0  0.26950276260E+02  0.15092766999E+02 -0.79127224225E+01  0.31886049965E+02  0.00000000000E+00 0.  1.
         11    1    3    3    0    0 -0.12263805521E+02 -0.92136401038E+01  0.10397043123E+02  0.18530801272E+02  0.51100000000E-03 0. -1.
        -11    1    3    3    0    0 -0.43663797801E+01  0.12172009762E+02  0.10151308430E+02  0.16439956117E+02  0.51100000000E-03 0.  1.
         12    1    3    3    0    0 -0.10320090959E+02 -0.18051136658E+02 -0.12635629131E+02  0.24331192646E+02  0.00000000000E+00 0. -1.
</event>
<event>
 7    1  0.1327607E-011  0.5930197E+02  0.7816164E-02  0.1266605E+00
        -11   -1    0    0    0    0  0.00000000000E+00  0.00000000000E+00  0.45593999997E+02  0.45594000000E+02  0.51100000000E-03 0. -1.
         11   -1    0    0    0    0 -0.00000000000E+00 -0.00000000000E+00 -0.45593999997E+02  0.45594000000E+02  0.51100000000E-03 0.  1.
    9900012    2    1    2    0    0  0.29441285762E+02  0.11799729259E+02  0.32704969759E+01  0.59301967504E+02  0.50000042814E+02 0.  0.
        -12    1    1    2    0    0 -0.29441285762E+02 -0.11799729259E+02 -0.32704969759E+01  0.31886032496E+02  0.00000000000E+00 0.  1.
         11    1    3    3    0    0  0.17023511962E+02  0.20014694410E+02  0.41523639585E+01  0.26601317234E+02  0.51100000000E-03 0. -1.
        -11    1    3    3    0    0  0.54736281308E+01  0.14053915723E+01 -0.13949235884E+02  0.15050478810E+02  0.51100000000E-03 0.  1.
         12    1    3    3    0    0  0.69441456687E+01 -0.96203567233E+01  0.13067368902E+02  0.17650171460E+02  0.00000000000E+00 0. -1.
</event>
<event>
 7    1  0.1327607E-011  0.5930195E+02  0.7816164E-02  0.1266605E+00
        -11   -1    0    0    0    0  0.00000000000E+00  0.00000000000E+00  0.45593999997E+02  0.45594000000E+02  0.51100000000E-03 0. -1.
         11   -1    0    0    0    0 -0.00000000000E+00 -0.00000000000E+00 -0.45593999997E+02  0.45594000000E+02  0.51100000000E-03 0.  1.
    9900012    2    1    2    0    0 -0.24999323371E+02 -0.18279158263E+02  0.75912122288E+01  0.59301948207E+02  0.50000007623E+02 0.  0.
        -12    1    1    2    0    0  0.24999323371E+02  0.18279158263E+02 -0.75912122288E+01  0.31886051793E+02  0.00000000000E+00 0.  1.
         11    1    3    3    0    0 -0.10925203303E+02 -0.21135898831E+00 -0.68177824264E+00  0.10948495863E+02  0.51100000000E-03 0. -1.
        -11    1    3    3    0    0  0.12142345641E+02 -0.12729902004E+02 -0.52727149011E+01  0.18365415470E+02  0.51100000000E-03 0.  1.
         12    1    3    3    0    0 -0.26216465709E+02 -0.53378972713E+01  0.13545705373E+02  0.29988036875E+02  0.00000000000E+00 0. -1.
</event>
<event>
 7    1  0.1327607E-011  0.5930196E+02  0.7816164E-02  0.1266605E+00
        -11   -1    0    0    0    0  0.00000000000E+00  0.00000000000E+00  0.45593999997E+02  0.45594000000E+02  0.51100000000E-03 0.  1.
         11   -1    0    0    0    0 -0.00000000000E+00 -0.00000000000E+00 -0.45593999997E+02  0.45594000000E+02  0.51100000000E-03 0. -1.
    9900012    2    1    2    0    0  0.14099391468E+02 -0.66156806780E+01 -0.27823716760E+02  0.59301964108E+02  0.50000036621E+02 0.  0.
        -12    1    1    2    0    0 -0.14099391468E+02  0.66156806780E+01  0.27823716760E+02  0.31886035892E+02  0.00000000000E+00 0.  1.
         11    1    3    3    0    0  0.71331070474E+01 -0.21457032398E+02 -0.14176446949E+02  0.26688145380E+02  0.51100000000E-03 0. -1.
        -11    1    3    3    0    0 -0.84872433397E+01  0.72017679808E+00 -0.23971688586E+01  0.88486367834E+01  0.51100000000E-03 0.  1.
        -12    1    3    3    0    0  0.15453527761E+02  0.14121174922E+02 -0.11250100952E+02  0.23765181944E+02  0.00000000000E+00 0.  1.
</event>
<event>
 7    1  0.1327607E-011  0.5930194E+02  0.7816164E-02  0.1266605E+00
        -11   -1    0    0    0    0  0.00000000000E+00  0.00000000000E+00  0.45593999997E+02  0.45594000000E+02  0.51100000000E-03 0.  1.
         11   -1    0    0    0    0 -0.00000000000E+00 -0.00000000000E+00 -0.45593999997E+02  0.45594000000E+02  0.51100000000E-03 0. -1.
    9900012    2    1    2    0    0  0.30137229139E+02 -0.95592791342E+01  0.41337857577E+01  0.59301943761E+02  0.49999999514E+02 0.  0.
        -12    1    1    2    0    0 -0.30137229139E+02  0.95592791342E+01 -0.41337857577E+01  0.31886056239E+02  0.00000000000E+00 0.  1.
         11    1    3    3    0    0  0.91834535821E+01 -0.14170915735E+02 -0.25867330931E+01  0.17083379666E+02  0.51100000000E-03 0. -1.
        -11    1    3    3    0    0  0.26003438518E+02 -0.79292025253E+01  0.14712597592E+00  0.27185891815E+02  0.51100000000E-03 0.  1.
        -12    1    3    3    0    0 -0.50496629611E+01  0.12540839126E+02  0.65733928749E+01  0.15032672280E+02  0.00000000000E+00 0.  1.
</event>
<event>
 7    1  0.1327607E-011  0.5930195E+02  0.7816164E-02  0.1266605E+00
        -11   -1    0    0    0    0  0.00000000000E+00  0.00000000000E+00  0.45593999997E+02  0.45594000000E+02  0.51100000000E-03 0. -1.
         11   -1    0    0    0    0 -0.00000000000E+00 -0.00000000000E+00 -0.45593999997E+02  0.45594000000E+02  0.51100000000E-03 0.  1.
    9900012    2    1    2    0    0  0.98973207488E+01  0.23351896813E+02  0.19324916594E+02  0.59301945930E+02  0.50000003469E+02 0.  0.
        -12    1    1    2    0    0 -0.98973207488E+01 -0.23351896813E+02 -0.19324916594E+02  0.31886054070E+02  0.00000000000E+00 0.  1.
         11    1    3    3    0    0  0.81558738397E+00  0.14389944557E+02  0.93492590678E+01  0.17179765206E+02  0.51100000000E-03 0. -1.
        -11    1    3    3    0    0  0.13276290040E+02  0.20744445238E+02 -0.21238246962E+01  0.24720487800E+02  0.51100000000E-03 0.  1.
         12    1    3    3    0    0 -0.41945566754E+01 -0.11782492982E+02  0.12099482223E+02  0.17401692924E+02  0.00000000000E+00 0. -1.
</event>
<event>
 7    1  0.1327607E-011  0.5930193E+02  0.7816164E-02  0.1266605E+00
        -11   -1    0    0    0    0  0.00000000000E+00  0.00000000000E+00  0.45593999997E+02  0.45594000000E+02  0.51100000000E-03 0.  1.
         11   -1    0    0    0    0 -0.00000000000E+00 -0.00000000000E+00 -0.45593999997E+02  0.45594000000E+02  0.51100000000E-03 0. -1.
    9900012    2    1    2    0    0  0.57058692064E+01 -0.26999904078E+02 -0.15974029104E+02  0.59301931421E+02  0.49999977008E+02 0.  0.
        -12    1    1    2    0    0 -0.57058692064E+01  0.26999904078E+02  0.15974029104E+02  0.31886068579E+02  0.00000000000E+00 0.  1.
         11    1    3    3    0    0  0.96359656061E+01 -0.16823143504E+02  0.98615487446E+00  0.19412431384E+02  0.51100000000E-03 0. -1.
        -11    1    3    3    0    0  0.97224053652E+01 -0.16604872164E+02 -0.32759156990E+01  0.19518672332E+02  0.51100000000E-03 0.  1.
         12    1    3    3    0    0 -0.13652501765E+02  0.64281115905E+01 -0.13684268279E+02  0.20370827705E+02  0.00000000000E+00 0. -1.
</event>
<event>
 7    1  0.1327607E-011  0.5930193E+02  0.7816164E-02  0.1266605E+00
        -11   -1    0    0    0    0  0.00000000000E+00  0.00000000000E+00  0.45593999997E+02  0.45594000000E+02  0.51100000000E-03 0.  1.
         11   -1    0    0    0    0 -0.00000000000E+00 -0.00000000000E+00 -0.45593999997E+02  0.45594000000E+02  0.51100000000E-03 0. -1.
    9900012    2    1    2    0    0  0.54209156660E+01  0.15262034447E+02 -0.27466441142E+02  0.59301930767E+02  0.49999975815E+02 0.  0.
        -12    1    1    2    0    0 -0.54209156660E+01 -0.15262034447E+02  0.27466441142E+02  0.31886069233E+02  0.00000000000E+00 0.  1.
         11    1    3    3    0    0  0.38104618234E+01 -0.65792944342E+01 -0.12806488991E+02  0.14893384273E+02  0.51100000000E-03 0. -1.
        -11    1    3    3    0    0  0.15564485156E+02 -0.14117667817E+00 -0.28755142429E+01  0.15828509451E+02  0.51100000000E-03 0.  1.
         12    1    3    3    0    0 -0.13954031313E+02  0.21982505559E+02 -0.11784437908E+02  0.28580037043E+02  0.00000000000E+00 0. -1.
</event>
<event>
 7    1  0.1327607E-011  0.5930191E+02  0.7816164E-02  0.1266605E+00
        -11   -1    0    0    0    0  0.00000000000E+00  0.00000000000E+00  0.45593999997E+02  0.45594000000E+02  0.51100000000E-03 0. -1.
         11   -1    0    0    0    0 -0.00000000000E+00 -0.00000000000E+00 -0.45593999997E+02  0.45594000000E+02  0.51100000000E-03 0.  1.
    9900012    2    1    2    0    0 -0.12128020794E+01 -0.20569388792E+02  0.24334170078E+02  0.59301914045E+02  0.49999945318E+02 0.  0.
        -12    1    1    2    0    0  0.12128020794E+01  0.20569388792E+02 -0.24334170078E+02  0.31886085955E+02  0.00000000000E+00 0.  1.
         11    1    3    3    0    0 -0.15279971884E+02 -0.12567992257E+02  0.26874915985E+02  0.33372040387E+02  0.51100000000E-03 0. -1.
        -11    1    3    3    0    0  0.58416264828E+01 -0.19160412531E+01  0.87492533489E+01  0.10693233771E+02  0.51100000000E-03 0.  1.
        -12    1    3    3    0    0  0.82255433215E+01 -0.60853552819E+01 -0.11289999256E+02  0.15236639887E+02  0.00000000000E+00 0.  1.
</event>
<event>
 7    1  0.1327607E-011  0.5930195E+02  0.7816164E-02  0.1266605E+00
        -11   -1    0    0    0    0  0.00000000000E+00  0.00000000000E+00  0.45593999997E+02  0.45594000000E+02  0.51100000000E-03 0.  1.
         11   -1    0    0    0    0 -0.00000000000E+00 -0.00000000000E+00 -0.45593999997E+02  0.45594000000E+02  0.51100000000E-03 0. -1.
    9900012    2    1    2    0    0 -0.17949557641E+02 -0.97712063056E+01 -0.24475645705E+02  0.59301947800E+02  0.50000006880E+02 0.  0.
        -12    1    1    2    0    0  0.17949557641E+02  0.97712063056E+01  0.24475645705E+02  0.31886052200E+02  0.00000000000E+00 0.  1.
         11    1    3    3    0    0 -0.37764213073E+01  0.13615644985E+01 -0.12945560127E+02  0.13553698500E+02  0.51100000000E-03 0. -1.
        -11    1    3    3    0    0  0.26373787409E+01 -0.50320139222E+01 -0.23533814851E+02  0.24209861058E+02  0.51100000000E-03 0.  1.
        -12    1    3    3    0    0 -0.16810515075E+02 -0.61007568820E+01  0.12003729272E+02  0.21538388242E+02  0.00000000000E+00 0.  1.
</event>
<event>
 7    1  0.1327607E-011  0.5930197E+02  0.7816164E-02  0.1266605E+00
        -11   -1    0    0    0    0  0.00000000000E+00  0.00000000000E+00  0.45593999997E+02  0.45594000000E+02  0.51100000000E-03 0.  1.
         11   -1    0    0    0    0 -0.00000000000E+00 -0.00000000000E+00 -0.45593999997E+02  0.45594000000E+02  0.51100000000E-03 0. -1.
    9900012    2    1    2    0    0 -0.24277995344E+02 -0.11811918077E+02 -0.16963980448E+02  0.59301967020E+02  0.50000041932E+02 0.  0.
        -12    1    1    2    0    0  0.24277995344E+02  0.11811918077E+02  0.16963980448E+02  0.31886032980E+02  0.00000000000E+00 0.  1.
         11    1    3    3    0    0 -0.18210348134E+01 -0.39785250612E+01  0.82428726677E+01  0.93321905002E+01  0.51100000000E-03 0. -1.
        -11    1    3    3    0    0 -0.28100428429E+01 -0.13471249186E+02  0.39912098430E+01  0.14328316429E+02  0.51100000000E-03 0.  1.
         12    1    3    3    0    0 -0.19646917688E+02  0.56378561708E+01 -0.29198062959E+02  0.35641460091E+02  0.00000000000E+00 0. -1.
</event>
<event>
 7    1  0.1327607E-011  0.5930199E+02  0.7816164E-02  0.1266605E+00
        -11   -1    0    0    0    0  0.00000000000E+00  0.00000000000E+00  0.45593999997E+02  0.45594000000E+02  0.51100000000E-03 0. -1.
         11   -1    0    0    0    0 -0.00000000000E+00 -0.00000000000E+00 -0.45593999997E+02  0.45594000000E+02  0.51100000000E-03 0.  1.
    9900012    2    1    2    0    0  0.26624893998E+02  0.76778175516E+01  0.15776055544E+02  0.59301987529E+02  0.50000079336E+02 0.  0.
        -12    1    1    2    0    0 -0.26624893998E+02 -0.76778175516E+01 -0.15776055544E+02  0.31886012471E+02  0.00000000000E+00 0.  1.
         11    1    3    3    0    0 -0.37898308851E+01 -0.58317528750E+01  0.49731036055E+01  0.85500830093E+01  0.51100000000E-03 0. -1.
        -11    1    3    3    0    0  0.52972784486E+01 -0.19570143813E+01  0.19256103071E+02  0.20067101684E+02  0.51100000000E-03 0.  1.
        -12    1    3    3    0    0  0.25117446435E+02  0.15466584808E+02 -0.84531511324E+01  0.30684802836E+02  0.00000000000E+00 0.  1.
</event>
<event>
 7    1  0.1327607E-011  0.5930185E+02  0.7816164E-02  0.1266605E+00
        -11   -1    0    0    0    0  0.00000000000E+00  0.00000000000E+00  0.45593999997E+02  0.45594000000E+02  0.51100000000E-03 0.  1.
         11   -1    0    0    0    0 -0.00000000000E+00 -0.00000000000E+00 -0.45593999997E+02  0.45594000000E+02  0.51100000000E-03 0. -1.
    9900012    2    1    2    0    0  0.27385886026E+02 -0.66338178285E+01 -0.14924214640E+02  0.59301851360E+02  0.49999830997E+02 0.  0.
        -12    1    1    2    0    0 -0.27385886026E+02  0.66338178285E+01  0.14924214640E+02  0.31886148640E+02  0.00000000000E+00 0.  1.
         11    1    3    3    0    0  0.97217067521E+01  0.11293219206E+02 -0.51560471026E+01  0.15768107185E+02  0.51100000000E-03 0. -1.
        -11    1    3    3    0    0 -0.56713830885E+01 -0.90574140802E+01 -0.14613001266E+02  0.18103622351E+02  0.51100000000E-03 0.  1.
         12    1    3    3    0    0  0.23335562363E+02 -0.88696229548E+01  0.48448337285E+01  0.25430121824E+02  0.00000000000E+00 0. -1.
</event>
<event>
 7    1  0.1327607E-011  0.5930195E+02  0.7816164E-02  0.1266605E+00
        -11   -1    0    0    0    0  0.00000000000E+00  0.00000000000E+00  0.45593999997E+02  0.45594000000E+02  0.51100000000E-03 0.  1.
         11   -1    0    0    0    0 -0.00000000000E+00 -0.00000000000E+00 -0.45593999997E+02  0.45594000000E+02  0.51100000000E-03 0. -1.
    9900012    2    1    2    0    0  0.18788735019E+02  0.55318494504E+01 -0.25161523382E+02  0.59301950058E+02  0.50000010999E+02 0.  0.
        -12    1    1    2    0    0 -0.18788735019E+02 -0.55318494504E+01  0.25161523382E+02  0.31886049942E+02  0.00000000000E+00 0.  1.
         11    1    3    3    0    0  0.46593683439E+01  0.96895348802E+01 -0.23438121440E+02  0.25786475844E+02  0.51100000000E-03 0. -1.
        -11    1    3    3    0    0  0.19475271973E+01  0.76031421154E+01 -0.11530185880E+02  0.13947968271E+02  0.51100000000E-03 0.  1.
        -12    1    3    3    0    0  0.12181839478E+02 -0.11760827545E+02  0.98067839380E+01  0.19567505943E+02  0.00000000000E+00 0.  1.
</event>
<event>
 7    1  0.1370520E-011  0.5930194E+02  0.7816164E-02  0.1266605E+00
        -11   -1    0    0    0    0  0.00000000000E+00  0.00000000000E+00  0.45593999997E+02  0.45594000000E+02  0.51100000000E-03 0. -1.
         11   -1    0    0    0    0 -0.00000000000E+00 -0.00000000000E+00 -0.45593999997E+02  0.45594000000E+02  0.51100000000E-03 0.  1.
    9900012    2    1    2    0    0  0.34186494718E+01 -0.26986163562E+02  0.16636724951E+02  0.59301940270E+02  0.49999993147E+02 0.  0.
        -12    1    1    2    0    0 -0.34186494718E+01  0.26986163562E+02 -0.16636724951E+02  0.31886059730E+02  0.00000000000E+00 0.  1.
         11    1    3    3    0    0 -0.12192373350E+02 -0.63006172632E+01  0.51271217790E+01  0.14650567354E+02  0.51100000000E-03 0. -1.
        -11    1    3    3    0    0  0.40417672014E+01  0.61070806839E+01 -0.69689874773E+01  0.10109357215E+02  0.51100000000E-03 0.  1.
         12    1    3    3    0    0  0.11569255620E+02 -0.26792626983E+02  0.18478590649E+02  0.34542015700E+02  0.00000000000E+00 0. -1.
</event>
<event>
 7    1  0.1327607E-011  0.5930190E+02  0.7816164E-02  0.1266605E+00
        -11   -1    0    0    0    0  0.00000000000E+00  0.00000000000E+00  0.45593999997E+02  0.45594000000E+02  0.51100000000E-03 0.  1.
         11   -1    0    0    0    0 -0.00000000000E+00 -0.00000000000E+00 -0.45593999997E+02  0.45594000000E+02  0.51100000000E-03 0. -1.
    9900012    2    1    2    0    0 -0.18129667200E+02  0.13232961775E+02 -0.22647903542E+02  0.59301895739E+02  0.49999911932E+02 0.  0.
        -12    1    1    2    0    0  0.18129667200E+02 -0.13232961775E+02  0.22647903542E+02  0.31886104261E+02  0.00000000000E+00 0.  1.
         11    1    3    3    0    0 -0.52109187153E+01  0.26988225036E+02 -0.14362797557E+02  0.31013028204E+02  0.51100000000E-03 0. -1.
        -11    1    3    3    0    0 -0.10701369784E+01  0.21232059056E+01 -0.81360039600E+01  0.84763056321E+01  0.51100000000E-03 0.  1.
        -12    1    3    3    0    0 -0.11848611506E+02 -0.15878469167E+02 -0.14910202486E+00  0.19812561902E+02  0.00000000000E+00 0.  1.
</event>
<event>
 7    1  0.1327607E-011  0.5930193E+02  0.7816164E-02  0.1266605E+00
        -11   -1    0    0    0    0  0.00000000000E+00  0.00000000000E+00  0.45593999997E+02  0.45594000000E+02  0.51100000000E-03 0. -1.
         11   -1    0    0    0    0 -0.00000000000E+00 -0.00000000000E+00 -0.45593999997E+02  0.45594000000E+02  0.51100000000E-03 0.  1.
    9900012    2    1    2    0    0  0.20079809427E+02 -0.11123133555E+02  0.22131399549E+02  0.59301926351E+02  0.49999967762E+02 0.  0.
        -12    1    1    2    0    0 -0.20079809427E+02  0.11123133555E+02 -0.22131399549E+02  0.31886073649E+02  0.00000000000E+00 0.  1.
         11    1    3    3    0    0 -0.63245030132E+01  0.76419884737E+01  0.22583405993E+01  0.10173466898E+02  0.51100000000E-03 0. -1.
        -11    1    3    3    0    0  0.23659782059E+02 -0.15875150544E+02 -0.37219557809E+00  0.28494634963E+02  0.51100000000E-03 0.  1.
         12    1    3    3    0    0  0.27445303819E+01 -0.28899714847E+01  0.20245254528E+02  0.20633824490E+02  0.00000000000E+00 0. -1.
</event>
<event>
 7    1  0.1327607E-011  0.5930194E+02  0.7816164E-02  0.1266605E+00
        -11   -1    0    0    0    0  0.00000000000E+00  0.00000000000E+00  0.45593999997E+02  0.45594000000E+02  0.51100000000E-03 0. -1.
         11   -1    0    0    0    0 -0.00000000000E+00 -0.00000000000E+00 -0.45593999997E+02  0.45594000000E+02  0.51100000000E-03 0.  1.
    9900012    2    1    2    0    0 -0.14990285021E+02  0.10028280630E+02  0.26295360418E+02  0.59301936635E+02  0.49999986517E+02 0.  0.
        -12    1    1    2    0    0  0.14990285021E+02 -0.10028280630E+02 -0.26295360418E+02  0.31886063365E+02  0.00000000000E+00 0.  1.
         11    1    3    3    0    0 -0.93632076423E+00  0.25789366243E+01  0.50425177328E+00  0.27896022652E+01  0.51100000000E-03 0. -1.
        -11    1    3    3    0    0 -0.49383437191E+01  0.22339113489E+02 -0.27621834474E+01  0.23044584783E+02  0.51100000000E-03 0.  1.
         12    1    3    3    0    0 -0.91156205373E+01 -0.14889769484E+02  0.28553292092E+02  0.33467749586E+02  0.00000000000E+00 0. -1.
</event>
<event>
 7    1  0.1327607E-011  0.5930194E+02  0.7816164E-02  0.1266605E+00
        -11   -1    0    0    0    0  0.00000000000E+00  0.00000000000E+00  0.45593999997E+02  0.45594000000E+02  0.51100000000E-03 0.  1.
         11   -1    0    0    0    0 -0.00000000000E+00 -0.00000000000E+00 -0.45593999997E+02  0.45594000000E+02  0.51100000000E-03 0. -1.
    9900012    2    1    2    0    0 -0.24432814213E+02 -0.10191800669E+02 -0.17773173936E+02  0.59301938422E+02  0.49999989776E+02 0.  0.
        -12    1    1    2    0    0  0.24432814213E+02  0.10191800669E+02  0.17773173936E+02  0.31886061578E+02  0.00000000000E+00 0.  1.
         11    1    3    3    0    0  0.89695280956E+01 -0.63172774613E+01  0.40468019948E+01  0.11693461225E+02  0.51100000000E-03 0. -1.
        -11    1    3    3    0    0 -0.51951865580E+01  0.25337940919E+01  0.53845469005E+01  0.78995836256E+01  0.51100000000E-03 0.  1.
         12    1    3    3    0    0 -0.28207155750E+02 -0.64083172996E+01 -0.27204522831E+02  0.39708893571E+02  0.00000000000E+00 0. -1.
</event>
<event>
 7    1  0.1327607E-011  0.5930200E+02  0.7816164E-02  0.1266605E+00
        -11   -1    0    0    0    0  0.00000000000E+00  0.00000000000E+00  0.45593999997E+02  0.45594000000E+02  0.51100000000E-03 0.  1.
         11   -1    0    0    0    0 -0.00000000000E+00 -0.00000000000E+00 -0.45593999997E+02  0.45594000000E+02  0.51100000000E-03 0. -1.
    9900012    2    1    2    0    0  0.39003963044E+01 -0.16568305509E+02  0.26962843321E+02  0.59302003720E+02  0.50000108865E+02 0.  0.
        -12    1    1    2    0    0 -0.39003963044E+01  0.16568305509E+02 -0.26962843321E+02  0.31885996280E+02  0.00000000000E+00 0.  1.
         11    1    3    3    0    0 -0.63807564858E+01 -0.68615243551E+01 -0.17030791774E+01  0.95233948124E+01  0.51100000000E-03 0. -1.
        -11    1    3    3    0    0 -0.35179723837E+01 -0.25568101191E+01 -0.84702728999E+01  0.95214983557E+01  0.51100000000E-03 0.  1.
        -12    1    3    3    0    0  0.13799125174E+02 -0.71499710351E+01  0.37136195398E+02  0.40257110552E+02  0.00000000000E+00 0.  1.
</event>
<event>
 7    1  0.1327607E-011  0.5930183E+02  0.7816164E-02  0.1266605E+00
        -11   -1    0    0    0    0  0.00000000000E+00  0.00000000000E+00  0.45593999997E+02  0.45594000000E+02  0.51100000000E-03 0.  1.
         11   -1    0    0    0    0 -0.00000000000E+00 -0.00000000000E+00 -0.45593999997E+02  0.45594000000E+02  0.51100000000E-03 0. -1.
    9900012    2    1    2    0    0  0.14462709546E+02 -0.23554894511E+02  0.15897316825E+02  0.59301832072E+02  0.49999795820E+02 0.  0.
        -12    1    1    2    0    0 -0.14462709546E+02  0.23554894511E+02 -0.15897316825E+02  0.31886167928E+02  0.00000000000E+00 0.  1.
         11    1    3    3    0    0 -0.15835663633E+01 -0.94999231797E+01 -0.11104246232E+02  0.14698996819E+02  0.51100000000E-03 0. -1.
        -11    1    3    3    0    0  0.97498007387E+01 -0.38228552311E+01 -0.41115386023E+01  0.11250670491E+02  0.51100000000E-03 0.  1.
         12    1    3    3    0    0  0.62964751711E+01 -0.10232116100E+02  0.31113101659E+02  0.33352164762E+02  0.00000000000E+00 0. -1.
</event>
<event>
 7    1  0.1327607E-011  0.5930200E+02  0.7816164E-02  0.1266605E+00
        -11   -1    0    0    0    0  0.00000000000E+00  0.00000000000E+00  0.45593999997E+02  0.45594000000E+02  0.51100000000E-03 0.  1.
         11   -1    0    0    0    0 -0.00000000000E+00 -0.00000000000E+00 -0.45593999997E+02  0.45594000000E+02  0.51100000000E-03 0. -1.
    9900012    2    1    2    0    0  0.81203667004E+01  0.12630374903E+02 -0.28129172087E+02  0.59301999187E+02  0.50000100597E+02 0.  0.
        -12    1    1    2    0    0 -0.81203667004E+01 -0.12630374903E+02  0.28129172087E+02  0.31886000813E+02  0.00000000000E+00 0.  1.
         11    1    3    3    0    0  0.10202512535E+02 -0.10300568089E+01 -0.14304616816E+02  0.17600407426E+02  0.51100000000E-03 0. -1.
        -11    1    3    3    0    0  0.74585658220E+01 -0.69087106341E+01 -0.15964373236E+02  0.18926745621E+02  0.51100000000E-03 0.  1.
        -12    1    3    3    0    0 -0.95407116564E+01  0.20569142346E+02  0.21398179640E+01  0.22774846139E+02  0.00000000000E+00 0.  1.
</event>
<event>
 7    1  0.1327607E-011  0.5930192E+02  0.7816164E-02  0.1266605E+00
        -11   -1    0    0    0    0  0.00000000000E+00  0.00000000000E+00  0.45593999997E+02  0.45594000000E+02  0.51100000000E-03 0. -1.
         11   -1    0    0    0    0 -0.00000000000E+00 -0.00000000000E+00 -0.45593999997E+02  0.45594000000E+02  0.51100000000E-03 0.  1.
    9900012    2    1    2    0    0  0.23538226732E+00 -0.31000206436E+02  0.74601556807E+01  0.59301919547E+02  0.49999955353E+02 0.  0.
        -12    1    1    2    0    0 -0.23538226732E+00  0.31000206436E+02 -0.74601556807E+01  0.31886080453E+02  0.00000000000E+00 0.  1.
         11    1    3    3    0    0 -0.21406112345E+01  0.46877747404E+01 -0.68304430714E+01  0.85564245621E+01  0.51100000000E-03 0. -1.
        -11    1    3    3    0    0 -0.23207562768E+01  0.20539904031E+01 -0.66441792731E+01  0.73314326531E+01  0.51100000000E-03 0.  1.
         12    1    3    3    0    0  0.46967497787E+01 -0.37741971579E+02  0.20934778025E+02  0.43414062332E+02  0.00000000000E+00 0. -1.
</event>
<event>
 7    1  0.1327607E-011  0.5930194E+02  0.7816164E-02  0.1266605E+00
        -11   -1    0    0    0    0  0.00000000000E+00  0.00000000000E+00  0.45593999997E+02  0.45594000000E+02  0.51100000000E-03 0.  1.
         11   -1    0    0    0    0 -0.00000000000E+00 -0.00000000000E+00 -0.45593999997E+02  0.45594000000E+02  0.51100000000E-03 0. -1.
    9900012    2    1    2    0    0  0.24389494901E+02  0.72064727485E+01 -0.19233832876E+02  0.59301936616E+02  0.49999986483E+02 0.  0.
        -12    1    1    2    0    0 -0.24389494901E+02 -0.72064727485E+01  0.19233832876E+02  0.31886063384E+02  0.00000000000E+00 0.  1.
         11    1    3    3    0    0 -0.10783057090E+02  0.61050771186E+01 -0.20226677832E+02  0.23720556132E+02  0.51100000000E-03 0. -1.
        -11    1    3    3    0    0  0.12288544097E+02  0.22715974727E+01 -0.12442440084E+01  0.12558527561E+02  0.51100000000E-03 0.  1.
        -12    1    3    3    0    0  0.22884007895E+02 -0.11702018428E+01  0.22370889645E+01  0.23022852923E+02  0.00000000000E+00 0.  1.
</event>
<event>
 7    1  0.1327607E-011  0.5930197E+02  0.7816164E-02  0.1266605E+00
        -11   -1    0    0    0    0  0.00000000000E+00  0.00000000000E+00  0.45593999997E+02  0.45594000000E+02  0.51100000000E-03 0.  1.
         11   -1    0    0    0    0 -0.00000000000E+00 -0.00000000000E+00 -0.45593999997E+02  0.45594000000E+02  0.51100000000E-03 0. -1.
    9900012    2    1    2    0    0 -0.15492741372E+02  0.26088026265E+02 -0.98035150054E+01  0.59301967696E+02  0.50000043165E+02 0.  0.
        -12    1    1    2    0    0  0.15492741372E+02 -0.26088026265E+02  0.98035150054E+01  0.31886032304E+02  0.00000000000E+00 0.  1.
         11    1    3    3    0    0  0.90132669080E-02  0.27276463777E+02  0.73048258218E+00  0.27286244931E+02  0.51100000000E-03 0. -1.
        -11    1    3    3    0    0  0.67970501774E+01 -0.26578714177E+01 -0.54204913820E+01  0.90909789720E+01  0.51100000000E-03 0.  1.
        -12    1    3    3    0    0 -0.22298804816E+02  0.14694339063E+01 -0.51135062056E+01  0.22924743793E+02  0.00000000000E+00 0.  1.
</event>
<event>
 7    1  0.1327607E-011  0.5930194E+02  0.7816164E-02  0.1266605E+00
        -11   -1    0    0    0    0  0.00000000000E+00  0.00000000000E+00  0.45593999997E+02  0.45594000000E+02  0.51100000000E-03 0.  1.
         11   -1    0    0    0    0 -0.00000000000E+00 -0.00000000000E+00 -0.45593999997E+02  0.45594000000E+02  0.51100000000E-03 0. -1.
    9900012    2    1    2    0    0 -0.67373898367E+01  0.10536038689E+02 -0.29331220090E+02  0.59301937135E+02  0.49999987429E+02 0.  0.
        -12    1    1    2    0    0  0.67373898367E+01 -0.10536038689E+02  0.29331220090E+02  0.31886062865E+02  0.00000000000E+00 0.  1.
         11    1    3    3    0    0  0.13216206868E+01  0.25832322531E+02 -0.16012279080E+02  0.30421187521E+02  0.51100000000E-03 0. -1.
        -11    1    3    3    0    0  0.45723537857E+01 -0.82721606696E+01 -0.34378847742E+00  0.94579729363E+01  0.51100000000E-03 0.  1.
        -12    1    3    3    0    0 -0.12631364309E+02 -0.70241231719E+01 -0.12975152532E+02  0.19422776678E+02  0.00000000000E+00 0.  1.
</event>
<event>
 7    1  0.1327607E-011  0.5930191E+02  0.7816164E-02  0.1266605E+00
        -11   -1    0    0    0    0  0.00000000000E+00  0.00000000000E+00  0.45593999997E+02  0.45594000000E+02  0.51100000000E-03 0.  1.
         11   -1    0    0    0    0 -0.00000000000E+00 -0.00000000000E+00 -0.45593999997E+02  0.45594000000E+02  0.51100000000E-03 0. -1.
    9900012    2    1    2    0    0 -0.11819135606E+02  0.19285397649E+01 -0.29551842282E+02  0.59301911899E+02  0.49999941405E+02 0.  0.
        -12    1    1    2    0    0  0.11819135606E+02 -0.19285397649E+01  0.29551842282E+02  0.31886088101E+02  0.00000000000E+00 0.  1.
         11    1    3    3    0    0  0.10327104161E+02 -0.29390972687E+01 -0.18280580285E+02  0.21200636522E+02  0.51100000000E-03 0. -1.
        -11    1    3    3    0    0 -0.12233243820E+01  0.20477283638E+01  0.87113158565E+01  0.90319841789E+01  0.51100000000E-03 0.  1.
         12    1    3    3    0    0 -0.20922915385E+02  0.28199086698E+01 -0.19982577854E+02  0.29069291199E+02  0.00000000000E+00 0. -1.
</event>
<event>
 7    1  0.1327607E-011  0.5930197E+02  0.7816164E-02  0.1266605E+00
        -11   -1    0    0    0    0  0.00000000000E+00  0.00000000000E+00  0.45593999997E+02  0.45594000000E+02  0.51100000000E-03 0. -1.
         11   -1    0    0    0    0 -0.00000000000E+00 -0.00000000000E+00 -0.45593999997E+02  0.45594000000E+02  0.51100000000E-03 0.  1.
    9900012    2    1    2    0    0  0.23626468964E+02 -0.16781435713E+01  0.21346965668E+02  0.59301966305E+02  0.50000040628E+02 0.  0.
        -12    1    1    2    0    0 -0.23626468964E+02  0.16781435713E+01 -0.21346965668E+02  0.31886033695E+02  0.00000000000E+00 0.  1.
         11    1    3    3    0    0  0.10952493600E+02 -0.84301298684E+01  0.10442179120E+02  0.17322335601E+02  0.51100000000E-03 0. -1.
        -11    1    3    3    0    0 -0.12858560132E+02  0.64041008361E+00  0.88961789140E+01  0.15649111581E+02  0.51100000000E-03 0.  1.
        -12    1    3    3    0    0  0.25532535496E+02  0.61115762135E+01  0.20086076344E+01  0.26330519123E+02  0.00000000000E+00 0.  1.
</event>
<event>
 7    1  0.1327607E-011  0.5930190E+02  0.7816164E-02  0.1266605E+00
        -11   -1    0    0    0    0  0.00000000000E+00  0.00000000000E+00  0.45593999997E+02  0.45594000000E+02  0.51100000000E-03 0. -1.
         11   -1    0    0    0    0 -0.00000000000E+00 -0.00000000000E+00 -0.45593999997E+02  0.45594000000E+02  0.51100000000E-03 0.  1.
    9900012    2    1    2    0    0  0.14552759414E+02 -0.57127177673E+01  0.27790381189E+02  0.59301902128E+02  0.49999923585E+02 0.  0.
        -12    1    1    2    0    0 -0.14552759414E+02  0.57127177673E+01 -0.27790381189E+02  0.31886097872E+02  0.00000000000E+00 0.  1.
         11    1    3    3    0    0  0.19927597547E+02 -0.57114827586E+01  0.14633810145E+02  0.25374762638E+02  0.51100000000E-03 0. -1.
        -11    1    3    3    0    0 -0.91079542584E+01 -0.12781779485E+02  0.72571249559E+00  0.15711631884E+02  0.51100000000E-03 0.  1.
        -12    1    3    3    0    0  0.37331161257E+01  0.12780544476E+02  0.12430858548E+02  0.18215507607E+02  0.00000000000E+00 0.  1.
</event>
<event>
 7    1  0.1327607E-011  0.5930196E+02  0.7816164E-02  0.1266605E+00
        -11   -1    0    0    0    0  0.00000000000E+00  0.00000000000E+00  0.45593999997E+02  0.45594000000E+02  0.51100000000E-03 0.  1.
         11   -1    0    0    0    0 -0.00000000000E+00 -0.00000000000E+00 -0.45593999997E+02  0.45594000000E+02  0.51100000000E-03 0. -1.
    9900012    2    1    2    0    0  0.23865652361E+01 -0.17208905821E+02 -0.26737192116E+02  0.59301959552E+02  0.50000028313E+02 0.  0.
        -12    1    1    2    0    0 -0.23865652361E+01  0.17208905821E+02  0.26737192116E+02  0.31886040448E+02  0.00000000000E+00 0.  1.
         11    1    3    3    0    0  0.68345460327E+01 -0.37642135266E+01 -0.30242005779E+02  0.31232342800E+02  0.51100000000E-03 0. -1.
        -11    1    3    3    0    0  0.10708242025E+01 -0.24946917452E+01 -0.96862554676E+01  0.10059507772E+02  0.51100000000E-03 0.  1.
        -12    1    3    3    0    0 -0.55188049991E+01 -0.10950000549E+02  0.13191069131E+02  0.18010108980E+02  0.00000000000E+00 0.  1.
</event>
<event>
 7    1  0.1327607E-011  0.5930195E+02  0.7816164E-02  0.1266605E+00
        -11   -1    0    0    0    0  0.00000000000E+00  0.00000000000E+00  0.45593999997E+02  0.45594000000E+02  0.51100000000E-03 0.  1.
         11   -1    0    0    0    0 -0.00000000000E+00 -0.00000000000E+00 -0.45593999997E+02  0.45594000000E+02  0.51100000000E-03 0. -1.
    9900012    2    1    2    0    0 -0.15516639945E+02  0.25964813138E+02 -0.10088734631E+02  0.59301949713E+02  0.50000010369E+02 0.  0.
        -12    1    1    2    0    0  0.15516639945E+02 -0.25964813138E+02  0.10088734631E+02  0.31886050287E+02  0.00000000000E+00 0.  1.
         11    1    3    3    0    0 -0.37975734777E+01  0.11067448116E+02 -0.15624429956E+02  0.19520061061E+02  0.51100000000E-03 0. -1.
        -11    1    3    3    0    0 -0.91306805073E+01 -0.99712636718E+01  0.59594411540E+01  0.14775329603E+02  0.51100000000E-03 0.  1.
         12    1    3    3    0    0 -0.25883859595E+01  0.24868628694E+02 -0.42374582946E+00  0.25006559050E+02  0.00000000000E+00 0. -1.
</event>
<event>
 7    1  0.1327607E-011  0.5930193E+02  0.7816164E-02  0.1266605E+00
        -11   -1    0    0    0    0  0.00000000000E+00  0.00000000000E+00  0.45593999997E+02  0.45594000000E+02  0.51100000000E-03 0.  1.
         11   -1    0    0    0    0 -0.00000000000E+00 -0.00000000000E+00 -0.45593999997E+02  0.45594000000E+02  0.51100000000E-03 0. -1.
    9900012    2    1    2    0    0  0.16817416253E+01 -0.12815643224E+02 -0.29148797564E+02  0.59301931482E+02  0.49999977119E+02 0.  0.
        -12    1    1    2    0    0 -0.16817416253E+01  0.12815643224E+02  0.29148797564E+02  0.31886068518E+02  0.00000000000E+00 0.  1.
         11    1    3    3    0    0  0.45198528609E+01 -0.10634324246E+02 -0.64602177392E+01  0.13238290507E+02  0.51100000000E-03 0. -1.
        -11    1    3    3    0    0 -0.79677799313E+01 -0.19399081196E+02 -0.17634902004E+02  0.27400723298E+02  0.51100000000E-03 0.  1.
         12    1    3    3    0    0  0.51296686957E+01  0.17217762218E+02 -0.50536778210E+01  0.18662917677E+02  0.00000000000E+00 0. -1.
</event>
<event>
 7    1  0.1327607E-011  0.5930182E+02  0.7816164E-02  0.1266605E+00
        -11   -1    0    0    0    0  0.00000000000E+00  0.00000000000E+00  0.45593999997E+02  0.45594000000E+02  0.51100000000E-03 0.  1.
         11   -1    0    0    0    0 -0.00000000000E+00 -0.00000000000E+00 -0.45593999997E+02  0.45594000000E+02  0.51100000000E-03 0. -1.
    9900012    2    1    2    0    0 -0.16107044726E+02 -0.19479551102E+02 -0.19438074950E+02  0.59301818687E+02  0.49999771408E+02 0.  0.
        -12    1    1    2    0    0  0.16107044726E+02  0.19479551102E+02  0.19438074950E+02  0.31886181313E+02  0.00000000000E+00 0.  1.
         11    1    3    3    0    0  0.97978823148E+01 -0.13603226540E+01 -0.98678028719E+01  0.13972204885E+02  0.51100000000E-03 0. -1.
        -11    1    3    3    0    0  0.29380296303E+01 -0.35161889698E+01 -0.12063700447E+02  0.12904591110E+02  0.51100000000E-03 0.  1.
        -12    1    3    3    0    0 -0.28842956671E+02 -0.14603039478E+02  0.24934283684E+01  0.32425022692E+02  0.00000000000E+00 0.  1.
</event>
<event>
 7    1  0.1327607E-011  0.5930196E+02  0.7816164E-02  0.1266605E+00
        -11   -1    0    0    0    0  0.00000000000E+00  0.00000000000E+00  0.45593999997E+02  0.45594000000E+02  0.51100000000E-03 0.  1.
         11   -1    0    0    0    0 -0.00000000000E+00 -0.00000000000E+00 -0.45593999997E+02  0.45594000000E+02  0.51100000000E-03 0. -1.
    9900012    2    1    2    0    0  0.12910675896E+02  0.24660755553E+02 -0.15552534724E+02  0.59301956769E+02  0.50000023238E+02 0.  0.
        -12    1    1    2    0    0 -0.12910675896E+02 -0.24660755553E+02  0.15552534724E+02  0.31886043231E+02  0.00000000000E+00 0.  1.
         11    1    3    3    0    0  0.15319640950E+02  0.24176566560E+02 -0.20845778038E+02  0.35408250899E+02  0.51100000000E-03 0. -1.
        -11    1    3    3    0    0 -0.75362633772E+01  0.68097433844E+01 -0.45409790480E+01  0.11126021824E+02  0.51100000000E-03 0.  1.
         12    1    3    3    0    0  0.51272983229E+01 -0.63255543914E+01  0.98342223613E+01  0.12767684046E+02  0.00000000000E+00 0. -1.
</event>
<event>
 7    1  0.1327607E-011  0.5930201E+02  0.7816164E-02  0.1266605E+00
        -11   -1    0    0    0    0  0.00000000000E+00  0.00000000000E+00  0.45593999997E+02  0.45594000000E+02  0.51100000000E-03 0.  1.
         11   -1    0    0    0    0 -0.00000000000E+00 -0.00000000000E+00 -0.45593999997E+02  0.45594000000E+02  0.51100000000E-03 0. -1.
    9900012    2    1    2    0    0 -0.23723807411E+02 -0.62530429646E+01 -0.20366560381E+02  0.59302009877E+02  0.50000120092E+02 0.  0.
        -12    1    1    2    0    0  0.23723807411E+02  0.62530429646E+01  0.20366560381E+02  0.31885990123E+02  0.00000000000E+00 0.  1.
         11    1    3    3    0    0  0.75393873250E+00  0.69290734215E+01 -0.55836272671E+01  0.89306985064E+01  0.51100000000E-03 0. -1.
        -11    1    3    3    0    0 -0.17957289025E+00  0.10884474208E+02 -0.11780877101E+02  0.16040358186E+02  0.51100000000E-03 0.  1.
         12    1    3    3    0    0 -0.24298173253E+02 -0.24066590594E+02 -0.30020560134E+01  0.34330953185E+02  0.00000000000E+00 0. -1.
</event>
<event>
 7    1  0.1327607E-011  0.5930193E+02  0.7816164E-02  0.1266605E+00
        -11   -1    0    0    0    0  0.00000000000E+00  0.00000000000E+00  0.45593999997E+02  0.45594000000E+02  0.51100000000E-03 0.  1.
         11   -1    0    0    0    0 -0.00000000000E+00 -0.00000000000E+00 -0.45593999997E+02  0.45594000000E+02  0.51100000000E-03 0. -1.
    9900012    2    1    2    0    0 -0.23815457179E+02  0.13092017343E+02 -0.16677675310E+02  0.59301925100E+02  0.49999965481E+02 0.  0.
        -12    1    1    2    0    0  0.23815457179E+02 -0.13092017343E+02  0.16677675310E+02  0.31886074900E+02  0.00000000000E+00 0.  1.
         11    1    3    3    0    0 -0.52502444810E+01  0.18676281243E+02 -0.16472511067E+02  0.25450189966E+02  0.51100000000E-03 0. -1.
        -11    1    3    3    0    0 -0.48716935177E+01  0.73292477545E+00 -0.13108967875E+02  0.14004128515E+02  0.51100000000E-03 0.  1.
        -12    1    3    3    0    0 -0.13693519180E+02 -0.63171886753E+01  0.12903803633E+02  0.19847606619E+02  0.00000000000E+00 0.  1.
</event>
<event>
 7    1  0.1327607E-011  0.5930194E+02  0.7816164E-02  0.1266605E+00
        -11   -1    0    0    0    0  0.00000000000E+00  0.00000000000E+00  0.45593999997E+02  0.45594000000E+02  0.51100000000E-03 0. -1.
         11   -1    0    0    0    0 -0.00000000000E+00 -0.00000000000E+00 -0.45593999997E+02  0.45594000000E+02  0.51100000000E-03 0.  1.
    9900012    2    1    2    0    0  0.52730190340E+01  0.22488460225E+02  0.21981469649E+02  0.59301943785E+02  0.49999999558E+02 0.  0.
        -12    1    1    2    0    0 -0.52730190340E+01 -0.22488460225E+02 -0.21981469649E+02  0.31886056215E+02  0.00000000000E+00 0.  1.
         11    1    3    3    0    0 -0.48909862312E+00 -0.98789438736E+01  0.84776376983E+01  0.13027013884E+02  0.51100000000E-03 0.  1.
        -11    1    3    3    0    0  0.68688329181E+01 -0.24569448698E+01  0.82938809506E+01  0.11045628331E+02  0.51100000000E-03 0. -1.
        -12    1    3    3    0    0 -0.11067152610E+01  0.34824348968E+02  0.52099509998E+01  0.35229301570E+02  0.00000000000E+00 0.  1.
</event>
<event>
 7    1  0.1327607E-011  0.5930189E+02  0.7816164E-02  0.1266605E+00
        -11   -1    0    0    0    0  0.00000000000E+00  0.00000000000E+00  0.45593999997E+02  0.45594000000E+02  0.51100000000E-03 0.  1.
         11   -1    0    0    0    0 -0.00000000000E+00 -0.00000000000E+00 -0.45593999997E+02  0.45594000000E+02  0.51100000000E-03 0. -1.
    9900012    2    1    2    0    0 -0.10626624224E+02  0.28823707520E+02 -0.85435728676E+01  0.59301891818E+02  0.49999904783E+02 0.  0.
        -12    1    1    2    0    0  0.10626624224E+02 -0.28823707520E+02  0.85435728676E+01  0.31886108182E+02  0.00000000000E+00 0.  1.
         11    1    3    3    0    0  0.39675836757E+01  0.12186817347E+01  0.13756214705E+02  0.14368728151E+02  0.51100000000E-03 0.  1.
        -11    1    3    3    0    0  0.45248190110E+00  0.21250033962E+02 -0.65455682917E+01  0.22239899905E+02  0.51100000000E-03 0. -1.
         12    1    3    3    0    0 -0.15046689801E+02  0.63549918233E+01 -0.15754219281E+02  0.22693263762E+02  0.00000000000E+00 0. -1.
</event>
<event>
 7    1  0.1327607E-011  0.5930195E+02  0.7816164E-02  0.1266605E+00
        -11   -1    0    0    0    0  0.00000000000E+00  0.00000000000E+00  0.45593999997E+02  0.45594000000E+02  0.51100000000E-03 0.  1.
         11   -1    0    0    0    0 -0.00000000000E+00 -0.00000000000E+00 -0.45593999997E+02  0.45594000000E+02  0.51100000000E-03 0. -1.
    9900012    2    1    2    0    0  0.44666782598E+01  0.19664065469E+02 -0.24700067349E+02  0.59301952699E+02  0.50000015814E+02 0.  0.
        -12    1    1    2    0    0 -0.44666782598E+01 -0.19664065469E+02  0.24700067349E+02  0.31886047301E+02  0.00000000000E+00 0.  1.
         11    1    3    3    0    0 -0.44932105223E+01 -0.17444115299E+01 -0.37497373544E+01  0.61067538735E+01  0.51100000000E-03 0. -1.
        -11    1    3    3    0    0 -0.10346879162E+02  0.12575202774E+02 -0.26632262528E+02  0.31216518718E+02  0.51100000000E-03 0.  1.
        -12    1    3    3    0    0  0.19306767944E+02  0.88332742249E+01  0.56819325344E+01  0.21978680108E+02  0.00000000000E+00 0.  1.
</event>
<event>
 7    1  0.1327607E-011  0.5930195E+02  0.7816164E-02  0.1266605E+00
        -11   -1    0    0    0    0  0.00000000000E+00  0.00000000000E+00  0.45593999997E+02  0.45594000000E+02  0.51100000000E-03 0.  1.
         11   -1    0    0    0    0 -0.00000000000E+00 -0.00000000000E+00 -0.45593999997E+02  0.45594000000E+02  0.51100000000E-03 0. -1.
    9900012    2    1    2    0    0  0.26016417509E+02  0.18259381747E+02  0.25419470460E+01  0.59301945108E+02  0.50000001971E+02 0.  0.
        -12    1    1    2    0    0 -0.26016417509E+02 -0.18259381747E+02 -0.25419470460E+01  0.31886054892E+02  0.00000000000E+00 0.  1.
         11    1    3    3    0    0 -0.11171377818E+01  0.17770100155E+00  0.61737561380E+01  0.62765308557E+01  0.51100000000E-03 0. -1.
        -11    1    3    3    0    0  0.55552893882E+01 -0.16014785069E-01 -0.19791016030E+02  0.20555919157E+02  0.51100000000E-03 0.  1.
         12    1    3    3    0    0  0.21578265902E+02  0.18097695531E+02  0.16159206938E+02  0.32469495095E+02  0.00000000000E+00 0. -1.
</event>
<event>
 7    1  0.1327607E-011  0.5930214E+02  0.7816164E-02  0.1266604E+00
        -11   -1    0    0    0    0  0.00000000000E+00  0.00000000000E+00  0.45593999997E+02  0.45594000000E+02  0.51100000000E-03 0.  1.
         11   -1    0    0    0    0 -0.00000000000E+00 -0.00000000000E+00 -0.45593999997E+02  0.45594000000E+02  0.51100000000E-03 0. -1.
    9900012    2    1    2    0    0 -0.11531120639E+02 -0.28892482328E+02 -0.69975525380E+01  0.59302140755E+02  0.50000358783E+02 0.  0.
        -12    1    1    2    0    0  0.11531120639E+02  0.28892482328E+02  0.69975525380E+01  0.31885859245E+02  0.00000000000E+00 0.  1.
         11    1    3    3    0    0 -0.41509697984E+01 -0.10141452534E+02 -0.13374309589E+02  0.17290221717E+02  0.51100000000E-03 0. -1.
        -11    1    3    3    0    0  0.52498038895E+00 -0.14737683937E+02 -0.13659950375E+02  0.20101472004E+02  0.51100000000E-03 0.  1.
        -12    1    3    3    0    0 -0.79051312298E+01 -0.40133458564E+01  0.20036707427E+02  0.21910447034E+02  0.00000000000E+00 0.  1.
</event>
<event>
 7    1  0.1327607E-011  0.5930193E+02  0.7816164E-02  0.1266605E+00
        -11   -1    0    0    0    0  0.00000000000E+00  0.00000000000E+00  0.45593999997E+02  0.45594000000E+02  0.51100000000E-03 0.  1.
         11   -1    0    0    0    0 -0.00000000000E+00 -0.00000000000E+00 -0.45593999997E+02  0.45594000000E+02  0.51100000000E-03 0. -1.
    9900012    2    1    2    0    0 -0.41227385949E+01 -0.29658526365E+02  0.10958838892E+02  0.59301932360E+02  0.49999978721E+02 0.  0.
        -12    1    1    2    0    0  0.41227385949E+01  0.29658526365E+02 -0.10958838892E+02  0.31886067640E+02  0.00000000000E+00 0.  1.
         11    1    3    3    0    0  0.79245436765E+01 -0.47583756705E+01 -0.40247186518E+01  0.10081611577E+02  0.51100000000E-03 0. -1.
        -11    1    3    3    0    0 -0.45228078041E+01 -0.24025095548E+02 -0.74380937346E+01  0.25553595543E+02  0.51100000000E-03 0.  1.
        -12    1    3    3    0    0 -0.75244744673E+01 -0.87505514683E+00  0.22421651278E+02  0.23666725240E+02  0.00000000000E+00 0.  1.
</event>
<event>
 7    1  0.1327607E-011  0.5930193E+02  0.7816164E-02  0.1266605E+00
        -11   -1    0    0    0    0  0.00000000000E+00  0.00000000000E+00  0.45593999997E+02  0.45594000000E+02  0.51100000000E-03 0. -1.
         11   -1    0    0    0    0 -0.00000000000E+00 -0.00000000000E+00 -0.45593999997E+02  0.45594000000E+02  0.51100000000E-03 0.  1.
    9900012    2    1    2    0    0 -0.26004206892E+02  0.16145418509E+02  0.89346659455E+01  0.59301928269E+02  0.49999971259E+02 0.  0.
        -12    1    1    2    0    0  0.26004206892E+02 -0.16145418509E+02 -0.89346659455E+01  0.31886071731E+02  0.00000000000E+00 0.  1.
         11    1    3    3    0    0 -0.31143271723E+00  0.16049478471E+02 -0.96571717758E+01  0.18733491839E+02  0.51100000000E-03 0. -1.
        -11    1    3    3    0    0 -0.81811397097E+01  0.12256180224E+02  0.78063180415E+01  0.16675838877E+02  0.51100000000E-03 0.  1.
        -12    1    3    3    0    0 -0.17511634465E+02 -0.12160240186E+02  0.10785519680E+02  0.23892597552E+02  0.00000000000E+00 0.  1.
</event>
<event>
 7    1  0.1327607E-011  0.5930195E+02  0.7816164E-02  0.1266605E+00
        -11   -1    0    0    0    0  0.00000000000E+00  0.00000000000E+00  0.45593999997E+02  0.45594000000E+02  0.51100000000E-03 0.  1.
         11   -1    0    0    0    0 -0.00000000000E+00 -0.00000000000E+00 -0.45593999997E+02  0.45594000000E+02  0.51100000000E-03 0. -1.
    9900012    2    1    2    0    0  0.31819529735E+02  0.17507798422E+01 -0.10828979790E+01  0.59301947083E+02  0.50000005572E+02 0.  0.
        -12    1    1    2    0    0 -0.31819529735E+02 -0.17507798422E+01  0.10828979790E+01  0.31886052917E+02  0.00000000000E+00 0.  1.
         11    1    3    3    0    0  0.12727560712E+02 -0.69330649115E+01 -0.81575899858E+01  0.16631430046E+02  0.51100000000E-03 0. -1.
        -11    1    3    3    0    0 -0.67353136861E+01  0.96375666136E+00 -0.90020412663E+01  0.11284060642E+02  0.51100000000E-03 0.  1.
        -12    1    3    3    0    0  0.25827282709E+02  0.77200880923E+01  0.16076733273E+02  0.31386456394E+02  0.00000000000E+00 0.  1.
</event>
<event>
 7    1  0.1327607E-011  0.5930194E+02  0.7816164E-02  0.1266605E+00
        -11   -1    0    0    0    0  0.00000000000E+00  0.00000000000E+00  0.45593999997E+02  0.45594000000E+02  0.51100000000E-03 0.  1.
         11   -1    0    0    0    0 -0.00000000000E+00 -0.00000000000E+00 -0.45593999997E+02  0.45594000000E+02  0.51100000000E-03 0. -1.
    9900012    2    1    2    0    0  0.43194952408E+01 -0.25125345247E+02  0.19151502428E+02  0.59301936302E+02  0.49999985909E+02 0.  0.
        -12    1    1    2    0    0 -0.43194952408E+01  0.25125345247E+02 -0.19151502428E+02  0.31886063698E+02  0.00000000000E+00 0.  1.
         11    1    3    3    0    0  0.33095461209E+00 -0.20148887855E+02 -0.30255275574E+00  0.20153876827E+02  0.51100000000E-03 0. -1.
        -11    1    3    3    0    0 -0.13849968186E+02 -0.74786766548E+01  0.11293938015E+02  0.19372796892E+02  0.51100000000E-03 0.  1.
        -12    1    3    3    0    0  0.17838508815E+02  0.25022192626E+01  0.81601171686E+01  0.19775262582E+02  0.00000000000E+00 0.  1.
</event>
<event>
 7    1  0.1327607E-011  0.5930194E+02  0.7816164E-02  0.1266605E+00
        -11   -1    0    0    0    0  0.00000000000E+00  0.00000000000E+00  0.45593999997E+02  0.45594000000E+02  0.51100000000E-03 0.  1.
         11   -1    0    0    0    0 -0.00000000000E+00 -0.00000000000E+00 -0.45593999997E+02  0.45594000000E+02  0.51100000000E-03 0. -1.
    9900012    2    1    2    0    0  0.11386930017E+02  0.78370321386E+01 -0.28733944526E+02  0.59301940099E+02  0.49999992835E+02 0.  0.
        -12    1    1    2    0    0 -0.11386930017E+02 -0.78370321386E+01  0.28733944526E+02  0.31886059901E+02  0.00000000000E+00 0.  1.
         11    1    3    3    0    0 -0.93122658552E+01 -0.71157497104E-01 -0.76440265613E-01  0.93128514496E+01  0.51100000000E-03 0.  1.
        -11    1    3    3    0    0  0.10314153623E+01 -0.26797637196E+01 -0.27471297121E+02  0.27620954310E+02  0.51100000000E-03 0. -1.
         12    1    3    3    0    0  0.19667780510E+02  0.10587953355E+02 -0.11862071396E+01  0.22368134339E+02  0.00000000000E+00 0. -1.
</event>
<event>
 7    1  0.1327607E-011  0.5930193E+02  0.7816164E-02  0.1266605E+00
        -11   -1    0    0    0    0  0.00000000000E+00  0.00000000000E+00  0.45593999997E+02  0.45594000000E+02  0.51100000000E-03 0. -1.
         11   -1    0    0    0    0 -0.00000000000E+00 -0.00000000000E+00 -0.45593999997E+02  0.45594000000E+02  0.51100000000E-03 0.  1.
    9900012    2    1    2    0    0 -0.14505882480E+02 -0.23875554369E+02 -0.15370715028E+02  0.59301927752E+02  0.49999970316E+02 0.  0.
        -12    1    1    2    0    0  0.14505882480E+02  0.23875554369E+02  0.15370715028E+02  0.31886072248E+02  0.00000000000E+00 0.  1.
         11    1    3    3    0    0 -0.94550866964E+01 -0.13023555781E+02  0.45130327639E+01  0.16714638333E+02  0.51100000000E-03 0. -1.
        -11    1    3    3    0    0 -0.10714651920E+02 -0.20706763074E+02 -0.49744953058E+01  0.23839450635E+02  0.51100000000E-03 0.  1.
         12    1    3    3    0    0  0.56638561359E+01  0.98547644853E+01 -0.14909252486E+02  0.18747838784E+02  0.00000000000E+00 0. -1.
</event>
<event>
 7    1  0.1327607E-011  0.5930194E+02  0.7816164E-02  0.1266605E+00
        -11   -1    0    0    0    0  0.00000000000E+00  0.00000000000E+00  0.45593999997E+02  0.45594000000E+02  0.51100000000E-03 0. -1.
         11   -1    0    0    0    0 -0.00000000000E+00 -0.00000000000E+00 -0.45593999997E+02  0.45594000000E+02  0.51100000000E-03 0.  1.
    9900012    2    1    2    0    0  0.19003485865E+02 -0.19473579725E+02  0.16624330222E+02  0.59301935055E+02  0.49999983636E+02 0.  0.
        -12    1    1    2    0    0 -0.19003485865E+02  0.19473579725E+02 -0.16624330222E+02  0.31886064945E+02  0.00000000000E+00 0.  1.
         11    1    3    3    0    0  0.63031707787E+01  0.25025252855E+01 -0.31002445562E+01  0.74568164279E+01  0.51100000000E-03 0. -1.
        -11    1    3    3    0    0 -0.88021897735E+01  0.69458788316E+01  0.85899888135E+01  0.14124860553E+02  0.51100000000E-03 0.  1.
         12    1    3    3    0    0  0.21502504860E+02 -0.28921983842E+02  0.11134585965E+02  0.37720258075E+02  0.00000000000E+00 0. -1.
</event>
<event>
 7    1  0.1327607E-011  0.5930194E+02  0.7816164E-02  0.1266605E+00
        -11   -1    0    0    0    0  0.00000000000E+00  0.00000000000E+00  0.45593999997E+02  0.45594000000E+02  0.51100000000E-03 0.  1.
         11   -1    0    0    0    0 -0.00000000000E+00 -0.00000000000E+00 -0.45593999997E+02  0.45594000000E+02  0.51100000000E-03 0. -1.
    9900012    2    1    2    0    0  0.13927394158E+02 -0.79394810625E+01 -0.27562897262E+02  0.59301937637E+02  0.49999988345E+02 0.  0.
        -12    1    1    2    0    0 -0.13927394158E+02  0.79394810625E+01  0.27562897262E+02  0.31886062363E+02  0.00000000000E+00 0.  1.
         11    1    3    3    0    0  0.14095786722E+02  0.11578043167E+02 -0.49731571687E+01  0.18906998158E+02  0.51100000000E-03 0. -1.
        -11    1    3    3    0    0  0.67680929949E+01 -0.10200424709E+02  0.27261521642E+01  0.12541437434E+02  0.51100000000E-03 0.  1.
         12    1    3    3    0    0 -0.69364855590E+01 -0.93170995205E+01 -0.25315892257E+02  0.27853502045E+02  0.00000000000E+00 0. -1.
</event>
<event>
 7    1  0.1327607E-011  0.5930194E+02  0.7816164E-02  0.1266605E+00
        -11   -1    0    0    0    0  0.00000000000E+00  0.00000000000E+00  0.45593999997E+02  0.45594000000E+02  0.51100000000E-03 0. -1.
         11   -1    0    0    0    0 -0.00000000000E+00 -0.00000000000E+00 -0.45593999997E+02  0.45594000000E+02  0.51100000000E-03 0.  1.
    9900012    2    1    2    0    0  0.16797850575E+02  0.18977221034E+02  0.19349887801E+02  0.59301939409E+02  0.49999991576E+02 0.  0.
        -12    1    1    2    0    0 -0.16797850575E+02 -0.18977221034E+02 -0.19349887801E+02  0.31886060591E+02  0.00000000000E+00 0.  1.
         11    1    3    3    0    0  0.35002088130E+01  0.29185698716E+02  0.63366026954E+01  0.30070068262E+02  0.51100000000E-03 0. -1.
        -11    1    3    3    0    0  0.56472767227E+00  0.40544927411E+01 -0.23360510181E+01  0.47132752256E+01  0.51100000000E-03 0.  1.
        -12    1    3    3    0    0  0.12732914090E+02 -0.14262970423E+02  0.15349336123E+02  0.24518595921E+02  0.00000000000E+00 0.  1.
</event>
<event>
 7    1  0.1327607E-011  0.5930196E+02  0.7816164E-02  0.1266605E+00
        -11   -1    0    0    0    0  0.00000000000E+00  0.00000000000E+00  0.45593999997E+02  0.45594000000E+02  0.51100000000E-03 0. -1.
         11   -1    0    0    0    0 -0.00000000000E+00 -0.00000000000E+00 -0.45593999997E+02  0.45594000000E+02  0.51100000000E-03 0.  1.
    9900012    2    1    2    0    0  0.21786745647E+02  0.23225989348E+02  0.16157797477E+01  0.59301958990E+02  0.50000027287E+02 0.  0.
        -12    1    1    2    0    0 -0.21786745647E+02 -0.23225989348E+02 -0.16157797477E+01  0.31886041010E+02  0.00000000000E+00 0.  1.
         11    1    3    3    0    0  0.81496071728E+01  0.18981100215E+02  0.28989010141E+01  0.20859096092E+02  0.51100000000E-03 0.  1.
        -11    1    3    3    0    0  0.17773673303E+02  0.10883252815E+02  0.11239226020E+02  0.23678447084E+02  0.51100000000E-03 0. -1.
        -12    1    3    3    0    0 -0.41365348284E+01 -0.66383636818E+01 -0.12522347286E+02  0.14764415814E+02  0.00000000000E+00 0.  1.
</event>
<event>
 7    1  0.1327607E-011  0.5930194E+02  0.7816164E-02  0.1266605E+00
        -11   -1    0    0    0    0  0.00000000000E+00  0.00000000000E+00  0.45593999997E+02  0.45594000000E+02  0.51100000000E-03 0.  1.
         11   -1    0    0    0    0 -0.00000000000E+00 -0.00000000000E+00 -0.45593999997E+02  0.45594000000E+02  0.51100000000E-03 0. -1.
    9900012    2    1    2    0    0  0.38106917637E+01  0.31505246454E+02  0.31014294896E+01  0.59301940495E+02  0.49999993557E+02 0.  0.
        -12    1    1    2    0    0 -0.38106917637E+01 -0.31505246454E+02 -0.31014294896E+01  0.31886059505E+02  0.00000000000E+00 0.  1.
         11    1    3    3    0    0 -0.46668885174E+01  0.73454928899E+01  0.46884169299E+01  0.98852095476E+01  0.51100000000E-03 0. -1.
        -11    1    3    3    0    0 -0.15470503120E+02  0.19615469824E+02 -0.17166109884E+01  0.25040963974E+02  0.51100000000E-03 0.  1.
         12    1    3    3    0    0  0.23948083401E+02  0.45442837401E+01  0.12962354803E+00  0.24375766973E+02  0.00000000000E+00 0. -1.
</event>
<event>
 7    1  0.1327607E-011  0.5930196E+02  0.7816164E-02  0.1266605E+00
        -11   -1    0    0    0    0  0.00000000000E+00  0.00000000000E+00  0.45593999997E+02  0.45594000000E+02  0.51100000000E-03 0.  1.
         11   -1    0    0    0    0 -0.00000000000E+00 -0.00000000000E+00 -0.45593999997E+02  0.45594000000E+02  0.51100000000E-03 0. -1.
    9900012    2    1    2    0    0 -0.11463298788E+02 -0.28509016640E+02 -0.85175441366E+01  0.59301955921E+02  0.50000021690E+02 0.  0.
        -12    1    1    2    0    0  0.11463298788E+02  0.28509016640E+02  0.85175441366E+01  0.31886044079E+02  0.00000000000E+00 0.  1.
         11    1    3    3    0    0  0.94721446283E+01 -0.55520929720E+01  0.10143248324E+01  0.11026155965E+02  0.51100000000E-03 0. -1.
        -11    1    3    3    0    0 -0.80729714416E+01  0.61291214810E+01  0.71105104855E+01  0.12381371396E+02  0.51100000000E-03 0.  1.
        -12    1    3    3    0    0 -0.12862471975E+02 -0.29086045149E+02 -0.16642379454E+02  0.35894428560E+02  0.00000000000E+00 0.  1.
</event>
<event>
 7    1  0.1327607E-011  0.5930192E+02  0.7816164E-02  0.1266605E+00
        -11   -1    0    0    0    0  0.00000000000E+00  0.00000000000E+00  0.45593999997E+02  0.45594000000E+02  0.51100000000E-03 0. -1.
         11   -1    0    0    0    0 -0.00000000000E+00 -0.00000000000E+00 -0.45593999997E+02  0.45594000000E+02  0.51100000000E-03 0.  1.
    9900012    2    1    2    0    0 -0.29340352695E+02 -0.63551388297E+01 -0.10746062217E+02  0.59301922489E+02  0.49999960719E+02 0.  0.
        -12    1    1    2    0    0  0.29340352695E+02  0.63551388297E+01  0.10746062217E+02  0.31886077511E+02  0.00000000000E+00 0.  1.
         11    1    3    3    0    0  0.18122817066E+01  0.99663403190E+01 -0.10175757880E+01  0.10180754642E+02  0.51100000000E-03 0. -1.
        -11    1    3    3    0    0  0.46594274161E+01 -0.34825451889E+00 -0.87228357395E+01  0.98954236218E+01  0.51100000000E-03 0.  1.
         12    1    3    3    0    0 -0.35812061818E+02 -0.15973224630E+02 -0.10056506895E+01  0.39225744225E+02  0.00000000000E+00 0. -1.
</event>
<event>
 7    1  0.1327607E-011  0.5930196E+02  0.7816164E-02  0.1266605E+00
        -11   -1    0    0    0    0  0.00000000000E+00  0.00000000000E+00  0.45593999997E+02  0.45594000000E+02  0.51100000000E-03 0. -1.
         11   -1    0    0    0    0 -0.00000000000E+00 -0.00000000000E+00 -0.45593999997E+02  0.45594000000E+02  0.51100000000E-03 0.  1.
    9900012    2    1    2    0    0 -0.58471411416E+01  0.24319202564E+02  0.19776419759E+02  0.59301961498E+02  0.50000031861E+02 0.  0.
        -12    1    1    2    0    0  0.58471411416E+01 -0.24319202564E+02 -0.19776419759E+02  0.31886038502E+02  0.00000000000E+00 0.  1.
         11    1    3    3    0    0 -0.69803351409E+01  0.35437929143E+01  0.79623037401E+01  0.11166101737E+02  0.51100000000E-03 0. -1.
        -11    1    3    3    0    0 -0.19238733656E+02  0.27353383736E+01  0.42287586939E+01  0.19887014584E+02  0.51100000000E-03 0.  1.
        -12    1    3    3    0    0  0.20371927656E+02  0.18040071276E+02  0.75853573248E+01  0.28248845176E+02  0.00000000000E+00 0.  1.
</event>
<event>
 7    1  0.1327607E-011  0.5930197E+02  0.7816164E-02  0.1266605E+00
        -11   -1    0    0    0    0  0.00000000000E+00  0.00000000000E+00  0.45593999997E+02  0.45594000000E+02  0.51100000000E-03 0.  1.
         11   -1    0    0    0    0 -0.00000000000E+00 -0.00000000000E+00 -0.45593999997E+02  0.45594000000E+02  0.51100000000E-03 0. -1.
    9900012    2    1    2    0    0 -0.11689965412E+02  0.28285050534E+02 -0.89453648580E+01  0.59301969712E+02  0.50000046842E+02 0.  0.
        -12    1    1    2    0    0  0.11689965412E+02 -0.28285050534E+02  0.89453648580E+01  0.31886030288E+02  0.00000000000E+00 0.  1.
         11    1    3    3    0    0  0.41380502553E+01  0.73213234124E+01 -0.76714442094E+01  0.11383158303E+02  0.51100000000E-03 0. -1.
        -11    1    3    3    0    0  0.75462905752E+01 -0.52243493823E+01 -0.80029435846E+01  0.12177332803E+02  0.51100000000E-03 0.  1.
        -12    1    3    3    0    0 -0.23374306243E+02  0.26188076504E+02  0.67290229359E+01  0.35741478607E+02  0.00000000000E+00 0.  1.
</event>
<event>
 7    1  0.1327607E-011  0.5930198E+02  0.7816164E-02  0.1266605E+00
        -11   -1    0    0    0    0  0.00000000000E+00  0.00000000000E+00  0.45593999997E+02  0.45594000000E+02  0.51100000000E-03 0.  1.
         11   -1    0    0    0    0 -0.00000000000E+00 -0.00000000000E+00 -0.45593999997E+02  0.45594000000E+02  0.51100000000E-03 0. -1.
    9900012    2    1    2    0    0 -0.85501126907E+01  0.27306079850E+02 -0.14070968746E+02  0.59301975079E+02  0.50000056630E+02 0.  0.
        -12    1    1    2    0    0  0.85501126907E+01 -0.27306079850E+02  0.14070968746E+02  0.31886024921E+02  0.00000000000E+00 0.  1.
         11    1    3    3    0    0  0.40638998723E+01  0.10816317352E+02  0.21713109860E+01  0.11756810575E+02  0.51100000000E-03 0. -1.
        -11    1    3    3    0    0  0.54035147697E+01 -0.53800469726E+01  0.74119381343E+01  0.10633894134E+02  0.51100000000E-03 0.  1.
         12    1    3    3    0    0 -0.18017527333E+02  0.21869809471E+02 -0.23654217866E+02  0.36911270370E+02  0.00000000000E+00 0. -1.
</event>
<event>
 7    1  0.1327607E-011  0.5930194E+02  0.7816164E-02  0.1266605E+00
        -11   -1    0    0    0    0  0.00000000000E+00  0.00000000000E+00  0.45593999997E+02  0.45594000000E+02  0.51100000000E-03 0.  1.
         11   -1    0    0    0    0 -0.00000000000E+00 -0.00000000000E+00 -0.45593999997E+02  0.45594000000E+02  0.51100000000E-03 0. -1.
    9900012    2    1    2    0    0  0.73252058965E+01  0.19548983303E+01 -0.30971612345E+02  0.59301936584E+02  0.49999986424E+02 0.  0.
        -12    1    1    2    0    0 -0.73252058965E+01 -0.19548983303E+01  0.30971612345E+02  0.31886063416E+02  0.00000000000E+00 0.  1.
         11    1    3    3    0    0  0.14056321087E+02  0.10024970865E+01 -0.52743480400E+01  0.15046724242E+02  0.51100000000E-03 0. -1.
        -11    1    3    3    0    0  0.24897940587E+01  0.16059100696E+02 -0.49575155996E+01  0.16990313440E+02  0.51100000000E-03 0.  1.
         12    1    3    3    0    0 -0.92209092492E+01 -0.15106699452E+02 -0.20739748706E+02  0.27264898901E+02  0.00000000000E+00 0. -1.
</event>
<event>
 7    1  0.1327607E-011  0.5930198E+02  0.7816164E-02  0.1266605E+00
        -11   -1    0    0    0    0  0.00000000000E+00  0.00000000000E+00  0.45593999997E+02  0.45594000000E+02  0.51100000000E-03 0.  1.
         11   -1    0    0    0    0 -0.00000000000E+00 -0.00000000000E+00 -0.45593999997E+02  0.45594000000E+02  0.51100000000E-03 0. -1.
    9900012    2    1    2    0    0 -0.23031335800E+02 -0.54714591757E+01 -0.21362094033E+02  0.59301978678E+02  0.50000063194E+02 0.  0.
        -12    1    1    2    0    0  0.23031335800E+02  0.54714591757E+01  0.21362094033E+02  0.31886021322E+02  0.00000000000E+00 0.  1.
         11    1    3    3    0    0 -0.94754283397E+01 -0.33862935987E+01  0.22815537343E+01  0.10317762076E+02  0.51100000000E-03 0. -1.
        -11    1    3    3    0    0  0.93570721678E+01 -0.95600269361E+01  0.22995363481E+01  0.13573385070E+02  0.51100000000E-03 0.  1.
         12    1    3    3    0    0 -0.22912979628E+02  0.74748613591E+01 -0.25943184115E+02  0.35410831533E+02  0.00000000000E+00 0. -1.
</event>
<event>
 7    1  0.1327607E-011  0.5930199E+02  0.7816164E-02  0.1266605E+00
        -11   -1    0    0    0    0  0.00000000000E+00  0.00000000000E+00  0.45593999997E+02  0.45594000000E+02  0.51100000000E-03 0. -1.
         11   -1    0    0    0    0 -0.00000000000E+00 -0.00000000000E+00 -0.45593999997E+02  0.45594000000E+02  0.51100000000E-03 0.  1.
    9900012    2    1    2    0    0 -0.29557628277E+02 -0.80894096428E+01  0.88105448567E+01  0.59301989927E+02  0.50000083709E+02 0.  0.
        -12    1    1    2    0    0  0.29557628277E+02  0.80894096428E+01 -0.88105448567E+01  0.31886010073E+02  0.00000000000E+00 0.  1.
         11    1    3    3    0    0 -0.95166954438E+01 -0.10500576244E+02 -0.53913905799E+01  0.15162344353E+02  0.51100000000E-03 0. -1.
        -11    1    3    3    0    0 -0.12619502188E+02 -0.11114069700E+02 -0.67504102578E+01  0.18120221292E+02  0.51100000000E-03 0.  1.
         12    1    3    3    0    0 -0.74214306448E+01  0.13525236302E+02  0.20952345694E+02  0.26019424281E+02  0.00000000000E+00 0. -1.
</event>
<event>
 7    1  0.1327607E-011  0.5930195E+02  0.7816164E-02  0.1266605E+00
        -11   -1    0    0    0    0  0.00000000000E+00  0.00000000000E+00  0.45593999997E+02  0.45594000000E+02  0.51100000000E-03 0. -1.
         11   -1    0    0    0    0 -0.00000000000E+00 -0.00000000000E+00 -0.45593999997E+02  0.45594000000E+02  0.51100000000E-03 0.  1.
    9900012    2    1    2    0    0  0.23377756775E+02  0.74207767278E+01  0.20374810436E+02  0.59301947573E+02  0.50000006466E+02 0.  0.
        -12    1    1    2    0    0 -0.23377756775E+02 -0.74207767278E+01 -0.20374810436E+02  0.31886052427E+02  0.00000000000E+00 0.  1.
         11    1    3    3    0    0 -0.16363388052E+01  0.81386101864E+00  0.31464419460E+01  0.36386909217E+01  0.51100000000E-03 0. -1.
        -11    1    3    3    0    0 -0.77957115352E+01  0.14670191147E+02  0.13996359734E+02  0.21722930573E+02  0.51100000000E-03 0.  1.
        -12    1    3    3    0    0  0.32809807115E+02 -0.80632754374E+01  0.32320087553E+01  0.33940326078E+02  0.00000000000E+00 0.  1.
</event>
<event>
 7    1  0.1327607E-011  0.5930196E+02  0.7816164E-02  0.1266605E+00
        -11   -1    0    0    0    0  0.00000000000E+00  0.00000000000E+00  0.45593999997E+02  0.45594000000E+02  0.51100000000E-03 0. -1.
         11   -1    0    0    0    0 -0.00000000000E+00 -0.00000000000E+00 -0.45593999997E+02  0.45594000000E+02  0.51100000000E-03 0.  1.
    9900012    2    1    2    0    0 -0.18768295970E+02 -0.10771320102E+02  0.23418998138E+02  0.59301956907E+02  0.50000023488E+02 0.  0.
        -12    1    1    2    0    0  0.18768295970E+02  0.10771320102E+02 -0.23418998138E+02  0.31886043093E+02  0.00000000000E+00 0.  1.
         11    1    3    3    0    0 -0.20783149489E+02 -0.19607055680E+02  0.12065779512E+02  0.31015463411E+02  0.51100000000E-03 0. -1.
        -11    1    3    3    0    0  0.10193128734E+01 -0.75906007319E+01 -0.98027494095E+00  0.77212147636E+01  0.51100000000E-03 0.  1.
        -12    1    3    3    0    0  0.99554064506E+00  0.16426336310E+02  0.12333493567E+02  0.20565278732E+02  0.00000000000E+00 0.  1.
</event>
<event>
 7    1  0.1327607E-011  0.5930194E+02  0.7816164E-02  0.1266605E+00
        -11   -1    0    0    0    0  0.00000000000E+00  0.00000000000E+00  0.45593999997E+02  0.45594000000E+02  0.51100000000E-03 0. -1.
         11   -1    0    0    0    0 -0.00000000000E+00 -0.00000000000E+00 -0.45593999997E+02  0.45594000000E+02  0.51100000000E-03 0.  1.
    9900012    2    1    2    0    0 -0.14775546442E+02  0.14859728426E+02  0.24033153335E+02  0.59301940965E+02  0.49999994415E+02 0.  0.
        -12    1    1    2    0    0  0.14775546442E+02 -0.14859728426E+02 -0.24033153335E+02  0.31886059035E+02  0.00000000000E+00 0.  1.
         11    1    3    3    0    0  0.10321235867E-01  0.22315416088E+01 -0.11560918806E+02  0.11774324965E+02  0.51100000000E-03 0. -1.
        -11    1    3    3    0    0 -0.22456967232E+01 -0.60079618567E+01  0.17645334465E+02  0.18774892492E+02  0.51100000000E-03 0.  1.
         12    1    3    3    0    0 -0.12540170955E+02  0.18636148674E+02  0.17948737676E+02  0.28752723508E+02  0.00000000000E+00 0. -1.
</event>
<event>
 7    1  0.1327607E-011  0.5930191E+02  0.7816164E-02  0.1266605E+00
        -11   -1    0    0    0    0  0.00000000000E+00  0.00000000000E+00  0.45593999997E+02  0.45594000000E+02  0.51100000000E-03 0.  1.
         11   -1    0    0    0    0 -0.00000000000E+00 -0.00000000000E+00 -0.45593999997E+02  0.45594000000E+02  0.51100000000E-03 0. -1.
    9900012    2    1    2    0    0  0.25521233024E+01 -0.26784399090E+02 -0.17111556461E+02  0.59301910047E+02  0.49999938026E+02 0.  0.
        -12    1    1    2    0    0 -0.25521233024E+01  0.26784399090E+02  0.17111556461E+02  0.31886089953E+02  0.00000000000E+00 0.  1.
         11    1    3    3    0    0  0.12702930169E+02 -0.10354168569E+02 -0.73053689409E+01  0.17942732714E+02  0.51100000000E-03 0. -1.
        -11    1    3    3    0    0  0.10531098106E+02 -0.14491187484E+02  0.10045961337E+01  0.17941787973E+02  0.51100000000E-03 0.  1.
         12    1    3    3    0    0 -0.20681904972E+02 -0.19390430375E+01 -0.10810783654E+02  0.23417389359E+02  0.00000000000E+00 0. -1.
</event>
<event>
 7    1  0.1327607E-011  0.5930190E+02  0.7816164E-02  0.1266605E+00
        -11   -1    0    0    0    0  0.00000000000E+00  0.00000000000E+00  0.45593999997E+02  0.45594000000E+02  0.51100000000E-03 0.  1.
         11   -1    0    0    0    0 -0.00000000000E+00 -0.00000000000E+00 -0.45593999997E+02  0.45594000000E+02  0.51100000000E-03 0. -1.
    9900012    2    1    2    0    0  0.20385896513E+02 -0.11804084959E+02 -0.21489577315E+02  0.59301903790E+02  0.49999926616E+02 0.  0.
        -12    1    1    2    0    0 -0.20385896513E+02  0.11804084959E+02  0.21489577315E+02  0.31886096210E+02  0.00000000000E+00 0.  1.
         11    1    3    3    0    0  0.13841008510E+01  0.42760777567E+01  0.55710047531E+01  0.71579794892E+01  0.51100000000E-03 0. -1.
        -11    1    3    3    0    0 -0.59777904750E+01 -0.63431706301E+01  0.52372200808E+01  0.10168493843E+02  0.51100000000E-03 0.  1.
         12    1    3    3    0    0  0.24979586137E+02 -0.97369920858E+01 -0.32297802148E+02  0.41975430457E+02  0.00000000000E+00 0. -1.
</event>
<event>
 7    1  0.1327607E-011  0.5930194E+02  0.7816164E-02  0.1266605E+00
        -11   -1    0    0    0    0  0.00000000000E+00  0.00000000000E+00  0.45593999997E+02  0.45594000000E+02  0.51100000000E-03 0. -1.
         11   -1    0    0    0    0 -0.00000000000E+00 -0.00000000000E+00 -0.45593999997E+02  0.45594000000E+02  0.51100000000E-03 0.  1.
    9900012    2    1    2    0    0  0.25348194850E+02 -0.97656713663E+01  0.16697952842E+02  0.59301938021E+02  0.49999989045E+02 0.  0.
        -12    1    1    2    0    0 -0.25348194850E+02  0.97656713663E+01 -0.16697952842E+02  0.31886061979E+02  0.00000000000E+00 0.  1.
         11    1    3    3    0    0  0.76420936838E+00  0.13973102781E+01  0.23259876721E+02  0.23314338020E+02  0.51100000000E-03 0. -1.
        -11    1    3    3    0    0  0.69241322538E+01 -0.56169560991E+01  0.83519671807E+01  0.12216757317E+02  0.51100000000E-03 0.  1.
        -12    1    3    3    0    0  0.17659853228E+02 -0.55460255453E+01 -0.14913891060E+02  0.23770842684E+02  0.00000000000E+00 0.  1.
</event>
<event>
 7    1  0.1327607E-011  0.5930195E+02  0.7816164E-02  0.1266605E+00
        -11   -1    0    0    0    0  0.00000000000E+00  0.00000000000E+00  0.45593999997E+02  0.45594000000E+02  0.51100000000E-03 0.  1.
         11   -1    0    0    0    0 -0.00000000000E+00 -0.00000000000E+00 -0.45593999997E+02  0.45594000000E+02  0.51100000000E-03 0. -1.
    9900012    2    1    2    0    0 -0.25197188700E+01 -0.30197376071E+02 -0.99242111716E+01  0.59301945491E+02  0.50000002668E+02 0.  0.
        -12    1    1    2    0    0  0.25197188700E+01  0.30197376071E+02  0.99242111716E+01  0.31886054509E+02  0.00000000000E+00 0.  1.
         11    1    3    3    0    0  0.35917932104E+01 -0.12367795902E+02 -0.42833894317E+01  0.13572427167E+02  0.51100000000E-03 0. -1.
        -11    1    3    3    0    0 -0.37083591211E+00 -0.21778108972E+02 -0.20125818235E+02  0.29655895022E+02  0.51100000000E-03 0.  1.
        -12    1    3    3    0    0 -0.57406761683E+01  0.39485288026E+01  0.14484996495E+02  0.16073623301E+02  0.00000000000E+00 0.  1.
</event>
<event>
 7    1  0.1327607E-011  0.5930195E+02  0.7816164E-02  0.1266605E+00
        -11   -1    0    0    0    0  0.00000000000E+00  0.00000000000E+00  0.45593999997E+02  0.45594000000E+02  0.51100000000E-03 0. -1.
         11   -1    0    0    0    0 -0.00000000000E+00 -0.00000000000E+00 -0.45593999997E+02  0.45594000000E+02  0.51100000000E-03 0.  1.
    9900012    2    1    2    0    0  0.79760061396E+00 -0.12884784051E+02  0.29155892027E+02  0.59301954985E+02  0.50000019984E+02 0.  0.
        -12    1    1    2    0    0 -0.79760061396E+00  0.12884784051E+02 -0.29155892027E+02  0.31886045015E+02  0.00000000000E+00 0.  1.
         11    1    3    3    0    0 -0.19351505694E+01 -0.15173645635E+02  0.55031439927E+01  0.16256350256E+02  0.51100000000E-03 0. -1.
        -11    1    3    3    0    0 -0.37951358319E+01 -0.14664511627E+02  0.28260507569E+01  0.15409007768E+02  0.51100000000E-03 0.  1.
         12    1    3    3    0    0  0.65278870153E+01  0.16953373211E+02  0.20826697278E+02  0.27636596961E+02  0.00000000000E+00 0. -1.
</event>
<event>
 7    1  0.1327607E-011  0.5930194E+02  0.7816164E-02  0.1266605E+00
        -11   -1    0    0    0    0  0.00000000000E+00  0.00000000000E+00  0.45593999997E+02  0.45594000000E+02  0.51100000000E-03 0. -1.
         11   -1    0    0    0    0 -0.00000000000E+00 -0.00000000000E+00 -0.45593999997E+02  0.45594000000E+02  0.51100000000E-03 0.  1.
    9900012    2    1    2    0    0  0.22919960588E+02  0.48855856131E+01  0.21622372390E+02  0.59301944617E+02  0.50000001075E+02 0.  0.
        -12    1    1    2    0    0 -0.22919960588E+02 -0.48855856131E+01 -0.21622372390E+02  0.31886055383E+02  0.00000000000E+00 0.  1.
         11    1    3    3    0    0  0.10047396954E+02  0.11390721660E+02  0.97146373020E+01  0.18029778247E+02  0.51100000000E-03 0. -1.
        -11    1    3    3    0    0  0.10814183851E+02  0.87255967064E+01  0.19647107087E+02  0.24064318553E+02  0.51100000000E-03 0.  1.
        -12    1    3    3    0    0  0.20583797831E+01 -0.15230732753E+02 -0.77393719998E+01  0.17207847817E+02  0.00000000000E+00 0.  1.
</event>
<event>
 7    1  0.1327607E-011  0.5930197E+02  0.7816164E-02  0.1266605E+00
        -11   -1    0    0    0    0  0.00000000000E+00  0.00000000000E+00  0.45593999997E+02  0.45594000000E+02  0.51100000000E-03 0.  1.
         11   -1    0    0    0    0 -0.00000000000E+00 -0.00000000000E+00 -0.45593999997E+02  0.45594000000E+02  0.51100000000E-03 0. -1.
    9900012    2    1    2    0    0 -0.17683320383E+02 -0.23350450009E+01 -0.26430416187E+02  0.59301966149E+02  0.50000040344E+02 0.  0.
        -12    1    1    2    0    0  0.17683320383E+02  0.23350450009E+01  0.26430416187E+02  0.31886033851E+02  0.00000000000E+00 0.  1.
         11    1    3    3    0    0 -0.90463516253E+01  0.75094176400E+01 -0.13252337050E+02  0.17715876173E+02  0.51100000000E-03 0. -1.
        -11    1    3    3    0    0 -0.73489122148E+01  0.10317008595E+02 -0.16821812777E+02  0.21057553572E+02  0.51100000000E-03 0.  1.
        -12    1    3    3    0    0 -0.12880565424E+01 -0.20161471236E+02  0.36437336402E+01  0.20528536404E+02  0.00000000000E+00 0.  1.
</event>
<event>
 7    1  0.1327607E-011  0.5930192E+02  0.7816164E-02  0.1266605E+00
        -11   -1    0    0    0    0  0.00000000000E+00  0.00000000000E+00  0.45593999997E+02  0.45594000000E+02  0.51100000000E-03 0. -1.
         11   -1    0    0    0    0 -0.00000000000E+00 -0.00000000000E+00 -0.45593999997E+02  0.45594000000E+02  0.51100000000E-03 0.  1.
    9900012    2    1    2    0    0 -0.10126868515E+02  0.28058619552E+02  0.11264199724E+02  0.59301924787E+02  0.49999964910E+02 0.  0.
        -12    1    1    2    0    0  0.10126868515E+02 -0.28058619552E+02 -0.11264199724E+02  0.31886075213E+02  0.00000000000E+00 0.  1.
         11    1    3    3    0    0 -0.18283619527E+02  0.21753297910E+02  0.12693264715E+02  0.31122591190E+02  0.51100000000E-03 0. -1.
        -11    1    3    3    0    0 -0.54408457763E+01  0.11705471782E+02  0.22267832503E+01  0.13098833395E+02  0.51100000000E-03 0.  1.
        -12    1    3    3    0    0  0.13597596789E+02 -0.54001501407E+01 -0.36558482419E+01  0.15080500202E+02  0.00000000000E+00 0.  1.
</event>
<event>
 7    1  0.1327607E-011  0.5930209E+02  0.7816164E-02  0.1266604E+00
        -11   -1    0    0    0    0  0.00000000000E+00  0.00000000000E+00  0.45593999997E+02  0.45594000000E+02  0.51100000000E-03 0. -1.
         11   -1    0    0    0    0 -0.00000000000E+00 -0.00000000000E+00 -0.45593999997E+02  0.45594000000E+02  0.51100000000E-03 0.  1.
    9900012    2    1    2    0    0  0.23611902301E+02  0.15087329286E+02  0.15217165533E+02  0.59302085208E+02  0.50000257479E+02 0.  0.
        -12    1    1    2    0    0 -0.23611902301E+02 -0.15087329286E+02 -0.15217165533E+02  0.31885914792E+02  0.00000000000E+00 0.  1.
         11    1    3    3    0    0  0.21084353945E+02  0.97078427358E+01  0.18702291735E+01  0.23287119815E+02  0.51100000000E-03 0. -1.
        -11    1    3    3    0    0  0.31558513130E+01  0.15030590159E+02 -0.42498631794E+01  0.15935475373E+02  0.51100000000E-03 0.  1.
         12    1    3    3    0    0 -0.62830295709E+00 -0.96511036088E+01  0.17596799539E+02  0.20079490021E+02  0.00000000000E+00 0. -1.
</event>
<event>
 7    1  0.1327607E-011  0.5930194E+02  0.7816164E-02  0.1266605E+00
        -11   -1    0    0    0    0  0.00000000000E+00  0.00000000000E+00  0.45593999997E+02  0.45594000000E+02  0.51100000000E-03 0.  1.
         11   -1    0    0    0    0 -0.00000000000E+00 -0.00000000000E+00 -0.45593999997E+02  0.45594000000E+02  0.51100000000E-03 0. -1.
    9900012    2    1    2    0    0  0.25541032296E+02  0.18876075697E+02 -0.28407696607E+01  0.59301944478E+02  0.50000000822E+02 0.  0.
        -12    1    1    2    0    0 -0.25541032296E+02 -0.18876075697E+02  0.28407696607E+01  0.31886055522E+02  0.00000000000E+00 0.  1.
         11    1    3    3    0    0  0.28593753717E+02  0.26694750122E+02 -0.41215993388E+01  0.39334463478E+02  0.51100000000E-03 0. -1.
        -11    1    3    3    0    0  0.29539397472E+01  0.24617566357E+01  0.60274995204E+01  0.71495983449E+01  0.51100000000E-03 0.  1.
        -12    1    3    3    0    0 -0.60066611680E+01 -0.10280431061E+02 -0.47466698423E+01  0.12817882656E+02  0.00000000000E+00 0.  1.
</event>
<event>
 7    1  0.1327607E-011  0.5930168E+02  0.7816164E-02  0.1266606E+00
        -11   -1    0    0    0    0  0.00000000000E+00  0.00000000000E+00  0.45593999997E+02  0.45594000000E+02  0.51100000000E-03 0. -1.
         11   -1    0    0    0    0 -0.00000000000E+00 -0.00000000000E+00 -0.45593999997E+02  0.45594000000E+02  0.51100000000E-03 0.  1.
    9900012    2    1    2    0    0 -0.26278273380E+02  0.22064891578E+00  0.18059382944E+02  0.59301676127E+02  0.49999511411E+02 0.  0.
        -12    1    1    2    0    0  0.26278273380E+02 -0.22064891578E+00 -0.18059382944E+02  0.31886323873E+02  0.00000000000E+00 0.  1.
         11    1    3    3    0    0 -0.41110018721E+01 -0.42512751040E+01 -0.32147252442E+01  0.67311317815E+01  0.51100000000E-03 0. -1.
        -11    1    3    3    0    0 -0.55264089988E+01 -0.17388191998E+02  0.72014568773E+00  0.18259491435E+02  0.51100000000E-03 0.  1.
         12    1    3    3    0    0 -0.16640862509E+02  0.21860116018E+02  0.20553962501E+02  0.34311052911E+02  0.00000000000E+00 0. -1.
</event>
<event>
 7    1  0.1327607E-011  0.5930202E+02  0.7816164E-02  0.1266605E+00
        -11   -1    0    0    0    0  0.00000000000E+00  0.00000000000E+00  0.45593999997E+02  0.45594000000E+02  0.51100000000E-03 0.  1.
         11   -1    0    0    0    0 -0.00000000000E+00 -0.00000000000E+00 -0.45593999997E+02  0.45594000000E+02  0.51100000000E-03 0. -1.
    9900012    2    1    2    0    0  0.29901635698E+02  0.25928052089E+01 -0.10765004652E+02  0.59302019045E+02  0.50000136814E+02 0.  0.
        -12    1    1    2    0    0 -0.29901635698E+02 -0.25928052089E+01  0.10765004652E+02  0.31885980955E+02  0.00000000000E+00 0.  1.
         11    1    3    3    0    0  0.26244134788E+02 -0.37203469687E+01 -0.65966229373E+01  0.27315032981E+02  0.51100000000E-03 0. -1.
        -11    1    3    3    0    0  0.87582631732E+01  0.39138162059E+01  0.11710028685E+02  0.15137698080E+02  0.51100000000E-03 0.  1.
        -12    1    3    3    0    0 -0.51007622627E+01  0.23993359717E+01 -0.15878410399E+02  0.16849287984E+02  0.00000000000E+00 0.  1.
</event>
<event>
 7    1  0.1327607E-011  0.5930201E+02  0.7816164E-02  0.1266605E+00
        -11   -1    0    0    0    0  0.00000000000E+00  0.00000000000E+00  0.45593999997E+02  0.45594000000E+02  0.51100000000E-03 0. -1.
         11   -1    0    0    0    0 -0.00000000000E+00 -0.00000000000E+00 -0.45593999997E+02  0.45594000000E+02  0.51100000000E-03 0.  1.
    9900012    2    1    2    0    0  0.12907023528E+02  0.29154949322E+02  0.33794991421E+00  0.59302007206E+02  0.50000115222E+02 0.  0.
        -12    1    1    2    0    0 -0.12907023528E+02 -0.29154949322E+02 -0.33794991421E+00  0.31885992794E+02  0.00000000000E+00 0.  1.
         11    1    3    3    0    0 -0.42748207412E+01 -0.11010504550E+02 -0.70036180471E+01  0.13731568331E+02  0.51100000000E-03 0.  1.
        -11    1    3    3    0    0  0.48925151419E+01  0.12285799306E+02  0.72940472228E+01  0.15102340685E+02  0.51100000000E-03 0. -1.
        -12    1    3    3    0    0  0.12289329128E+02  0.27879654566E+02  0.47520738582E-01  0.30468098190E+02  0.00000000000E+00 0.  1.
</event>
<event>
 7    1  0.1327607E-011  0.5930194E+02  0.7816164E-02  0.1266605E+00
        -11   -1    0    0    0    0  0.00000000000E+00  0.00000000000E+00  0.45593999997E+02  0.45594000000E+02  0.51100000000E-03 0.  1.
         11   -1    0    0    0    0 -0.00000000000E+00 -0.00000000000E+00 -0.45593999997E+02  0.45594000000E+02  0.51100000000E-03 0. -1.
    9900012    2    1    2    0    0  0.51681527600E+01  0.29554367181E+02  0.10795859689E+02  0.59301937075E+02  0.49999987320E+02 0.  0.
        -12    1    1    2    0    0 -0.51681527600E+01 -0.29554367181E+02 -0.10795859689E+02  0.31886062925E+02  0.00000000000E+00 0.  1.
         11    1    3    3    0    0  0.17695850023E+02  0.14654327145E+02  0.67143391179E+01  0.23936891238E+02  0.51100000000E-03 0. -1.
        -11    1    3    3    0    0 -0.12603490481E+02  0.61589830656E+01 -0.11072057587E+02  0.17870968194E+02  0.51100000000E-03 0.  1.
         12    1    3    3    0    0  0.75793218664E-01  0.87410569704E+01  0.15153578158E+02  0.17494077643E+02  0.00000000000E+00 0. -1.
</event>
<event>
 7    1  0.1327607E-011  0.5930195E+02  0.7816164E-02  0.1266605E+00
        -11   -1    0    0    0    0  0.00000000000E+00  0.00000000000E+00  0.45593999997E+02  0.45594000000E+02  0.51100000000E-03 0.  1.
         11   -1    0    0    0    0 -0.00000000000E+00 -0.00000000000E+00 -0.45593999997E+02  0.45594000000E+02  0.51100000000E-03 0. -1.
    9900012    2    1    2    0    0  0.30268068290E+02 -0.69657042416E+01  0.72140983641E+01  0.59301949621E+02  0.50000010201E+02 0.  0.
        -12    1    1    2    0    0 -0.30268068290E+02  0.69657042416E+01 -0.72140983641E+01  0.31886050379E+02  0.00000000000E+00 0.  1.
         11    1    3    3    0    0  0.86449757536E+00  0.14663554082E+02 -0.67843952922E+01  0.16180086345E+02  0.51100000000E-03 0. -1.
        -11    1    3    3    0    0  0.14147371083E+02 -0.10950463431E+02 -0.27201438640E+01  0.18095854244E+02  0.51100000000E-03 0.  1.
        -12    1    3    3    0    0  0.15256199631E+02 -0.10678794893E+02  0.16718637520E+02  0.25026009033E+02  0.00000000000E+00 0.  1.
</event>
<event>
 7    1  0.1327607E-011  0.5930195E+02  0.7816164E-02  0.1266605E+00
        -11   -1    0    0    0    0  0.00000000000E+00  0.00000000000E+00  0.45593999997E+02  0.45594000000E+02  0.51100000000E-03 0. -1.
         11   -1    0    0    0    0 -0.00000000000E+00 -0.00000000000E+00 -0.45593999997E+02  0.45594000000E+02  0.51100000000E-03 0.  1.
    9900012    2    1    2    0    0  0.18950517473E+02 -0.25020496525E+02  0.56189645734E+01  0.59301950986E+02  0.50000012690E+02 0.  0.
        -12    1    1    2    0    0 -0.18950517473E+02  0.25020496525E+02 -0.56189645734E+01  0.31886049014E+02  0.00000000000E+00 0.  1.
         11    1    3    3    0    0 -0.18158443968E+01 -0.20136850426E+02 -0.59144897824E+01  0.21065878230E+02  0.51100000000E-03 0. -1.
        -11    1    3    3    0    0 -0.30297573730E+01  0.83083650487E+01  0.44372258242E+00  0.88546738796E+01  0.51100000000E-03 0.  1.
        -12    1    3    3    0    0  0.23796119243E+02 -0.13192011147E+02  0.11089731773E+02  0.29381398876E+02  0.00000000000E+00 0.  1.
</event>
<event>
 7    1  0.1327607E-011  0.5930162E+02  0.7816164E-02  0.1266606E+00
        -11   -1    0    0    0    0  0.00000000000E+00  0.00000000000E+00  0.45593999997E+02  0.45594000000E+02  0.51100000000E-03 0. -1.
         11   -1    0    0    0    0 -0.00000000000E+00 -0.00000000000E+00 -0.45593999997E+02  0.45594000000E+02  0.51100000000E-03 0.  1.
    9900012    2    1    2    0    0  0.64992260064E+01 -0.15432500360E+02  0.27135569295E+02  0.59301621607E+02  0.49999411979E+02 0.  0.
        -12    1    1    2    0    0 -0.64992260064E+01  0.15432500360E+02 -0.27135569295E+02  0.31886378393E+02  0.00000000000E+00 0.  1.
         11    1    3    3    0    0  0.13056471849E+02  0.10430060114E+02  0.98359447904E+01  0.19390807650E+02  0.51100000000E-03 0. -1.
        -11    1    3    3    0    0  0.59813049128E+01  0.59548388194E+00  0.60978981887E+01  0.85624162533E+01  0.51100000000E-03 0.  1.
        -12    1    3    3    0    0 -0.12538550756E+02 -0.26458044356E+02  0.11201726316E+02  0.31348397704E+02  0.00000000000E+00 0.  1.
</event>
<event>
 7    1  0.1327607E-011  0.5930198E+02  0.7816164E-02  0.1266605E+00
        -11   -1    0    0    0    0  0.00000000000E+00  0.00000000000E+00  0.45593999997E+02  0.45594000000E+02  0.51100000000E-03 0.  1.
         11   -1    0    0    0    0 -0.00000000000E+00 -0.00000000000E+00 -0.45593999997E+02  0.45594000000E+02  0.51100000000E-03 0. -1.
    9900012    2    1    2    0    0 -0.42975891264E+01  0.16171580641E+02 -0.27142753690E+02  0.59301978445E+02  0.50000062769E+02 0.  0.
        -12    1    1    2    0    0  0.42975891264E+01 -0.16171580641E+02  0.27142753690E+02  0.31886021555E+02  0.00000000000E+00 0.  1.
         11    1    3    3    0    0 -0.18577491276E+02  0.17461591877E+01 -0.87334948591E+01  0.20602091805E+02  0.51100000000E-03 0. -1.
        -11    1    3    3    0    0 -0.46141393009E+01 -0.31496153941E+01  0.18584074850E+01  0.58876172821E+01  0.51100000000E-03 0.  1.
         12    1    3    3    0    0  0.18894041450E+02  0.17575036847E+02 -0.20267666316E+02  0.32812269358E+02  0.00000000000E+00 0. -1.
</event>
<event>
 7    1  0.1327607E-011  0.5930200E+02  0.7816164E-02  0.1266605E+00
        -11   -1    0    0    0    0  0.00000000000E+00  0.00000000000E+00  0.45593999997E+02  0.45594000000E+02  0.51100000000E-03 0. -1.
         11   -1    0    0    0    0 -0.00000000000E+00 -0.00000000000E+00 -0.45593999997E+02  0.45594000000E+02  0.51100000000E-03 0.  1.
    9900012    2    1    2    0    0  0.23655841554E+02  0.20939420686E+02 -0.43195581627E+01  0.59302003684E+02  0.50000108799E+02 0.  0.
        -12    1    1    2    0    0 -0.23655841554E+02 -0.20939420686E+02  0.43195581627E+01  0.31885996316E+02  0.00000000000E+00 0.  1.
         11    1    3    3    0    0  0.17140390022E+02  0.11993646450E+02 -0.38304097051E+01  0.21267641243E+02  0.51100000000E-03 0. -1.
        -11    1    3    3    0    0  0.67110957784E+01  0.18496047395E+02  0.11433789814E+02  0.22756847882E+02  0.51100000000E-03 0.  1.
        -12    1    3    3    0    0 -0.19564424638E+00 -0.95502731583E+01 -0.11922938271E+02  0.15277514559E+02  0.00000000000E+00 0.  1.
</event>
<event>
 7    1  0.1327607E-011  0.5930192E+02  0.7816164E-02  0.1266605E+00
        -11   -1    0    0    0    0  0.00000000000E+00  0.00000000000E+00  0.45593999997E+02  0.45594000000E+02  0.51100000000E-03 0. -1.
         11   -1    0    0    0    0 -0.00000000000E+00 -0.00000000000E+00 -0.45593999997E+02  0.45594000000E+02  0.51100000000E-03 0.  1.
    9900012    2    1    2    0    0 -0.20887558839E+02 -0.19529090604E+02  0.14108382288E+02  0.59301922398E+02  0.49999960553E+02 0.  0.
        -12    1    1    2    0    0  0.20887558839E+02  0.19529090604E+02 -0.14108382288E+02  0.31886077602E+02  0.00000000000E+00 0.  1.
         11    1    3    3    0    0 -0.22760674230E+02 -0.15705630181E+02  0.55796056823E+01  0.28210762319E+02  0.51100000000E-03 0.  1.
        -11    1    3    3    0    0 -0.64812284170E+01  0.77089549091E+01 -0.51791102908E+01  0.11325082395E+02  0.51100000000E-03 0. -1.
         12    1    3    3    0    0  0.83543438085E+01 -0.11532415332E+02  0.13707886897E+02  0.19766077684E+02  0.00000000000E+00 0. -1.
</event>
<event>
 7    1  0.1327607E-011  0.5930196E+02  0.7816164E-02  0.1266605E+00
        -11   -1    0    0    0    0  0.00000000000E+00  0.00000000000E+00  0.45593999997E+02  0.45594000000E+02  0.51100000000E-03 0.  1.
         11   -1    0    0    0    0 -0.00000000000E+00 -0.00000000000E+00 -0.45593999997E+02  0.45594000000E+02  0.51100000000E-03 0. -1.
    9900012    2    1    2    0    0 -0.10259920697E+02  0.15645745478E+02 -0.25819845899E+02  0.59301956556E+02  0.50000022848E+02 0.  0.
        -12    1    1    2    0    0  0.10259920697E+02 -0.15645745478E+02  0.25819845899E+02  0.31886043444E+02  0.00000000000E+00 0.  1.
         11    1    3    3    0    0 -0.19293539096E+02  0.72612780079E+01 -0.92036953444E+01  0.22575978770E+02  0.51100000000E-03 0. -1.
        -11    1    3    3    0    0  0.26763524633E+01  0.92085105101E+01 -0.24649064755E+02  0.26448741404E+02  0.51100000000E-03 0.  1.
        -12    1    3    3    0    0  0.63572659358E+01 -0.82404303997E+00  0.80329141996E+01  0.10277236382E+02  0.00000000000E+00 0.  1.
</event>
<event>
 7    1  0.1327607E-011  0.5930204E+02  0.7816164E-02  0.1266604E+00
        -11   -1    0    0    0    0  0.00000000000E+00  0.00000000000E+00  0.45593999997E+02  0.45594000000E+02  0.51100000000E-03 0. -1.
         11   -1    0    0    0    0 -0.00000000000E+00 -0.00000000000E+00 -0.45593999997E+02  0.45594000000E+02  0.51100000000E-03 0.  1.
    9900012    2    1    2    0    0 -0.16904984750E+02 -0.14742555588E+01  0.26995603744E+02  0.59302038193E+02  0.50000171735E+02 0.  0.
        -12    1    1    2    0    0  0.16904984750E+02  0.14742555588E+01 -0.26995603744E+02  0.31885961807E+02  0.00000000000E+00 0.  1.
         11    1    3    3    0    0  0.87202327762E+01 -0.52976518593E-02 -0.43079192309E+01  0.97262868607E+01  0.51100000000E-03 0. -1.
        -11    1    3    3    0    0 -0.34214212561E+01  0.10251968470E+02  0.18417612722E+02  0.21354564841E+02  0.51100000000E-03 0.  1.
         12    1    3    3    0    0 -0.22203796270E+02 -0.11720926377E+02  0.12885910252E+02  0.28221186491E+02  0.00000000000E+00 0. -1.
</event>
<event>
 7    1  0.1327607E-011  0.5930193E+02  0.7816164E-02  0.1266605E+00
        -11   -1    0    0    0    0  0.00000000000E+00  0.00000000000E+00  0.45593999997E+02  0.45594000000E+02  0.51100000000E-03 0. -1.
         11   -1    0    0    0    0 -0.00000000000E+00 -0.00000000000E+00 -0.45593999997E+02  0.45594000000E+02  0.51100000000E-03 0.  1.
    9900012    2    1    2    0    0 -0.22815144829E+02 -0.22004779353E+02  0.34612260902E+01  0.59301933545E+02  0.49999980883E+02 0.  0.
        -12    1    1    2    0    0  0.22815144829E+02  0.22004779353E+02 -0.34612260902E+01  0.31886066455E+02  0.00000000000E+00 0.  1.
         11    1    3    3    0    0 -0.94578696038E-01 -0.17522456947E+02 -0.87550791407E+01  0.19588181478E+02  0.51100000000E-03 0. -1.
        -11    1    3    3    0    0 -0.66727613027E+01 -0.42903612531E+01 -0.97118144401E+01  0.12540027235E+02  0.51100000000E-03 0.  1.
         12    1    3    3    0    0 -0.16047804830E+02 -0.19196115252E+00  0.21928119671E+02  0.27173724832E+02  0.00000000000E+00 0. -1.
</event>
<event>
 7    1  0.1327607E-011  0.5930194E+02  0.7816164E-02  0.1266605E+00
        -11   -1    0    0    0    0  0.00000000000E+00  0.00000000000E+00  0.45593999997E+02  0.45594000000E+02  0.51100000000E-03 0. -1.
         11   -1    0    0    0    0 -0.00000000000E+00 -0.00000000000E+00 -0.45593999997E+02  0.45594000000E+02  0.51100000000E-03 0.  1.
    9900012    2    1    2    0    0  0.25844892891E+02 -0.15872255238E+02 -0.98404043333E+01  0.59301944548E+02  0.50000000948E+02 0.  0.
        -12    1    1    2    0    0 -0.25844892891E+02  0.15872255238E+02  0.98404043333E+01  0.31886055452E+02  0.00000000000E+00 0.  1.
         11    1    3    3    0    0  0.43411898851E+01 -0.10178870155E+02 -0.17742590425E+02  0.20910639457E+02  0.51100000000E-03 0. -1.
        -11    1    3    3    0    0 -0.40394056961E+01 -0.90243956886E+01  0.78618084126E+01  0.12631886150E+02  0.51100000000E-03 0.  1.
        -12    1    3    3    0    0  0.25543108702E+02  0.33310106055E+01  0.40377679345E-01  0.25759418941E+02  0.00000000000E+00 0.  1.
</event>
<event>
 7    1  0.1327607E-011  0.5930190E+02  0.7816164E-02  0.1266605E+00
        -11   -1    0    0    0    0  0.00000000000E+00  0.00000000000E+00  0.45593999997E+02  0.45594000000E+02  0.51100000000E-03 0.  1.
         11   -1    0    0    0    0 -0.00000000000E+00 -0.00000000000E+00 -0.45593999997E+02  0.45594000000E+02  0.51100000000E-03 0. -1.
    9900012    2    1    2    0    0  0.93862774083E+01 -0.88875462633E+01 -0.29148456592E+02  0.59301902655E+02  0.49999924547E+02 0.  0.
        -12    1    1    2    0    0 -0.93862774083E+01  0.88875462633E+01  0.29148456592E+02  0.31886097345E+02  0.00000000000E+00 0.  1.
         11    1    3    3    0    0  0.25637826901E+02 -0.19549373079E+01 -0.67191239492E+01  0.26575676378E+02  0.51100000000E-03 0. -1.
        -11    1    3    3    0    0  0.10338867720E+01  0.33649761874E+01 -0.49480057264E+01  0.60724581126E+01  0.51100000000E-03 0.  1.
        -12    1    3    3    0    0 -0.17285436264E+02 -0.10297585143E+02 -0.17481326916E+02  0.26653768165E+02  0.00000000000E+00 0.  1.
</event>
<event>
 7    1  0.1327607E-011  0.5930193E+02  0.7816164E-02  0.1266605E+00
        -11   -1    0    0    0    0  0.00000000000E+00  0.00000000000E+00  0.45593999997E+02  0.45594000000E+02  0.51100000000E-03 0.  1.
         11   -1    0    0    0    0 -0.00000000000E+00 -0.00000000000E+00 -0.45593999997E+02  0.45594000000E+02  0.51100000000E-03 0. -1.
    9900012    2    1    2    0    0  0.24194306871E+02 -0.13311291892E+02 -0.15942603943E+02  0.59301927848E+02  0.49999970492E+02 0.  0.
        -12    1    1    2    0    0 -0.24194306871E+02  0.13311291892E+02  0.15942603943E+02  0.31886072152E+02  0.00000000000E+00 0.  1.
         11    1    3    3    0    0  0.17089645854E+02  0.45224259110E+00 -0.27249358451E+01  0.17311435365E+02  0.51100000000E-03 0. -1.
        -11    1    3    3    0    0  0.14508149331E+01 -0.32754208107E+01  0.12844042519E+02  0.13334266907E+02  0.51100000000E-03 0.  1.
        -12    1    3    3    0    0  0.56538460831E+01 -0.10488113673E+02 -0.26061710617E+02  0.28656225575E+02  0.00000000000E+00 0.  1.
</event>
<event>
 7    1  0.1327607E-011  0.5930191E+02  0.7816164E-02  0.1266605E+00
        -11   -1    0    0    0    0  0.00000000000E+00  0.00000000000E+00  0.45593999997E+02  0.45594000000E+02  0.51100000000E-03 0.  1.
         11   -1    0    0    0    0 -0.00000000000E+00 -0.00000000000E+00 -0.45593999997E+02  0.45594000000E+02  0.51100000000E-03 0. -1.
    9900012    2    1    2    0    0 -0.60266566815E+00  0.12943910700E+02 -0.29134425087E+02  0.59301909689E+02  0.49999937375E+02 0.  0.
        -12    1    1    2    0    0  0.60266566815E+00 -0.12943910700E+02  0.29134425087E+02  0.31886090311E+02  0.00000000000E+00 0.  1.
         11    1    3    3    0    0  0.52022107881E+01 -0.47033312001E+01 -0.75944200964E+01  0.10337288732E+02  0.51100000000E-03 0. -1.
        -11    1    3    3    0    0  0.15384430081E+02 -0.11352665466E+01 -0.52361216022E+01  0.16290687178E+02  0.51100000000E-03 0.  1.
         12    1    3    3    0    0 -0.21189306537E+02  0.18782508447E+02 -0.16303883389E+02  0.32673933780E+02  0.00000000000E+00 0. -1.
</event>
<event>
 7    1  0.1327607E-011  0.5930195E+02  0.7816164E-02  0.1266605E+00
        -11   -1    0    0    0    0  0.00000000000E+00  0.00000000000E+00  0.45593999997E+02  0.45594000000E+02  0.51100000000E-03 0. -1.
         11   -1    0    0    0    0 -0.00000000000E+00 -0.00000000000E+00 -0.45593999997E+02  0.45594000000E+02  0.51100000000E-03 0.  1.
    9900012    2    1    2    0    0  0.15197059070E+02 -0.23711039425E+01  0.27931122554E+02  0.59301947478E+02  0.50000006293E+02 0.  0.
        -12    1    1    2    0    0 -0.15197059070E+02  0.23711039425E+01 -0.27931122554E+02  0.31886052522E+02  0.00000000000E+00 0.  1.
         11    1    3    3    0    0  0.12996670425E+01  0.17055058321E+00  0.30665873083E+01  0.33349932388E+01  0.51100000000E-03 0. -1.
        -11    1    3    3    0    0  0.22270761093E+02  0.17191714686E+02  0.99058353806E+01  0.29827293346E+02  0.51100000000E-03 0.  1.
         12    1    3    3    0    0 -0.83733690649E+01 -0.19733369212E+02  0.14958699865E+02  0.26139660893E+02  0.00000000000E+00 0. -1.
</event>
<event>
 7    1  0.1327607E-011  0.5930193E+02  0.7816164E-02  0.1266605E+00
        -11   -1    0    0    0    0  0.00000000000E+00  0.00000000000E+00  0.45593999997E+02  0.45594000000E+02  0.51100000000E-03 0. -1.
         11   -1    0    0    0    0 -0.00000000000E+00 -0.00000000000E+00 -0.45593999997E+02  0.45594000000E+02  0.51100000000E-03 0.  1.
    9900012    2    1    2    0    0 -0.24348670792E+02 -0.17466278043E+02  0.10899199509E+02  0.59301934267E+02  0.49999982199E+02 0.  0.
        -12    1    1    2    0    0  0.24348670792E+02  0.17466278043E+02 -0.10899199509E+02  0.31886065733E+02  0.00000000000E+00 0.  1.
         11    1    3    3    0    0 -0.76200851541E+01 -0.25347103148E+02  0.19119159849E+02  0.32650935811E+02  0.51100000000E-03 0. -1.
        -11    1    3    3    0    0 -0.76303698279E+01 -0.48227723503E+01 -0.60709377349E+01  0.10878325335E+02  0.51100000000E-03 0.  1.
        -12    1    3    3    0    0 -0.90982158098E+01  0.12703597455E+02 -0.21490226051E+01  0.15772673121E+02  0.00000000000E+00 0.  1.
</event>
<event>
 7    1  0.1327607E-011  0.5930193E+02  0.7816164E-02  0.1266605E+00
        -11   -1    0    0    0    0  0.00000000000E+00  0.00000000000E+00  0.45593999997E+02  0.45594000000E+02  0.51100000000E-03 0.  1.
         11   -1    0    0    0    0 -0.00000000000E+00 -0.00000000000E+00 -0.45593999997E+02  0.45594000000E+02  0.51100000000E-03 0. -1.
    9900012    2    1    2    0    0 -0.13283183729E+02  0.28641523309E+02 -0.44655926071E+01  0.59301931808E+02  0.49999977714E+02 0.  0.
        -12    1    1    2    0    0  0.13283183729E+02 -0.28641523309E+02  0.44655926071E+01  0.31886068192E+02  0.00000000000E+00 0.  1.
         11    1    3    3    0    0  0.80918296274E-01  0.73602439373E+01  0.36200062130E+01  0.82026936935E+01  0.51100000000E-03 0. -1.
        -11    1    3    3    0    0  0.95370740682E+01 -0.43752125930E+01  0.79396481637E+01  0.13158126016E+02  0.51100000000E-03 0.  1.
         12    1    3    3    0    0 -0.22901176094E+02  0.25656491964E+02 -0.16025246984E+02  0.37941112099E+02  0.00000000000E+00 0. -1.
</event>
<event>
 7    1  0.1327607E-011  0.5930192E+02  0.7816164E-02  0.1266605E+00
        -11   -1    0    0    0    0  0.00000000000E+00  0.00000000000E+00  0.45593999997E+02  0.45594000000E+02  0.51100000000E-03 0.  1.
         11   -1    0    0    0    0 -0.00000000000E+00 -0.00000000000E+00 -0.45593999997E+02  0.45594000000E+02  0.51100000000E-03 0. -1.
    9900012    2    1    2    0    0  0.10933770105E+02 -0.17872250423E+02 -0.24036584181E+02  0.59301920859E+02  0.49999957745E+02 0.  0.
        -12    1    1    2    0    0 -0.10933770105E+02  0.17872250423E+02  0.24036584181E+02  0.31886079141E+02  0.00000000000E+00 0.  1.
         11    1    3    3    0    0  0.23533004660E+02 -0.15336920985E+02 -0.76861774617E+01  0.29122169869E+02  0.51100000000E-03 0. -1.
        -11    1    3    3    0    0  0.25308440227E+01  0.69064637153E+01 -0.32013587636E+01  0.80220390620E+01  0.51100000000E-03 0.  1.
        -12    1    3    3    0    0 -0.15130078578E+02 -0.94417931532E+01 -0.13149047956E+02  0.22157711928E+02  0.00000000000E+00 0.  1.
</event>
<event>
 7    1  0.1327607E-011  0.5930194E+02  0.7816164E-02  0.1266605E+00
        -11   -1    0    0    0    0  0.00000000000E+00  0.00000000000E+00  0.45593999997E+02  0.45594000000E+02  0.51100000000E-03 0. -1.
         11   -1    0    0    0    0 -0.00000000000E+00 -0.00000000000E+00 -0.45593999997E+02  0.45594000000E+02  0.51100000000E-03 0.  1.
    9900012    2    1    2    0    0  0.29936971118E+02  0.10201678738E+02  0.40527257604E+01  0.59301936040E+02  0.49999985432E+02 0.  0.
        -12    1    1    2    0    0 -0.29936971118E+02 -0.10201678738E+02 -0.40527257604E+01  0.31886063960E+02  0.00000000000E+00 0.  1.
         11    1    3    3    0    0 -0.46184095004E+01  0.47698341226E+01  0.79837746229E+01  0.10383721942E+02  0.51100000000E-03 0. -1.
        -11    1    3    3    0    0 -0.20271270076E+01  0.11169522936E+02  0.16465720368E+01  0.11470775312E+02  0.51100000000E-03 0.  1.
         12    1    3    3    0    0  0.36582507626E+02 -0.57376783214E+01 -0.55776208993E+01  0.37447438786E+02  0.00000000000E+00 0. -1.
</event>
<event>
 7    1  0.1327607E-011  0.5930188E+02  0.7816164E-02  0.1266605E+00
        -11   -1    0    0    0    0  0.00000000000E+00  0.00000000000E+00  0.45593999997E+02  0.45594000000E+02  0.51100000000E-03 0. -1.
         11   -1    0    0    0    0 -0.00000000000E+00 -0.00000000000E+00 -0.45593999997E+02  0.45594000000E+02  0.51100000000E-03 0.  1.
    9900012    2    1    2    0    0 -0.23395648092E+02 -0.21015574066E+02  0.52644218152E+01  0.59301876999E+02  0.49999877756E+02 0.  0.
        -12    1    1    2    0    0  0.23395648092E+02  0.21015574066E+02 -0.52644218152E+01  0.31886123001E+02  0.00000000000E+00 0.  1.
         11    1    3    3    0    0  0.61439223393E+01 -0.14879554774E+01  0.12770445743E+02  0.14249423776E+02  0.51100000000E-03 0. -1.
        -11    1    3    3    0    0 -0.40559265491E+00 -0.10988297561E+02 -0.96327754010E+01  0.14618397685E+02  0.51100000000E-03 0.  1.
        -12    1    3    3    0    0 -0.29133977776E+02 -0.85393210277E+01  0.21267514733E+01  0.30434055538E+02  0.00000000000E+00 0.  1.
</event>
<event>
 7    1  0.1327607E-011  0.5930195E+02  0.7816164E-02  0.1266605E+00
        -11   -1    0    0    0    0  0.00000000000E+00  0.00000000000E+00  0.45593999997E+02  0.45594000000E+02  0.51100000000E-03 0.  1.
         11   -1    0    0    0    0 -0.00000000000E+00 -0.00000000000E+00 -0.45593999997E+02  0.45594000000E+02  0.51100000000E-03 0. -1.
    9900012    2    1    2    0    0 -0.17923231937E+02 -0.33972649163E+00 -0.26369727862E+02  0.59301949685E+02  0.50000010318E+02 0.  0.
        -12    1    1    2    0    0  0.17923231937E+02  0.33972649163E+00  0.26369727862E+02  0.31886050315E+02  0.00000000000E+00 0.  1.
         11    1    3    3    0    0 -0.14544243861E+02  0.10059751222E+02  0.21905938568E+01  0.17819436744E+02  0.51100000000E-03 0. -1.
        -11    1    3    3    0    0 -0.11799581582E+01  0.56251740082E+01  0.26505850729E+01  0.63293353022E+01  0.51100000000E-03 0.  1.
         12    1    3    3    0    0 -0.21990299175E+01 -0.16024651722E+02 -0.31210906792E+02  0.35153177639E+02  0.00000000000E+00 0. -1.
</event>
<event>
 7    1  0.1327607E-011  0.5930195E+02  0.7816164E-02  0.1266605E+00
        -11   -1    0    0    0    0  0.00000000000E+00  0.00000000000E+00  0.45593999997E+02  0.45594000000E+02  0.51100000000E-03 0.  1.
         11   -1    0    0    0    0 -0.00000000000E+00 -0.00000000000E+00 -0.45593999997E+02  0.45594000000E+02  0.51100000000E-03 0. -1.
    9900012    2    1    2    0    0 -0.12389133439E+01  0.28644258301E+02 -0.13953188338E+02  0.59301954390E+02  0.50000018898E+02 0.  0.
        -12    1    1    2    0    0  0.12389133439E+01 -0.28644258301E+02  0.13953188338E+02  0.31886045610E+02  0.00000000000E+00 0.  1.
         11    1    3    3    0    0  0.11700461081E+00  0.40504806972E+01  0.11651222508E+00  0.40538450040E+01  0.51100000000E-03 0. -1.
        -11    1    3    3    0    0  0.27702369673E+00  0.13764813138E+02  0.17249070873E+02  0.22069827120E+02  0.51100000000E-03 0.  1.
         12    1    3    3    0    0 -0.16329416514E+01  0.10828964466E+02 -0.31318771436E+02  0.33178282266E+02  0.00000000000E+00 0. -1.
</event>
<event>
 7    1  0.1327607E-011  0.5930194E+02  0.7816164E-02  0.1266605E+00
        -11   -1    0    0    0    0  0.00000000000E+00  0.00000000000E+00  0.45593999997E+02  0.45594000000E+02  0.51100000000E-03 0. -1.
         11   -1    0    0    0    0 -0.00000000000E+00 -0.00000000000E+00 -0.45593999997E+02  0.45594000000E+02  0.51100000000E-03 0.  1.
    9900012    2    1    2    0    0 -0.20480495309E+02 -0.18661986108E+02  0.15779744121E+02  0.59301941321E+02  0.49999995063E+02 0.  0.
        -12    1    1    2    0    0  0.20480495309E+02  0.18661986108E+02 -0.15779744121E+02  0.31886058679E+02  0.00000000000E+00 0.  1.
         11    1    3    3    0    0 -0.42241502156E+01 -0.13514113157E+02  0.10803446780E+02  0.17809805222E+02  0.51100000000E-03 0. -1.
        -11    1    3    3    0    0 -0.46881044273E+01 -0.14453308156E+02 -0.11690762339E+02  0.19171603066E+02  0.51100000000E-03 0.  1.
        -12    1    3    3    0    0 -0.11568240666E+02  0.93054352059E+01  0.16667059680E+02  0.22320533033E+02  0.00000000000E+00 0.  1.
</event>
<event>
 7    1  0.1327607E-011  0.5930197E+02  0.7816164E-02  0.1266605E+00
        -11   -1    0    0    0    0  0.00000000000E+00  0.00000000000E+00  0.45593999997E+02  0.45594000000E+02  0.51100000000E-03 0.  1.
         11   -1    0    0    0    0 -0.00000000000E+00 -0.00000000000E+00 -0.45593999997E+02  0.45594000000E+02  0.51100000000E-03 0. -1.
    9900012    2    1    2    0    0  0.26523555575E+02 -0.17341926503E+02 -0.35323722571E+01  0.59301967495E+02  0.50000042798E+02 0.  0.
        -12    1    1    2    0    0 -0.26523555575E+02  0.17341926503E+02  0.35323722571E+01  0.31886032505E+02  0.00000000000E+00 0.  1.
         11    1    3    3    0    0  0.49206799752E+01 -0.12437001591E+02  0.45908493203E+01  0.14141004128E+02  0.51100000000E-03 0. -1.
        -11    1    3    3    0    0  0.13175569063E+02 -0.14692516121E+02  0.10610496073E+02  0.22406433836E+02  0.51100000000E-03 0.  1.
        -12    1    3    3    0    0  0.84273065371E+01  0.97875912090E+01 -0.18733717651E+02  0.22754529531E+02  0.00000000000E+00 0.  1.
</event>
<event>
 7    1  0.1327607E-011  0.5930193E+02  0.7816164E-02  0.1266605E+00
        -11   -1    0    0    0    0  0.00000000000E+00  0.00000000000E+00  0.45593999997E+02  0.45594000000E+02  0.51100000000E-03 0. -1.
         11   -1    0    0    0    0 -0.00000000000E+00 -0.00000000000E+00 -0.45593999997E+02  0.45594000000E+02  0.51100000000E-03 0.  1.
    9900012    2    1    2    0    0 -0.93313117166E+01  0.24908760779E+02  0.17584127139E+02  0.59301932994E+02  0.49999979877E+02 0.  0.
        -12    1    1    2    0    0  0.93313117166E+01 -0.24908760779E+02 -0.17584127139E+02  0.31886067006E+02  0.00000000000E+00 0.  1.
         11    1    3    3    0    0 -0.63926713289E+01  0.28201188178E+01 -0.35646950167E+01  0.78438745330E+01  0.51100000000E-03 0. -1.
        -11    1    3    3    0    0  0.42728379515E+01 -0.68397633140E+01 -0.68327749778E+01  0.10570067195E+02  0.51100000000E-03 0.  1.
         12    1    3    3    0    0 -0.72114783392E+01  0.28928405275E+02  0.27981597134E+02  0.40887991266E+02  0.00000000000E+00 0. -1.
</event>
<event>
 7    1  0.1327607E-011  0.5930195E+02  0.7816164E-02  0.1266605E+00
        -11   -1    0    0    0    0  0.00000000000E+00  0.00000000000E+00  0.45593999997E+02  0.45594000000E+02  0.51100000000E-03 0.  1.
         11   -1    0    0    0    0 -0.00000000000E+00 -0.00000000000E+00 -0.45593999997E+02  0.45594000000E+02  0.51100000000E-03 0. -1.
    9900012    2    1    2    0    0 -0.24597427191E+02  0.46430245302E+01 -0.19751685851E+02  0.59301949834E+02  0.50000010590E+02 0.  0.
        -12    1    1    2    0    0  0.24597427191E+02 -0.46430245302E+01  0.19751685851E+02  0.31886050166E+02  0.00000000000E+00 0.  1.
         11    1    3    3    0    0  0.34822290252E+01  0.84093959889E+01  0.16238546182E+01  0.92455807802E+01  0.51100000000E-03 0. -1.
        -11    1    3    3    0    0 -0.19146369507E+02  0.14409662617E+02 -0.16878214482E+02  0.29310338900E+02  0.51100000000E-03 0.  1.
        -12    1    3    3    0    0 -0.89332867089E+01 -0.18176034075E+02 -0.44973259872E+01  0.20746030154E+02  0.00000000000E+00 0.  1.
</event>
<event>
 7    1  0.1327607E-011  0.5930194E+02  0.7816164E-02  0.1266605E+00
        -11   -1    0    0    0    0  0.00000000000E+00  0.00000000000E+00  0.45593999997E+02  0.45594000000E+02  0.51100000000E-03 0.  1.
         11   -1    0    0    0    0 -0.00000000000E+00 -0.00000000000E+00 -0.45593999997E+02  0.45594000000E+02  0.51100000000E-03 0. -1.
    9900012    2    1    2    0    0 -0.57607536365E+01  0.13866047469E+02 -0.28129472332E+02  0.59301940843E+02  0.49999994192E+02 0.  0.
        -12    1    1    2    0    0  0.57607536365E+01 -0.13866047469E+02  0.28129472332E+02  0.31886059157E+02  0.00000000000E+00 0.  1.
         11    1    3    3    0    0  0.75315993535E+01  0.83173834243E+01 -0.68432070027E+01  0.13142805568E+02  0.51100000000E-03 0. -1.
        -11    1    3    3    0    0  0.67888770944E+01  0.12989122692E+02  0.16861680328E+01  0.14752942873E+02  0.51100000000E-03 0.  1.
        -12    1    3    3    0    0 -0.20081230084E+02 -0.74404586479E+01 -0.22972433362E+02  0.31406192402E+02  0.00000000000E+00 0.  1.
</event>
<event>
 7    1  0.1327607E-011  0.5930196E+02  0.7816164E-02  0.1266605E+00
        -11   -1    0    0    0    0  0.00000000000E+00  0.00000000000E+00  0.45593999997E+02  0.45594000000E+02  0.51100000000E-03 0.  1.
         11   -1    0    0    0    0 -0.00000000000E+00 -0.00000000000E+00 -0.45593999997E+02  0.45594000000E+02  0.51100000000E-03 0. -1.
    9900012    2    1    2    0    0  0.17713304355E+02  0.18674476731E+02 -0.18820796306E+02  0.59301959074E+02  0.50000027441E+02 0.  0.
        -12    1    1    2    0    0 -0.17713304355E+02 -0.18674476731E+02  0.18820796306E+02  0.31886040926E+02  0.00000000000E+00 0.  1.
         11    1    3    3    0    0  0.32661422410E+01  0.82206157818E+01 -0.58223969530E+01  0.10589925189E+02  0.51100000000E-03 0. -1.
        -11    1    3    3    0    0 -0.61107615628E+01  0.17504253285E+01 -0.23281149809E+02  0.24133324106E+02  0.51100000000E-03 0.  1.
         12    1    3    3    0    0  0.20557923677E+02  0.87034356202E+01  0.10282750456E+02  0.24578709779E+02  0.00000000000E+00 0. -1.
</event>
<event>
 7    1  0.1327607E-011  0.5930194E+02  0.7816164E-02  0.1266605E+00
        -11   -1    0    0    0    0  0.00000000000E+00  0.00000000000E+00  0.45593999997E+02  0.45594000000E+02  0.51100000000E-03 0. -1.
         11   -1    0    0    0    0 -0.00000000000E+00 -0.00000000000E+00 -0.45593999997E+02  0.45594000000E+02  0.51100000000E-03 0.  1.
    9900012    2    1    2    0    0 -0.46700710635E+01 -0.22245966596E+02  0.22361308389E+02  0.59301941818E+02  0.49999995971E+02 0.  0.
        -12    1    1    2    0    0  0.46700710635E+01  0.22245966596E+02 -0.22361308389E+02  0.31886058182E+02  0.00000000000E+00 0.  1.
         11    1    3    3    0    0 -0.10888400904E+02 -0.22684191874E+01 -0.64394433590E+01  0.12851825975E+02  0.51100000000E-03 0. -1.
        -11    1    3    3    0    0 -0.78448365649E+00  0.77706722716E+01  0.56325098711E+01  0.96293265532E+01  0.51100000000E-03 0.  1.
         12    1    3    3    0    0  0.70028134972E+01 -0.27748219680E+02  0.23168241877E+02  0.36820789290E+02  0.00000000000E+00 0. -1.
</event>
<event>
 7    1  0.1327607E-011  0.5930189E+02  0.7816164E-02  0.1266605E+00
        -11   -1    0    0    0    0  0.00000000000E+00  0.00000000000E+00  0.45593999997E+02  0.45594000000E+02  0.51100000000E-03 0.  1.
         11   -1    0    0    0    0 -0.00000000000E+00 -0.00000000000E+00 -0.45593999997E+02  0.45594000000E+02  0.51100000000E-03 0. -1.
    9900012    2    1    2    0    0  0.37108423607E+01  0.18413255564E+02 -0.25766372334E+02  0.59301885863E+02  0.49999893922E+02 0.  0.
        -12    1    1    2    0    0 -0.37108423607E+01 -0.18413255564E+02  0.25766372334E+02  0.31886114137E+02  0.00000000000E+00 0.  1.
         11    1    3    3    0    0  0.53301075893E+01  0.11584821917E+02 -0.12743322437E+02  0.18028045173E+02  0.51100000000E-03 0. -1.
        -11    1    3    3    0    0 -0.55987494403E+01 -0.11304442406E+02 -0.18068053745E+02  0.22036128966E+02  0.51100000000E-03 0.  1.
         12    1    3    3    0    0  0.39794842117E+01  0.18132876053E+02  0.50450038484E+01  0.19237711724E+02  0.00000000000E+00 0. -1.
</event>
<event>
 7    1  0.1327607E-011  0.5930197E+02  0.7816164E-02  0.1266605E+00
        -11   -1    0    0    0    0  0.00000000000E+00  0.00000000000E+00  0.45593999997E+02  0.45594000000E+02  0.51100000000E-03 0. -1.
         11   -1    0    0    0    0 -0.00000000000E+00 -0.00000000000E+00 -0.45593999997E+02  0.45594000000E+02  0.51100000000E-03 0.  1.
    9900012    2    1    2    0    0  0.24237800631E+02 -0.13235842265E+02  0.15939277899E+02  0.59301967324E+02  0.50000042486E+02 0.  0.
        -12    1    1    2    0    0 -0.24237800631E+02  0.13235842265E+02 -0.15939277899E+02  0.31886032676E+02  0.00000000000E+00 0.  1.
         11    1    3    3    0    0 -0.15884608992E+01 -0.83311096272E+01  0.24624596691E+01  0.88314383614E+01  0.51100000000E-03 0. -1.
        -11    1    3    3    0    0 -0.83699424041E+01 -0.11082528378E+02  0.38994941570E+01  0.14425131751E+02  0.51100000000E-03 0.  1.
         12    1    3    3    0    0  0.34196203934E+02  0.61777957403E+01  0.95773240730E+01  0.36045397211E+02  0.00000000000E+00 0. -1.
</event>
<event>
 7    1  0.1327607E-011  0.5930194E+02  0.7816164E-02  0.1266605E+00
        -11   -1    0    0    0    0  0.00000000000E+00  0.00000000000E+00  0.45593999997E+02  0.45594000000E+02  0.51100000000E-03 0.  1.
         11   -1    0    0    0    0 -0.00000000000E+00 -0.00000000000E+00 -0.45593999997E+02  0.45594000000E+02  0.51100000000E-03 0. -1.
    9900012    2    1    2    0    0  0.24890230681E+02 -0.17054322922E+02  0.10312494837E+02  0.59301936219E+02  0.49999985758E+02 0.  0.
        -12    1    1    2    0    0 -0.24890230681E+02  0.17054322922E+02 -0.10312494837E+02  0.31886063781E+02  0.00000000000E+00 0.  1.
         11    1    3    3    0    0  0.11222257909E+02  0.79618278358E+01 -0.11489439428E+02  0.17925874978E+02  0.51100000000E-03 0. -1.
        -11    1    3    3    0    0  0.78934942194E+01 -0.15616717489E+02  0.63829104772E+00  0.17509898111E+02  0.51100000000E-03 0.  1.
         12    1    3    3    0    0  0.57744785524E+01 -0.93994332691E+01  0.21163643217E+02  0.23866163130E+02  0.00000000000E+00 0. -1.
</event>
<event>
 7    1  0.1327607E-011  0.5930195E+02  0.7816164E-02  0.1266605E+00
        -11   -1    0    0    0    0  0.00000000000E+00  0.00000000000E+00  0.45593999997E+02  0.45594000000E+02  0.51100000000E-03 0. -1.
         11   -1    0    0    0    0 -0.00000000000E+00 -0.00000000000E+00 -0.45593999997E+02  0.45594000000E+02  0.51100000000E-03 0.  1.
    9900012    2    1    2    0    0 -0.61282415992E+01  0.30819132161E+02 -0.54171931231E+01  0.59301949232E+02  0.50000009490E+02 0.  0.
        -12    1    1    2    0    0  0.61282415992E+01 -0.30819132161E+02  0.54171931231E+01  0.31886050768E+02  0.00000000000E+00 0.  1.
         11    1    3    3    0    0 -0.11629892429E+02 -0.22443987896E+01 -0.11444205997E+02  0.16470020492E+02  0.51100000000E-03 0. -1.
        -11    1    3    3    0    0  0.34624895861E+00  0.10437398989E+01 -0.75811786424E+01  0.76605189894E+01  0.51100000000E-03 0.  1.
         12    1    3    3    0    0  0.51554018716E+01  0.32019791052E+02  0.13608191516E+02  0.35171409750E+02  0.00000000000E+00 0. -1.
</event>
<event>
 7    1  0.1327607E-011  0.5930192E+02  0.7816164E-02  0.1266605E+00
        -11   -1    0    0    0    0  0.00000000000E+00  0.00000000000E+00  0.45593999997E+02  0.45594000000E+02  0.51100000000E-03 0.  1.
         11   -1    0    0    0    0 -0.00000000000E+00 -0.00000000000E+00 -0.45593999997E+02  0.45594000000E+02  0.51100000000E-03 0. -1.
    9900012    2    1    2    0    0  0.97246887297E+01  0.22437141395E+00 -0.30366132546E+02  0.59301922799E+02  0.49999961284E+02 0.  0.
        -12    1    1    2    0    0 -0.97246887297E+01 -0.22437141395E+00  0.30366132546E+02  0.31886077201E+02  0.00000000000E+00 0.  1.
         11    1    3    3    0    0 -0.38950832555E+00 -0.93630136629E+01 -0.21187043898E+02  0.23166971554E+02  0.51100000000E-03 0. -1.
        -11    1    3    3    0    0  0.76434666212E+01 -0.11330777685E+02 -0.16539347840E+01  0.13767519947E+02  0.51100000000E-03 0.  1.
        -12    1    3    3    0    0  0.24707304340E+01  0.20918162762E+02 -0.75251538648E+01  0.22367431299E+02  0.00000000000E+00 0.  1.
</event>
<event>
 7    1  0.1327607E-011  0.5930193E+02  0.7816164E-02  0.1266605E+00
        -11   -1    0    0    0    0  0.00000000000E+00  0.00000000000E+00  0.45593999997E+02  0.45594000000E+02  0.51100000000E-03 0.  1.
         11   -1    0    0    0    0 -0.00000000000E+00 -0.00000000000E+00 -0.45593999997E+02  0.45594000000E+02  0.51100000000E-03 0. -1.
    9900012    2    1    2    0    0 -0.31546111020E+02 -0.35160115629E+01  0.30334315838E+01  0.59301934627E+02  0.49999982855E+02 0.  0.
        -12    1    1    2    0    0  0.31546111020E+02  0.35160115629E+01 -0.30334315838E+01  0.31886065373E+02  0.00000000000E+00 0.  1.
         11    1    3    3    0    0 -0.93713593118E+01  0.89830979669E+01  0.74359096848E+01  0.14960320101E+02  0.51100000000E-03 0. -1.
        -11    1    3    3    0    0 -0.18100950455E+02  0.33952010554E+01  0.11319390223E+02  0.21617131930E+02  0.51100000000E-03 0.  1.
         12    1    3    3    0    0 -0.40738012539E+01 -0.15894310585E+02 -0.15721868324E+02  0.22724482596E+02  0.00000000000E+00 0. -1.
</event>
<event>
 7    1  0.1327607E-011  0.5930198E+02  0.7816164E-02  0.1266605E+00
        -11   -1    0    0    0    0  0.00000000000E+00  0.00000000000E+00  0.45593999997E+02  0.45594000000E+02  0.51100000000E-03 0. -1.
         11   -1    0    0    0    0 -0.00000000000E+00 -0.00000000000E+00 -0.45593999997E+02  0.45594000000E+02  0.51100000000E-03 0.  1.
    9900012    2    1    2    0    0 -0.24499441334E+02  0.15703310350E+02  0.13034644411E+02  0.59301975843E+02  0.50000058023E+02 0.  0.
        -12    1    1    2    0    0  0.24499441334E+02 -0.15703310350E+02 -0.13034644411E+02  0.31886024157E+02  0.00000000000E+00 0.  1.
         11    1    3    3    0    0  0.74088587250E-02  0.14821261296E+02  0.43912923088E+01  0.15458114041E+02  0.51100000000E-03 0.  1.
        -11    1    3    3    0    0  0.24342955069E+01  0.46216225740E+01  0.15023894007E+02  0.15906054860E+02  0.51100000000E-03 0. -1.
        -12    1    3    3    0    0 -0.26941145700E+02 -0.37395735195E+01 -0.63805419044E+01  0.27937806942E+02  0.00000000000E+00 0.  1.
</event>
<event>
 7    1  0.1327607E-011  0.5930190E+02  0.7816164E-02  0.1266605E+00
        -11   -1    0    0    0    0  0.00000000000E+00  0.00000000000E+00  0.45593999997E+02  0.45594000000E+02  0.51100000000E-03 0.  1.
         11   -1    0    0    0    0 -0.00000000000E+00 -0.00000000000E+00 -0.45593999997E+02  0.45594000000E+02  0.51100000000E-03 0. -1.
    9900012    2    1    2    0    0  0.20038691909E+02  0.65491711419E+01 -0.23922429840E+02  0.59301898552E+02  0.49999917064E+02 0.  0.
        -12    1    1    2    0    0 -0.20038691909E+02 -0.65491711419E+01  0.23922429840E+02  0.31886101448E+02  0.00000000000E+00 0.  1.
         11    1    3    3    0    0  0.75223721127E+01  0.11945280748E+02  0.21392698366E+01  0.14277685038E+02  0.51100000000E-03 0. -1.
        -11    1    3    3    0    0  0.23788530744E+01  0.14016153123E+02 -0.14306000769E+02  0.20168617915E+02  0.51100000000E-03 0.  1.
         12    1    3    3    0    0  0.10137466722E+02 -0.19412262729E+02 -0.11755698907E+02  0.24855595600E+02  0.00000000000E+00 0. -1.
</event>
<event>
 7    1  0.1327607E-011  0.5930194E+02  0.7816164E-02  0.1266605E+00
        -11   -1    0    0    0    0  0.00000000000E+00  0.00000000000E+00  0.45593999997E+02  0.45594000000E+02  0.51100000000E-03 0.  1.
         11   -1    0    0    0    0 -0.00000000000E+00 -0.00000000000E+00 -0.45593999997E+02  0.45594000000E+02  0.51100000000E-03 0. -1.
    9900012    2    1    2    0    0  0.13675973522E+02  0.27547001805E+02 -0.84173039253E+01  0.59301944026E+02  0.49999999997E+02 0.  0.
        -12    1    1    2    0    0 -0.13675973522E+02 -0.27547001805E+02  0.84173039253E+01  0.31886055974E+02  0.00000000000E+00 0.  1.
         11    1    3    3    0    0  0.18157203838E+02  0.13025463195E+02 -0.25827451593E+01  0.22494828638E+02  0.51100000000E-03 0. -1.
        -11    1    3    3    0    0  0.67488018683E+01  0.18183341368E+01 -0.15703497454E+02  0.17188731723E+02  0.51100000000E-03 0.  1.
        -12    1    3    3    0    0 -0.11230032185E+02  0.12703204473E+02  0.98689386883E+01  0.19618383664E+02  0.00000000000E+00 0.  1.
</event>
<event>
 7    1  0.1327607E-011  0.5930195E+02  0.7816164E-02  0.1266605E+00
        -11   -1    0    0    0    0  0.00000000000E+00  0.00000000000E+00  0.45593999997E+02  0.45594000000E+02  0.51100000000E-03 0.  1.
         11   -1    0    0    0    0 -0.00000000000E+00 -0.00000000000E+00 -0.45593999997E+02  0.45594000000E+02  0.51100000000E-03 0. -1.
    9900012    2    1    2    0    0  0.27106933093E+02  0.69044893490E+01 -0.15305627921E+02  0.59301952253E+02  0.50000015001E+02 0.  0.
        -12    1    1    2    0    0 -0.27106933093E+02 -0.69044893490E+01  0.15305627921E+02  0.31886047747E+02  0.00000000000E+00 0.  1.
         11    1    3    3    0    0 -0.65944682545E+00  0.81245287961E+01  0.11498076030E+02  0.14094275112E+02  0.51100000000E-03 0.  1.
        -11    1    3    3    0    0  0.46875078845E+01  0.97421950844E+01 -0.69745096646E+01  0.12865725030E+02  0.51100000000E-03 0. -1.
        -12    1    3    3    0    0  0.23078872034E+02 -0.10962234532E+02 -0.19829194286E+02  0.32341952111E+02  0.00000000000E+00 0.  1.
</event>
<event>
 7    1  0.1327607E-011  0.5930193E+02  0.7816164E-02  0.1266605E+00
        -11   -1    0    0    0    0  0.00000000000E+00  0.00000000000E+00  0.45593999997E+02  0.45594000000E+02  0.51100000000E-03 0.  1.
         11   -1    0    0    0    0 -0.00000000000E+00 -0.00000000000E+00 -0.45593999997E+02  0.45594000000E+02  0.51100000000E-03 0. -1.
    9900012    2    1    2    0    0 -0.93862066140E+00 -0.15770261494E+02 -0.27697276319E+02  0.59301932952E+02  0.49999979800E+02 0.  0.
        -12    1    1    2    0    0  0.93862066140E+00  0.15770261494E+02  0.27697276319E+02  0.31886067048E+02  0.00000000000E+00 0.  1.
         11    1    3    3    0    0 -0.37962109898E+01  0.12148755897E+02 -0.20037000833E+02  0.23737836682E+02  0.51100000000E-03 0. -1.
        -11    1    3    3    0    0 -0.56806734305E-01  0.33056912033E+01 -0.11213510235E+00  0.33080803918E+01  0.51100000000E-03 0.  1.
        -12    1    3    3    0    0  0.29143970627E+01 -0.31224708594E+02 -0.75481403840E+01  0.32256015878E+02  0.00000000000E+00 0.  1.
</event>
<event>
 7    1  0.1327607E-011  0.5930194E+02  0.7816164E-02  0.1266605E+00
        -11   -1    0    0    0    0  0.00000000000E+00  0.00000000000E+00  0.45593999997E+02  0.45594000000E+02  0.51100000000E-03 0. -1.
         11   -1    0    0    0    0 -0.00000000000E+00 -0.00000000000E+00 -0.45593999997E+02  0.45594000000E+02  0.51100000000E-03 0.  1.
    9900012    2    1    2    0    0  0.19438140475E+02 -0.23966243361E+02 -0.80311059330E+01  0.59301940531E+02  0.49999993622E+02 0.  0.
        -12    1    1    2    0    0 -0.19438140475E+02  0.23966243361E+02  0.80311059330E+01  0.31886059469E+02  0.00000000000E+00 0.  1.
         11    1    3    3    0    0  0.57741360396E+01 -0.99164741592E+01  0.33930286154E+01  0.11966191967E+02  0.51100000000E-03 0. -1.
        -11    1    3    3    0    0  0.28077534408E+02 -0.14021292256E+02 -0.61054936955E+01  0.31972200870E+02  0.51100000000E-03 0.  1.
         12    1    3    3    0    0 -0.14413529973E+02 -0.28476946639E-01 -0.53186408530E+01  0.15363547694E+02  0.00000000000E+00 0. -1.
</event>
<event>
 7    1  0.1327607E-011  0.5930197E+02  0.7816164E-02  0.1266605E+00
        -11   -1    0    0    0    0  0.00000000000E+00  0.00000000000E+00  0.45593999997E+02  0.45594000000E+02  0.51100000000E-03 0.  1.
         11   -1    0    0    0    0 -0.00000000000E+00 -0.00000000000E+00 -0.45593999997E+02  0.45594000000E+02  0.51100000000E-03 0. -1.
    9900012    2    1    2    0    0  0.62294199096E+01  0.15870083467E+02 -0.26945389297E+02  0.59301965031E+02  0.50000038306E+02 0.  0.
        -12    1    1    2    0    0 -0.62294199096E+01 -0.15870083467E+02  0.26945389297E+02  0.31886034969E+02  0.00000000000E+00 0.  1.
         11    1    3    3    0    0  0.14869388507E+02  0.70318686551E+01  0.60119361669E+01  0.17512546020E+02  0.51100000000E-03 0. -1.
        -11    1    3    3    0    0  0.10628052708E+01 -0.43947422306E+01  0.47598812484E+00  0.45464138916E+01  0.51100000000E-03 0.  1.
         12    1    3    3    0    0 -0.97027738686E+01  0.13232957042E+02 -0.33433313589E+02  0.37243005120E+02  0.00000000000E+00 0. -1.
</event>
<event>
 7    1  0.1327607E-011  0.5930201E+02  0.7816164E-02  0.1266605E+00
        -11   -1    0    0    0    0  0.00000000000E+00  0.00000000000E+00  0.45593999997E+02  0.45594000000E+02  0.51100000000E-03 0.  1.
         11   -1    0    0    0    0 -0.00000000000E+00 -0.00000000000E+00 -0.45593999997E+02  0.45594000000E+02  0.51100000000E-03 0. -1.
    9900012    2    1    2    0    0 -0.14896993376E+02  0.24255594937E+02 -0.14368786712E+02  0.59302010460E+02  0.50000121156E+02 0.  0.
        -12    1    1    2    0    0  0.14896993376E+02 -0.24255594937E+02  0.14368786712E+02  0.31885989540E+02  0.00000000000E+00 0.  1.
         11    1    3    3    0    0 -0.49114262535E+01  0.26926438882E+02 -0.75149272836E+01  0.28383610606E+02  0.51100000000E-03 0. -1.
        -11    1    3    3    0    0 -0.64537136531E+01  0.12494785395E+02 -0.60989822678E+01  0.15328655093E+02  0.51100000000E-03 0.  1.
        -12    1    3    3    0    0 -0.35318534694E+01 -0.15165629340E+02 -0.75487716064E+00  0.15589744761E+02  0.00000000000E+00 0.  1.
</event>
<event>
 7    1  0.1327607E-011  0.5930192E+02  0.7816164E-02  0.1266605E+00
        -11   -1    0    0    0    0  0.00000000000E+00  0.00000000000E+00  0.45593999997E+02  0.45594000000E+02  0.51100000000E-03 0. -1.
         11   -1    0    0    0    0 -0.00000000000E+00 -0.00000000000E+00 -0.45593999997E+02  0.45594000000E+02  0.51100000000E-03 0.  1.
    9900012    2    1    2    0    0 -0.18790262826E+02 -0.20235697806E+02  0.15942549926E+02  0.59301916187E+02  0.49999949225E+02 0.  0.
        -12    1    1    2    0    0  0.18790262826E+02  0.20235697806E+02 -0.15942549926E+02  0.31886083813E+02  0.00000000000E+00 0.  1.
         11    1    3    3    0    0 -0.86562819340E+01 -0.15048571858E+02  0.18798580995E+02  0.25588618164E+02  0.51100000000E-03 0. -1.
        -11    1    3    3    0    0  0.60045733624E+01 -0.13906201244E+02 -0.25970195734E+01  0.15368208914E+02  0.51100000000E-03 0.  1.
         12    1    3    3    0    0 -0.16138554254E+02  0.87190752961E+01 -0.25901149460E+00  0.18345089108E+02  0.00000000000E+00 0. -1.
</event>
<event>
 7    1  0.1327607E-011  0.5930194E+02  0.7816164E-02  0.1266605E+00
        -11   -1    0    0    0    0  0.00000000000E+00  0.00000000000E+00  0.45593999997E+02  0.45594000000E+02  0.51100000000E-03 0.  1.
         11   -1    0    0    0    0 -0.00000000000E+00 -0.00000000000E+00 -0.45593999997E+02  0.45594000000E+02  0.51100000000E-03 0. -1.
    9900012    2    1    2    0    0 -0.20366107326E+01  0.25588609496E+02 -0.18915495320E+02  0.59301942194E+02  0.49999996656E+02 0.  0.
        -12    1    1    2    0    0  0.20366107326E+01 -0.25588609496E+02  0.18915495320E+02  0.31886057806E+02  0.00000000000E+00 0.  1.
         11    1    3    3    0    0  0.10579794313E+02  0.31970757513E+02 -0.27220883946E+00  0.33676928030E+02  0.51100000000E-03 0. -1.
        -11    1    3    3    0    0  0.11184920914E+01 -0.55137291425E+00  0.50850223359E+00  0.13467039139E+01  0.51100000000E-03 0.  1.
        -12    1    3    3    0    0 -0.13734897137E+02 -0.58307751030E+01 -0.19151788714E+02  0.24278310250E+02  0.00000000000E+00 0.  1.
</event>
<event>
 7    1  0.1355243E-011  0.5930175E+02  0.7816164E-02  0.1266605E+00
        -11   -1    0    0    0    0  0.00000000000E+00  0.00000000000E+00  0.45593999997E+02  0.45594000000E+02  0.51100000000E-03 0. -1.
         11   -1    0    0    0    0 -0.00000000000E+00 -0.00000000000E+00 -0.45593999997E+02  0.45594000000E+02  0.51100000000E-03 0.  1.
    9900012    2    1    2    0    0 -0.76038242292E+01  0.20692339796E+02  0.23037838524E+02  0.59301747900E+02  0.49999642308E+02 0.  0.
        -12    1    1    2    0    0  0.76038242292E+01 -0.20692339796E+02 -0.23037838524E+02  0.31886252100E+02  0.00000000000E+00 0.  1.
         11    1    3    3    0    0 -0.11371354530E+02  0.15660349592E+02  0.18597712554E+02  0.26840811569E+02  0.51100000000E-03 0. -1.
        -11    1    3    3    0    0  0.16331295746E+01  0.16643363724E+02 -0.48786081514E+01  0.17420375599E+02  0.51100000000E-03 0.  1.
        -12    1    3    3    0    0  0.21344007261E+01 -0.11611373520E+02  0.93187341216E+01  0.15040560731E+02  0.00000000000E+00 0.  1.
</event>
<event>
 7    1  0.1327607E-011  0.5930188E+02  0.7816164E-02  0.1266605E+00
        -11   -1    0    0    0    0  0.00000000000E+00  0.00000000000E+00  0.45593999997E+02  0.45594000000E+02  0.51100000000E-03 0.  1.
         11   -1    0    0    0    0 -0.00000000000E+00 -0.00000000000E+00 -0.45593999997E+02  0.45594000000E+02  0.51100000000E-03 0. -1.
    9900012    2    1    2    0    0  0.23601126442E+02  0.49955605165E+01 -0.20850802657E+02  0.59301878166E+02  0.49999879884E+02 0.  0.
        -12    1    1    2    0    0 -0.23601126442E+02 -0.49955605165E+01  0.20850802657E+02  0.31886121834E+02  0.00000000000E+00 0.  1.
         11    1    3    3    0    0  0.21694388145E+01  0.23170528141E+01 -0.28635174249E+02  0.28810560617E+02  0.51100000000E-03 0. -1.
        -11    1    3    3    0    0  0.12587893883E+02 -0.43220897308E+01 -0.42752528360E+01  0.13979031409E+02  0.51100000000E-03 0.  1.
        -12    1    3    3    0    0  0.88437937443E+01  0.70005974332E+01  0.12059624429E+02  0.16512286140E+02  0.00000000000E+00 0.  1.
</event>
<event>
 7    1  0.1327607E-011  0.5930194E+02  0.7816164E-02  0.1266605E+00
        -11   -1    0    0    0    0  0.00000000000E+00  0.00000000000E+00  0.45593999997E+02  0.45594000000E+02  0.51100000000E-03 0.  1.
         11   -1    0    0    0    0 -0.00000000000E+00 -0.00000000000E+00 -0.45593999997E+02  0.45594000000E+02  0.51100000000E-03 0. -1.
    9900012    2    1    2    0    0  0.31545047065E+01  0.23468728461E+02 -0.21353892020E+02  0.59301940038E+02  0.49999992723E+02 0.  0.
        -12    1    1    2    0    0 -0.31545047065E+01 -0.23468728461E+02  0.21353892020E+02  0.31886059962E+02  0.00000000000E+00 0.  1.
         11    1    3    3    0    0 -0.43827074710E+01 -0.74400410637E+01 -0.61539825508E+01  0.10603482320E+02  0.51100000000E-03 0. -1.
        -11    1    3    3    0    0 -0.10240831375E+01  0.19829628149E+02  0.81570771215E+01  0.21466271363E+02  0.51100000000E-03 0.  1.
        -12    1    3    3    0    0  0.85612953151E+01  0.11079141376E+02 -0.23356986591E+02  0.27232186356E+02  0.00000000000E+00 0.  1.
</event>
<event>
 7    1  0.1327607E-011  0.5930195E+02  0.7816164E-02  0.1266605E+00
        -11   -1    0    0    0    0  0.00000000000E+00  0.00000000000E+00  0.45593999997E+02  0.45594000000E+02  0.51100000000E-03 0.  1.
         11   -1    0    0    0    0 -0.00000000000E+00 -0.00000000000E+00 -0.45593999997E+02  0.45594000000E+02  0.51100000000E-03 0. -1.
    9900012    2    1    2    0    0 -0.13576272576E+02 -0.17654022898E+02 -0.22819743744E+02  0.59301946527E+02  0.50000004559E+02 0.  0.
        -12    1    1    2    0    0  0.13576272576E+02  0.17654022898E+02  0.22819743744E+02  0.31886053473E+02  0.00000000000E+00 0.  1.
         11    1    3    3    0    0  0.77855691762E+01  0.72761935458E+01 -0.80953181194E+01  0.13382535471E+02  0.51100000000E-03 0. -1.
        -11    1    3    3    0    0  0.75509361835E+00 -0.15306819780E+02  0.34619444525E+01  0.15711586738E+02  0.51100000000E-03 0.  1.
         12    1    3    3    0    0 -0.22116935370E+02 -0.96233966636E+01 -0.18186370077E+02  0.30207824319E+02  0.00000000000E+00 0. -1.
</event>
<event>
 7    1  0.1327607E-011  0.5930197E+02  0.7816164E-02  0.1266605E+00
        -11   -1    0    0    0    0  0.00000000000E+00  0.00000000000E+00  0.45593999997E+02  0.45594000000E+02  0.51100000000E-03 0. -1.
         11   -1    0    0    0    0 -0.00000000000E+00 -0.00000000000E+00 -0.45593999997E+02  0.45594000000E+02  0.51100000000E-03 0.  1.
    9900012    2    1    2    0    0 -0.91102942372E+01 -0.29157837082E+02  0.91401359913E+01  0.59301968414E+02  0.50000044474E+02 0.  0.
        -12    1    1    2    0    0  0.91102942372E+01  0.29157837082E+02 -0.91401359913E+01  0.31886031586E+02  0.00000000000E+00 0.  1.
         11    1    3    3    0    0  0.25331889964E+01 -0.87805565634E+01 -0.15450393156E+02  0.17950762352E+02  0.51100000000E-03 0. -1.
        -11    1    3    3    0    0  0.13119131627E+01  0.43590767811E+01  0.70701464904E+00  0.46067924313E+01  0.51100000000E-03 0.  1.
         12    1    3    3    0    0 -0.12955396396E+02 -0.24736357300E+02  0.23883514499E+02  0.36744413631E+02  0.00000000000E+00 0. -1.
</event>
<event>
 7    1  0.1327607E-011  0.5930195E+02  0.7816164E-02  0.1266605E+00
        -11   -1    0    0    0    0  0.00000000000E+00  0.00000000000E+00  0.45593999997E+02  0.45594000000E+02  0.51100000000E-03 0.  1.
         11   -1    0    0    0    0 -0.00000000000E+00 -0.00000000000E+00 -0.45593999997E+02  0.45594000000E+02  0.51100000000E-03 0. -1.
    9900012    2    1    2    0    0  0.13128056048E+02  0.10305361809E+02 -0.27169359794E+02  0.59301945851E+02  0.50000003324E+02 0.  0.
        -12    1    1    2    0    0 -0.13128056048E+02 -0.10305361809E+02  0.27169359794E+02  0.31886054149E+02  0.00000000000E+00 0.  1.
         11    1    3    3    0    0  0.81771606778E+01  0.12147022244E+02 -0.17291683894E+02  0.22658738674E+02  0.51100000000E-03 0. -1.
        -11    1    3    3    0    0  0.96218482697E+01  0.13491631603E+02  0.20023222350E+01  0.16691715970E+02  0.51100000000E-03 0.  1.
         12    1    3    3    0    0 -0.46709529000E+01 -0.15333292037E+02 -0.11879998135E+02  0.19951491206E+02  0.00000000000E+00 0. -1.
</event>
<event>
 7    1  0.1327607E-011  0.5930195E+02  0.7816164E-02  0.1266605E+00
        -11   -1    0    0    0    0  0.00000000000E+00  0.00000000000E+00  0.45593999997E+02  0.45594000000E+02  0.51100000000E-03 0. -1.
         11   -1    0    0    0    0 -0.00000000000E+00 -0.00000000000E+00 -0.45593999997E+02  0.45594000000E+02  0.51100000000E-03 0.  1.
    9900012    2    1    2    0    0  0.10135452587E+02  0.20612411989E+02  0.22116091609E+02  0.59301946071E+02  0.50000003726E+02 0.  0.
        -12    1    1    2    0    0 -0.10135452587E+02 -0.20612411989E+02 -0.22116091609E+02  0.31886053929E+02  0.00000000000E+00 0.  1.
         11    1    3    3    0    0  0.12505652888E+02  0.21032094870E+02 -0.39551926348E+01  0.24786769007E+02  0.51100000000E-03 0. -1.
        -11    1    3    3    0    0  0.58402864109E+01 -0.53856335696E+01  0.14307426072E+01  0.80722375445E+01  0.51100000000E-03 0.  1.
        -12    1    3    3    0    0 -0.82104867116E+01  0.49659506885E+01  0.24640541636E+02  0.26442939519E+02  0.00000000000E+00 0.  1.
</event>
<event>
 7    1  0.1327607E-011  0.5930193E+02  0.7816164E-02  0.1266605E+00
        -11   -1    0    0    0    0  0.00000000000E+00  0.00000000000E+00  0.45593999997E+02  0.45594000000E+02  0.51100000000E-03 0.  1.
         11   -1    0    0    0    0 -0.00000000000E+00 -0.00000000000E+00 -0.45593999997E+02  0.45594000000E+02  0.51100000000E-03 0. -1.
    9900012    2    1    2    0    0  0.73586144979E+01 -0.14774481321E+02 -0.27281620561E+02  0.59301932101E+02  0.49999978248E+02 0.  0.
        -12    1    1    2    0    0 -0.73586144979E+01  0.14774481321E+02  0.27281620561E+02  0.31886067899E+02  0.00000000000E+00 0.  1.
         11    1    3    3    0    0  0.60287384609E+01 -0.15655468877E+02 -0.27036383022E+02  0.31818318628E+02  0.51100000000E-03 0. -1.
        -11    1    3    3    0    0 -0.59958416775E+01 -0.52463780045E+01 -0.10688975624E+02  0.13331496531E+02  0.51100000000E-03 0.  1.
        -12    1    3    3    0    0  0.73257177144E+01  0.61273655604E+01  0.10443738085E+02  0.14152116941E+02  0.00000000000E+00 0.  1.
</event>
<event>
 7    1  0.1327607E-011  0.5930197E+02  0.7816164E-02  0.1266605E+00
        -11   -1    0    0    0    0  0.00000000000E+00  0.00000000000E+00  0.45593999997E+02  0.45594000000E+02  0.51100000000E-03 0.  1.
         11   -1    0    0    0    0 -0.00000000000E+00 -0.00000000000E+00 -0.45593999997E+02  0.45594000000E+02  0.51100000000E-03 0. -1.
    9900012    2    1    2    0    0 -0.24980884840E+02 -0.11500944020E+02 -0.16137003175E+02  0.59301965562E+02  0.50000039273E+02 0.  0.
        -12    1    1    2    0    0  0.24980884840E+02  0.11500944020E+02  0.16137003175E+02  0.31886034438E+02  0.00000000000E+00 0.  1.
         11    1    3    3    0    0 -0.48975637233E+01 -0.99558154818E+01  0.39028922356E+01  0.11761673367E+02  0.51100000000E-03 0. -1.
        -11    1    3    3    0    0 -0.97005502062E+01  0.14098556581E+02  0.34611769960E+01  0.17459946118E+02  0.51100000000E-03 0.  1.
         12    1    3    3    0    0 -0.10382770911E+02 -0.15643685119E+02 -0.23501072406E+02  0.30080346077E+02  0.00000000000E+00 0. -1.
</event>
<event>
 7    1  0.1327607E-011  0.5930195E+02  0.7816164E-02  0.1266605E+00
        -11   -1    0    0    0    0  0.00000000000E+00  0.00000000000E+00  0.45593999997E+02  0.45594000000E+02  0.51100000000E-03 0.  1.
         11   -1    0    0    0    0 -0.00000000000E+00 -0.00000000000E+00 -0.45593999997E+02  0.45594000000E+02  0.51100000000E-03 0. -1.
    9900012    2    1    2    0    0 -0.17766733859E+01  0.31314766171E+02 -0.57401225588E+01  0.59301950453E+02  0.50000011719E+02 0.  0.
        -12    1    1    2    0    0  0.17766733859E+01 -0.31314766171E+02  0.57401225588E+01  0.31886049547E+02  0.00000000000E+00 0.  1.
         11    1    3    3    0    0 -0.90818031912E+00  0.31563052957E+02  0.27795836644E+01  0.31698220598E+02  0.51100000000E-03 0. -1.
        -11    1    3    3    0    0 -0.46581646321E+01  0.91421370692E+01  0.44206198512E+01  0.11172244540E+02  0.51100000000E-03 0.  1.
        -12    1    3    3    0    0  0.37896715653E+01 -0.93904238552E+01 -0.12940326074E+02  0.16431485315E+02  0.00000000000E+00 0.  1.
</event>
<event>
 7    1  0.1327607E-011  0.5930188E+02  0.7816164E-02  0.1266605E+00
        -11   -1    0    0    0    0  0.00000000000E+00  0.00000000000E+00  0.45593999997E+02  0.45594000000E+02  0.51100000000E-03 0. -1.
         11   -1    0    0    0    0 -0.00000000000E+00 -0.00000000000E+00 -0.45593999997E+02  0.45594000000E+02  0.51100000000E-03 0.  1.
    9900012    2    1    2    0    0 -0.68385756130E+01  0.23750777184E+02  0.20145944145E+02  0.59301880783E+02  0.49999884656E+02 0.  0.
        -12    1    1    2    0    0  0.68385756130E+01 -0.23750777184E+02 -0.20145944145E+02  0.31886119217E+02  0.00000000000E+00 0.  1.
         11    1    3    3    0    0  0.12012878731E+02  0.53729682493E+01  0.28929121825E+01  0.13473937226E+02  0.51100000000E-03 0. -1.
        -11    1    3    3    0    0  0.68240321336E+01 -0.30060241099E+01 -0.13595578776E+01  0.75797093211E+01  0.51100000000E-03 0.  1.
         12    1    3    3    0    0 -0.25675486478E+02  0.21383833045E+02  0.18612589840E+02  0.38248234235E+02  0.00000000000E+00 0. -1.
</event>
<event>
 7    1  0.1327607E-011  0.5930193E+02  0.7816164E-02  0.1266605E+00
        -11   -1    0    0    0    0  0.00000000000E+00  0.00000000000E+00  0.45593999997E+02  0.45594000000E+02  0.51100000000E-03 0.  1.
         11   -1    0    0    0    0 -0.00000000000E+00 -0.00000000000E+00 -0.45593999997E+02  0.45594000000E+02  0.51100000000E-03 0. -1.
    9900012    2    1    2    0    0  0.17267710514E+01 -0.46590373126E+01 -0.31496553544E+02  0.59301933261E+02  0.49999980365E+02 0.  0.
        -12    1    1    2    0    0 -0.17267710514E+01  0.46590373126E+01  0.31496553544E+02  0.31886066739E+02  0.00000000000E+00 0.  1.
         11    1    3    3    0    0 -0.18268268103E+02  0.34928939915E+01 -0.10896602547E+02  0.21556109928E+02  0.51100000000E-03 0. -1.
        -11    1    3    3    0    0 -0.55095172198E+00  0.33691922656E+01 -0.12308836949E+02  0.12773506630E+02  0.51100000000E-03 0.  1.
        -12    1    3    3    0    0  0.20545990876E+02 -0.11521123570E+02 -0.82911140475E+01  0.24972316703E+02  0.00000000000E+00 0.  1.
</event>
<event>
 7    1  0.1431546E-011  0.5930194E+02  0.7816164E-02  0.1266605E+00
        -11   -1    0    0    0    0  0.00000000000E+00  0.00000000000E+00  0.45593999997E+02  0.45594000000E+02  0.51100000000E-03 0. -1.
         11   -1    0    0    0    0 -0.00000000000E+00 -0.00000000000E+00 -0.45593999997E+02  0.45594000000E+02  0.51100000000E-03 0.  1.
    9900012    2    1    2    0    0 -0.14709741751E+01  0.18833916427E+02  0.25687360293E+02  0.59301942673E+02  0.49999997530E+02 0.  0.
        -12    1    1    2    0    0  0.14709741751E+01 -0.18833916427E+02 -0.25687360293E+02  0.31886057327E+02  0.00000000000E+00 0.  1.
         11    1    3    3    0    0  0.87883321338E+01  0.40696286108E+01  0.14048483470E+02  0.17063309960E+02  0.51100000000E-03 0. -1.
        -11    1    3    3    0    0  0.40462733775E+01 -0.10559135263E+02  0.13526125274E+01  0.11388469022E+02  0.51100000000E-03 0.  1.
         12    1    3    3    0    0 -0.14305579686E+02  0.25323423079E+02  0.10286264296E+02  0.30850163691E+02  0.00000000000E+00 0. -1.
</event>
<event>
 7    1  0.1327607E-011  0.5930190E+02  0.7816164E-02  0.1266605E+00
        -11   -1    0    0    0    0  0.00000000000E+00  0.00000000000E+00  0.45593999997E+02  0.45594000000E+02  0.51100000000E-03 0.  1.
         11   -1    0    0    0    0 -0.00000000000E+00 -0.00000000000E+00 -0.45593999997E+02  0.45594000000E+02  0.51100000000E-03 0. -1.
    9900012    2    1    2    0    0  0.21139728077E+02 -0.23174537435E+02 -0.57250407151E+01  0.59301899898E+02  0.49999919518E+02 0.  0.
        -12    1    1    2    0    0 -0.21139728077E+02  0.23174537435E+02  0.57250407151E+01  0.31886100102E+02  0.00000000000E+00 0.  1.
         11    1    3    3    0    0  0.18210637543E+02 -0.53962878646E+01  0.15714725847E+01  0.19058246739E+02  0.51100000000E-03 0. -1.
        -11    1    3    3    0    0  0.14507182364E+02 -0.94815282363E+01  0.82193585382E+01  0.19181125433E+02  0.51100000000E-03 0.  1.
         12    1    3    3    0    0 -0.11578091829E+02 -0.82967213341E+01 -0.15515871838E+02  0.21062527726E+02  0.00000000000E+00 0. -1.
</event>
<event>
 7    1  0.1327607E-011  0.5930195E+02  0.7816164E-02  0.1266605E+00
        -11   -1    0    0    0    0  0.00000000000E+00  0.00000000000E+00  0.45593999997E+02  0.45594000000E+02  0.51100000000E-03 0.  1.
         11   -1    0    0    0    0 -0.00000000000E+00 -0.00000000000E+00 -0.45593999997E+02  0.45594000000E+02  0.51100000000E-03 0. -1.
    9900012    2    1    2    0    0 -0.28880301190E+02 -0.13026661990E+02  0.35992687912E+01  0.59301945756E+02  0.50000003152E+02 0.  0.
        -12    1    1    2    0    0  0.28880301190E+02  0.13026661990E+02 -0.35992687912E+01  0.31886054244E+02  0.00000000000E+00 0.  1.
         11    1    3    3    0    0  0.81387684923E+00  0.90804056177E+01 -0.88114434994E+01  0.12679025929E+02  0.51100000000E-03 0. -1.
        -11    1    3    3    0    0 -0.30478799005E+01  0.41899969991E+01  0.71316804421E+01  0.88151297738E+01  0.51100000000E-03 0.  1.
         12    1    3    3    0    0 -0.26646298138E+02 -0.26297064607E+02  0.52790318485E+01  0.37807790053E+02  0.00000000000E+00 0. -1.
</event>
<event>
 7    1  0.1327607E-011  0.5930195E+02  0.7816164E-02  0.1266605E+00
        -11   -1    0    0    0    0  0.00000000000E+00  0.00000000000E+00  0.45593999997E+02  0.45594000000E+02  0.51100000000E-03 0.  1.
         11   -1    0    0    0    0 -0.00000000000E+00 -0.00000000000E+00 -0.45593999997E+02  0.45594000000E+02  0.51100000000E-03 0. -1.
    9900012    2    1    2    0    0  0.12655277200E+02 -0.10421257951E+02 -0.27348881565E+02  0.59301953190E+02  0.50000016710E+02 0.  0.
        -12    1    1    2    0    0 -0.12655277200E+02  0.10421257951E+02  0.27348881565E+02  0.31886046810E+02  0.00000000000E+00 0.  1.
         11    1    3    3    0    0 -0.13481968499E+02 -0.12058783882E+02 -0.17806687686E+02  0.25382195924E+02  0.51100000000E-03 0. -1.
        -11    1    3    3    0    0 -0.69371091705E+00  0.11592951428E+01  0.37406173992E+01  0.39771118733E+01  0.51100000000E-03 0.  1.
         12    1    3    3    0    0  0.26830956616E+02  0.47823078871E+00 -0.13282811279E+02  0.29942645393E+02  0.00000000000E+00 0. -1.
</event>
<event>
 7    1  0.1327607E-011  0.5930195E+02  0.7816164E-02  0.1266605E+00
        -11   -1    0    0    0    0  0.00000000000E+00  0.00000000000E+00  0.45593999997E+02  0.45594000000E+02  0.51100000000E-03 0.  1.
         11   -1    0    0    0    0 -0.00000000000E+00 -0.00000000000E+00 -0.45593999997E+02  0.45594000000E+02  0.51100000000E-03 0. -1.
    9900012    2    1    2    0    0  0.20286469089E+02 -0.22352139391E+02 -0.10274312421E+02  0.59301945694E+02  0.50000003039E+02 0.  0.
        -12    1    1    2    0    0 -0.20286469089E+02  0.22352139391E+02  0.10274312421E+02  0.31886054306E+02  0.00000000000E+00 0.  1.
         11    1    3    3    0    0 -0.71700904692E+01  0.56394191493E+01  0.50119882703E+00  0.91358878169E+01  0.51100000000E-03 0.  1.
        -11    1    3    3    0    0  0.21711897577E+02 -0.60473655242E+01  0.42794892942E+01  0.22941036486E+02  0.51100000000E-03 0. -1.
        -12    1    3    3    0    0  0.57446619815E+01 -0.21944193017E+02 -0.15055000542E+02  0.27225021391E+02  0.00000000000E+00 0.  1.
</event>
<event>
 7    1  0.1327607E-011  0.5930194E+02  0.7816164E-02  0.1266605E+00
        -11   -1    0    0    0    0  0.00000000000E+00  0.00000000000E+00  0.45593999997E+02  0.45594000000E+02  0.51100000000E-03 0. -1.
         11   -1    0    0    0    0 -0.00000000000E+00 -0.00000000000E+00 -0.45593999997E+02  0.45594000000E+02  0.51100000000E-03 0.  1.
    9900012    2    1    2    0    0 -0.19965731026E+02 -0.24844228506E+02 -0.92436796885E+00  0.59301944089E+02  0.50000000111E+02 0.  0.
        -12    1    1    2    0    0  0.19965731026E+02  0.24844228506E+02  0.92436796885E+00  0.31886055911E+02  0.00000000000E+00 0.  1.
         11    1    3    3    0    0  0.48031491531E+01  0.70471109621E+00 -0.60136735378E+01  0.77285916697E+01  0.51100000000E-03 0. -1.
        -11    1    3    3    0    0  0.84458856693E+01  0.10531736242E+01  0.27891411169E+01  0.89566437829E+01  0.51100000000E-03 0.  1.
         12    1    3    3    0    0 -0.33214765848E+02 -0.26602113226E+02  0.23001644521E+01  0.42616708636E+02  0.00000000000E+00 0. -1.
</event>
<event>
 7    1  0.1327607E-011  0.5930193E+02  0.7816164E-02  0.1266605E+00
        -11   -1    0    0    0    0  0.00000000000E+00  0.00000000000E+00  0.45593999997E+02  0.45594000000E+02  0.51100000000E-03 0.  1.
         11   -1    0    0    0    0 -0.00000000000E+00 -0.00000000000E+00 -0.45593999997E+02  0.45594000000E+02  0.51100000000E-03 0. -1.
    9900012    2    1    2    0    0 -0.29042826038E+02  0.13145763696E+02 -0.65156108964E+00  0.59301931266E+02  0.49999976726E+02 0.  0.
        -12    1    1    2    0    0  0.29042826038E+02 -0.13145763696E+02  0.65156108964E+00  0.31886068734E+02  0.00000000000E+00 0.  1.
         11    1    3    3    0    0 -0.24341628446E+02  0.53525220293E+01 -0.20949391149E+02  0.32558276325E+02  0.51100000000E-03 0. -1.
        -11    1    3    3    0    0  0.77997135171E+00  0.66391529166E+01  0.11369252046E+01  0.67808042253E+01  0.51100000000E-03 0.  1.
         12    1    3    3    0    0 -0.54811689434E+01  0.11540887502E+01  0.19160904855E+02  0.19962850716E+02  0.00000000000E+00 0. -1.
</event>
<event>
 7    1  0.1327607E-011  0.5930194E+02  0.7816164E-02  0.1266605E+00
        -11   -1    0    0    0    0  0.00000000000E+00  0.00000000000E+00  0.45593999997E+02  0.45594000000E+02  0.51100000000E-03 0.  1.
         11   -1    0    0    0    0 -0.00000000000E+00 -0.00000000000E+00 -0.45593999997E+02  0.45594000000E+02  0.51100000000E-03 0. -1.
    9900012    2    1    2    0    0  0.11116702234E+02  0.28487686176E+02 -0.90328094534E+01  0.59301937546E+02  0.49999988179E+02 0.  0.
        -12    1    1    2    0    0 -0.11116702234E+02 -0.28487686176E+02  0.90328094534E+01  0.31886062454E+02  0.00000000000E+00 0.  1.
         11    1    3    3    0    0  0.85321811014E+01  0.23624049927E+02 -0.19448985514E+02  0.31767229767E+02  0.51100000000E-03 0. -1.
        -11    1    3    3    0    0  0.53439077913E+01  0.14235714474E+02  0.89813449900E+01  0.17660053091E+02  0.51100000000E-03 0.  1.
         12    1    3    3    0    0 -0.27593866588E+01 -0.93720782257E+01  0.14348310706E+01  0.98746546878E+01  0.00000000000E+00 0. -1.
</event>
<event>
 7    1  0.1327607E-011  0.5930195E+02  0.7816164E-02  0.1266605E+00
        -11   -1    0    0    0    0  0.00000000000E+00  0.00000000000E+00  0.45593999997E+02  0.45594000000E+02  0.51100000000E-03 0.  1.
         11   -1    0    0    0    0 -0.00000000000E+00 -0.00000000000E+00 -0.45593999997E+02  0.45594000000E+02  0.51100000000E-03 0. -1.
    9900012    2    1    2    0    0  0.11037224183E+02 -0.23643167779E+02 -0.18327584832E+02  0.59301951859E+02  0.50000014282E+02 0.  0.
        -12    1    1    2    0    0 -0.11037224183E+02  0.23643167779E+02  0.18327584832E+02  0.31886048141E+02  0.00000000000E+00 0.  1.
         11    1    3    3    0    0 -0.86796180150E+01  0.40992639824E+01  0.66880801555E+00  0.96222158834E+01  0.51100000000E-03 0. -1.
        -11    1    3    3    0    0 -0.79555131657E+01 -0.10407219417E+02 -0.36442564502E+01  0.13597095685E+02  0.51100000000E-03 0.  1.
         12    1    3    3    0    0  0.27672355363E+02 -0.17335212345E+02 -0.15352136397E+02  0.36082640291E+02  0.00000000000E+00 0. -1.
</event>
<event>
 7    1  0.1327607E-011  0.5930195E+02  0.7816164E-02  0.1266605E+00
        -11   -1    0    0    0    0  0.00000000000E+00  0.00000000000E+00  0.45593999997E+02  0.45594000000E+02  0.51100000000E-03 0. -1.
         11   -1    0    0    0    0 -0.00000000000E+00 -0.00000000000E+00 -0.45593999997E+02  0.45594000000E+02  0.51100000000E-03 0.  1.
    9900012    2    1    2    0    0  0.28639266965E+02  0.27106958013E+01  0.13753726347E+02  0.59301945487E+02  0.50000002661E+02 0.  0.
        -12    1    1    2    0    0 -0.28639266965E+02 -0.27106958013E+01 -0.13753726347E+02  0.31886054513E+02  0.00000000000E+00 0.  1.
         11    1    3    3    0    0  0.12573179155E+02 -0.22432808526E+01  0.97278910446E+01  0.16054563447E+02  0.51100000000E-03 0. -1.
        -11    1    3    3    0    0  0.11475996656E+02 -0.86337758093E+01  0.18132298282E+02  0.23130517184E+02  0.51100000000E-03 0.  1.
        -12    1    3    3    0    0  0.45900911538E+01  0.13587752463E+02 -0.14106462980E+02  0.20116864855E+02  0.00000000000E+00 0.  1.
</event>
<event>
 7    1  0.1423388E-011  0.5930197E+02  0.7816164E-02  0.1266605E+00
        -11   -1    0    0    0    0  0.00000000000E+00  0.00000000000E+00  0.45593999997E+02  0.45594000000E+02  0.51100000000E-03 0.  1.
         11   -1    0    0    0    0 -0.00000000000E+00 -0.00000000000E+00 -0.45593999997E+02  0.45594000000E+02  0.51100000000E-03 0. -1.
    9900012    2    1    2    0    0 -0.45438802333E+01  0.27801403394E+02  0.14938335067E+02  0.59301972765E+02  0.50000052410E+02 0.  0.
        -12    1    1    2    0    0  0.45438802333E+01 -0.27801403394E+02 -0.14938335067E+02  0.31886027235E+02  0.00000000000E+00 0.  1.
         11    1    3    3    0    0 -0.11388744269E+02  0.18733636952E+02  0.21568547927E+02  0.30754754257E+02  0.51100000000E-03 0. -1.
        -11    1    3    3    0    0  0.97924940874E+01  0.16142661075E+02 -0.76498543662E+00  0.18896127911E+02  0.51100000000E-03 0.  1.
        -12    1    3    3    0    0 -0.29476300514E+01 -0.70748946326E+01 -0.58652274237E+01  0.96510905971E+01  0.00000000000E+00 0.  1.
</event>
<event>
 7    1  0.1327607E-011  0.5930197E+02  0.7816164E-02  0.1266605E+00
        -11   -1    0    0    0    0  0.00000000000E+00  0.00000000000E+00  0.45593999997E+02  0.45594000000E+02  0.51100000000E-03 0.  1.
         11   -1    0    0    0    0 -0.00000000000E+00 -0.00000000000E+00 -0.45593999997E+02  0.45594000000E+02  0.51100000000E-03 0. -1.
    9900012    2    1    2    0    0  0.12456157787E+02 -0.16078999941E+02 -0.24556640227E+02  0.59301973513E+02  0.50000053774E+02 0.  0.
        -12    1    1    2    0    0 -0.12456157787E+02  0.16078999941E+02  0.24556640227E+02  0.31886026487E+02  0.00000000000E+00 0.  1.
         11    1    3    3    0    0  0.10683143275E+02 -0.39953991513E+01  0.43837457632E+01  0.12219246777E+02  0.51100000000E-03 0. -1.
        -11    1    3    3    0    0  0.94075585512E+01  0.36219163769E+01  0.31391262934E+01  0.10558150893E+02  0.51100000000E-03 0.  1.
         12    1    3    3    0    0 -0.76345440393E+01 -0.15705517166E+02 -0.32079512284E+02  0.36524575843E+02  0.00000000000E+00 0. -1.
</event>
<event>
 7    1  0.1327607E-011  0.5930203E+02  0.7816164E-02  0.1266604E+00
        -11   -1    0    0    0    0  0.00000000000E+00  0.00000000000E+00  0.45593999997E+02  0.45594000000E+02  0.51100000000E-03 0. -1.
         11   -1    0    0    0    0 -0.00000000000E+00 -0.00000000000E+00 -0.45593999997E+02  0.45594000000E+02  0.51100000000E-03 0.  1.
    9900012    2    1    2    0    0 -0.19303124661E+02 -0.14189875127E+02  0.21041673816E+02  0.59302027932E+02  0.50000153020E+02 0.  0.
        -12    1    1    2    0    0  0.19303124661E+02  0.14189875127E+02 -0.21041673816E+02  0.31885972068E+02  0.00000000000E+00 0.  1.
         11    1    3    3    0    0 -0.23313022113E+02 -0.28176246088E+02  0.95994445400E+01  0.37809353068E+02  0.51100000000E-03 0. -1.
        -11    1    3    3    0    0 -0.35608297566E+01  0.71690894622E+01  0.51565046201E+01  0.95218114049E+01  0.51100000000E-03 0.  1.
        -12    1    3    3    0    0  0.75707272085E+01  0.68172814994E+01  0.62857246555E+01  0.11970863459E+02  0.00000000000E+00 0.  1.
</event>
<event>
 7    1  0.1327607E-011  0.5930200E+02  0.7816164E-02  0.1266605E+00
        -11   -1    0    0    0    0  0.00000000000E+00  0.00000000000E+00  0.45593999997E+02  0.45594000000E+02  0.51100000000E-03 0.  1.
         11   -1    0    0    0    0 -0.00000000000E+00 -0.00000000000E+00 -0.45593999997E+02  0.45594000000E+02  0.51100000000E-03 0. -1.
    9900012    2    1    2    0    0  0.25855545063E+02  0.18441153375E+02  0.28516072428E+01  0.59301999746E+02  0.50000101617E+02 0.  0.
        -12    1    1    2    0    0 -0.25855545063E+02 -0.18441153375E+02 -0.28516072428E+01  0.31886000254E+02  0.00000000000E+00 0.  1.
         11    1    3    3    0    0  0.95054873844E+00  0.15924690810E+02 -0.11700707998E+02  0.19783980596E+02  0.51100000000E-03 0. -1.
        -11    1    3    3    0    0 -0.46747262450E+01  0.32261608385E+01  0.69366773632E+01  0.89654153458E+01  0.51100000000E-03 0.  1.
         12    1    3    3    0    0  0.29579722570E+02 -0.70969827350E+00  0.76156378776E+01  0.30552603805E+02  0.00000000000E+00 0. -1.
</event>
<event>
 7    1  0.1327607E-011  0.5930192E+02  0.7816164E-02  0.1266605E+00
        -11   -1    0    0    0    0  0.00000000000E+00  0.00000000000E+00  0.45593999997E+02  0.45594000000E+02  0.51100000000E-03 0.  1.
         11   -1    0    0    0    0 -0.00000000000E+00 -0.00000000000E+00 -0.45593999997E+02  0.45594000000E+02  0.51100000000E-03 0. -1.
    9900012    2    1    2    0    0 -0.13486454435E+02 -0.16113600617E+02 -0.23983105390E+02  0.59301922752E+02  0.49999961199E+02 0.  0.
        -12    1    1    2    0    0  0.13486454435E+02  0.16113600617E+02  0.23983105390E+02  0.31886077248E+02  0.00000000000E+00 0.  1.
         11    1    3    3    0    0 -0.26314632084E+02 -0.13587522818E+02 -0.25031205730E+02  0.38776821667E+02  0.51100000000E-03 0. -1.
        -11    1    3    3    0    0 -0.16042247910E+01 -0.13372815666E+01 -0.45444896424E+01  0.50014243511E+01  0.51100000000E-03 0.  1.
        -12    1    3    3    0    0  0.14432402440E+02 -0.11887962322E+01  0.55925899816E+01  0.15523676735E+02  0.00000000000E+00 0.  1.
</event>
<event>
 7    1  0.1327607E-011  0.5930196E+02  0.7816164E-02  0.1266605E+00
        -11   -1    0    0    0    0  0.00000000000E+00  0.00000000000E+00  0.45593999997E+02  0.45594000000E+02  0.51100000000E-03 0.  1.
         11   -1    0    0    0    0 -0.00000000000E+00 -0.00000000000E+00 -0.45593999997E+02  0.45594000000E+02  0.51100000000E-03 0. -1.
    9900012    2    1    2    0    0  0.27212436999E+02  0.15451219164E+02 -0.61206569593E+01  0.59301963202E+02  0.50000034970E+02 0.  0.
        -12    1    1    2    0    0 -0.27212436999E+02 -0.15451219164E+02  0.61206569593E+01  0.31886036798E+02  0.00000000000E+00 0.  1.
         11    1    3    3    0    0  0.24552203769E+02 -0.10694391148E+02 -0.60227400535E+01  0.27449118564E+02  0.51100000000E-03 0. -1.
        -11    1    3    3    0    0  0.80693978455E+01  0.96669988340E+01 -0.54225284114E+01  0.13710210162E+02  0.51100000000E-03 0.  1.
        -12    1    3    3    0    0 -0.54091646153E+01  0.16478611478E+02  0.53246115056E+01  0.18142634477E+02  0.00000000000E+00 0.  1.
</event>
<event>
 7    1  0.1327607E-011  0.5930193E+02  0.7816164E-02  0.1266605E+00
        -11   -1    0    0    0    0  0.00000000000E+00  0.00000000000E+00  0.45593999997E+02  0.45594000000E+02  0.51100000000E-03 0.  1.
         11   -1    0    0    0    0 -0.00000000000E+00 -0.00000000000E+00 -0.45593999997E+02  0.45594000000E+02  0.51100000000E-03 0. -1.
    9900012    2    1    2    0    0  0.27962720067E+02  0.15694293337E+01 -0.15242858838E+02  0.59301928314E+02  0.49999971343E+02 0.  0.
        -12    1    1    2    0    0 -0.27962720067E+02 -0.15694293337E+01  0.15242858838E+02  0.31886071686E+02  0.00000000000E+00 0.  1.
         11    1    3    3    0    0  0.19915245612E+02  0.86587686098E+01 -0.50708744235E+01  0.22300337426E+02  0.51100000000E-03 0. -1.
        -11    1    3    3    0    0  0.21066610696E+02 -0.31457891648E+01 -0.96609219952E+01  0.23388704319E+02  0.51100000000E-03 0.  1.
        -12    1    3    3    0    0 -0.13019136241E+02 -0.39435501113E+01 -0.51106241905E+00  0.13612886569E+02  0.00000000000E+00 0.  1.
</event>
<event>
 7    1  0.1327607E-011  0.5930195E+02  0.7816164E-02  0.1266605E+00
        -11   -1    0    0    0    0  0.00000000000E+00  0.00000000000E+00  0.45593999997E+02  0.45594000000E+02  0.51100000000E-03 0.  1.
         11   -1    0    0    0    0 -0.00000000000E+00 -0.00000000000E+00 -0.45593999997E+02  0.45594000000E+02  0.51100000000E-03 0. -1.
    9900012    2    1    2    0    0  0.18976892763E+02 -0.21372168881E+02 -0.14136058001E+02  0.59301949798E+02  0.50000010524E+02 0.  0.
        -12    1    1    2    0    0 -0.18976892763E+02  0.21372168881E+02  0.14136058001E+02  0.31886050202E+02  0.00000000000E+00 0.  1.
         11    1    3    3    0    0  0.43716569549E+01 -0.17789928521E+02  0.36542640164E+01  0.18680112073E+02  0.51100000000E-03 0. -1.
        -11    1    3    3    0    0 -0.69907996977E+00 -0.10101915465E+02  0.58657522830E+01  0.11702327075E+02  0.51100000000E-03 0.  1.
        -12    1    3    3    0    0  0.15304315778E+02  0.65196751044E+01 -0.23656074301E+02  0.28919510650E+02  0.00000000000E+00 0.  1.
</event>
<event>
 7    1  0.1327607E-011  0.5930197E+02  0.7816164E-02  0.1266605E+00
        -11   -1    0    0    0    0  0.00000000000E+00  0.00000000000E+00  0.45593999997E+02  0.45594000000E+02  0.51100000000E-03 0.  1.
         11   -1    0    0    0    0 -0.00000000000E+00 -0.00000000000E+00 -0.45593999997E+02  0.45594000000E+02  0.51100000000E-03 0. -1.
    9900012    2    1    2    0    0 -0.51025096156E+01 -0.15540765223E+02 -0.27370929155E+02  0.59301972482E+02  0.50000051893E+02 0.  0.
        -12    1    1    2    0    0  0.51025096156E+01  0.15540765223E+02  0.27370929155E+02  0.31886027518E+02  0.00000000000E+00 0.  1.
         11    1    3    3    0    0 -0.91660730537E+01 -0.16277282689E+02 -0.21664142233E+02  0.28605976403E+02  0.51100000000E-03 0. -1.
        -11    1    3    3    0    0  0.12762362413E+02 -0.30271456841E+01 -0.13203785445E+02  0.18611326006E+02  0.51100000000E-03 0.  1.
         12    1    3    3    0    0 -0.86987989750E+01  0.37636631508E+01  0.74969985233E+01  0.12084670073E+02  0.00000000000E+00 0. -1.
</event>
<event>
 7    1  0.1327607E-011  0.5930197E+02  0.7816164E-02  0.1266605E+00
        -11   -1    0    0    0    0  0.00000000000E+00  0.00000000000E+00  0.45593999997E+02  0.45594000000E+02  0.51100000000E-03 0.  1.
         11   -1    0    0    0    0 -0.00000000000E+00 -0.00000000000E+00 -0.45593999997E+02  0.45594000000E+02  0.51100000000E-03 0. -1.
    9900012    2    1    2    0    0  0.13944885288E+01 -0.24597478579E+02 -0.20242001620E+02  0.59301965748E+02  0.50000039613E+02 0.  0.
        -12    1    1    2    0    0 -0.13944885288E+01  0.24597478579E+02  0.20242001620E+02  0.31886034252E+02  0.00000000000E+00 0.  1.
         11    1    3    3    0    0 -0.19372513573E+02 -0.10672306269E+02 -0.99672543783E+01  0.24259813753E+02  0.51100000000E-03 0. -1.
        -11    1    3    3    0    0  0.96424030029E+01  0.50933142432E+01 -0.44029368958E+00  0.10913828130E+02  0.51100000000E-03 0.  1.
        -12    1    3    3    0    0  0.11124599099E+02 -0.19018486553E+02 -0.98344535522E+01  0.24128323866E+02  0.00000000000E+00 0.  1.
</event>
<event>
 7    1  0.1327607E-011  0.5930197E+02  0.7816164E-02  0.1266605E+00
        -11   -1    0    0    0    0  0.00000000000E+00  0.00000000000E+00  0.45593999997E+02  0.45594000000E+02  0.51100000000E-03 0. -1.
         11   -1    0    0    0    0 -0.00000000000E+00 -0.00000000000E+00 -0.45593999997E+02  0.45594000000E+02  0.51100000000E-03 0.  1.
    9900012    2    1    2    0    0 -0.16596121131E+02 -0.27223397971E+02  0.41773815799E+00  0.59301966398E+02  0.50000040798E+02 0.  0.
        -12    1    1    2    0    0  0.16596121131E+02  0.27223397971E+02 -0.41773815799E+00  0.31886033602E+02  0.00000000000E+00 0.  1.
         11    1    3    3    0    0 -0.23077052856E+02 -0.51281340961E-01  0.34030277206E+01  0.23326671349E+02  0.51100000000E-03 0. -1.
        -11    1    3    3    0    0  0.73417061635E+01  0.23791600489E-02  0.33327107895E+01  0.80627300909E+01  0.51100000000E-03 0.  1.
        -12    1    3    3    0    0 -0.86077443854E+00 -0.27174495790E+02 -0.63180003521E+01  0.27912564958E+02  0.00000000000E+00 0.  1.
</event>
<event>
 7    1  0.1327607E-011  0.5930194E+02  0.7816164E-02  0.1266605E+00
        -11   -1    0    0    0    0  0.00000000000E+00  0.00000000000E+00  0.45593999997E+02  0.45594000000E+02  0.51100000000E-03 0.  1.
         11   -1    0    0    0    0 -0.00000000000E+00 -0.00000000000E+00 -0.45593999997E+02  0.45594000000E+02  0.51100000000E-03 0. -1.
    9900012    2    1    2    0    0 -0.30490115160E+02 -0.92791404083E+01 -0.98561197109E+00  0.59301937211E+02  0.49999987569E+02 0.  0.
        -12    1    1    2    0    0  0.30490115160E+02  0.92791404083E+01  0.98561197109E+00  0.31886062789E+02  0.00000000000E+00 0.  1.
         11    1    3    3    0    0  0.73438195671E+00  0.28618174548E+00  0.11629750556E+01  0.14048943344E+01  0.51100000000E-03 0. -1.
        -11    1    3    3    0    0 -0.26324134897E+02 -0.20079244181E+01  0.20563493647E+02  0.33464146631E+02  0.51100000000E-03 0.  1.
         12    1    3    3    0    0 -0.49003622201E+01 -0.75573977356E+01 -0.22712080674E+02  0.24432896246E+02  0.00000000000E+00 0. -1.
</event>
<event>
 7    1  0.1327607E-011  0.5930195E+02  0.7816164E-02  0.1266605E+00
        -11   -1    0    0    0    0  0.00000000000E+00  0.00000000000E+00  0.45593999997E+02  0.45594000000E+02  0.51100000000E-03 0. -1.
         11   -1    0    0    0    0 -0.00000000000E+00 -0.00000000000E+00 -0.45593999997E+02  0.45594000000E+02  0.51100000000E-03 0.  1.
    9900012    2    1    2    0    0  0.29600689475E+02  0.67329706335E+01 -0.97563504693E+01  0.59301951555E+02  0.50000013728E+02 0.  0.
        -12    1    1    2    0    0 -0.29600689475E+02 -0.67329706335E+01  0.97563504693E+01  0.31886048445E+02  0.00000000000E+00 0.  1.
         11    1    3    3    0    0  0.12365088190E+02  0.67892140784E+01 -0.93626816872E+01  0.16930701178E+02  0.51100000000E-03 0. -1.
        -11    1    3    3    0    0  0.20735879763E+02  0.12375283758E+02  0.96559653471E+01  0.26006961081E+02  0.51100000000E-03 0.  1.
        -12    1    3    3    0    0 -0.35002784776E+01 -0.12431527203E+02 -0.10049634129E+02  0.16364289296E+02  0.00000000000E+00 0.  1.
</event>
<event>
 7    1  0.1327607E-011  0.5930196E+02  0.7816164E-02  0.1266605E+00
        -11   -1    0    0    0    0  0.00000000000E+00  0.00000000000E+00  0.45593999997E+02  0.45594000000E+02  0.51100000000E-03 0.  1.
         11   -1    0    0    0    0 -0.00000000000E+00 -0.00000000000E+00 -0.45593999997E+02  0.45594000000E+02  0.51100000000E-03 0. -1.
    9900012    2    1    2    0    0  0.31811764075E+02  0.51357598166E+00 -0.21136497220E+01  0.59301959026E+02  0.50000027353E+02 0.  0.
        -12    1    1    2    0    0 -0.31811764075E+02 -0.51357598166E+00  0.21136497220E+01  0.31886040974E+02  0.00000000000E+00 0.  1.
         11    1    3    3    0    0  0.28151117980E+02 -0.93623702477E+01 -0.83693246607E+00  0.29678946686E+02  0.51100000000E-03 0. -1.
        -11    1    3    3    0    0  0.14399429941E+02 -0.84526038446E-01  0.22061186736E+01  0.14567693267E+02  0.51100000000E-03 0.  1.
        -12    1    3    3    0    0 -0.10738783845E+02  0.99604722678E+01 -0.34828359295E+01  0.15055319073E+02  0.00000000000E+00 0.  1.
</event>
<event>
 7    1  0.1327607E-011  0.5930196E+02  0.7816164E-02  0.1266605E+00
        -11   -1    0    0    0    0  0.00000000000E+00  0.00000000000E+00  0.45593999997E+02  0.45594000000E+02  0.51100000000E-03 0.  1.
         11   -1    0    0    0    0 -0.00000000000E+00 -0.00000000000E+00 -0.45593999997E+02  0.45594000000E+02  0.51100000000E-03 0. -1.
    9900012    2    1    2    0    0  0.29765223075E+01 -0.29554315156E+02 -0.11593195743E+02  0.59301962038E+02  0.50000032847E+02 0.  0.
        -12    1    1    2    0    0 -0.29765223075E+01  0.29554315156E+02  0.11593195743E+02  0.31886037962E+02  0.00000000000E+00 0.  1.
         11    1    3    3    0    0 -0.27996617486E+01 -0.13366170955E+01 -0.43601565145E+01  0.53512256782E+01  0.51100000000E-03 0. -1.
        -11    1    3    3    0    0 -0.18307668971E+02 -0.44467398741E+01 -0.70361370337E+01  0.20110978675E+02  0.51100000000E-03 0.  1.
         12    1    3    3    0    0  0.24083853027E+02 -0.23770958186E+02 -0.19690219477E+00  0.33839757685E+02  0.00000000000E+00 0. -1.
</event>
<event>
 7    1  0.1327607E-011  0.5930196E+02  0.7816164E-02  0.1266605E+00
        -11   -1    0    0    0    0  0.00000000000E+00  0.00000000000E+00  0.45593999997E+02  0.45594000000E+02  0.51100000000E-03 0. -1.
         11   -1    0    0    0    0 -0.00000000000E+00 -0.00000000000E+00 -0.45593999997E+02  0.45594000000E+02  0.51100000000E-03 0.  1.
    9900012    2    1    2    0    0 -0.31683083549E+02 -0.34907845617E+01  0.84617409776E+00  0.59301962764E+02  0.50000034171E+02 0.  0.
        -12    1    1    2    0    0  0.31683083549E+02  0.34907845617E+01 -0.84617409776E+00  0.31886037236E+02  0.00000000000E+00 0.  1.
         11    1    3    3    0    0  0.24392331566E+01  0.12000462650E+02  0.37864403204E+01  0.12817881758E+02  0.51100000000E-03 0. -1.
        -11    1    3    3    0    0 -0.15837155033E+02  0.47325787430E+01  0.63107787001E+01  0.17692899964E+02  0.51100000000E-03 0.  1.
        -12    1    3    3    0    0 -0.18285161673E+02 -0.20223825954E+02 -0.92510449227E+01  0.28791181042E+02  0.00000000000E+00 0.  1.
</event>
<event>
 7    1  0.1327607E-011  0.5930194E+02  0.7816164E-02  0.1266605E+00
        -11   -1    0    0    0    0  0.00000000000E+00  0.00000000000E+00  0.45593999997E+02  0.45594000000E+02  0.51100000000E-03 0. -1.
         11   -1    0    0    0    0 -0.00000000000E+00 -0.00000000000E+00 -0.45593999997E+02  0.45594000000E+02  0.51100000000E-03 0.  1.
    9900012    2    1    2    0    0 -0.63578463973E+01 -0.22008177991E+02  0.22179689703E+02  0.59301941219E+02  0.49999994877E+02 0.  0.
        -12    1    1    2    0    0  0.63578463973E+01  0.22008177991E+02 -0.22179689703E+02  0.31886058781E+02  0.00000000000E+00 0.  1.
         11    1    3    3    0    0  0.98356909695E+01 -0.20942579857E+02  0.95751538943E+01  0.25040288342E+02  0.51100000000E-03 0. -1.
        -11    1    3    3    0    0 -0.19350014299E+02 -0.73886532154E+01  0.10775236555E+01  0.20740692062E+02  0.51100000000E-03 0.  1.
        -12    1    3    3    0    0  0.31564769321E+01  0.63230550813E+01  0.11527012153E+02  0.13520960815E+02  0.00000000000E+00 0.  1.
</event>
<event>
 7    1  0.1327607E-011  0.5930193E+02  0.7816164E-02  0.1266605E+00
        -11   -1    0    0    0    0  0.00000000000E+00  0.00000000000E+00  0.45593999997E+02  0.45594000000E+02  0.51100000000E-03 0. -1.
         11   -1    0    0    0    0 -0.00000000000E+00 -0.00000000000E+00 -0.45593999997E+02  0.45594000000E+02  0.51100000000E-03 0.  1.
    9900012    2    1    2    0    0  0.86467744388E+01 -0.29628634978E+02  0.80061884408E+01  0.59301925105E+02  0.49999965489E+02 0.  0.
        -12    1    1    2    0    0 -0.86467744388E+01  0.29628634978E+02 -0.80061884408E+01  0.31886074895E+02  0.00000000000E+00 0.  1.
         11    1    3    3    0    0  0.17493686470E+02 -0.36481525353E+01 -0.11848808599E+02  0.21441370028E+02  0.51100000000E-03 0.  1.
        -11    1    3    3    0    0 -0.16361371397E+01  0.22607391534E+01  0.33664270251E+01  0.43727242579E+01  0.51100000000E-03 0. -1.
         12    1    3    3    0    0 -0.72107748912E+01 -0.28241221596E+02  0.16488570015E+02  0.33487830818E+02  0.00000000000E+00 0. -1.
</event>
<event>
 7    1  0.1327607E-011  0.5930192E+02  0.7816164E-02  0.1266605E+00
        -11   -1    0    0    0    0  0.00000000000E+00  0.00000000000E+00  0.45593999997E+02  0.45594000000E+02  0.51100000000E-03 0. -1.
         11   -1    0    0    0    0 -0.00000000000E+00 -0.00000000000E+00 -0.45593999997E+02  0.45594000000E+02  0.51100000000E-03 0.  1.
    9900012    2    1    2    0    0  0.18954255487E+02  0.23836751402E+02 -0.94481686044E+01  0.59301915128E+02  0.49999947294E+02 0.  0.
        -12    1    1    2    0    0 -0.18954255487E+02 -0.23836751402E+02  0.94481686044E+01  0.31886084872E+02  0.00000000000E+00 0.  1.
         11    1    3    3    0    0 -0.19081629862E+01  0.16536140201E+02  0.95428650324E+00  0.16673202504E+02  0.51100000000E-03 0. -1.
        -11    1    3    3    0    0  0.18070965374E+01  0.15372248128E+02  0.56093576921E+01  0.16463186337E+02  0.51100000000E-03 0.  1.
        -12    1    3    3    0    0  0.19055321936E+02 -0.80716369267E+01 -0.16011812800E+02  0.26165526287E+02  0.00000000000E+00 0.  1.
</event>
<event>
 7    1  0.1327607E-011  0.5930195E+02  0.7816164E-02  0.1266605E+00
        -11   -1    0    0    0    0  0.00000000000E+00  0.00000000000E+00  0.45593999997E+02  0.45594000000E+02  0.51100000000E-03 0. -1.
         11   -1    0    0    0    0 -0.00000000000E+00 -0.00000000000E+00 -0.45593999997E+02  0.45594000000E+02  0.51100000000E-03 0.  1.
    9900012    2    1    2    0    0  0.97136765763E+00 -0.27025166095E+02  0.16894282582E+02  0.59301953811E+02  0.50000017843E+02 0.  0.
        -12    1    1    2    0    0 -0.97136765763E+00  0.27025166095E+02 -0.16894282582E+02  0.31886046189E+02  0.00000000000E+00 0.  1.
         11    1    3    3    0    0  0.13873029996E+02 -0.49346999789E+01 -0.18148014930E+01  0.14835960700E+02  0.51100000000E-03 0. -1.
        -11    1    3    3    0    0 -0.27854992614E+01  0.17210398895E+01  0.18300862728E+02  0.18591464743E+02  0.51100000000E-03 0.  1.
         12    1    3    3    0    0 -0.10116163077E+02 -0.23811506005E+02  0.40822134744E+00  0.25874528369E+02  0.00000000000E+00 0. -1.
</event>
<event>
 7    1  0.1327607E-011  0.5930198E+02  0.7816164E-02  0.1266605E+00
        -11   -1    0    0    0    0  0.00000000000E+00  0.00000000000E+00  0.45593999997E+02  0.45594000000E+02  0.51100000000E-03 0. -1.
         11   -1    0    0    0    0 -0.00000000000E+00 -0.00000000000E+00 -0.45593999997E+02  0.45594000000E+02  0.51100000000E-03 0.  1.
    9900012    2    1    2    0    0 -0.27832771563E+01 -0.31299177368E+02  0.54160033190E+01  0.59301980687E+02  0.50000066858E+02 0.  0.
        -12    1    1    2    0    0  0.27832771563E+01  0.31299177368E+02 -0.54160033190E+01  0.31886019313E+02  0.00000000000E+00 0.  1.
         11    1    3    3    0    0 -0.13454734165E+02 -0.27646384286E+02 -0.74808171355E+00  0.30755683411E+02  0.51100000000E-03 0. -1.
        -11    1    3    3    0    0 -0.41669645547E+01  0.60907083868E+01  0.77777383875E+01  0.10721638724E+02  0.51100000000E-03 0.  1.
         12    1    3    3    0    0  0.14838421563E+02 -0.97435014687E+01 -0.16136533549E+01  0.17824658552E+02  0.00000000000E+00 0. -1.
</event>
<event>
 7    1  0.1327607E-011  0.5930196E+02  0.7816164E-02  0.1266605E+00
        -11   -1    0    0    0    0  0.00000000000E+00  0.00000000000E+00  0.45593999997E+02  0.45594000000E+02  0.51100000000E-03 0.  1.
         11   -1    0    0    0    0 -0.00000000000E+00 -0.00000000000E+00 -0.45593999997E+02  0.45594000000E+02  0.51100000000E-03 0. -1.
    9900012    2    1    2    0    0  0.26245594711E+02  0.17960353439E+02 -0.23052809787E+01  0.59301955125E+02  0.50000020239E+02 0.  0.
        -12    1    1    2    0    0 -0.26245594711E+02 -0.17960353439E+02  0.23052809787E+01  0.31886044875E+02  0.00000000000E+00 0.  1.
         11    1    3    3    0    0 -0.41309151620E+01 -0.68989566664E+01 -0.77961327428E+00  0.80788526586E+01  0.51100000000E-03 0. -1.
        -11    1    3    3    0    0  0.33204682257E+02  0.81837478716E+01  0.39591389045E+00  0.34200605274E+02  0.51100000000E-03 0.  1.
         12    1    3    3    0    0 -0.28281723843E+01  0.16675562234E+02 -0.19215815948E+01  0.17022497193E+02  0.00000000000E+00 0. -1.
</event>
<event>
 7    1  0.1327607E-011  0.5930195E+02  0.7816164E-02  0.1266605E+00
        -11   -1    0    0    0    0  0.00000000000E+00  0.00000000000E+00  0.45593999997E+02  0.45594000000E+02  0.51100000000E-03 0. -1.
         11   -1    0    0    0    0 -0.00000000000E+00 -0.00000000000E+00 -0.45593999997E+02  0.45594000000E+02  0.51100000000E-03 0.  1.
    9900012    2    1    2    0    0 -0.19126091299E+02  0.63069452721E+01  0.24721152607E+02  0.59301947982E+02  0.50000007213E+02 0.  0.
        -12    1    1    2    0    0  0.19126091299E+02 -0.63069452721E+01 -0.24721152607E+02  0.31886052018E+02  0.00000000000E+00 0.  1.
         11    1    3    3    0    0 -0.11430845111E+01  0.15581353254E+00 -0.10875513400E+02  0.10936531079E+02  0.51100000000E-03 0.  1.
        -11    1    3    3    0    0 -0.96460667794E+01  0.99918368740E+01  0.26176072790E+01  0.14132773137E+02  0.51100000000E-03 0. -1.
        -12    1    3    3    0    0 -0.83369400089E+01 -0.38407051344E+01  0.32979058728E+02  0.34232643766E+02  0.00000000000E+00 0.  1.
</event>
<event>
 7    1  0.1327607E-011  0.5930195E+02  0.7816164E-02  0.1266605E+00
        -11   -1    0    0    0    0  0.00000000000E+00  0.00000000000E+00  0.45593999997E+02  0.45594000000E+02  0.51100000000E-03 0.  1.
         11   -1    0    0    0    0 -0.00000000000E+00 -0.00000000000E+00 -0.45593999997E+02  0.45594000000E+02  0.51100000000E-03 0. -1.
    9900012    2    1    2    0    0 -0.14692519377E+02 -0.39072936680E+01 -0.28028253339E+02  0.59301952038E+02  0.50000014608E+02 0.  0.
        -12    1    1    2    0    0  0.14692519377E+02  0.39072936680E+01  0.28028253339E+02  0.31886047962E+02  0.00000000000E+00 0.  1.
         11    1    3    3    0    0 -0.74168703304E+01  0.53658000879E+01 -0.20761775833E+02  0.22690374878E+02  0.51100000000E-03 0. -1.
        -11    1    3    3    0    0  0.64246980181E+00  0.68576966521E+01 -0.15412848300E+02  0.16881844206E+02  0.51100000000E-03 0.  1.
        -12    1    3    3    0    0 -0.79181188483E+01 -0.16130790408E+02  0.81463707950E+01  0.19729732953E+02  0.00000000000E+00 0.  1.
</event>
<event>
 7    1  0.1327607E-011  0.5930195E+02  0.7816164E-02  0.1266605E+00
        -11   -1    0    0    0    0  0.00000000000E+00  0.00000000000E+00  0.45593999997E+02  0.45594000000E+02  0.51100000000E-03 0. -1.
         11   -1    0    0    0    0 -0.00000000000E+00 -0.00000000000E+00 -0.45593999997E+02  0.45594000000E+02  0.51100000000E-03 0.  1.
    9900012    2    1    2    0    0 -0.13555031067E+02 -0.24982501247E+02  0.14451858684E+02  0.59301945756E+02  0.50000003153E+02 0.  0.
        -12    1    1    2    0    0  0.13555031067E+02  0.24982501247E+02 -0.14451858684E+02  0.31886054244E+02  0.00000000000E+00 0.  1.
         11    1    3    3    0    0  0.69177981610E+01  0.84648955236E+01  0.37308119203E+01  0.11551162083E+02  0.51100000000E-03 0.  1.
        -11    1    3    3    0    0  0.18444956902E+01  0.15041463099E+01  0.54514656366E+01  0.59483693834E+01  0.51100000000E-03 0. -1.
         12    1    3    3    0    0 -0.22317324918E+02 -0.34951543081E+02  0.52695811274E+01  0.41802414290E+02  0.00000000000E+00 0. -1.
</event>
<event>
 7    1  0.1327607E-011  0.5930195E+02  0.7816164E-02  0.1266605E+00
        -11   -1    0    0    0    0  0.00000000000E+00  0.00000000000E+00  0.45593999997E+02  0.45594000000E+02  0.51100000000E-03 0.  1.
         11   -1    0    0    0    0 -0.00000000000E+00 -0.00000000000E+00 -0.45593999997E+02  0.45594000000E+02  0.51100000000E-03 0. -1.
    9900012    2    1    2    0    0  0.31107083906E+02 -0.66571364458E+01 -0.21798503177E+01  0.59301954742E+02  0.50000019541E+02 0.  0.
        -12    1    1    2    0    0 -0.31107083906E+02  0.66571364458E+01  0.21798503177E+01  0.31886045258E+02  0.00000000000E+00 0.  1.
         11    1    3    3    0    0  0.87187508396E+01  0.12232804556E+02 -0.13130899116E+02  0.19951908063E+02  0.51100000000E-03 0. -1.
        -11    1    3    3    0    0  0.11462716081E+02  0.34127804781E+01 -0.56834928656E+00  0.11973468658E+02  0.51100000000E-03 0.  1.
        -12    1    3    3    0    0  0.10925616985E+02 -0.22302721479E+02  0.11519398085E+02  0.27376578021E+02  0.00000000000E+00 0.  1.
</event>
<event>
 7    1  0.1327607E-011  0.5930199E+02  0.7816164E-02  0.1266605E+00
        -11   -1    0    0    0    0  0.00000000000E+00  0.00000000000E+00  0.45593999997E+02  0.45594000000E+02  0.51100000000E-03 0. -1.
         11   -1    0    0    0    0 -0.00000000000E+00 -0.00000000000E+00 -0.45593999997E+02  0.45594000000E+02  0.51100000000E-03 0.  1.
    9900012    2    1    2    0    0 -0.22326291438E+02  0.19248335496E+02  0.12155489845E+02  0.59301989869E+02  0.50000083603E+02 0.  0.
        -12    1    1    2    0    0  0.22326291438E+02 -0.19248335496E+02 -0.12155489845E+02  0.31886010131E+02  0.00000000000E+00 0.  1.
         11    1    3    3    0    0 -0.28816187895E+01  0.73761734956E+01  0.50820279461E+01  0.94094989554E+01  0.51100000000E-03 0. -1.
        -11    1    3    3    0    0 -0.54029021803E+00  0.22655941960E+02  0.14491026852E+02  0.26899321164E+02  0.51100000000E-03 0.  1.
         12    1    3    3    0    0 -0.18904382430E+02 -0.10783779960E+02 -0.74175649524E+01  0.22993169749E+02  0.00000000000E+00 0. -1.
</event>
<event>
 7    1  0.1327607E-011  0.5930196E+02  0.7816164E-02  0.1266605E+00
        -11   -1    0    0    0    0  0.00000000000E+00  0.00000000000E+00  0.45593999997E+02  0.45594000000E+02  0.51100000000E-03 0. -1.
         11   -1    0    0    0    0 -0.00000000000E+00 -0.00000000000E+00 -0.45593999997E+02  0.45594000000E+02  0.51100000000E-03 0.  1.
    9900012    2    1    2    0    0  0.22816685161E+02  0.21642060035E+02 -0.52668575514E+01  0.59301958026E+02  0.50000025530E+02 0.  0.
        -12    1    1    2    0    0 -0.22816685161E+02 -0.21642060035E+02  0.52668575514E+01  0.31886041974E+02  0.00000000000E+00 0.  1.
         11    1    3    3    0    0  0.10708788888E+02  0.20469592928E+02 -0.73703046985E+01  0.24248789366E+02  0.51100000000E-03 0. -1.
        -11    1    3    3    0    0 -0.41057870055E+01 -0.56582941665E+01 -0.11057078503E+02  0.13081772246E+02  0.51100000000E-03 0.  1.
         12    1    3    3    0    0  0.16213683278E+02  0.68307612733E+01  0.13160525650E+02  0.21971396415E+02  0.00000000000E+00 0. -1.
</event>
<event>
 7    1  0.1327607E-011  0.5930194E+02  0.7816164E-02  0.1266605E+00
        -11   -1    0    0    0    0  0.00000000000E+00  0.00000000000E+00  0.45593999997E+02  0.45594000000E+02  0.51100000000E-03 0.  1.
         11   -1    0    0    0    0 -0.00000000000E+00 -0.00000000000E+00 -0.45593999997E+02  0.45594000000E+02  0.51100000000E-03 0. -1.
    9900012    2    1    2    0    0  0.54526162759E+01 -0.42892484369E+01 -0.31122217651E+02  0.59301935521E+02  0.49999984486E+02 0.  0.
        -12    1    1    2    0    0 -0.54526162759E+01  0.42892484369E+01  0.31122217651E+02  0.31886064479E+02  0.00000000000E+00 0.  1.
         11    1    3    3    0    0 -0.49966034798E+01  0.13054586768E+01 -0.61062350253E+01  0.79972729812E+01  0.51100000000E-03 0. -1.
        -11    1    3    3    0    0  0.93107908853E+01 -0.53218442211E+01 -0.37378639500E+02  0.38886701377E+02  0.51100000000E-03 0.  1.
        -12    1    3    3    0    0  0.11384288703E+01 -0.27286289267E+00  0.12362656874E+02  0.12417961163E+02  0.00000000000E+00 0.  1.
</event>
<event>
 7    1  0.1327607E-011  0.5930207E+02  0.7816164E-02  0.1266604E+00
        -11   -1    0    0    0    0  0.00000000000E+00  0.00000000000E+00  0.45593999997E+02  0.45594000000E+02  0.51100000000E-03 0.  1.
         11   -1    0    0    0    0 -0.00000000000E+00 -0.00000000000E+00 -0.45593999997E+02  0.45594000000E+02  0.51100000000E-03 0. -1.
    9900012    2    1    2    0    0  0.20122178873E+02 -0.17320660734E+02 -0.17658007543E+02  0.59302068914E+02  0.50000227762E+02 0.  0.
        -12    1    1    2    0    0 -0.20122178873E+02  0.17320660734E+02  0.17658007543E+02  0.31885931086E+02  0.00000000000E+00 0.  1.
         11    1    3    3    0    0  0.27611918348E+01 -0.73634703300E+00  0.78575451794E+01  0.83610647533E+01  0.51100000000E-03 0. -1.
        -11    1    3    3    0    0 -0.54731505563E+01 -0.20217470932E+02 -0.11296320190E+02  0.23797234251E+02  0.51100000000E-03 0.  1.
         12    1    3    3    0    0  0.22834137594E+02  0.36331572307E+01 -0.14219232532E+02  0.27143769910E+02  0.00000000000E+00 0. -1.
</event>
<event>
 7    1  0.1327607E-011  0.5930195E+02  0.7816164E-02  0.1266605E+00
        -11   -1    0    0    0    0  0.00000000000E+00  0.00000000000E+00  0.45593999997E+02  0.45594000000E+02  0.51100000000E-03 0. -1.
         11   -1    0    0    0    0 -0.00000000000E+00 -0.00000000000E+00 -0.45593999997E+02  0.45594000000E+02  0.51100000000E-03 0.  1.
    9900012    2    1    2    0    0 -0.30701551442E+02  0.51714461663E+01  0.68841092878E+01  0.59301951686E+02  0.50000013967E+02 0.  0.
        -12    1    1    2    0    0  0.30701551442E+02 -0.51714461663E+01 -0.68841092878E+01  0.31886048314E+02  0.00000000000E+00 0.  1.
         11    1    3    3    0    0 -0.32194576490E+02  0.64864115892E+01  0.33255631523E+01  0.33009448060E+02  0.51100000000E-03 0. -1.
        -11    1    3    3    0    0 -0.10037410733E+02  0.62761392296E+01  0.39568613326E+01  0.12481838395E+02  0.51100000000E-03 0.  1.
        -12    1    3    3    0    0  0.11530435781E+02 -0.75911046525E+01 -0.39831519713E+00  0.13810665232E+02  0.00000000000E+00 0.  1.
</event>
<event>
 7    1  0.1327607E-011  0.5930191E+02  0.7816164E-02  0.1266605E+00
        -11   -1    0    0    0    0  0.00000000000E+00  0.00000000000E+00  0.45593999997E+02  0.45594000000E+02  0.51100000000E-03 0. -1.
         11   -1    0    0    0    0 -0.00000000000E+00 -0.00000000000E+00 -0.45593999997E+02  0.45594000000E+02  0.51100000000E-03 0.  1.
    9900012    2    1    2    0    0 -0.18026889333E+02  0.58699258461E+01  0.25637816804E+02  0.59301914963E+02  0.49999946993E+02 0.  0.
        -12    1    1    2    0    0  0.18026889333E+02 -0.58699258461E+01 -0.25637816804E+02  0.31886085037E+02  0.00000000000E+00 0.  1.
         11    1    3    3    0    0 -0.39204515173E+01 -0.69105456639E+01  0.82063350469E+01  0.11422325360E+02  0.51100000000E-03 0. -1.
        -11    1    3    3    0    0 -0.12395458333E+02 -0.95888707360E+01  0.19877200668E+02  0.25311991939E+02  0.51100000000E-03 0.  1.
        -12    1    3    3    0    0 -0.17109794831E+01  0.22369342246E+02 -0.24457189110E+01  0.22567597664E+02  0.00000000000E+00 0.  1.
</event>
<event>
 7    1  0.1327607E-011  0.5930195E+02  0.7816164E-02  0.1266605E+00
        -11   -1    0    0    0    0  0.00000000000E+00  0.00000000000E+00  0.45593999997E+02  0.45594000000E+02  0.51100000000E-03 0.  1.
         11   -1    0    0    0    0 -0.00000000000E+00 -0.00000000000E+00 -0.45593999997E+02  0.45594000000E+02  0.51100000000E-03 0. -1.
    9900012    2    1    2    0    0  0.15871997593E+02  0.87958765498E+01 -0.26218927985E+02  0.59301953890E+02  0.50000017986E+02 0.  0.
        -12    1    1    2    0    0 -0.15871997593E+02 -0.87958765498E+01  0.26218927985E+02  0.31886046110E+02  0.00000000000E+00 0.  1.
         11    1    3    3    0    0  0.36677054386E+01  0.17293518016E+01 -0.75757531591E+01  0.85927153466E+01  0.51100000000E-03 0.  1.
        -11    1    3    3    0    0  0.29296009028E+02  0.48536619327E+01 -0.93706782091E+01  0.31138782723E+02  0.51100000000E-03 0. -1.
        -12    1    3    3    0    0 -0.17091716873E+02  0.22128628155E+01 -0.92724966163E+01  0.19570455820E+02  0.00000000000E+00 0.  1.
</event>
<event>
 7    1  0.1327607E-011  0.5930195E+02  0.7816164E-02  0.1266605E+00
        -11   -1    0    0    0    0  0.00000000000E+00  0.00000000000E+00  0.45593999997E+02  0.45594000000E+02  0.51100000000E-03 0.  1.
         11   -1    0    0    0    0 -0.00000000000E+00 -0.00000000000E+00 -0.45593999997E+02  0.45594000000E+02  0.51100000000E-03 0. -1.
    9900012    2    1    2    0    0  0.44583933897E+01  0.31571853066E+02 -0.24636508738E+00  0.59301954880E+02  0.50000019792E+02 0.  0.
        -12    1    1    2    0    0 -0.44583933897E+01 -0.31571853066E+02  0.24636508738E+00  0.31886045120E+02  0.00000000000E+00 0.  1.
         11    1    3    3    0    0  0.10807041927E+02  0.19414364630E+02  0.31296058407E+01  0.22438897972E+02  0.51100000000E-03 0. -1.
        -11    1    3    3    0    0 -0.63522328805E+01  0.82533980397E+01  0.14897580143E+02  0.18177110225E+02  0.51100000000E-03 0.  1.
         12    1    3    3    0    0  0.35843429355E-02  0.39040903961E+01 -0.18273551071E+02  0.18685946682E+02  0.00000000000E+00 0. -1.
</event>
<event>
 7    1  0.1327607E-011  0.5930194E+02  0.7816164E-02  0.1266605E+00
        -11   -1    0    0    0    0  0.00000000000E+00  0.00000000000E+00  0.45593999997E+02  0.45594000000E+02  0.51100000000E-03 0. -1.
         11   -1    0    0    0    0 -0.00000000000E+00 -0.00000000000E+00 -0.45593999997E+02  0.45594000000E+02  0.51100000000E-03 0.  1.
    9900012    2    1    2    0    0 -0.53438758776E+01 -0.19494663236E+02  0.24660129824E+02  0.59301938672E+02  0.49999990232E+02 0.  0.
        -12    1    1    2    0    0  0.53438758776E+01  0.19494663236E+02 -0.24660129824E+02  0.31886061328E+02  0.00000000000E+00 0.  1.
         11    1    3    3    0    0 -0.35015325800E+01 -0.19697076671E+02  0.12774957193E+02  0.23736787722E+02  0.51100000000E-03 0.  1.
        -11    1    3    3    0    0  0.52537005430E+01  0.14498909324E+01  0.22269186956E+02  0.22926409249E+02  0.51100000000E-03 0. -1.
        -12    1    3    3    0    0 -0.70960438406E+01 -0.12474774974E+01 -0.10384014325E+02  0.12638741701E+02  0.00000000000E+00 0.  1.
</event>
<event>
 7    1  0.1327607E-011  0.5930194E+02  0.7816164E-02  0.1266605E+00
        -11   -1    0    0    0    0  0.00000000000E+00  0.00000000000E+00  0.45593999997E+02  0.45594000000E+02  0.51100000000E-03 0. -1.
         11   -1    0    0    0    0 -0.00000000000E+00 -0.00000000000E+00 -0.45593999997E+02  0.45594000000E+02  0.51100000000E-03 0.  1.
    9900012    2    1    2    0    0 -0.31815497071E+02 -0.25272318379E+00 -0.21050068105E+01  0.59301940718E+02  0.49999993963E+02 0.  0.
        -12    1    1    2    0    0  0.31815497071E+02  0.25272318379E+00  0.21050068105E+01  0.31886059282E+02  0.00000000000E+00 0.  1.
         11    1    3    3    0    0 -0.95775128933E+01  0.17520392121E+02 -0.84901973338E+01  0.21697381047E+02  0.51100000000E-03 0. -1.
        -11    1    3    3    0    0  0.41613374550E+01  0.11998354510E+01  0.21008568761E+01  0.48135158044E+01  0.51100000000E-03 0.  1.
        -12    1    3    3    0    0 -0.26399321633E+02 -0.18972950755E+02  0.42843336473E+01  0.32791043866E+02  0.00000000000E+00 0.  1.
</event>
<event>
 7    1  0.1327607E-011  0.5930195E+02  0.7816164E-02  0.1266605E+00
        -11   -1    0    0    0    0  0.00000000000E+00  0.00000000000E+00  0.45593999997E+02  0.45594000000E+02  0.51100000000E-03 0.  1.
         11   -1    0    0    0    0 -0.00000000000E+00 -0.00000000000E+00 -0.45593999997E+02  0.45594000000E+02  0.51100000000E-03 0. -1.
    9900012    2    1    2    0    0 -0.20822603086E+02  0.47421295121E+01 -0.23678088389E+02  0.59301945661E+02  0.50000002979E+02 0.  0.
        -12    1    1    2    0    0  0.20822603086E+02 -0.47421295121E+01  0.23678088389E+02  0.31886054339E+02  0.00000000000E+00 0.  1.
         11    1    3    3    0    0  0.96285613378E-01 -0.16920189441E+01 -0.13548572784E+02  0.13654157747E+02  0.51100000000E-03 0. -1.
        -11    1    3    3    0    0 -0.24220573213E+02 -0.11022876332E+02 -0.43448169634E+01  0.26963260265E+02  0.51100000000E-03 0.  1.
         12    1    3    3    0    0  0.33016845141E+01  0.17457024789E+02 -0.57846986414E+01  0.18684527649E+02  0.00000000000E+00 0. -1.
</event>
<event>
 7    1  0.1327607E-011  0.5930193E+02  0.7816164E-02  0.1266605E+00
        -11   -1    0    0    0    0  0.00000000000E+00  0.00000000000E+00  0.45593999997E+02  0.45594000000E+02  0.51100000000E-03 0.  1.
         11   -1    0    0    0    0 -0.00000000000E+00 -0.00000000000E+00 -0.45593999997E+02  0.45594000000E+02  0.51100000000E-03 0. -1.
    9900012    2    1    2    0    0 -0.12640418255E+02  0.38835775517E+01 -0.29014803566E+02  0.59301934482E+02  0.49999982591E+02 0.  0.
        -12    1    1    2    0    0  0.12640418255E+02 -0.38835775517E+01  0.29014803566E+02  0.31886065518E+02  0.00000000000E+00 0.  1.
         11    1    3    3    0    0  0.56287190270E+01  0.14677093622E+02 -0.18290778975E+01  0.15825456749E+02  0.51100000000E-03 0. -1.
        -11    1    3    3    0    0 -0.26303153558E+01  0.81378807833E+01 -0.31463495553E+01  0.91128029880E+01  0.51100000000E-03 0.  1.
        -12    1    3    3    0    0 -0.15638821926E+02 -0.18931396854E+02 -0.24039376113E+02  0.34363674745E+02  0.00000000000E+00 0.  1.
</event>
<event>
 7    1  0.1327607E-011  0.5930195E+02  0.7816164E-02  0.1266605E+00
        -11   -1    0    0    0    0  0.00000000000E+00  0.00000000000E+00  0.45593999997E+02  0.45594000000E+02  0.51100000000E-03 0. -1.
         11   -1    0    0    0    0 -0.00000000000E+00 -0.00000000000E+00 -0.45593999997E+02  0.45594000000E+02  0.51100000000E-03 0.  1.
    9900012    2    1    2    0    0  0.27311619275E+02  0.12292630148E+02 -0.10940141744E+02  0.59301952820E+02  0.50000016034E+02 0.  0.
        -12    1    1    2    0    0 -0.27311619275E+02 -0.12292630148E+02  0.10940141744E+02  0.31886047180E+02  0.00000000000E+00 0.  1.
         11    1    3    3    0    0  0.24147436771E+02 -0.52805123169E+01  0.14119884902E+01  0.24758356664E+02  0.51100000000E-03 0. -1.
        -11    1    3    3    0    0  0.82457847925E+00  0.77578994084E+01  0.84026657468E+01  0.11466024804E+02  0.51100000000E-03 0.  1.
        -12    1    3    3    0    0  0.23396040247E+01  0.98152430567E+01 -0.20754795981E+02  0.23077571351E+02  0.00000000000E+00 0.  1.
</event>
<event>
 7    1  0.1327607E-011  0.5930193E+02  0.7816164E-02  0.1266605E+00
        -11   -1    0    0    0    0  0.00000000000E+00  0.00000000000E+00  0.45593999997E+02  0.45594000000E+02  0.51100000000E-03 0.  1.
         11   -1    0    0    0    0 -0.00000000000E+00 -0.00000000000E+00 -0.45593999997E+02  0.45594000000E+02  0.51100000000E-03 0. -1.
    9900012    2    1    2    0    0  0.11851852877E+02 -0.25050480219E+01 -0.29495418000E+02  0.59301931487E+02  0.49999977128E+02 0.  0.
        -12    1    1    2    0    0 -0.11851852877E+02  0.25050480219E+01  0.29495418000E+02  0.31886068513E+02  0.00000000000E+00 0.  1.
         11    1    3    3    0    0 -0.42335675260E+01 -0.19148416215E+02 -0.12694670323E+02  0.23361070018E+02  0.51100000000E-03 0. -1.
        -11    1    3    3    0    0  0.49008070047E+01 -0.22584942982E+01  0.31677372589E+01  0.62572570185E+01  0.51100000000E-03 0.  1.
        -12    1    3    3    0    0  0.11184613398E+02  0.18901862491E+02 -0.19968484936E+02  0.29683604450E+02  0.00000000000E+00 0.  1.
</event>
<event>
 7    1  0.1327607E-011  0.5930190E+02  0.7816164E-02  0.1266605E+00
        -11   -1    0    0    0    0  0.00000000000E+00  0.00000000000E+00  0.45593999997E+02  0.45594000000E+02  0.51100000000E-03 0.  1.
         11   -1    0    0    0    0 -0.00000000000E+00 -0.00000000000E+00 -0.45593999997E+02  0.45594000000E+02  0.51100000000E-03 0. -1.
    9900012    2    1    2    0    0 -0.23057880733E+02 -0.21359811577E+02  0.53680580432E+01  0.59301898613E+02  0.49999917174E+02 0.  0.
        -12    1    1    2    0    0  0.23057880733E+02  0.21359811577E+02 -0.53680580432E+01  0.31886101387E+02  0.00000000000E+00 0.  1.
         11    1    3    3    0    0 -0.25233015064E+02 -0.56092433576E+01  0.56463859480E+00  0.25855124778E+02  0.51100000000E-03 0. -1.
        -11    1    3    3    0    0 -0.12868427080E+01 -0.78828353401E+01 -0.12091240394E+02  0.14491140454E+02  0.51100000000E-03 0.  1.
        -12    1    3    3    0    0  0.34619770393E+01 -0.78677328794E+01  0.16894659842E+02  0.18955633380E+02  0.00000000000E+00 0.  1.
</event>
<event>
 7    1  0.1327607E-011  0.5930190E+02  0.7816164E-02  0.1266605E+00
        -11   -1    0    0    0    0  0.00000000000E+00  0.00000000000E+00  0.45593999997E+02  0.45594000000E+02  0.51100000000E-03 0.  1.
         11   -1    0    0    0    0 -0.00000000000E+00 -0.00000000000E+00 -0.45593999997E+02  0.45594000000E+02  0.51100000000E-03 0. -1.
    9900012    2    1    2    0    0  0.24337542684E+02  0.10585934918E+02 -0.17673299287E+02  0.59301897860E+02  0.49999915801E+02 0.  0.
        -12    1    1    2    0    0 -0.24337542684E+02 -0.10585934918E+02  0.17673299287E+02  0.31886102140E+02  0.00000000000E+00 0.  1.
         11    1    3    3    0    0  0.54583207117E+01 -0.71415553547E+01 -0.18343915588E+02  0.20427782974E+02  0.51100000000E-03 0. -1.
        -11    1    3    3    0    0  0.76966422913E+01  0.17071722624E+02 -0.11781971181E+02  0.22124575952E+02  0.51100000000E-03 0.  1.
         12    1    3    3    0    0  0.11182579681E+02  0.65576764894E+00  0.12452587481E+02  0.16749538934E+02  0.00000000000E+00 0. -1.
</event>
<event>
 7    1  0.1327607E-011  0.5930194E+02  0.7816164E-02  0.1266605E+00
        -11   -1    0    0    0    0  0.00000000000E+00  0.00000000000E+00  0.45593999997E+02  0.45594000000E+02  0.51100000000E-03 0.  1.
         11   -1    0    0    0    0 -0.00000000000E+00 -0.00000000000E+00 -0.45593999997E+02  0.45594000000E+02  0.51100000000E-03 0. -1.
    9900012    2    1    2    0    0 -0.11914222145E+02 -0.17884059276E+01 -0.29522429025E+02  0.59301938772E+02  0.49999990415E+02 0.  0.
        -12    1    1    2    0    0  0.11914222145E+02  0.17884059276E+01  0.29522429025E+02  0.31886061228E+02  0.00000000000E+00 0.  1.
         11    1    3    3    0    0 -0.78161743065E+01  0.53154395115E+01 -0.63116724867E+01  0.11365900221E+02  0.51100000000E-03 0.  1.
        -11    1    3    3    0    0 -0.13031763045E+02  0.95061876572E+01  0.22118064623E+01  0.16281478432E+02  0.51100000000E-03 0. -1.
         12    1    3    3    0    0  0.89337152065E+01 -0.16610033096E+02 -0.25422563001E+02  0.31654560120E+02  0.00000000000E+00 0. -1.
</event>
<event>
 7    1  0.1327607E-011  0.5930194E+02  0.7816164E-02  0.1266605E+00
        -11   -1    0    0    0    0  0.00000000000E+00  0.00000000000E+00  0.45593999997E+02  0.45594000000E+02  0.51100000000E-03 0. -1.
         11   -1    0    0    0    0 -0.00000000000E+00 -0.00000000000E+00 -0.45593999997E+02  0.45594000000E+02  0.51100000000E-03 0.  1.
    9900012    2    1    2    0    0 -0.28941538326E+02 -0.10222172720E+02  0.86380361964E+01  0.59301935252E+02  0.49999983995E+02 0.  0.
        -12    1    1    2    0    0  0.28941538326E+02  0.10222172720E+02 -0.86380361964E+01  0.31886064748E+02  0.00000000000E+00 0.  1.
         11    1    3    3    0    0  0.17772538768E+01 -0.14177934269E+02  0.99277684509E+01  0.17399225217E+02  0.51100000000E-03 0. -1.
        -11    1    3    3    0    0 -0.11511876918E+02 -0.70381830390E+01 -0.11312851161E+02  0.17607950827E+02  0.51100000000E-03 0.  1.
         12    1    3    3    0    0 -0.19206915284E+02  0.10993944588E+02  0.10023118907E+02  0.24294759208E+02  0.00000000000E+00 0. -1.
</event>
<event>
 7    1  0.1327607E-011  0.5930219E+02  0.7816164E-02  0.1266604E+00
        -11   -1    0    0    0    0  0.00000000000E+00  0.00000000000E+00  0.45593999997E+02  0.45594000000E+02  0.51100000000E-03 0. -1.
         11   -1    0    0    0    0 -0.00000000000E+00 -0.00000000000E+00 -0.45593999997E+02  0.45594000000E+02  0.51100000000E-03 0.  1.
    9900012    2    1    2    0    0  0.14354315607E+01 -0.50173600393E+01  0.31455852388E+02  0.59302187873E+02  0.50000444714E+02 0.  0.
        -12    1    1    2    0    0 -0.14354315607E+01  0.50173600393E+01 -0.31455852388E+02  0.31885812127E+02  0.00000000000E+00 0.  1.
         11    1    3    3    0    0 -0.28888872767E+01  0.53392222710E+01  0.21195863056E+01  0.64300552505E+01  0.51100000000E-03 0. -1.
        -11    1    3    3    0    0 -0.70507844502E+01  0.10902458608E+02  0.25284205243E+02  0.28423022360E+02  0.51100000000E-03 0.  1.
        -12    1    3    3    0    0  0.11375103288E+02 -0.21259040919E+02  0.40520608400E+01  0.24449110263E+02  0.00000000000E+00 0.  1.
</event>
<event>
 7    1  0.1327607E-011  0.5930195E+02  0.7816164E-02  0.1266605E+00
        -11   -1    0    0    0    0  0.00000000000E+00  0.00000000000E+00  0.45593999997E+02  0.45594000000E+02  0.51100000000E-03 0.  1.
         11   -1    0    0    0    0 -0.00000000000E+00 -0.00000000000E+00 -0.45593999997E+02  0.45594000000E+02  0.51100000000E-03 0. -1.
    9900012    2    1    2    0    0  0.76234206701E+01  0.30931802721E+02  0.13517893171E+01  0.59301948243E+02  0.50000007687E+02 0.  0.
        -12    1    1    2    0    0 -0.76234206701E+01 -0.30931802721E+02 -0.13517893171E+01  0.31886051757E+02  0.00000000000E+00 0.  1.
         11    1    3    3    0    0 -0.68436673566E+01  0.25558142214E+02  0.29529945500E+01  0.26622820914E+02  0.51100000000E-03 0. -1.
        -11    1    3    3    0    0  0.10434132987E+02  0.83806152045E+01  0.12125802331E+02  0.18059372216E+02  0.51100000000E-03 0.  1.
        -12    1    3    3    0    0  0.40329550394E+01 -0.30069546975E+01 -0.13727007564E+02  0.14619755113E+02  0.00000000000E+00 0.  1.
</event>
<event>
 7    1  0.1327607E-011  0.5930195E+02  0.7816164E-02  0.1266605E+00
        -11   -1    0    0    0    0  0.00000000000E+00  0.00000000000E+00  0.45593999997E+02  0.45594000000E+02  0.51100000000E-03 0.  1.
         11   -1    0    0    0    0 -0.00000000000E+00 -0.00000000000E+00 -0.45593999997E+02  0.45594000000E+02  0.51100000000E-03 0. -1.
    9900012    2    1    2    0    0 -0.57948462925E+01 -0.16890896168E+02 -0.26416610480E+02  0.59301954053E+02  0.50000018283E+02 0.  0.
        -12    1    1    2    0    0  0.57948462925E+01  0.16890896168E+02  0.26416610480E+02  0.31886045947E+02  0.00000000000E+00 0.  1.
         11    1    3    3    0    0  0.99881128823E+01 -0.97207954667E+00 -0.30353603626E+01  0.10484309724E+02  0.51100000000E-03 0. -1.
        -11    1    3    3    0    0  0.67349321097E+01 -0.18045961732E+02 -0.56366271344E+01  0.20069569280E+02  0.51100000000E-03 0.  1.
         12    1    3    3    0    0 -0.22517891285E+02  0.21271451112E+01 -0.17744622983E+02  0.28748075049E+02  0.00000000000E+00 0. -1.
</event>
<event>
 7    1  0.1327607E-011  0.5930191E+02  0.7816164E-02  0.1266605E+00
        -11   -1    0    0    0    0  0.00000000000E+00  0.00000000000E+00  0.45593999997E+02  0.45594000000E+02  0.51100000000E-03 0. -1.
         11   -1    0    0    0    0 -0.00000000000E+00 -0.00000000000E+00 -0.45593999997E+02  0.45594000000E+02  0.51100000000E-03 0.  1.
    9900012    2    1    2    0    0  0.27886222388E+02 -0.13282013094E+02 -0.79164134920E+01  0.59301907836E+02  0.49999933996E+02 0.  0.
        -12    1    1    2    0    0 -0.27886222388E+02  0.13282013094E+02  0.79164134920E+01  0.31886092164E+02  0.00000000000E+00 0.  1.
         11    1    3    3    0    0  0.68932749672E+01  0.22943906914E+01 -0.83981843333E+01  0.11104547212E+02  0.51100000000E-03 0. -1.
        -11    1    3    3    0    0  0.26227362298E+02 -0.11653286500E+02 -0.14276383538E+02  0.32054465313E+02  0.51100000000E-03 0.  1.
        -12    1    3    3    0    0 -0.52344148770E+01 -0.39231172856E+01  0.14758154380E+02  0.16142895311E+02  0.00000000000E+00 0.  1.
</event>
<event>
 7    1  0.1327607E-011  0.5930195E+02  0.7816164E-02  0.1266605E+00
        -11   -1    0    0    0    0  0.00000000000E+00  0.00000000000E+00  0.45593999997E+02  0.45594000000E+02  0.51100000000E-03 0.  1.
         11   -1    0    0    0    0 -0.00000000000E+00 -0.00000000000E+00 -0.45593999997E+02  0.45594000000E+02  0.51100000000E-03 0. -1.
    9900012    2    1    2    0    0  0.31007348543E+02 -0.63813127637E+00 -0.74065530110E+01  0.59301954421E+02  0.50000018955E+02 0.  0.
        -12    1    1    2    0    0 -0.31007348543E+02  0.63813127637E+00  0.74065530110E+01  0.31886045579E+02  0.00000000000E+00 0.  1.
         11    1    3    3    0    0  0.23970601386E+01  0.10186034967E+02 -0.50349948139E+01  0.11612595692E+02  0.51100000000E-03 0. -1.
        -11    1    3    3    0    0 -0.49501747785E+01  0.58275889759E+01  0.54848245802E+01  0.94100119312E+01  0.51100000000E-03 0.  1.
         12    1    3    3    0    0  0.33560463183E+02 -0.16651755220E+02 -0.78563827773E+01  0.38279346798E+02  0.00000000000E+00 0. -1.
</event>
<event>
 7    1  0.1327607E-011  0.5930186E+02  0.7816164E-02  0.1266605E+00
        -11   -1    0    0    0    0  0.00000000000E+00  0.00000000000E+00  0.45593999997E+02  0.45594000000E+02  0.51100000000E-03 0. -1.
         11   -1    0    0    0    0 -0.00000000000E+00 -0.00000000000E+00 -0.45593999997E+02  0.45594000000E+02  0.51100000000E-03 0.  1.
    9900012    2    1    2    0    0  0.13013099695E+02 -0.51169200166E+01  0.28656629888E+02  0.59301857702E+02  0.49999842562E+02 0.  0.
        -12    1    1    2    0    0 -0.13013099695E+02  0.51169200166E+01 -0.28656629888E+02  0.31886142298E+02  0.00000000000E+00 0.  1.
         11    1    3    3    0    0 -0.55667391314E+00  0.80403294774E-01 -0.60871933586E+01  0.61131230792E+01  0.51100000000E-03 0. -1.
        -11    1    3    3    0    0  0.18473859622E+01  0.15391331535E+02  0.79462047996E+01  0.17419761546E+02  0.51100000000E-03 0.  1.
         12    1    3    3    0    0  0.11722387646E+02 -0.20588654847E+02  0.26797618447E+02  0.35768973077E+02  0.00000000000E+00 0. -1.
</event>
<event>
 7    1  0.1327607E-011  0.5930198E+02  0.7816164E-02  0.1266605E+00
        -11   -1    0    0    0    0  0.00000000000E+00  0.00000000000E+00  0.45593999997E+02  0.45594000000E+02  0.51100000000E-03 0. -1.
         11   -1    0    0    0    0 -0.00000000000E+00 -0.00000000000E+00 -0.45593999997E+02  0.45594000000E+02  0.51100000000E-03 0.  1.
    9900012    2    1    2    0    0 -0.43159889830E+01 -0.18888721246E+02  0.25324038397E+02  0.59301976856E+02  0.50000059870E+02 0.  0.
        -12    1    1    2    0    0  0.43159889830E+01  0.18888721246E+02 -0.25324038397E+02  0.31886023144E+02  0.00000000000E+00 0.  1.
         11    1    3    3    0    0 -0.13409819095E+02  0.89386777242E+01  0.37086818815E+01  0.16537156019E+02  0.51100000000E-03 0. -1.
        -11    1    3    3    0    0 -0.84373893825E-01  0.50137662750E+00 -0.36665413534E+01  0.37016244048E+01  0.51100000000E-03 0.  1.
        -12    1    3    3    0    0  0.91782040061E+01 -0.28328775598E+02  0.25281897869E+02  0.39063196432E+02  0.00000000000E+00 0.  1.
</event>
<event>
 7    1  0.1327607E-011  0.5930197E+02  0.7816164E-02  0.1266605E+00
        -11   -1    0    0    0    0  0.00000000000E+00  0.00000000000E+00  0.45593999997E+02  0.45594000000E+02  0.51100000000E-03 0. -1.
         11   -1    0    0    0    0 -0.00000000000E+00 -0.00000000000E+00 -0.45593999997E+02  0.45594000000E+02  0.51100000000E-03 0.  1.
    9900012    2    1    2    0    0  0.59732753892E+01 -0.31318829977E+02  0.41197783662E+00  0.59301970838E+02  0.50000048895E+02 0.  0.
        -12    1    1    2    0    0 -0.59732753892E+01  0.31318829977E+02 -0.41197783662E+00  0.31886029162E+02  0.00000000000E+00 0.  1.
         11    1    3    3    0    0  0.85201531232E+01 -0.86291945823E+01  0.52416863005E+00  0.12137988359E+02  0.51100000000E-03 0. -1.
        -11    1    3    3    0    0  0.18843190129E+02 -0.14305033281E+02  0.34720052979E+01  0.23911390851E+02  0.51100000000E-03 0.  1.
         12    1    3    3    0    0 -0.21390067863E+02 -0.83846021141E+01 -0.35841960913E+01  0.23252591628E+02  0.00000000000E+00 0. -1.
</event>
<event>
 7    1  0.1327607E-011  0.5930212E+02  0.7816164E-02  0.1266604E+00
        -11   -1    0    0    0    0  0.00000000000E+00  0.00000000000E+00  0.45593999997E+02  0.45594000000E+02  0.51100000000E-03 0. -1.
         11   -1    0    0    0    0 -0.00000000000E+00 -0.00000000000E+00 -0.45593999997E+02  0.45594000000E+02  0.51100000000E-03 0.  1.
    9900012    2    1    2    0    0  0.36224332294E+01 -0.15439166698E+02  0.27662598411E+02  0.59302121595E+02  0.50000323839E+02 0.  0.
        -12    1    1    2    0    0 -0.36224332294E+01  0.15439166698E+02 -0.27662598411E+02  0.31885878405E+02  0.00000000000E+00 0.  1.
         11    1    3    3    0    0 -0.28243118398E+01 -0.15107931651E+01 -0.52620328955E+01  0.61602129680E+01  0.51100000000E-03 0. -1.
        -11    1    3    3    0    0 -0.43834423748E+01  0.76227279911E+01 -0.34928461265E+01  0.94615285976E+01  0.51100000000E-03 0.  1.
         12    1    3    3    0    0  0.10830187444E+02 -0.21551101524E+02  0.36417477433E+02  0.43680380029E+02  0.00000000000E+00 0. -1.
</event>
<event>
 7    1  0.1327607E-011  0.5930193E+02  0.7816164E-02  0.1266605E+00
        -11   -1    0    0    0    0  0.00000000000E+00  0.00000000000E+00  0.45593999997E+02  0.45594000000E+02  0.51100000000E-03 0. -1.
         11   -1    0    0    0    0 -0.00000000000E+00 -0.00000000000E+00 -0.45593999997E+02  0.45594000000E+02  0.51100000000E-03 0.  1.
    9900012    2    1    2    0    0  0.25167193706E+02  0.57751821630E+01  0.18707774901E+02  0.59301933924E+02  0.49999981573E+02 0.  0.
        -12    1    1    2    0    0 -0.25167193706E+02 -0.57751821630E+01 -0.18707774901E+02  0.31886066076E+02  0.00000000000E+00 0.  1.
         11    1    3    3    0    0  0.24771223948E+01  0.14187009187E+01 -0.61490417587E+01  0.67793482331E+01  0.51100000000E-03 0. -1.
        -11    1    3    3    0    0 -0.22885092837E+01 -0.14383388889E+02  0.11508546743E+02  0.18562483645E+02  0.51100000000E-03 0.  1.
         12    1    3    3    0    0  0.24978580595E+02  0.18739870133E+02  0.13348269916E+02  0.33960102045E+02  0.00000000000E+00 0. -1.
</event>
<event>
 7    1  0.1327607E-011  0.5930190E+02  0.7816164E-02  0.1266605E+00
        -11   -1    0    0    0    0  0.00000000000E+00  0.00000000000E+00  0.45593999997E+02  0.45594000000E+02  0.51100000000E-03 0.  1.
         11   -1    0    0    0    0 -0.00000000000E+00 -0.00000000000E+00 -0.45593999997E+02  0.45594000000E+02  0.51100000000E-03 0. -1.
    9900012    2    1    2    0    0 -0.29805850506E+02  0.62041037365E+01  0.94786040261E+01  0.59301897042E+02  0.49999914309E+02 0.  0.
        -12    1    1    2    0    0  0.29805850506E+02 -0.62041037365E+01 -0.94786040261E+01  0.31886102958E+02  0.00000000000E+00 0.  1.
         11    1    3    3    0    0 -0.17415400147E+02 -0.17283073394E+01  0.11115763455E+02  0.20732665192E+02  0.51100000000E-03 0. -1.
        -11    1    3    3    0    0  0.27551374434E+01 -0.12662256570E+02 -0.10003468949E+01  0.12997084979E+02  0.51100000000E-03 0.  1.
         12    1    3    3    0    0 -0.15145587803E+02  0.20594667646E+02 -0.63681253405E+00  0.25572146870E+02  0.00000000000E+00 0. -1.
</event>
<event>
 7    1  0.1327607E-011  0.5930190E+02  0.7816164E-02  0.1266605E+00
        -11   -1    0    0    0    0  0.00000000000E+00  0.00000000000E+00  0.45593999997E+02  0.45594000000E+02  0.51100000000E-03 0.  1.
         11   -1    0    0    0    0 -0.00000000000E+00 -0.00000000000E+00 -0.45593999997E+02  0.45594000000E+02  0.51100000000E-03 0. -1.
    9900012    2    1    2    0    0 -0.13647559153E+02  0.19661161780E+02 -0.21069089096E+02  0.59301895366E+02  0.49999911253E+02 0.  0.
        -12    1    1    2    0    0  0.13647559153E+02 -0.19661161780E+02  0.21069089096E+02  0.31886104634E+02  0.00000000000E+00 0.  1.
         11    1    3    3    0    0 -0.82221418178E+01  0.21587742618E+02  0.33432929998E+01  0.23341205105E+02  0.51100000000E-03 0. -1.
        -11    1    3    3    0    0 -0.38979321971E+01  0.88509189690E+01 -0.23042295967E+02  0.24989598750E+02  0.51100000000E-03 0.  1.
        -12    1    3    3    0    0 -0.15274851383E+01 -0.10777499807E+02 -0.13700861293E+01  0.10971091511E+02  0.00000000000E+00 0.  1.
</event>
<event>
 7    1  0.1327607E-011  0.5930195E+02  0.7816164E-02  0.1266605E+00
        -11   -1    0    0    0    0  0.00000000000E+00  0.00000000000E+00  0.45593999997E+02  0.45594000000E+02  0.51100000000E-03 0. -1.
         11   -1    0    0    0    0 -0.00000000000E+00 -0.00000000000E+00 -0.45593999997E+02  0.45594000000E+02  0.51100000000E-03 0.  1.
    9900012    2    1    2    0    0 -0.68910174063E+01 -0.30845575780E+02  0.42172035294E+01  0.59301945498E+02  0.50000002682E+02 0.  0.
        -12    1    1    2    0    0  0.68910174063E+01  0.30845575780E+02 -0.42172035294E+01  0.31886054502E+02  0.00000000000E+00 0.  1.
         11    1    3    3    0    0 -0.12901691579E+01 -0.13325926434E+02 -0.20184520572E+02  0.24221059489E+02  0.51100000000E-03 0. -1.
        -11    1    3    3    0    0  0.48631943628E+01 -0.10030993291E+02  0.60975211686E+01  0.12706346858E+02  0.51100000000E-03 0.  1.
        -12    1    3    3    0    0 -0.10464042611E+02 -0.74886560546E+01  0.18304202932E+02  0.22374539152E+02  0.00000000000E+00 0.  1.
</event>
<event>
 7    1  0.1327607E-011  0.5930192E+02  0.7816164E-02  0.1266605E+00
        -11   -1    0    0    0    0  0.00000000000E+00  0.00000000000E+00  0.45593999997E+02  0.45594000000E+02  0.51100000000E-03 0.  1.
         11   -1    0    0    0    0 -0.00000000000E+00 -0.00000000000E+00 -0.45593999997E+02  0.45594000000E+02  0.51100000000E-03 0. -1.
    9900012    2    1    2    0    0  0.39225688003E+01  0.31169220447E+02  0.54603196824E+01  0.59301922469E+02  0.49999960682E+02 0.  0.
        -12    1    1    2    0    0 -0.39225688003E+01 -0.31169220447E+02 -0.54603196824E+01  0.31886077531E+02  0.00000000000E+00 0.  1.
         11    1    3    3    0    0  0.48654075347E+01  0.55001196479E+01  0.19576463356E+02  0.20908405592E+02  0.51100000000E-03 0. -1.
        -11    1    3    3    0    0  0.46552211133E+01  0.33452444572E+01  0.56549249425E+01  0.80523239167E+01  0.51100000000E-03 0.  1.
         12    1    3    3    0    0 -0.55980598477E+01  0.22323856342E+02 -0.19771068616E+02  0.30341192960E+02  0.00000000000E+00 0. -1.
</event>
<event>
 7    1  0.1327607E-011  0.5930196E+02  0.7816164E-02  0.1266605E+00
        -11   -1    0    0    0    0  0.00000000000E+00  0.00000000000E+00  0.45593999997E+02  0.45594000000E+02  0.51100000000E-03 0. -1.
         11   -1    0    0    0    0 -0.00000000000E+00 -0.00000000000E+00 -0.45593999997E+02  0.45594000000E+02  0.51100000000E-03 0.  1.
    9900012    2    1    2    0    0 -0.15252165927E+01  0.99815163405E+01  0.30245038022E+02  0.59301964200E+02  0.50000036789E+02 0.  0.
        -12    1    1    2    0    0  0.15252165927E+01 -0.99815163405E+01 -0.30245038022E+02  0.31886035800E+02  0.00000000000E+00 0.  1.
         11    1    3    3    0    0 -0.13095786698E+02  0.16057646578E+02  0.78877250729E+01  0.22171239252E+02  0.51100000000E-03 0. -1.
        -11    1    3    3    0    0 -0.31746924190E+01  0.66643146874E+01 -0.11925995154E+00  0.73828169018E+01  0.51100000000E-03 0.  1.
         12    1    3    3    0    0  0.14745262525E+02 -0.12740444925E+02  0.22476572900E+02  0.29747908047E+02  0.00000000000E+00 0. -1.
</event>
<event>
 7    1  0.1327607E-011  0.5930195E+02  0.7816164E-02  0.1266605E+00
        -11   -1    0    0    0    0  0.00000000000E+00  0.00000000000E+00  0.45593999997E+02  0.45594000000E+02  0.51100000000E-03 0. -1.
         11   -1    0    0    0    0 -0.00000000000E+00 -0.00000000000E+00 -0.45593999997E+02  0.45594000000E+02  0.51100000000E-03 0.  1.
    9900012    2    1    2    0    0 -0.24485894896E+02  0.19351231906E+02  0.65338200290E+01  0.59301952435E+02  0.50000015334E+02 0.  0.
        -12    1    1    2    0    0  0.24485894896E+02 -0.19351231906E+02 -0.65338200290E+01  0.31886047565E+02  0.00000000000E+00 0.  1.
         11    1    3    3    0    0 -0.12364286265E+02  0.36389702375E+01  0.98109298624E+01  0.16197901847E+02  0.51100000000E-03 0. -1.
        -11    1    3    3    0    0 -0.11163259670E+02  0.12947236415E+02  0.16114355413E+02  0.23493014874E+02  0.51100000000E-03 0.  1.
        -12    1    3    3    0    0 -0.95834896116E+00  0.27650252530E+01 -0.19391465246E+02  0.19611035714E+02  0.00000000000E+00 0.  1.
</event>
<event>
 7    1  0.1327607E-011  0.5930195E+02  0.7816164E-02  0.1266605E+00
        -11   -1    0    0    0    0  0.00000000000E+00  0.00000000000E+00  0.45593999997E+02  0.45594000000E+02  0.51100000000E-03 0. -1.
         11   -1    0    0    0    0 -0.00000000000E+00 -0.00000000000E+00 -0.45593999997E+02  0.45594000000E+02  0.51100000000E-03 0.  1.
    9900012    2    1    2    0    0 -0.85875193226E+01  0.13805360634E+02  0.27429672818E+02  0.59301946289E+02  0.50000004124E+02 0.  0.
        -12    1    1    2    0    0  0.85875193226E+01 -0.13805360634E+02 -0.27429672818E+02  0.31886053711E+02  0.00000000000E+00 0.  1.
         11    1    3    3    0    0 -0.10767397948E+02 -0.14283287568E+02  0.20923159812E+02  0.27526855598E+02  0.51100000000E-03 0. -1.
        -11    1    3    3    0    0 -0.42460664149E+01  0.41621219685E+01 -0.66685947529E+00  0.59830628529E+01  0.51100000000E-03 0.  1.
        -12    1    3    3    0    0  0.64259450406E+01  0.23926526233E+02  0.71733724813E+01  0.25792027838E+02  0.00000000000E+00 0.  1.
</event>
<event>
 7    1  0.1327607E-011  0.5930195E+02  0.7816164E-02  0.1266605E+00
        -11   -1    0    0    0    0  0.00000000000E+00  0.00000000000E+00  0.45593999997E+02  0.45594000000E+02  0.51100000000E-03 0.  1.
         11   -1    0    0    0    0 -0.00000000000E+00 -0.00000000000E+00 -0.45593999997E+02  0.45594000000E+02  0.51100000000E-03 0. -1.
    9900012    2    1    2    0    0 -0.15784366725E+02 -0.27609637831E+02 -0.22982213468E+01  0.59301950458E+02  0.50000011727E+02 0.  0.
        -12    1    1    2    0    0  0.15784366725E+02  0.27609637831E+02  0.22982213468E+01  0.31886049542E+02  0.00000000000E+00 0.  1.
         11    1    3    3    0    0 -0.22289242879E+02 -0.28186137167E+02 -0.55542401766E+01  0.36360944167E+02  0.51100000000E-03 0.  1.
        -11    1    3    3    0    0 -0.31571764348E+01 -0.18178951066E+00 -0.76936475920E+01  0.83182344279E+01  0.51100000000E-03 0. -1.
        -12    1    3    3    0    0  0.96620525890E+01  0.75828884701E+00  0.10949666422E+02  0.14622771863E+02  0.00000000000E+00 0.  1.
</event>
<event>
 7    1  0.1327607E-011  0.5930194E+02  0.7816164E-02  0.1266605E+00
        -11   -1    0    0    0    0  0.00000000000E+00  0.00000000000E+00  0.45593999997E+02  0.45594000000E+02  0.51100000000E-03 0.  1.
         11   -1    0    0    0    0 -0.00000000000E+00 -0.00000000000E+00 -0.45593999997E+02  0.45594000000E+02  0.51100000000E-03 0. -1.
    9900012    2    1    2    0    0 -0.21926186694E+02  0.19366786739E+02 -0.12684273967E+02  0.59301938820E+02  0.49999990502E+02 0.  0.
        -12    1    1    2    0    0  0.21926186694E+02 -0.19366786739E+02  0.12684273967E+02  0.31886061180E+02  0.00000000000E+00 0.  1.
         11    1    3    3    0    0 -0.70551253266E+01  0.19874065937E+02  0.77347667220E+01  0.22462856157E+02  0.51100000000E-03 0.  1.
        -11    1    3    3    0    0 -0.73549403614E+01 -0.86486962136E+01  0.22801156590E+01  0.11579897305E+02  0.51100000000E-03 0. -1.
        -12    1    3    3    0    0 -0.75161210057E+01  0.81414170162E+01 -0.22699156348E+02  0.25259185357E+02  0.00000000000E+00 0.  1.
</event>
<event>
 7    1  0.1327607E-011  0.5930196E+02  0.7816164E-02  0.1266605E+00
        -11   -1    0    0    0    0  0.00000000000E+00  0.00000000000E+00  0.45593999997E+02  0.45594000000E+02  0.51100000000E-03 0.  1.
         11   -1    0    0    0    0 -0.00000000000E+00 -0.00000000000E+00 -0.45593999997E+02  0.45594000000E+02  0.51100000000E-03 0. -1.
    9900012    2    1    2    0    0 -0.61428327620E+01 -0.56865607849E+01 -0.30767650910E+02  0.59301957435E+02  0.50000024452E+02 0.  0.
        -12    1    1    2    0    0  0.61428327620E+01  0.56865607849E+01  0.30767650910E+02  0.31886042565E+02  0.00000000000E+00 0.  1.
         11    1    3    3    0    0 -0.12157813203E+01 -0.13862101140E+02 -0.13580873555E+02  0.19444179053E+02  0.51100000000E-03 0. -1.
        -11    1    3    3    0    0  0.30532723007E+01 -0.12118486966E+02 -0.12248819234E+02  0.17498964855E+02  0.51100000000E-03 0.  1.
        -12    1    3    3    0    0 -0.79803237425E+01  0.20294027322E+02 -0.49379581206E+01  0.22358813528E+02  0.00000000000E+00 0.  1.
</event>
<event>
 7    1  0.1327607E-011  0.5930194E+02  0.7816164E-02  0.1266605E+00
        -11   -1    0    0    0    0  0.00000000000E+00  0.00000000000E+00  0.45593999997E+02  0.45594000000E+02  0.51100000000E-03 0. -1.
         11   -1    0    0    0    0 -0.00000000000E+00 -0.00000000000E+00 -0.45593999997E+02  0.45594000000E+02  0.51100000000E-03 0.  1.
    9900012    2    1    2    0    0  0.26494783349E+02  0.17740969412E+02 -0.70523306737E-01  0.59301944836E+02  0.50000001475E+02 0.  0.
        -12    1    1    2    0    0 -0.26494783349E+02 -0.17740969412E+02  0.70523306737E-01  0.31886055164E+02  0.00000000000E+00 0.  1.
         11    1    3    3    0    0  0.75767056076E+01 -0.17194119711E+01 -0.22614419056E+01  0.80917838049E+01  0.51100000000E-03 0. -1.
        -11    1    3    3    0    0 -0.11703091348E+02 -0.40861559678E+01  0.21587508051E+01  0.12582496692E+02  0.51100000000E-03 0.  1.
         12    1    3    3    0    0  0.30621169089E+02  0.23546537351E+02  0.32167793781E-01  0.38627664340E+02  0.00000000000E+00 0. -1.
</event>
<event>
 7    1  0.1327607E-011  0.5930200E+02  0.7816164E-02  0.1266605E+00
        -11   -1    0    0    0    0  0.00000000000E+00  0.00000000000E+00  0.45593999997E+02  0.45594000000E+02  0.51100000000E-03 0. -1.
         11   -1    0    0    0    0 -0.00000000000E+00 -0.00000000000E+00 -0.45593999997E+02  0.45594000000E+02  0.51100000000E-03 0.  1.
    9900012    2    1    2    0    0 -0.25030607018E+02 -0.19457768863E+02 -0.34030801478E+01  0.59301999760E+02  0.50000101643E+02 0.  0.
        -12    1    1    2    0    0  0.25030607018E+02  0.19457768863E+02  0.34030801478E+01  0.31886000240E+02  0.00000000000E+00 0.  1.
         11    1    3    3    0    0 -0.17454609725E+02 -0.30270506325E+02  0.13841065237E+01  0.34969739847E+02  0.51100000000E-03 0. -1.
        -11    1    3    3    0    0 -0.25495950998E+01 -0.45829467004E+01  0.33342674714E+01  0.62145937489E+01  0.51100000000E-03 0.  1.
        -12    1    3    3    0    0 -0.50264021931E+01  0.15395684163E+02 -0.81214541428E+01  0.18117666164E+02  0.00000000000E+00 0.  1.
</event>
<event>
 7    1  0.1327607E-011  0.5930195E+02  0.7816164E-02  0.1266605E+00
        -11   -1    0    0    0    0  0.00000000000E+00  0.00000000000E+00  0.45593999997E+02  0.45594000000E+02  0.51100000000E-03 0. -1.
         11   -1    0    0    0    0 -0.00000000000E+00 -0.00000000000E+00 -0.45593999997E+02  0.45594000000E+02  0.51100000000E-03 0.  1.
    9900012    2    1    2    0    0 -0.55216895100E+01 -0.96041248511E+00  0.31389626270E+02  0.59301951569E+02  0.50000013753E+02 0.  0.
        -12    1    1    2    0    0  0.55216895100E+01  0.96041248511E+00 -0.31389626270E+02  0.31886048431E+02  0.00000000000E+00 0.  1.
         11    1    3    3    0    0 -0.15354124412E+02  0.86269257725E+01  0.79882802368E+01  0.19338707458E+02  0.51100000000E-03 0. -1.
        -11    1    3    3    0    0  0.48410830915E+01 -0.86713897928E+01 -0.49952784635E+01  0.11116739343E+02  0.51100000000E-03 0.  1.
         12    1    3    3    0    0  0.49913518101E+01 -0.91594846489E+00  0.28396624497E+02  0.28846504768E+02  0.00000000000E+00 0. -1.
</event>
<event>
 7    1  0.1327607E-011  0.5930198E+02  0.7816164E-02  0.1266605E+00
        -11   -1    0    0    0    0  0.00000000000E+00  0.00000000000E+00  0.45593999997E+02  0.45594000000E+02  0.51100000000E-03 0.  1.
         11   -1    0    0    0    0 -0.00000000000E+00 -0.00000000000E+00 -0.45593999997E+02  0.45594000000E+02  0.51100000000E-03 0. -1.
    9900012    2    1    2    0    0 -0.48223403913E+01  0.13866606941E+02 -0.28305136653E+02  0.59301976168E+02  0.50000058615E+02 0.  0.
        -12    1    1    2    0    0  0.48223403913E+01 -0.13866606941E+02  0.28305136653E+02  0.31886023832E+02  0.00000000000E+00 0.  1.
         11    1    3    3    0    0 -0.27411279170E+01  0.17179450256E+02 -0.35890223676E+01  0.17763118397E+02  0.51100000000E-03 0. -1.
        -11    1    3    3    0    0 -0.76766482610E+01  0.13565436432E+02 -0.10885448415E+02  0.19011706435E+02  0.51100000000E-03 0.  1.
         12    1    3    3    0    0  0.55954357868E+01 -0.16878279748E+02 -0.13830665870E+02  0.22527151336E+02  0.00000000000E+00 0. -1.
</event>
<event>
 7    1  0.1327607E-011  0.5930197E+02  0.7816164E-02  0.1266605E+00
        -11   -1    0    0    0    0  0.00000000000E+00  0.00000000000E+00  0.45593999997E+02  0.45594000000E+02  0.51100000000E-03 0.  1.
         11   -1    0    0    0    0 -0.00000000000E+00 -0.00000000000E+00 -0.45593999997E+02  0.45594000000E+02  0.51100000000E-03 0. -1.
    9900012    2    1    2    0    0  0.12183399038E+02  0.27151985271E+02 -0.11447865999E+02  0.59301966188E+02  0.50000040416E+02 0.  0.
        -12    1    1    2    0    0 -0.12183399038E+02 -0.27151985271E+02  0.11447865999E+02  0.31886033812E+02  0.00000000000E+00 0.  1.
         11    1    3    3    0    0 -0.91781451104E+01 -0.64270050152E+01  0.19483300293E+01  0.11372806659E+02  0.51100000000E-03 0. -1.
        -11    1    3    3    0    0  0.10024313846E+02 -0.37231606476E+00 -0.11446973060E+01  0.10096327031E+02  0.51100000000E-03 0.  1.
         12    1    3    3    0    0  0.11337230302E+02  0.33951306351E+02 -0.12251498723E+02  0.37832832498E+02  0.00000000000E+00 0. -1.
</event>
<event>
 7    1  0.1327607E-011  0.5930193E+02  0.7816164E-02  0.1266605E+00
        -11   -1    0    0    0    0  0.00000000000E+00  0.00000000000E+00  0.45593999997E+02  0.45594000000E+02  0.51100000000E-03 0.  1.
         11   -1    0    0    0    0 -0.00000000000E+00 -0.00000000000E+00 -0.45593999997E+02  0.45594000000E+02  0.51100000000E-03 0. -1.
    9900012    2    1    2    0    0  0.23430873756E+00  0.21378344622E+02 -0.23656567125E+02  0.59301926434E+02  0.49999967913E+02 0.  0.
        -12    1    1    2    0    0 -0.23430873756E+00 -0.21378344622E+02  0.23656567125E+02  0.31886073566E+02  0.00000000000E+00 0.  1.
         11    1    3    3    0    0 -0.24468856778E+01  0.73425753694E+01 -0.92967932527E+01  0.12096736238E+02  0.51100000000E-03 0. -1.
        -11    1    3    3    0    0 -0.13181201729E+01  0.21768535794E+02 -0.25184085687E+02  0.33314332705E+02  0.51100000000E-03 0.  1.
        -12    1    3    3    0    0  0.39993145882E+01 -0.77327665418E+01  0.10824311815E+02  0.13890857491E+02  0.00000000000E+00 0.  1.
</event>
<event>
 7    1  0.1327607E-011  0.5930184E+02  0.7816164E-02  0.1266605E+00
        -11   -1    0    0    0    0  0.00000000000E+00  0.00000000000E+00  0.45593999997E+02  0.45594000000E+02  0.51100000000E-03 0.  1.
         11   -1    0    0    0    0 -0.00000000000E+00 -0.00000000000E+00 -0.45593999997E+02  0.45594000000E+02  0.51100000000E-03 0. -1.
    9900012    2    1    2    0    0 -0.47548322076E+00 -0.70113918709E+01 -0.31102110118E+02  0.59301843849E+02  0.49999817298E+02 0.  0.
        -12    1    1    2    0    0  0.47548322076E+00  0.70113918709E+01  0.31102110118E+02  0.31886156151E+02  0.00000000000E+00 0.  1.
         11    1    3    3    0    0  0.73975168954E+01 -0.29936142114E+01  0.35661330428E-01  0.79803667995E+01  0.51100000000E-03 0. -1.
        -11    1    3    3    0    0  0.72293105110E+00  0.14413835851E+02 -0.36636428792E+00  0.14436603350E+02  0.51100000000E-03 0.  1.
         12    1    3    3    0    0 -0.85959311672E+01 -0.18431613510E+02 -0.30771407161E+02  0.36884873700E+02  0.00000000000E+00 0. -1.
</event>
<event>
 7    1  0.1327607E-011  0.5930194E+02  0.7816164E-02  0.1266605E+00
        -11   -1    0    0    0    0  0.00000000000E+00  0.00000000000E+00  0.45593999997E+02  0.45594000000E+02  0.51100000000E-03 0. -1.
         11   -1    0    0    0    0 -0.00000000000E+00 -0.00000000000E+00 -0.45593999997E+02  0.45594000000E+02  0.51100000000E-03 0.  1.
    9900012    2    1    2    0    0 -0.12790358775E+02 -0.96196880728E+01  0.27578779482E+02  0.59301941073E+02  0.49999994610E+02 0.  0.
        -12    1    1    2    0    0  0.12790358775E+02  0.96196880728E+01 -0.27578779482E+02  0.31886058927E+02  0.00000000000E+00 0.  1.
         11    1    3    3    0    0 -0.93229324063E+01  0.78329303359E+01  0.18023631887E+02  0.21751394736E+02  0.51100000000E-03 0.  1.
        -11    1    3    3    0    0 -0.11116875917E+01  0.48850387748E+01  0.13809030927E+02  0.14689751139E+02  0.51100000000E-03 0. -1.
         12    1    3    3    0    0 -0.23557387769E+01 -0.22337657184E+02 -0.42538833323E+01  0.22860795197E+02  0.00000000000E+00 0. -1.
</event>
<event>
 7    1  0.1327607E-011  0.5930189E+02  0.7816164E-02  0.1266605E+00
        -11   -1    0    0    0    0  0.00000000000E+00  0.00000000000E+00  0.45593999997E+02  0.45594000000E+02  0.51100000000E-03 0.  1.
         11   -1    0    0    0    0 -0.00000000000E+00 -0.00000000000E+00 -0.45593999997E+02  0.45594000000E+02  0.51100000000E-03 0. -1.
    9900012    2    1    2    0    0  0.18874642196E+01  0.30783554555E+02 -0.80953317421E+01  0.59301887847E+02  0.49999897539E+02 0.  0.
        -12    1    1    2    0    0 -0.18874642196E+01 -0.30783554555E+02  0.80953317421E+01  0.31886112153E+02  0.00000000000E+00 0.  1.
         11    1    3    3    0    0  0.69459615932E+01 -0.69976419929E+01 -0.45103067769E+01  0.10842335698E+02  0.51100000000E-03 0.  1.
        -11    1    3    3    0    0 -0.13109179965E+02  0.66384141251E+01  0.43580038895E+01  0.15326817661E+02  0.51100000000E-03 0. -1.
        -12    1    3    3    0    0  0.80506825913E+01  0.31142782423E+02 -0.79430288548E+01  0.33132734487E+02  0.00000000000E+00 0.  1.
</event>
<event>
 7    1  0.1327607E-011  0.5930194E+02  0.7816164E-02  0.1266605E+00
        -11   -1    0    0    0    0  0.00000000000E+00  0.00000000000E+00  0.45593999997E+02  0.45594000000E+02  0.51100000000E-03 0. -1.
         11   -1    0    0    0    0 -0.00000000000E+00 -0.00000000000E+00 -0.45593999997E+02  0.45594000000E+02  0.51100000000E-03 0.  1.
    9900012    2    1    2    0    0  0.20988315067E+02 -0.14014302996E+02  0.19488726287E+02  0.59301944896E+02  0.50000001583E+02 0.  0.
        -12    1    1    2    0    0 -0.20988315067E+02  0.14014302996E+02 -0.19488726287E+02  0.31886055104E+02  0.00000000000E+00 0.  1.
         11    1    3    3    0    0 -0.18531417469E+01 -0.22868848160E+02 -0.14771381156E+01  0.22991308962E+02  0.51100000000E-03 0. -1.
        -11    1    3    3    0    0  0.66319587109E+01 -0.30759199628E+00 -0.18206027203E+01  0.68841908534E+01  0.51100000000E-03 0.  1.
         12    1    3    3    0    0  0.16209498103E+02  0.91621371604E+01  0.22786467123E+02  0.29426445080E+02  0.00000000000E+00 0. -1.
</event>
<event>
 7    1  0.1327607E-011  0.5930195E+02  0.7816164E-02  0.1266605E+00
        -11   -1    0    0    0    0  0.00000000000E+00  0.00000000000E+00  0.45593999997E+02  0.45594000000E+02  0.51100000000E-03 0.  1.
         11   -1    0    0    0    0 -0.00000000000E+00 -0.00000000000E+00 -0.45593999997E+02  0.45594000000E+02  0.51100000000E-03 0. -1.
    9900012    2    1    2    0    0 -0.16101527733E+02 -0.11200066828E+02 -0.25139991713E+02  0.59301954845E+02  0.50000019729E+02 0.  0.
        -12    1    1    2    0    0  0.16101527733E+02  0.11200066828E+02  0.25139991713E+02  0.31886045155E+02  0.00000000000E+00 0.  1.
         11    1    3    3    0    0 -0.47353292398E+00 -0.86939492923E+01 -0.22971127633E+02  0.24565864379E+02  0.51100000000E-03 0. -1.
        -11    1    3    3    0    0  0.44443232503E+01 -0.11722674261E+02 -0.16296529240E+01  0.12642344319E+02  0.51100000000E-03 0.  1.
        -12    1    3    3    0    0 -0.20072318059E+02  0.92165567247E+01 -0.53921115615E+00  0.22093746147E+02  0.00000000000E+00 0.  1.
</event>
<event>
 7    1  0.1327607E-011  0.5930194E+02  0.7816164E-02  0.1266605E+00
        -11   -1    0    0    0    0  0.00000000000E+00  0.00000000000E+00  0.45593999997E+02  0.45594000000E+02  0.51100000000E-03 0.  1.
         11   -1    0    0    0    0 -0.00000000000E+00 -0.00000000000E+00 -0.45593999997E+02  0.45594000000E+02  0.51100000000E-03 0. -1.
    9900012    2    1    2    0    0 -0.22186196606E+02 -0.16632418321E+02  0.15743447085E+02  0.59301940583E+02  0.49999993717E+02 0.  0.
        -12    1    1    2    0    0  0.22186196606E+02  0.16632418321E+02 -0.15743447085E+02  0.31886059417E+02  0.00000000000E+00 0.  1.
         11    1    3    3    0    0 -0.33275724592E+01  0.42245030318E+00  0.52213066358E+01  0.62059041224E+01  0.51100000000E-03 0. -1.
        -11    1    3    3    0    0 -0.33397327542E+01  0.20520020960E+01  0.24484744588E+02  0.24796516798E+02  0.51100000000E-03 0.  1.
         12    1    3    3    0    0 -0.15518891393E+02 -0.19106870720E+02 -0.13962604140E+02  0.28299519663E+02  0.00000000000E+00 0. -1.
</event>
<event>
 7    1  0.1327607E-011  0.5930192E+02  0.7816164E-02  0.1266605E+00
        -11   -1    0    0    0    0  0.00000000000E+00  0.00000000000E+00  0.45593999997E+02  0.45594000000E+02  0.51100000000E-03 0.  1.
         11   -1    0    0    0    0 -0.00000000000E+00 -0.00000000000E+00 -0.45593999997E+02  0.45594000000E+02  0.51100000000E-03 0. -1.
    9900012    2    1    2    0    0  0.12795698931E+02 -0.16084439537E+02 -0.24377918655E+02  0.59301921152E+02  0.49999958280E+02 0.  0.
        -12    1    1    2    0    0 -0.12795698931E+02  0.16084439537E+02  0.24377918655E+02  0.31886078848E+02  0.00000000000E+00 0.  1.
         11    1    3    3    0    0  0.11875696212E+02 -0.14344684568E+02 -0.70229551634E+01  0.19902865004E+02  0.51100000000E-03 0.  1.
        -11    1    3    3    0    0 -0.91142561684E+01 -0.11003084868E+02 -0.20875040684E+02  0.25296340960E+02  0.51100000000E-03 0. -1.
         12    1    3    3    0    0  0.10034258887E+02  0.92633298997E+01  0.35200771920E+01  0.14102715188E+02  0.00000000000E+00 0. -1.
</event>
<event>
 7    1  0.1327607E-011  0.5930194E+02  0.7816164E-02  0.1266605E+00
        -11   -1    0    0    0    0  0.00000000000E+00  0.00000000000E+00  0.45593999997E+02  0.45594000000E+02  0.51100000000E-03 0.  1.
         11   -1    0    0    0    0 -0.00000000000E+00 -0.00000000000E+00 -0.45593999997E+02  0.45594000000E+02  0.51100000000E-03 0. -1.
    9900012    2    1    2    0    0  0.48549039732E+01 -0.29800231405E+02 -0.10251679437E+02  0.59301940104E+02  0.49999992844E+02 0.  0.
        -12    1    1    2    0    0 -0.48549039732E+01  0.29800231405E+02  0.10251679437E+02  0.31886059896E+02  0.00000000000E+00 0.  1.
         11    1    3    3    0    0  0.32450280794E+01  0.19301423699E+01 -0.10517784499E+02  0.11174947330E+02  0.51100000000E-03 0. -1.
        -11    1    3    3    0    0  0.35199099486E+01 -0.10173709926E+01 -0.13810194714E+02  0.14287977047E+02  0.51100000000E-03 0.  1.
        -12    1    3    3    0    0 -0.19100340548E+01 -0.30713002783E+02  0.14076299776E+02  0.33839015727E+02  0.00000000000E+00 0.  1.
</event>
<event>
 7    1  0.1327607E-011  0.5930190E+02  0.7816164E-02  0.1266605E+00
        -11   -1    0    0    0    0  0.00000000000E+00  0.00000000000E+00  0.45593999997E+02  0.45594000000E+02  0.51100000000E-03 0.  1.
         11   -1    0    0    0    0 -0.00000000000E+00 -0.00000000000E+00 -0.45593999997E+02  0.45594000000E+02  0.51100000000E-03 0. -1.
    9900012    2    1    2    0    0 -0.22802539851E+02  0.22228439073E+02  0.16322563091E+01  0.59301896633E+02  0.49999913564E+02 0.  0.
        -12    1    1    2    0    0  0.22802539851E+02 -0.22228439073E+02 -0.16322563091E+01  0.31886103367E+02  0.00000000000E+00 0.  1.
         11    1    3    3    0    0 -0.19741342369E+01  0.36654165477E+01 -0.21931582583E+01  0.47055741266E+01  0.51100000000E-03 0. -1.
        -11    1    3    3    0    0  0.14350334934E+02  0.11852791958E+02  0.22604621150E+01  0.18749146091E+02  0.51100000000E-03 0.  1.
        -12    1    3    3    0    0 -0.35178740548E+02  0.67102305671E+01  0.15649524524E+01  0.35847176415E+02  0.00000000000E+00 0.  1.
</event>
<event>
 7    1  0.1327607E-011  0.5930192E+02  0.7816164E-02  0.1266605E+00
        -11   -1    0    0    0    0  0.00000000000E+00  0.00000000000E+00  0.45593999997E+02  0.45594000000E+02  0.51100000000E-03 0.  1.
         11   -1    0    0    0    0 -0.00000000000E+00 -0.00000000000E+00 -0.45593999997E+02  0.45594000000E+02  0.51100000000E-03 0. -1.
    9900012    2    1    2    0    0 -0.31006327579E+02 -0.46623007390E+01 -0.57959008026E+01  0.59301923662E+02  0.49999962858E+02 0.  0.
        -12    1    1    2    0    0  0.31006327579E+02  0.46623007390E+01  0.57959008026E+01  0.31886076338E+02  0.00000000000E+00 0.  1.
         11    1    3    3    0    0 -0.11573146677E+02 -0.66941526834E+01  0.13336541986E+02  0.18884193299E+02  0.51100000000E-03 0. -1.
        -11    1    3    3    0    0 -0.46758614962E+01 -0.12651085559E+02 -0.23781824292E+01  0.13695597777E+02  0.51100000000E-03 0.  1.
         12    1    3    3    0    0 -0.14757319406E+02  0.14682937504E+02 -0.16754260359E+02  0.26722132586E+02  0.00000000000E+00 0. -1.
</event>
<event>
 7    1  0.1327607E-011  0.5930191E+02  0.7816164E-02  0.1266605E+00
        -11   -1    0    0    0    0  0.00000000000E+00  0.00000000000E+00  0.45593999997E+02  0.45594000000E+02  0.51100000000E-03 0.  1.
         11   -1    0    0    0    0 -0.00000000000E+00 -0.00000000000E+00 -0.45593999997E+02  0.45594000000E+02  0.51100000000E-03 0. -1.
    9900012    2    1    2    0    0 -0.22500632328E+02 -0.19299419644E+02  0.11746356199E+02  0.59301906829E+02  0.49999932159E+02 0.  0.
        -12    1    1    2    0    0  0.22500632328E+02  0.19299419644E+02 -0.11746356199E+02  0.31886093171E+02  0.00000000000E+00 0.  1.
         11    1    3    3    0    0 -0.52109397557E+01 -0.96788195282E+00 -0.12308189828E+02  0.13400829292E+02  0.51100000000E-03 0. -1.
        -11    1    3    3    0    0  0.69217481408E+01 -0.11288680093E+02  0.44771140585E+01  0.13978177496E+02  0.51100000000E-03 0.  1.
        -12    1    3    3    0    0 -0.24211440713E+02 -0.70428575980E+01  0.19577431969E+02  0.31922900041E+02  0.00000000000E+00 0.  1.
</event>
<event>
 7    1  0.1327607E-011  0.5930194E+02  0.7816164E-02  0.1266605E+00
        -11   -1    0    0    0    0  0.00000000000E+00  0.00000000000E+00  0.45593999997E+02  0.45594000000E+02  0.51100000000E-03 0. -1.
         11   -1    0    0    0    0 -0.00000000000E+00 -0.00000000000E+00 -0.45593999997E+02  0.45594000000E+02  0.51100000000E-03 0.  1.
    9900012    2    1    2    0    0  0.49580963863E+01  0.31177579982E+02 -0.44829567672E+01  0.59301935416E+02  0.49999984294E+02 0.  0.
        -12    1    1    2    0    0 -0.49580963863E+01 -0.31177579982E+02  0.44829567672E+01  0.31886064584E+02  0.00000000000E+00 0.  1.
         11    1    3    3    0    0 -0.11854376111E+01  0.33419361726E+02  0.10840349915E+02  0.35153551556E+02  0.51100000000E-03 0. -1.
        -11    1    3    3    0    0 -0.41327064330E+01  0.47031501135E+01 -0.51626102393E+01  0.81148892904E+01  0.51100000000E-03 0.  1.
         12    1    3    3    0    0  0.10276240430E+02 -0.69449318574E+01 -0.10160696443E+02  0.16033494569E+02  0.00000000000E+00 0. -1.
</event>
<event>
 7    1  0.1327607E-011  0.5930194E+02  0.7816164E-02  0.1266605E+00
        -11   -1    0    0    0    0  0.00000000000E+00  0.00000000000E+00  0.45593999997E+02  0.45594000000E+02  0.51100000000E-03 0.  1.
         11   -1    0    0    0    0 -0.00000000000E+00 -0.00000000000E+00 -0.45593999997E+02  0.45594000000E+02  0.51100000000E-03 0. -1.
    9900012    2    1    2    0    0 -0.25918504038E+02 -0.13971263420E+02 -0.12237469413E+02  0.59301941749E+02  0.49999995844E+02 0.  0.
        -12    1    1    2    0    0  0.25918504038E+02  0.13971263420E+02  0.12237469413E+02  0.31886058251E+02  0.00000000000E+00 0.  1.
         11    1    3    3    0    0 -0.16801766371E+02 -0.65723986049E+01  0.83344118530E+01  0.19873555238E+02  0.51100000000E-03 0. -1.
        -11    1    3    3    0    0 -0.61897864392E+01  0.91694353380E+01  0.20340633338E+01  0.11248529437E+02  0.51100000000E-03 0.  1.
         12    1    3    3    0    0 -0.29269512280E+01 -0.16568300153E+02 -0.22605944600E+02  0.28179857074E+02  0.00000000000E+00 0. -1.
</event>
<event>
 7    1  0.1327607E-011  0.5930194E+02  0.7816164E-02  0.1266605E+00
        -11   -1    0    0    0    0  0.00000000000E+00  0.00000000000E+00  0.45593999997E+02  0.45594000000E+02  0.51100000000E-03 0.  1.
         11   -1    0    0    0    0 -0.00000000000E+00 -0.00000000000E+00 -0.45593999997E+02  0.45594000000E+02  0.51100000000E-03 0. -1.
    9900012    2    1    2    0    0 -0.69082350226E+01  0.31118480983E+02  0.79842009467E+00  0.59301936517E+02  0.49999986302E+02 0.  0.
        -12    1    1    2    0    0  0.69082350226E+01 -0.31118480983E+02 -0.79842009467E+00  0.31886063483E+02  0.00000000000E+00 0.  1.
         11    1    3    3    0    0 -0.16249923662E+02  0.19964281360E+02  0.14135215785E+02  0.29367275577E+02  0.51100000000E-03 0. -1.
        -11    1    3    3    0    0  0.62843415368E+01  0.17623655569E+02 -0.59103507106E+01  0.19621886504E+02  0.51100000000E-03 0.  1.
        -12    1    3    3    0    0  0.30573471024E+01 -0.64694559464E+01 -0.74264449798E+01  0.10312774437E+02  0.00000000000E+00 0.  1.
</event>
<event>
 7    1  0.1327607E-011  0.5930193E+02  0.7816164E-02  0.1266605E+00
        -11   -1    0    0    0    0  0.00000000000E+00  0.00000000000E+00  0.45593999997E+02  0.45594000000E+02  0.51100000000E-03 0.  1.
         11   -1    0    0    0    0 -0.00000000000E+00 -0.00000000000E+00 -0.45593999997E+02  0.45594000000E+02  0.51100000000E-03 0. -1.
    9900012    2    1    2    0    0  0.17113491875E+02 -0.16179326483E+02 -0.21496033305E+02  0.59301926905E+02  0.49999968773E+02 0.  0.
        -12    1    1    2    0    0 -0.17113491875E+02  0.16179326483E+02  0.21496033305E+02  0.31886073095E+02  0.00000000000E+00 0.  1.
         11    1    3    3    0    0  0.21379501112E+02  0.39186719995E+00 -0.39367365828E+01  0.21742458989E+02  0.51100000000E-03 0. -1.
        -11    1    3    3    0    0  0.39037714067E+01 -0.82601222893E+01  0.62373813873E+01  0.11062277264E+02  0.51100000000E-03 0.  1.
        -12    1    3    3    0    0 -0.81697806437E+01 -0.83110713931E+01 -0.23796678109E+02  0.26497190653E+02  0.00000000000E+00 0.  1.
</event>
<event>
 7    1  0.1327607E-011  0.5930194E+02  0.7816164E-02  0.1266605E+00
        -11   -1    0    0    0    0  0.00000000000E+00  0.00000000000E+00  0.45593999997E+02  0.45594000000E+02  0.51100000000E-03 0.  1.
         11   -1    0    0    0    0 -0.00000000000E+00 -0.00000000000E+00 -0.45593999997E+02  0.45594000000E+02  0.51100000000E-03 0. -1.
    9900012    2    1    2    0    0 -0.11990930004E+02  0.60083702084E+01 -0.28928150437E+02  0.59301940308E+02  0.49999993217E+02 0.  0.
        -12    1    1    2    0    0  0.11990930004E+02 -0.60083702084E+01  0.28928150437E+02  0.31886059692E+02  0.00000000000E+00 0.  1.
         11    1    3    3    0    0  0.79536766965E+01 -0.91859108400E+00 -0.22790688874E+02  0.24156164476E+02  0.51100000000E-03 0. -1.
        -11    1    3    3    0    0 -0.51977512056E+00  0.13401477666E+02  0.10325646475E+01  0.13451243802E+02  0.51100000000E-03 0.  1.
        -12    1    3    3    0    0 -0.19424831580E+02 -0.64745163732E+01 -0.71700262112E+01  0.21694532031E+02  0.00000000000E+00 0.  1.
</event>
<event>
 7    1  0.1327607E-011  0.5930195E+02  0.7816164E-02  0.1266605E+00
        -11   -1    0    0    0    0  0.00000000000E+00  0.00000000000E+00  0.45593999997E+02  0.45594000000E+02  0.51100000000E-03 0.  1.
         11   -1    0    0    0    0 -0.00000000000E+00 -0.00000000000E+00 -0.45593999997E+02  0.45594000000E+02  0.51100000000E-03 0. -1.
    9900012    2    1    2    0    0  0.17191418409E+01 -0.95164182647E+00 -0.31825449801E+02  0.59301947785E+02  0.50000006852E+02 0.  0.
        -12    1    1    2    0    0 -0.17191418409E+01  0.95164182647E+00  0.31825449801E+02  0.31886052215E+02  0.00000000000E+00 0.  1.
         11    1    3    3    0    0  0.10727740361E+02 -0.96452792730E+01 -0.17965905278E+02  0.23041041171E+02  0.51100000000E-03 0. -1.
        -11    1    3    3    0    0 -0.68877646965E+01  0.17089608216E+02 -0.18772986986E+02  0.26304392259E+02  0.51100000000E-03 0.  1.
         12    1    3    3    0    0 -0.21208338241E+01 -0.83959707695E+01  0.49134424622E+01  0.99565143550E+01  0.00000000000E+00 0. -1.
</event>
<event>
 7    1  0.1327607E-011  0.5930194E+02  0.7816164E-02  0.1266605E+00
        -11   -1    0    0    0    0  0.00000000000E+00  0.00000000000E+00  0.45593999997E+02  0.45594000000E+02  0.51100000000E-03 0. -1.
         11   -1    0    0    0    0 -0.00000000000E+00 -0.00000000000E+00 -0.45593999997E+02  0.45594000000E+02  0.51100000000E-03 0.  1.
    9900012    2    1    2    0    0 -0.24869718206E+02 -0.18212218816E+02  0.81567930534E+01  0.59301936104E+02  0.49999985549E+02 0.  0.
        -12    1    1    2    0    0  0.24869718206E+02  0.18212218816E+02 -0.81567930534E+01  0.31886063896E+02  0.00000000000E+00 0.  1.
         11    1    3    3    0    0 -0.16842015814E+02 -0.38193072029E+01  0.40800776000E+01  0.17745073617E+02  0.51100000000E-03 0. -1.
        -11    1    3    3    0    0 -0.97720076915E+01 -0.25123895205E+02  0.10499057578E+02  0.28929784909E+02  0.51100000000E-03 0.  1.
        -12    1    3    3    0    0  0.17443052989E+01  0.10730983591E+02 -0.64223421241E+01  0.12627077578E+02  0.00000000000E+00 0.  1.
</event>
<event>
 7    1  0.1327607E-011  0.5930192E+02  0.7816164E-02  0.1266605E+00
        -11   -1    0    0    0    0  0.00000000000E+00  0.00000000000E+00  0.45593999997E+02  0.45594000000E+02  0.51100000000E-03 0.  1.
         11   -1    0    0    0    0 -0.00000000000E+00 -0.00000000000E+00 -0.45593999997E+02  0.45594000000E+02  0.51100000000E-03 0. -1.
    9900012    2    1    2    0    0  0.24498930335E+02  0.17346906593E+02 -0.10752171470E+02  0.59301922361E+02  0.49999960485E+02 0.  0.
        -12    1    1    2    0    0 -0.24498930335E+02 -0.17346906593E+02  0.10752171470E+02  0.31886077639E+02  0.00000000000E+00 0.  1.
         11    1    3    3    0    0 -0.24054738592E+01  0.34918489718E+01  0.93842370734E+01  0.10297728849E+02  0.51100000000E-03 0.  1.
        -11    1    3    3    0    0  0.34515428561E+01 -0.90735908364E+01  0.13395872062E+01  0.97998822900E+01  0.51100000000E-03 0. -1.
        -12    1    3    3    0    0  0.23452861338E+02  0.22928648457E+02 -0.21475995749E+02  0.39204311222E+02  0.00000000000E+00 0.  1.
</event>
<event>
 7    1  0.1327607E-011  0.5930197E+02  0.7816164E-02  0.1266605E+00
        -11   -1    0    0    0    0  0.00000000000E+00  0.00000000000E+00  0.45593999997E+02  0.45594000000E+02  0.51100000000E-03 0.  1.
         11   -1    0    0    0    0 -0.00000000000E+00 -0.00000000000E+00 -0.45593999997E+02  0.45594000000E+02  0.51100000000E-03 0. -1.
    9900012    2    1    2    0    0  0.49852190894E+01  0.31384668542E+02 -0.26208974815E+01  0.59301969634E+02  0.50000046700E+02 0.  0.
        -12    1    1    2    0    0 -0.49852190894E+01 -0.31384668542E+02  0.26208974815E+01  0.31886030366E+02  0.00000000000E+00 0.  1.
         11    1    3    3    0    0  0.78387343970E+01  0.16350135738E+02 -0.30063970157E+01  0.18379638704E+02  0.51100000000E-03 0. -1.
        -11    1    3    3    0    0 -0.34311550276E+01  0.24680635591E+02  0.10404089115E+02  0.27002808532E+02  0.51100000000E-03 0.  1.
        -12    1    3    3    0    0  0.57763972000E+00 -0.96461027872E+01 -0.10018589581E+02  0.13919522399E+02  0.00000000000E+00 0.  1.
</event>
<event>
 7    1  0.1327607E-011  0.5930194E+02  0.7816164E-02  0.1266605E+00
        -11   -1    0    0    0    0  0.00000000000E+00  0.00000000000E+00  0.45593999997E+02  0.45594000000E+02  0.51100000000E-03 0.  1.
         11   -1    0    0    0    0 -0.00000000000E+00 -0.00000000000E+00 -0.45593999997E+02  0.45594000000E+02  0.51100000000E-03 0. -1.
    9900012    2    1    2    0    0 -0.82331241869E+01  0.30228904492E+02 -0.59287344270E+01  0.59301938898E+02  0.49999990645E+02 0.  0.
        -12    1    1    2    0    0  0.82331241869E+01 -0.30228904492E+02  0.59287344270E+01  0.31886061102E+02  0.00000000000E+00 0.  1.
         11    1    3    3    0    0  0.45599865987E+01  0.73618763882E+01  0.12815389062E+02  0.15466896871E+02  0.51100000000E-03 0.  1.
        -11    1    3    3    0    0 -0.43943255524E+00  0.99057393976E+01  0.72411456402E+01  0.12278068432E+02  0.51100000000E-03 0. -1.
         12    1    3    3    0    0 -0.12353678230E+02  0.12961288706E+02 -0.25985269130E+02  0.31556973595E+02  0.00000000000E+00 0. -1.
</event>
<event>
 7    1  0.1327607E-011  0.5930197E+02  0.7816164E-02  0.1266605E+00
        -11   -1    0    0    0    0  0.00000000000E+00  0.00000000000E+00  0.45593999997E+02  0.45594000000E+02  0.51100000000E-03 0.  1.
         11   -1    0    0    0    0 -0.00000000000E+00 -0.00000000000E+00 -0.45593999997E+02  0.45594000000E+02  0.51100000000E-03 0. -1.
    9900012    2    1    2    0    0  0.12193071820E+02 -0.22597816162E+02 -0.18904678741E+02  0.59301965847E+02  0.50000039793E+02 0.  0.
        -12    1    1    2    0    0 -0.12193071820E+02  0.22597816162E+02  0.18904678741E+02  0.31886034153E+02  0.00000000000E+00 0.  1.
         11    1    3    3    0    0 -0.39973440343E+01 -0.34984828189E+01  0.94420356771E+01  0.10833751859E+02  0.51100000000E-03 0.  1.
        -11    1    3    3    0    0  0.12153233102E+02  0.62088561468E+01 -0.10885826860E+02  0.17457153151E+02  0.51100000000E-03 0. -1.
         12    1    3    3    0    0  0.40371827524E+01 -0.25308189490E+02 -0.17460887559E+02  0.31011060836E+02  0.00000000000E+00 0. -1.
</event>
<event>
 7    1  0.1830833E-011  0.5930192E+02  0.7816164E-02  0.1266605E+00
        -11   -1    0    0    0    0  0.00000000000E+00  0.00000000000E+00  0.45593999997E+02  0.45594000000E+02  0.51100000000E-03 0. -1.
         11   -1    0    0    0    0 -0.00000000000E+00 -0.00000000000E+00 -0.45593999997E+02  0.45594000000E+02  0.51100000000E-03 0.  1.
    9900012    2    1    2    0    0  0.85199531496E+01 -0.20116983076E+02  0.23225841959E+02  0.59301916132E+02  0.49999949124E+02 0.  0.
        -12    1    1    2    0    0 -0.85199531496E+01  0.20116983076E+02 -0.23225841959E+02  0.31886083868E+02  0.00000000000E+00 0.  1.
         11    1    3    3    0    0  0.96692822115E+01 -0.14992193910E+02  0.23155171668E+02  0.29230512687E+02  0.51100000000E-03 0. -1.
        -11    1    3    3    0    0  0.13265720787E+02 -0.18882310631E+01 -0.52177429665E+01  0.14379485612E+02  0.51100000000E-03 0.  1.
        -12    1    3    3    0    0 -0.14415049848E+02 -0.32365581029E+01  0.52884132579E+01  0.15691917833E+02  0.00000000000E+00 0.  1.
</event>
<event>
 7    1  0.1327607E-011  0.5930189E+02  0.7816164E-02  0.1266605E+00
        -11   -1    0    0    0    0  0.00000000000E+00  0.00000000000E+00  0.45593999997E+02  0.45594000000E+02  0.51100000000E-03 0. -1.
         11   -1    0    0    0    0 -0.00000000000E+00 -0.00000000000E+00 -0.45593999997E+02  0.45594000000E+02  0.51100000000E-03 0.  1.
    9900012    2    1    2    0    0  0.12000279187E+02 -0.28452258998E+02  0.79489824992E+01  0.59301889145E+02  0.49999899908E+02 0.  0.
        -12    1    1    2    0    0 -0.12000279187E+02  0.28452258998E+02 -0.79489824992E+01  0.31886110855E+02  0.00000000000E+00 0.  1.
         11    1    3    3    0    0  0.11827815529E+02 -0.36356287964E+02  0.12965197414E+01  0.38253860699E+02  0.51100000000E-03 0.  1.
        -11    1    3    3    0    0  0.58893788489E+01  0.10265590359E+01  0.98735504915E+01  0.11542339722E+02  0.51100000000E-03 0. -1.
        -12    1    3    3    0    0 -0.57169151912E+01  0.68774699298E+01 -0.32210877338E+01  0.95056887246E+01  0.00000000000E+00 0.  1.
</event>
<event>
 7    1  0.1327607E-011  0.5930194E+02  0.7816164E-02  0.1266605E+00
        -11   -1    0    0    0    0  0.00000000000E+00  0.00000000000E+00  0.45593999997E+02  0.45594000000E+02  0.51100000000E-03 0.  1.
         11   -1    0    0    0    0 -0.00000000000E+00 -0.00000000000E+00 -0.45593999997E+02  0.45594000000E+02  0.51100000000E-03 0. -1.
    9900012    2    1    2    0    0  0.26033851986E+02 -0.10895214062E+02 -0.14840946926E+02  0.59301939655E+02  0.49999992025E+02 0.  0.
        -12    1    1    2    0    0 -0.26033851986E+02  0.10895214062E+02  0.14840946926E+02  0.31886060345E+02  0.00000000000E+00 0.  1.
         11    1    3    3    0    0  0.13000102255E+02  0.54930123545E+01 -0.14084018025E+02  0.19938289981E+02  0.51100000000E-03 0. -1.
        -11    1    3    3    0    0  0.40796478353E+00  0.59664087810E+01  0.98999122572E+01  0.11566016253E+02  0.51100000000E-03 0.  1.
        -12    1    3    3    0    0  0.12625784947E+02 -0.22354635197E+02 -0.10656841158E+02  0.27797633421E+02  0.00000000000E+00 0.  1.
</event>
<event>
 7    1  0.1327607E-011  0.5930196E+02  0.7816164E-02  0.1266605E+00
        -11   -1    0    0    0    0  0.00000000000E+00  0.00000000000E+00  0.45593999997E+02  0.45594000000E+02  0.51100000000E-03 0. -1.
         11   -1    0    0    0    0 -0.00000000000E+00 -0.00000000000E+00 -0.45593999997E+02  0.45594000000E+02  0.51100000000E-03 0.  1.
    9900012    2    1    2    0    0 -0.16435064895E+02  0.25686606361E+02  0.93169993337E+01  0.59301959464E+02  0.50000028153E+02 0.  0.
        -12    1    1    2    0    0  0.16435064895E+02 -0.25686606361E+02 -0.93169993337E+01  0.31886040536E+02  0.00000000000E+00 0.  1.
         11    1    3    3    0    0 -0.10788059166E+01  0.13898495292E+01 -0.52602612212E+01  0.55466974224E+01  0.51100000000E-03 0. -1.
        -11    1    3    3    0    0 -0.10972640743E+02  0.20814618016E+02 -0.12126676633E+02  0.26470803812E+02  0.51100000000E-03 0.  1.
         12    1    3    3    0    0 -0.43836182361E+01  0.34821388163E+01  0.26703937188E+02  0.27284458230E+02  0.00000000000E+00 0. -1.
</event>
<event>
 7    1  0.1327607E-011  0.5930187E+02  0.7816164E-02  0.1266605E+00
        -11   -1    0    0    0    0  0.00000000000E+00  0.00000000000E+00  0.45593999997E+02  0.45594000000E+02  0.51100000000E-03 0.  1.
         11   -1    0    0    0    0 -0.00000000000E+00 -0.00000000000E+00 -0.45593999997E+02  0.45594000000E+02  0.51100000000E-03 0. -1.
    9900012    2    1    2    0    0 -0.18797452513E+00 -0.83185153941E+01 -0.30781363643E+02  0.59301868524E+02  0.49999862299E+02 0.  0.
        -12    1    1    2    0    0  0.18797452513E+00  0.83185153941E+01  0.30781363643E+02  0.31886131476E+02  0.00000000000E+00 0.  1.
         11    1    3    3    0    0 -0.94175683886E+01  0.33721633762E+01  0.40248413191E+00  0.10011197427E+02  0.51100000000E-03 0. -1.
        -11    1    3    3    0    0 -0.12536421326E+00 -0.71015408421E+01  0.68425621349E+01  0.98624670012E+01  0.51100000000E-03 0.  1.
         12    1    3    3    0    0  0.93549580767E+01 -0.45891379282E+01 -0.38026409910E+02  0.39428204095E+02  0.00000000000E+00 0. -1.
</event>
<event>
 7    1  0.1327607E-011  0.5930194E+02  0.7816164E-02  0.1266605E+00
        -11   -1    0    0    0    0  0.00000000000E+00  0.00000000000E+00  0.45593999997E+02  0.45594000000E+02  0.51100000000E-03 0. -1.
         11   -1    0    0    0    0 -0.00000000000E+00 -0.00000000000E+00 -0.45593999997E+02  0.45594000000E+02  0.51100000000E-03 0.  1.
    9900012    2    1    2    0    0 -0.22849374752E+02  0.22213781947E+02  0.10837697754E+01  0.59301943613E+02  0.49999999244E+02 0.  0.
        -12    1    1    2    0    0  0.22849374752E+02 -0.22213781947E+02 -0.10837697754E+01  0.31886056387E+02  0.00000000000E+00 0.  1.
         11    1    3    3    0    0 -0.53263148795E+01  0.52004165810E+01 -0.21712550828E+01  0.77542447541E+01  0.51100000000E-03 0. -1.
        -11    1    3    3    0    0 -0.12538390011E+02  0.12672574956E+02 -0.20338656240E+02  0.27045633991E+02  0.51100000000E-03 0.  1.
        -12    1    3    3    0    0 -0.49846698615E+01  0.43407904108E+01  0.23593681098E+02  0.24502064868E+02  0.00000000000E+00 0.  1.
</event>
<event>
 7    1  0.1327607E-011  0.5930196E+02  0.7816164E-02  0.1266605E+00
        -11   -1    0    0    0    0  0.00000000000E+00  0.00000000000E+00  0.45593999997E+02  0.45594000000E+02  0.51100000000E-03 0.  1.
         11   -1    0    0    0    0 -0.00000000000E+00 -0.00000000000E+00 -0.45593999997E+02  0.45594000000E+02  0.51100000000E-03 0. -1.
    9900012    2    1    2    0    0 -0.31355310091E+02 -0.57922120626E+01  0.12004829683E+00  0.59301959119E+02  0.50000027523E+02 0.  0.
        -12    1    1    2    0    0  0.31355310091E+02  0.57922120626E+01 -0.12004829683E+00  0.31886040881E+02  0.00000000000E+00 0.  1.
         11    1    3    3    0    0 -0.13576238702E+02  0.90656120985E+01  0.13638581948E+02  0.21272294137E+02  0.51100000000E-03 0. -1.
        -11    1    3    3    0    0 -0.70169932679E+01 -0.16160470729E+01  0.78708950184E+01  0.10667745372E+02  0.51100000000E-03 0.  1.
         12    1    3    3    0    0 -0.10762078121E+02 -0.13241777088E+02 -0.21389428670E+02  0.27361919611E+02  0.00000000000E+00 0. -1.
</event>
<event>
 7    1  0.1327607E-011  0.5930194E+02  0.7816164E-02  0.1266605E+00
        -11   -1    0    0    0    0  0.00000000000E+00  0.00000000000E+00  0.45593999997E+02  0.45594000000E+02  0.51100000000E-03 0. -1.
         11   -1    0    0    0    0 -0.00000000000E+00 -0.00000000000E+00 -0.45593999997E+02  0.45594000000E+02  0.51100000000E-03 0.  1.
    9900012    2    1    2    0    0  0.15061828751E+02 -0.22119144152E+02  0.17337989464E+02  0.59301935615E+02  0.49999984657E+02 0.  0.
        -12    1    1    2    0    0 -0.15061828751E+02  0.22119144152E+02 -0.17337989464E+02  0.31886064385E+02  0.00000000000E+00 0.  1.
         11    1    3    3    0    0  0.43036032309E+01 -0.28910775586E+01 -0.39072878147E+01  0.64920126730E+01  0.51100000000E-03 0. -1.
        -11    1    3    3    0    0  0.10757454945E+02 -0.19058514858E+02 -0.81951531453E+01  0.23369004275E+02  0.51100000000E-03 0.  1.
         12    1    3    3    0    0  0.77057542651E-03 -0.16955173500E+00  0.29440430424E+02  0.29440918667E+02  0.00000000000E+00 0. -1.
</event>
<event>
 7    1  0.1327607E-011  0.5930195E+02  0.7816164E-02  0.1266605E+00
        -11   -1    0    0    0    0  0.00000000000E+00  0.00000000000E+00  0.45593999997E+02  0.45594000000E+02  0.51100000000E-03 0.  1.
         11   -1    0    0    0    0 -0.00000000000E+00 -0.00000000000E+00 -0.45593999997E+02  0.45594000000E+02  0.51100000000E-03 0. -1.
    9900012    2    1    2    0    0 -0.17941468211E+02  0.20912920293E+02 -0.16045993240E+02  0.59301946374E+02  0.50000004280E+02 0.  0.
        -12    1    1    2    0    0  0.17941468211E+02 -0.20912920293E+02  0.16045993240E+02  0.31886053626E+02  0.00000000000E+00 0.  1.
         11    1    3    3    0    0  0.19847877322E+01  0.36592043964E+01 -0.14036659054E+02  0.14640934288E+02  0.51100000000E-03 0. -1.
        -11    1    3    3    0    0 -0.65254178535E+01  0.50930393096E+01 -0.18443718552E+02  0.20216104517E+02  0.51100000000E-03 0.  1.
        -12    1    3    3    0    0 -0.13400838090E+02  0.12160676587E+02  0.16434384366E+02  0.24444907569E+02  0.00000000000E+00 0.  1.
</event>
<event>
 7    1  0.1327607E-011  0.5930191E+02  0.7816164E-02  0.1266605E+00
        -11   -1    0    0    0    0  0.00000000000E+00  0.00000000000E+00  0.45593999997E+02  0.45594000000E+02  0.51100000000E-03 0. -1.
         11   -1    0    0    0    0 -0.00000000000E+00 -0.00000000000E+00 -0.45593999997E+02  0.45594000000E+02  0.51100000000E-03 0.  1.
    9900012    2    1    2    0    0 -0.12048869818E+02  0.70705425965E+00  0.29513518837E+02  0.59301906107E+02  0.49999930841E+02 0.  0.
        -12    1    1    2    0    0  0.12048869818E+02 -0.70705425965E+00 -0.29513518837E+02  0.31886093893E+02  0.00000000000E+00 0.  1.
         11    1    3    3    0    0  0.13247723579E+02 -0.49378298035E+01  0.23402186990E+01  0.14330421034E+02  0.51100000000E-03 0. -1.
        -11    1    3    3    0    0 -0.11578054167E+02  0.74230698426E+01 -0.78753965639E+00  0.13775831124E+02  0.51100000000E-03 0.  1.
         12    1    3    3    0    0 -0.13718539230E+02 -0.17781857795E+01  0.27960839795E+02  0.31195653949E+02  0.00000000000E+00 0. -1.
</event>
<event>
 7    1  0.1327607E-011  0.5930196E+02  0.7816164E-02  0.1266605E+00
        -11   -1    0    0    0    0  0.00000000000E+00  0.00000000000E+00  0.45593999997E+02  0.45594000000E+02  0.51100000000E-03 0. -1.
         11   -1    0    0    0    0 -0.00000000000E+00 -0.00000000000E+00 -0.45593999997E+02  0.45594000000E+02  0.51100000000E-03 0.  1.
    9900012    2    1    2    0    0  0.22154777320E+02  0.22891184915E+02 -0.13706913311E+01  0.59301963877E+02  0.50000036201E+02 0.  0.
        -12    1    1    2    0    0 -0.22154777320E+02 -0.22891184915E+02  0.13706913311E+01  0.31886036123E+02  0.00000000000E+00 0.  1.
         11    1    3    3    0    0  0.29594459339E+02  0.19426153221E+02  0.10264564416E+02  0.36858767416E+02  0.51100000000E-03 0. -1.
        -11    1    3    3    0    0  0.33769708722E+00 -0.57947359873E+01 -0.21230034477E+00  0.58084486899E+01  0.51100000000E-03 0.  1.
        -12    1    3    3    0    0 -0.77773791062E+01  0.92597676811E+01 -0.11422955403E+02  0.16634747771E+02  0.00000000000E+00 0.  1.
</event>
<event>
 7    1  0.1327607E-011  0.5930194E+02  0.7816164E-02  0.1266605E+00
        -11   -1    0    0    0    0  0.00000000000E+00  0.00000000000E+00  0.45593999997E+02  0.45594000000E+02  0.51100000000E-03 0. -1.
         11   -1    0    0    0    0 -0.00000000000E+00 -0.00000000000E+00 -0.45593999997E+02  0.45594000000E+02  0.51100000000E-03 0.  1.
    9900012    2    1    2    0    0  0.30892265061E+02  0.71753585885E+01 -0.33019559568E+01  0.59301941532E+02  0.49999995448E+02 0.  0.
        -12    1    1    2    0    0 -0.30892265061E+02 -0.71753585885E+01  0.33019559568E+01  0.31886058468E+02  0.00000000000E+00 0.  1.
         11    1    3    3    0    0  0.82492882480E+00 -0.15880069070E+00 -0.21272665122E+01  0.22871353917E+01  0.51100000000E-03 0. -1.
        -11    1    3    3    0    0  0.19582600799E+02  0.21096388538E-01 -0.23926030447E+02  0.30918176407E+02  0.51100000000E-03 0.  1.
         12    1    3    3    0    0  0.10484735438E+02  0.73130628907E+01  0.22751341002E+02  0.26096629733E+02  0.00000000000E+00 0. -1.
</event>
<event>
 7    1  0.1327607E-011  0.5930195E+02  0.7816164E-02  0.1266605E+00
        -11   -1    0    0    0    0  0.00000000000E+00  0.00000000000E+00  0.45593999997E+02  0.45594000000E+02  0.51100000000E-03 0.  1.
         11   -1    0    0    0    0 -0.00000000000E+00 -0.00000000000E+00 -0.45593999997E+02  0.45594000000E+02  0.51100000000E-03 0. -1.
    9900012    2    1    2    0    0 -0.61382777605E+01 -0.24258357393E+02 -0.19762937593E+02  0.59301951961E+02  0.50000014468E+02 0.  0.
        -12    1    1    2    0    0  0.61382777605E+01  0.24258357393E+02  0.19762937593E+02  0.31886048039E+02  0.00000000000E+00 0.  1.
         11    1    3    3    0    0  0.68219728203E+01  0.54411328333E+01 -0.89666686034E+00  0.87720722403E+01  0.51100000000E-03 0.  1.
        -11    1    3    3    0    0  0.35118503665E+01  0.58900523750E+01 -0.63984897502E+01  0.93790447979E+01  0.51100000000E-03 0. -1.
        -12    1    3    3    0    0 -0.16472100947E+02 -0.35589542601E+02 -0.12467780982E+02  0.41150834922E+02  0.00000000000E+00 0.  1.
</event>
<event>
 7    1  0.1327607E-011  0.5930193E+02  0.7816164E-02  0.1266605E+00
        -11   -1    0    0    0    0  0.00000000000E+00  0.00000000000E+00  0.45593999997E+02  0.45594000000E+02  0.51100000000E-03 0.  1.
         11   -1    0    0    0    0 -0.00000000000E+00 -0.00000000000E+00 -0.45593999997E+02  0.45594000000E+02  0.51100000000E-03 0. -1.
    9900012    2    1    2    0    0  0.96236468283E+01 -0.30379881998E+02  0.10814919738E+01  0.59301930418E+02  0.49999975179E+02 0.  0.
        -12    1    1    2    0    0 -0.96236468283E+01  0.30379881998E+02 -0.10814919738E+01  0.31886069582E+02  0.00000000000E+00 0.  1.
         11    1    3    3    0    0  0.14279479528E+02 -0.19712973558E+02 -0.11666283151E+02  0.26992721703E+02  0.51100000000E-03 0. -1.
        -11    1    3    3    0    0 -0.39818873456E+01 -0.18397202233E+02  0.18259781026E+01  0.18911548671E+02  0.51100000000E-03 0.  1.
        -12    1    3    3    0    0 -0.67394535446E+00  0.77302937936E+01  0.10921797022E+02  0.13397660044E+02  0.00000000000E+00 0.  1.
</event>
<event>
 7    1  0.1327607E-011  0.5930196E+02  0.7816164E-02  0.1266605E+00
        -11   -1    0    0    0    0  0.00000000000E+00  0.00000000000E+00  0.45593999997E+02  0.45594000000E+02  0.51100000000E-03 0.  1.
         11   -1    0    0    0    0 -0.00000000000E+00 -0.00000000000E+00 -0.45593999997E+02  0.45594000000E+02  0.51100000000E-03 0. -1.
    9900012    2    1    2    0    0 -0.69597939675E+01 -0.11612257089E+02 -0.28869292542E+02  0.59301963893E+02  0.50000036229E+02 0.  0.
        -12    1    1    2    0    0  0.69597939675E+01  0.11612257089E+02  0.28869292542E+02  0.31886036107E+02  0.00000000000E+00 0.  1.
         11    1    3    3    0    0 -0.62701598026E+01 -0.66168073642E+01 -0.23541140289E+01  0.94148232467E+01  0.51100000000E-03 0. -1.
        -11    1    3    3    0    0 -0.37902300758E+01 -0.15038572130E+02 -0.33739310458E+02  0.37133079136E+02  0.51100000000E-03 0.  1.
        -12    1    3    3    0    0  0.31005959109E+01  0.10043122405E+02  0.72241319447E+01  0.12754061510E+02  0.00000000000E+00 0.  1.
</event>
<event>
 7    1  0.1327607E-011  0.5930191E+02  0.7816164E-02  0.1266605E+00
        -11   -1    0    0    0    0  0.00000000000E+00  0.00000000000E+00  0.45593999997E+02  0.45594000000E+02  0.51100000000E-03 0.  1.
         11   -1    0    0    0    0 -0.00000000000E+00 -0.00000000000E+00 -0.45593999997E+02  0.45594000000E+02  0.51100000000E-03 0. -1.
    9900012    2    1    2    0    0  0.12762877521E+02 -0.17247404070E+02 -0.23587253460E+02  0.59301913448E+02  0.49999944231E+02 0.  0.
        -12    1    1    2    0    0 -0.12762877521E+02  0.17247404070E+02  0.23587253460E+02  0.31886086552E+02  0.00000000000E+00 0.  1.
         11    1    3    3    0    0  0.15934151093E+01 -0.15004178495E+00 -0.90310208910E+01  0.91717404478E+01  0.51100000000E-03 0. -1.
        -11    1    3    3    0    0  0.86138712264E+01  0.11092757064E+02  0.58721489353E+01  0.15222686037E+02  0.51100000000E-03 0.  1.
         12    1    3    3    0    0  0.25555911858E+01 -0.28190119349E+02 -0.20428381505E+02  0.34907486964E+02  0.00000000000E+00 0. -1.
</event>
<event>
 7    1  0.1327607E-011  0.5930193E+02  0.7816164E-02  0.1266605E+00
        -11   -1    0    0    0    0  0.00000000000E+00  0.00000000000E+00  0.45593999997E+02  0.45594000000E+02  0.51100000000E-03 0.  1.
         11   -1    0    0    0    0 -0.00000000000E+00 -0.00000000000E+00 -0.45593999997E+02  0.45594000000E+02  0.51100000000E-03 0. -1.
    9900012    2    1    2    0    0 -0.24628605151E+02  0.20209353330E+02 -0.13173624192E+01  0.59301927845E+02  0.49999970487E+02 0.  0.
        -12    1    1    2    0    0  0.24628605151E+02 -0.20209353330E+02  0.13173624192E+01  0.31886072155E+02  0.00000000000E+00 0.  1.
         11    1    3    3    0    0 -0.16164329547E+02 -0.75132173592E+01  0.15144318037E+01  0.17889312137E+02  0.51100000000E-03 0. -1.
        -11    1    3    3    0    0 -0.15992275377E+01  0.79346991546E+00  0.10457098786E+02  0.10608394718E+02  0.51100000000E-03 0.  1.
         12    1    3    3    0    0 -0.68650480666E+01  0.26929100773E+02 -0.13288893008E+02  0.30804220990E+02  0.00000000000E+00 0. -1.
</event>
<event>
 7    1  0.1327607E-011  0.5930193E+02  0.7816164E-02  0.1266605E+00
        -11   -1    0    0    0    0  0.00000000000E+00  0.00000000000E+00  0.45593999997E+02  0.45594000000E+02  0.51100000000E-03 0.  1.
         11   -1    0    0    0    0 -0.00000000000E+00 -0.00000000000E+00 -0.45593999997E+02  0.45594000000E+02  0.51100000000E-03 0. -1.
    9900012    2    1    2    0    0  0.51227158818E+01  0.63105472765E+01 -0.30832710582E+02  0.59301933031E+02  0.49999979944E+02 0.  0.
        -12    1    1    2    0    0 -0.51227158818E+01 -0.63105472765E+01  0.30832710582E+02  0.31886066969E+02  0.00000000000E+00 0.  1.
         11    1    3    3    0    0 -0.11786489331E+02  0.35477826828E+01 -0.11707793028E+02  0.16987657595E+02  0.51100000000E-03 0. -1.
        -11    1    3    3    0    0 -0.23658549775E-01 -0.54651634154E+01 -0.22529445367E+02  0.23182848826E+02  0.51100000000E-03 0.  1.
        -12    1    3    3    0    0  0.16932863762E+02  0.82279280091E+01  0.34045278128E+01  0.19131426610E+02  0.00000000000E+00 0.  1.
</event>
<event>
 7    1  0.1327607E-011  0.5930197E+02  0.7816164E-02  0.1266605E+00
        -11   -1    0    0    0    0  0.00000000000E+00  0.00000000000E+00  0.45593999997E+02  0.45594000000E+02  0.51100000000E-03 0.  1.
         11   -1    0    0    0    0 -0.00000000000E+00 -0.00000000000E+00 -0.45593999997E+02  0.45594000000E+02  0.51100000000E-03 0. -1.
    9900012    2    1    2    0    0  0.30274188177E+02 -0.56310202593E+01  0.82755074178E+01  0.59301970427E+02  0.50000048145E+02 0.  0.
        -12    1    1    2    0    0 -0.30274188177E+02  0.56310202593E+01 -0.82755074178E+01  0.31886029573E+02  0.00000000000E+00 0.  1.
         11    1    3    3    0    0  0.46594443232E+01 -0.15321961923E+02 -0.55802856399E+01  0.16959142863E+02  0.51100000000E-03 0. -1.
        -11    1    3    3    0    0 -0.63933122604E+01  0.17366367217E+01  0.46713601938E+01  0.81062910806E+01  0.51100000000E-03 0.  1.
        -12    1    3    3    0    0  0.32008056114E+02  0.79543049418E+01  0.91844328639E+01  0.34236536483E+02  0.00000000000E+00 0.  1.
</event>
<event>
 7    1  0.1327607E-011  0.5930199E+02  0.7816164E-02  0.1266605E+00
        -11   -1    0    0    0    0  0.00000000000E+00  0.00000000000E+00  0.45593999997E+02  0.45594000000E+02  0.51100000000E-03 0. -1.
         11   -1    0    0    0    0 -0.00000000000E+00 -0.00000000000E+00 -0.45593999997E+02  0.45594000000E+02  0.51100000000E-03 0.  1.
    9900012    2    1    2    0    0  0.11849856593E+02  0.45514005944E+01  0.29250351443E+02  0.59301993537E+02  0.50000090292E+02 0.  0.
        -12    1    1    2    0    0 -0.11849856593E+02 -0.45514005944E+01 -0.29250351443E+02  0.31886006463E+02  0.00000000000E+00 0.  1.
         11    1    3    3    0    0  0.12691304781E+02  0.55196323558E+01  0.16603017563E+02  0.21614711445E+02  0.51100000000E-03 0. -1.
        -11    1    3    3    0    0  0.12404734124E+02  0.10809556067E+02  0.10126128367E+01  0.16484820778E+02  0.51100000000E-03 0.  1.
         12    1    3    3    0    0 -0.13246182313E+02 -0.11777787829E+02  0.11634721044E+02  0.21202461314E+02  0.00000000000E+00 0. -1.
</event>
<event>
 7    1  0.1327607E-011  0.5930194E+02  0.7816164E-02  0.1266605E+00
        -11   -1    0    0    0    0  0.00000000000E+00  0.00000000000E+00  0.45593999997E+02  0.45594000000E+02  0.51100000000E-03 0.  1.
         11   -1    0    0    0    0 -0.00000000000E+00 -0.00000000000E+00 -0.45593999997E+02  0.45594000000E+02  0.51100000000E-03 0. -1.
    9900012    2    1    2    0    0 -0.18849493856E+02  0.13699189211E+02 -0.21765795199E+02  0.59301936519E+02  0.49999986306E+02 0.  0.
        -12    1    1    2    0    0  0.18849493856E+02 -0.13699189211E+02  0.21765795199E+02  0.31886063481E+02  0.00000000000E+00 0.  1.
         11    1    3    3    0    0 -0.76553550608E+01  0.18419911282E+01 -0.27061349479E+02  0.28183577280E+02  0.51100000000E-03 0. -1.
        -11    1    3    3    0    0  0.38984874020E+01 -0.45150157532E+01  0.64950450717E+01  0.88186836897E+01  0.51100000000E-03 0.  1.
        -12    1    3    3    0    0 -0.15092626198E+02  0.16372213836E+02 -0.11994907915E+01  0.22299675549E+02  0.00000000000E+00 0.  1.
</event>
<event>
 7    1  0.1327607E-011  0.5930194E+02  0.7816164E-02  0.1266605E+00
        -11   -1    0    0    0    0  0.00000000000E+00  0.00000000000E+00  0.45593999997E+02  0.45594000000E+02  0.51100000000E-03 0. -1.
         11   -1    0    0    0    0 -0.00000000000E+00 -0.00000000000E+00 -0.45593999997E+02  0.45594000000E+02  0.51100000000E-03 0.  1.
    9900012    2    1    2    0    0  0.31810578787E+02  0.21743783054E+01 -0.28265787599E+00  0.59301941303E+02  0.49999995030E+02 0.  0.
        -12    1    1    2    0    0 -0.31810578787E+02 -0.21743783054E+01  0.28265787599E+00  0.31886058697E+02  0.00000000000E+00 0.  1.
         11    1    3    3    0    0  0.14383202599E+02  0.34276438159E+01  0.59737733057E+01  0.15947138517E+02  0.51100000000E-03 0. -1.
        -11    1    3    3    0    0  0.24858854702E+02  0.11519166510E+02 -0.78279587172E+01  0.28494399311E+02  0.51100000000E-03 0.  1.
        -12    1    3    3    0    0 -0.74314785138E+01 -0.12772432021E+02  0.15715275355E+01  0.14860403474E+02  0.00000000000E+00 0.  1.
</event>
<event>
 7    1  0.1327607E-011  0.5930192E+02  0.7816164E-02  0.1266605E+00
        -11   -1    0    0    0    0  0.00000000000E+00  0.00000000000E+00  0.45593999997E+02  0.45594000000E+02  0.51100000000E-03 0.  1.
         11   -1    0    0    0    0 -0.00000000000E+00 -0.00000000000E+00 -0.45593999997E+02  0.45594000000E+02  0.51100000000E-03 0. -1.
    9900012    2    1    2    0    0  0.90665128188E+01  0.19431482372E+02 -0.23599538635E+02  0.59301915486E+02  0.49999947947E+02 0.  0.
        -12    1    1    2    0    0 -0.90665128188E+01 -0.19431482372E+02  0.23599538635E+02  0.31886084514E+02  0.00000000000E+00 0.  1.
         11    1    3    3    0    0 -0.21429132338E+01  0.78263135019E+01 -0.71260954083E+01  0.10799282207E+02  0.51100000000E-03 0. -1.
        -11    1    3    3    0    0  0.21766043933E+02  0.12329960821E+02  0.41170991040E+01  0.25352299850E+02  0.51100000000E-03 0.  1.
         12    1    3    3    0    0 -0.10556617881E+02 -0.72479195171E+00 -0.20590542330E+02  0.23150333430E+02  0.00000000000E+00 0. -1.
</event>
<event>
 7    1  0.1327607E-011  0.5930194E+02  0.7816164E-02  0.1266605E+00
        -11   -1    0    0    0    0  0.00000000000E+00  0.00000000000E+00  0.45593999997E+02  0.45594000000E+02  0.51100000000E-03 0. -1.
         11   -1    0    0    0    0 -0.00000000000E+00 -0.00000000000E+00 -0.45593999997E+02  0.45594000000E+02  0.51100000000E-03 0.  1.
    9900012    2    1    2    0    0  0.10273767307E+02  0.14410181787E+02  0.26523897586E+02  0.59301940711E+02  0.49999993951E+02 0.  0.
        -12    1    1    2    0    0 -0.10273767307E+02 -0.14410181787E+02 -0.26523897586E+02  0.31886059289E+02  0.00000000000E+00 0.  1.
         11    1    3    3    0    0 -0.10485043257E+02 -0.17394928364E+01  0.62502743503E+01  0.12329959333E+02  0.51100000000E-03 0. -1.
        -11    1    3    3    0    0 -0.15484565385E+01  0.49427632177E+00 -0.77283824518E+01  0.78974630304E+01  0.51100000000E-03 0.  1.
         12    1    3    3    0    0  0.22307267103E+02  0.15655398302E+02  0.28002005687E+02  0.39074518348E+02  0.00000000000E+00 0. -1.
</event>
<event>
 7    1  0.1327607E-011  0.5930194E+02  0.7816164E-02  0.1266605E+00
        -11   -1    0    0    0    0  0.00000000000E+00  0.00000000000E+00  0.45593999997E+02  0.45594000000E+02  0.51100000000E-03 0. -1.
         11   -1    0    0    0    0 -0.00000000000E+00 -0.00000000000E+00 -0.45593999997E+02  0.45594000000E+02  0.51100000000E-03 0.  1.
    9900012    2    1    2    0    0 -0.22030880390E+02  0.20254366937E+02  0.11005529351E+02  0.59301941180E+02  0.49999994806E+02 0.  0.
        -12    1    1    2    0    0  0.22030880390E+02 -0.20254366937E+02 -0.11005529351E+02  0.31886058820E+02  0.00000000000E+00 0.  1.
         11    1    3    3    0    0 -0.20857109128E+01  0.31713811772E+01  0.73779960833E+00  0.38668070945E+01  0.51100000000E-03 0. -1.
        -11    1    3    3    0    0 -0.24939869074E+01  0.25908897636E+02 -0.94243794334E+01  0.27682302566E+02  0.51100000000E-03 0.  1.
         12    1    3    3    0    0 -0.17451182570E+02 -0.88259118758E+01  0.19692109176E+02  0.27752831519E+02  0.00000000000E+00 0. -1.
</event>
<event>
 7    1  0.1327607E-011  0.5930191E+02  0.7816164E-02  0.1266605E+00
        -11   -1    0    0    0    0  0.00000000000E+00  0.00000000000E+00  0.45593999997E+02  0.45594000000E+02  0.51100000000E-03 0.  1.
         11   -1    0    0    0    0 -0.00000000000E+00 -0.00000000000E+00 -0.45593999997E+02  0.45594000000E+02  0.51100000000E-03 0. -1.
    9900012    2    1    2    0    0 -0.21245125105E+02  0.18319465225E+02 -0.15157978280E+02  0.59301914440E+02  0.49999946038E+02 0.  0.
        -12    1    1    2    0    0  0.21245125105E+02 -0.18319465225E+02  0.15157978280E+02  0.31886085560E+02  0.00000000000E+00 0.  1.
         11    1    3    3    0    0 -0.78973363324E+01  0.19540353671E+02 -0.98445751620E+01  0.23261749786E+02  0.51100000000E-03 0. -1.
        -11    1    3    3    0    0 -0.18684898279E+02  0.90520829437E+01  0.40468266060E+01  0.21152835156E+02  0.51100000000E-03 0.  1.
        -12    1    3    3    0    0  0.53371095065E+01 -0.10272971390E+02 -0.93602297236E+01  0.14887329497E+02  0.00000000000E+00 0.  1.
</event>
<event>
 7    1  0.1327607E-011  0.5930187E+02  0.7816164E-02  0.1266605E+00
        -11   -1    0    0    0    0  0.00000000000E+00  0.00000000000E+00  0.45593999997E+02  0.45594000000E+02  0.51100000000E-03 0. -1.
         11   -1    0    0    0    0 -0.00000000000E+00 -0.00000000000E+00 -0.45593999997E+02  0.45594000000E+02  0.51100000000E-03 0.  1.
    9900012    2    1    2    0    0 -0.25605448796E+02  0.92342534389E+01 -0.16607664935E+02  0.59301874816E+02  0.49999873775E+02 0.  0.
        -12    1    1    2    0    0  0.25605448796E+02 -0.92342534389E+01  0.16607664935E+02  0.31886125184E+02  0.00000000000E+00 0.  1.
         11    1    3    3    0    0 -0.19801998016E+02 -0.52987540178E+01 -0.17288941439E+02  0.26816103667E+02  0.51100000000E-03 0. -1.
        -11    1    3    3    0    0  0.10289634657E+02  0.96787892204E+01 -0.46162026399E+01  0.14861523112E+02  0.51100000000E-03 0.  1.
         12    1    3    3    0    0 -0.16093085437E+02  0.48542182362E+01  0.52974791444E+01  0.17624248037E+02  0.00000000000E+00 0. -1.
</event>
<event>
 7    1  0.1327607E-011  0.5930199E+02  0.7816164E-02  0.1266605E+00
        -11   -1    0    0    0    0  0.00000000000E+00  0.00000000000E+00  0.45593999997E+02  0.45594000000E+02  0.51100000000E-03 0.  1.
         11   -1    0    0    0    0 -0.00000000000E+00 -0.00000000000E+00 -0.45593999997E+02  0.45594000000E+02  0.51100000000E-03 0. -1.
    9900012    2    1    2    0    0 -0.33381305546E+01  0.23159128412E+02 -0.21661702068E+02  0.59301989261E+02  0.50000082494E+02 0.  0.
        -12    1    1    2    0    0  0.33381305546E+01 -0.23159128412E+02  0.21661702068E+02  0.31886010739E+02  0.00000000000E+00 0.  1.
         11    1    3    3    0    0 -0.10775032603E+02  0.21662681252E+02 -0.53646114704E+01  0.24782093194E+02  0.51100000000E-03 0. -1.
        -11    1    3    3    0    0 -0.10612434170E+01  0.13482862002E+01  0.83105106524E+01  0.84857940602E+01  0.51100000000E-03 0.  1.
         12    1    3    3    0    0  0.84981454651E+01  0.14816096010E+00 -0.24607601250E+02  0.26034102006E+02  0.00000000000E+00 0. -1.
</event>
<event>
 7    1  0.1327607E-011  0.5930195E+02  0.7816164E-02  0.1266605E+00
        -11   -1    0    0    0    0  0.00000000000E+00  0.00000000000E+00  0.45593999997E+02  0.45594000000E+02  0.51100000000E-03 0. -1.
         11   -1    0    0    0    0 -0.00000000000E+00 -0.00000000000E+00 -0.45593999997E+02  0.45594000000E+02  0.51100000000E-03 0.  1.
    9900012    2    1    2    0    0 -0.19445617600E+02 -0.23070532297E+02  0.10312078341E+02  0.59301945619E+02  0.50000002901E+02 0.  0.
        -12    1    1    2    0    0  0.19445617600E+02  0.23070532297E+02 -0.10312078341E+02  0.31886054381E+02  0.00000000000E+00 0.  1.
         11    1    3    3    0    0 -0.69175136704E+00 -0.22169177723E+01  0.17817786735E+02  0.17968493781E+02  0.51100000000E-03 0. -1.
        -11    1    3    3    0    0 -0.85640930419E+01  0.53943917934E+01  0.40450060682E+01  0.10899781044E+02  0.51100000000E-03 0.  1.
        -12    1    3    3    0    0 -0.10189773191E+02 -0.26248006318E+02 -0.11550714462E+02  0.30433670793E+02  0.00000000000E+00 0.  1.
</event>
<event>
 7    1  0.1327607E-011  0.5930190E+02  0.7816164E-02  0.1266605E+00
        -11   -1    0    0    0    0  0.00000000000E+00  0.00000000000E+00  0.45593999997E+02  0.45594000000E+02  0.51100000000E-03 0.  1.
         11   -1    0    0    0    0 -0.00000000000E+00 -0.00000000000E+00 -0.45593999997E+02  0.45594000000E+02  0.51100000000E-03 0. -1.
    9900012    2    1    2    0    0 -0.37828280272E+01  0.18390196980E+02 -0.25772348076E+02  0.59301904940E+02  0.49999928713E+02 0.  0.
        -12    1    1    2    0    0  0.37828280272E+01 -0.18390196980E+02  0.25772348076E+02  0.31886095060E+02  0.00000000000E+00 0.  1.
         11    1    3    3    0    0 -0.80595440170E+01  0.11785424662E+02 -0.89997707875E+01  0.16877451191E+02  0.51100000000E-03 0.  1.
        -11    1    3    3    0    0 -0.98215600002E+01  0.11142034935E+02  0.53627627631E+01  0.15791364983E+02  0.51100000000E-03 0. -1.
        -12    1    3    3    0    0  0.14098275990E+02 -0.45372626171E+01 -0.22135340052E+02  0.26633088765E+02  0.00000000000E+00 0.  1.
</event>
<event>
 7    1  0.1327607E-011  0.5930189E+02  0.7816164E-02  0.1266605E+00
        -11   -1    0    0    0    0  0.00000000000E+00  0.00000000000E+00  0.45593999997E+02  0.45594000000E+02  0.51100000000E-03 0. -1.
         11   -1    0    0    0    0 -0.00000000000E+00 -0.00000000000E+00 -0.45593999997E+02  0.45594000000E+02  0.51100000000E-03 0.  1.
    9900012    2    1    2    0    0  0.10804992011E+01  0.31779344450E+02  0.23727674482E+01  0.59301886446E+02  0.49999894985E+02 0.  0.
        -12    1    1    2    0    0 -0.10804992011E+01 -0.31779344450E+02 -0.23727674482E+01  0.31886113554E+02  0.00000000000E+00 0.  1.
         11    1    3    3    0    0 -0.57784020909E+01  0.22196972439E+02  0.87853607866E+01  0.24561719822E+02  0.51100000000E-03 0.  1.
        -11    1    3    3    0    0  0.16091893668E+02 -0.80772535713E+00  0.48761012933E+01  0.16833829813E+02  0.51100000000E-03 0. -1.
        -12    1    3    3    0    0 -0.92329923761E+01  0.10390097368E+02 -0.11288694632E+02  0.17906336812E+02  0.00000000000E+00 0.  1.
</event>
<event>
 7    1  0.1327607E-011  0.5930193E+02  0.7816164E-02  0.1266605E+00
        -11   -1    0    0    0    0  0.00000000000E+00  0.00000000000E+00  0.45593999997E+02  0.45594000000E+02  0.51100000000E-03 0.  1.
         11   -1    0    0    0    0 -0.00000000000E+00 -0.00000000000E+00 -0.45593999997E+02  0.45594000000E+02  0.51100000000E-03 0. -1.
    9900012    2    1    2    0    0 -0.78366904961E+01 -0.11662467809E+02 -0.28623319438E+02  0.59301932683E+02  0.49999979309E+02 0.  0.
        -12    1    1    2    0    0  0.78366904961E+01  0.11662467809E+02  0.28623319438E+02  0.31886067317E+02  0.00000000000E+00 0.  1.
         11    1    3    3    0    0  0.10894897527E-02  0.74246558810E+00 -0.16338814345E+02  0.16355675186E+02  0.51100000000E-03 0. -1.
        -11    1    3    3    0    0 -0.22115144979E+02 -0.18863037763E+01 -0.11953173697E+02  0.25209445473E+02  0.51100000000E-03 0.  1.
        -12    1    3    3    0    0  0.14277364994E+02 -0.10518629620E+02 -0.33133139647E+00  0.17736812023E+02  0.00000000000E+00 0.  1.
</event>
<event>
 7    1  0.1327607E-011  0.5930195E+02  0.7816164E-02  0.1266605E+00
        -11   -1    0    0    0    0  0.00000000000E+00  0.00000000000E+00  0.45593999997E+02  0.45594000000E+02  0.51100000000E-03 0.  1.
         11   -1    0    0    0    0 -0.00000000000E+00 -0.00000000000E+00 -0.45593999997E+02  0.45594000000E+02  0.51100000000E-03 0. -1.
    9900012    2    1    2    0    0  0.23138058716E+02  0.12525503425E+02 -0.18012832139E+02  0.59301951031E+02  0.50000012773E+02 0.  0.
        -12    1    1    2    0    0 -0.23138058716E+02 -0.12525503425E+02  0.18012832139E+02  0.31886048969E+02  0.00000000000E+00 0.  1.
         11    1    3    3    0    0 -0.64011859253E+01  0.10392062026E+02 -0.30249587582E+01  0.12574597813E+02  0.51100000000E-03 0. -1.
        -11    1    3    3    0    0  0.96739885288E+01  0.14306628171E+02  0.26937632327E+01  0.17479188319E+02  0.51100000000E-03 0.  1.
         12    1    3    3    0    0  0.19865256113E+02 -0.12173186773E+02 -0.17681636613E+02  0.29248164899E+02  0.00000000000E+00 0. -1.
</event>
<event>
 7    1  0.1327607E-011  0.5930184E+02  0.7816164E-02  0.1266605E+00
        -11   -1    0    0    0    0  0.00000000000E+00  0.00000000000E+00  0.45593999997E+02  0.45594000000E+02  0.51100000000E-03 0.  1.
         11   -1    0    0    0    0 -0.00000000000E+00 -0.00000000000E+00 -0.45593999997E+02  0.45594000000E+02  0.51100000000E-03 0. -1.
    9900012    2    1    2    0    0  0.18628276687E+02  0.25517046043E+02 -0.43121617044E+01  0.59301842037E+02  0.49999813992E+02 0.  0.
        -12    1    1    2    0    0 -0.18628276687E+02 -0.25517046043E+02  0.43121617044E+01  0.31886157963E+02  0.00000000000E+00 0.  1.
         11    1    3    3    0    0  0.19911283612E+02  0.12995447701E+02  0.80765928661E+01  0.25111197276E+02  0.51100000000E-03 0. -1.
        -11    1    3    3    0    0  0.11536930447E+02  0.12828508001E+02 -0.14123263531E+01  0.17310865018E+02  0.51100000000E-03 0.  1.
        -12    1    3    3    0    0 -0.12819937373E+02 -0.30690965858E+00 -0.10976428217E+02  0.16879779743E+02  0.00000000000E+00 0.  1.
</event>
<event>
 7    1  0.1327607E-011  0.5930225E+02  0.7816164E-02  0.1266604E+00
        -11   -1    0    0    0    0  0.00000000000E+00  0.00000000000E+00  0.45593999997E+02  0.45594000000E+02  0.51100000000E-03 0. -1.
         11   -1    0    0    0    0 -0.00000000000E+00 -0.00000000000E+00 -0.45593999997E+02  0.45594000000E+02  0.51100000000E-03 0.  1.
    9900012    2    1    2    0    0 -0.17768287489E+02  0.12915216439E+00  0.26475879726E+02  0.59302251964E+02  0.50000561599E+02 0.  0.
        -12    1    1    2    0    0  0.17768287489E+02 -0.12915216439E+00 -0.26475879726E+02  0.31885748036E+02  0.00000000000E+00 0.  1.
         11    1    3    3    0    0 -0.45239523574E+01  0.21636917128E+01 -0.98508323753E+01  0.11053805024E+02  0.51100000000E-03 0. -1.
        -11    1    3    3    0    0  0.29335913210E+00  0.69343894313E+01 -0.14844539950E+01  0.70975643914E+01  0.51100000000E-03 0.  1.
         12    1    3    3    0    0 -0.13537694263E+02 -0.89689289797E+01  0.37811166096E+02  0.41150882549E+02  0.00000000000E+00 0. -1.
</event>
<event>
 7    1  0.1327607E-011  0.5930200E+02  0.7816164E-02  0.1266605E+00
        -11   -1    0    0    0    0  0.00000000000E+00  0.00000000000E+00  0.45593999997E+02  0.45594000000E+02  0.51100000000E-03 0.  1.
         11   -1    0    0    0    0 -0.00000000000E+00 -0.00000000000E+00 -0.45593999997E+02  0.45594000000E+02  0.51100000000E-03 0. -1.
    9900012    2    1    2    0    0  0.25844590009E+02 -0.18649564769E+02  0.98374184871E+00  0.59302002339E+02  0.50000106345E+02 0.  0.
        -12    1    1    2    0    0 -0.25844590009E+02  0.18649564769E+02 -0.98374184871E+00  0.31885997661E+02  0.00000000000E+00 0.  1.
         11    1    3    3    0    0  0.22992105868E+02 -0.68934385448E+01  0.45757619210E+01  0.24435507456E+02  0.51100000000E-03 0. -1.
        -11    1    3    3    0    0 -0.56287141779E+01  0.96287204237E+01  0.16416571212E+01  0.11273407589E+02  0.51100000000E-03 0.  1.
        -12    1    3    3    0    0  0.84811983192E+01 -0.21384846648E+02 -0.52336771935E+01  0.23593087294E+02  0.00000000000E+00 0.  1.
</event>
<event>
 7    1  0.1327607E-011  0.5930195E+02  0.7816164E-02  0.1266605E+00
        -11   -1    0    0    0    0  0.00000000000E+00  0.00000000000E+00  0.45593999997E+02  0.45594000000E+02  0.51100000000E-03 0. -1.
         11   -1    0    0    0    0 -0.00000000000E+00 -0.00000000000E+00 -0.45593999997E+02  0.45594000000E+02  0.51100000000E-03 0.  1.
    9900012    2    1    2    0    0 -0.16110716633E+02  0.27487343755E+02 -0.12692578621E+01  0.59301948619E+02  0.50000008374E+02 0.  0.
        -12    1    1    2    0    0  0.16110716633E+02 -0.27487343755E+02  0.12692578621E+01  0.31886051381E+02  0.00000000000E+00 0.  1.
         11    1    3    3    0    0 -0.14458468233E+00 -0.68775706144E+01  0.73303736759E+01  0.10052674310E+02  0.51100000000E-03 0. -1.
        -11    1    3    3    0    0  0.54269490000E+01  0.17237404885E+01  0.53411214754E+01  0.78070888042E+01  0.51100000000E-03 0.  1.
         12    1    3    3    0    0 -0.21393080951E+02  0.32641173881E+02 -0.13940753013E+02  0.41442185505E+02  0.00000000000E+00 0. -1.
</event>
<event>
 7    1  0.1327607E-011  0.5930191E+02  0.7816164E-02  0.1266605E+00
        -11   -1    0    0    0    0  0.00000000000E+00  0.00000000000E+00  0.45593999997E+02  0.45594000000E+02  0.51100000000E-03 0.  1.
         11   -1    0    0    0    0 -0.00000000000E+00 -0.00000000000E+00 -0.45593999997E+02  0.45594000000E+02  0.51100000000E-03 0. -1.
    9900012    2    1    2    0    0 -0.21283650860E+02  0.23003445245E+02 -0.58796542118E+01  0.59301911800E+02  0.49999941223E+02 0.  0.
        -12    1    1    2    0    0  0.21283650860E+02 -0.23003445245E+02  0.58796542118E+01  0.31886088200E+02  0.00000000000E+00 0.  1.
         11    1    3    3    0    0 -0.46241353925E+00 -0.15028284001E+01 -0.68666116228E+01  0.70443363719E+01  0.51100000000E-03 0. -1.
        -11    1    3    3    0    0 -0.13654438055E+02  0.29117407514E+02 -0.13954181842E+02  0.35056900748E+02  0.51100000000E-03 0.  1.
        -12    1    3    3    0    0 -0.71667992654E+01 -0.46111338685E+01  0.14941139252E+02  0.17200674679E+02  0.00000000000E+00 0.  1.
</event>
<event>
 7    1  0.1327607E-011  0.5930198E+02  0.7816164E-02  0.1266605E+00
        -11   -1    0    0    0    0  0.00000000000E+00  0.00000000000E+00  0.45593999997E+02  0.45594000000E+02  0.51100000000E-03 0.  1.
         11   -1    0    0    0    0 -0.00000000000E+00 -0.00000000000E+00 -0.45593999997E+02  0.45594000000E+02  0.51100000000E-03 0. -1.
    9900012    2    1    2    0    0 -0.24910024778E+02 -0.18638974379E+02  0.69855322443E+01  0.59301978595E+02  0.50000063042E+02 0.  0.
        -12    1    1    2    0    0  0.24910024778E+02  0.18638974379E+02 -0.69855322443E+01  0.31886021405E+02  0.00000000000E+00 0.  1.
         11    1    3    3    0    0 -0.12129146562E+02 -0.14524062286E+02 -0.40527562597E+01  0.19351728997E+02  0.51100000000E-03 0. -1.
        -11    1    3    3    0    0 -0.20911420020E+02 -0.11953223782E+02 -0.10181482353E+00  0.24086872204E+02  0.51100000000E-03 0.  1.
         12    1    3    3    0    0  0.81305418045E+01  0.78383116895E+01  0.11140103328E+02  0.15863377393E+02  0.00000000000E+00 0. -1.
</event>
<event>
 7    1  0.1327607E-011  0.5930177E+02  0.7816164E-02  0.1266605E+00
        -11   -1    0    0    0    0  0.00000000000E+00  0.00000000000E+00  0.45593999997E+02  0.45594000000E+02  0.51100000000E-03 0.  1.
         11   -1    0    0    0    0 -0.00000000000E+00 -0.00000000000E+00 -0.45593999997E+02  0.45594000000E+02  0.51100000000E-03 0. -1.
    9900012    2    1    2    0    0 -0.41661262539E+01 -0.28852214584E+02  0.12919935624E+02  0.59301770513E+02  0.49999683551E+02 0.  0.
        -12    1    1    2    0    0  0.41661262539E+01  0.28852214584E+02 -0.12919935624E+02  0.31886229487E+02  0.00000000000E+00 0.  1.
         11    1    3    3    0    0 -0.47181860219E+01 -0.25498611101E+02  0.70656336149E+01  0.26876823214E+02  0.51100000000E-03 0. -1.
        -11    1    3    3    0    0 -0.89809573987E+01 -0.14602327840E+02  0.34057487220E+01  0.17478120573E+02  0.51100000000E-03 0.  1.
        -12    1    3    3    0    0  0.95330171667E+01  0.11248724358E+02  0.24485532869E+01  0.14946826726E+02  0.00000000000E+00 0.  1.
</event>
<event>
 7    1  0.1327607E-011  0.5930202E+02  0.7816164E-02  0.1266604E+00
        -11   -1    0    0    0    0  0.00000000000E+00  0.00000000000E+00  0.45593999997E+02  0.45594000000E+02  0.51100000000E-03 0.  1.
         11   -1    0    0    0    0 -0.00000000000E+00 -0.00000000000E+00 -0.45593999997E+02  0.45594000000E+02  0.51100000000E-03 0. -1.
    9900012    2    1    2    0    0 -0.18731810698E+02  0.21960511246E+02 -0.13548834740E+02  0.59302020181E+02  0.50000138884E+02 0.  0.
        -12    1    1    2    0    0  0.18731810698E+02 -0.21960511246E+02  0.13548834740E+02  0.31885979819E+02  0.00000000000E+00 0.  1.
         11    1    3    3    0    0 -0.17244057330E+01  0.28131454243E+02 -0.10449486851E+02  0.30059009775E+02  0.51100000000E-03 0.  1.
        -11    1    3    3    0    0 -0.13691792903E+02  0.66089640256E+01 -0.47714067064E+01  0.15934551158E+02  0.51100000000E-03 0. -1.
        -12    1    3    3    0    0 -0.33156120624E+01 -0.12779907022E+02  0.16720588173E+01  0.13308459247E+02  0.00000000000E+00 0.  1.
</event>
<event>
 7    1  0.1327607E-011  0.5930206E+02  0.7816164E-02  0.1266604E+00
        -11   -1    0    0    0    0  0.00000000000E+00  0.00000000000E+00  0.45593999997E+02  0.45594000000E+02  0.51100000000E-03 0.  1.
         11   -1    0    0    0    0 -0.00000000000E+00 -0.00000000000E+00 -0.45593999997E+02  0.45594000000E+02  0.51100000000E-03 0. -1.
    9900012    2    1    2    0    0  0.16568125573E+02 -0.13375395644E+02 -0.23734129355E+02  0.59302064388E+02  0.50000219507E+02 0.  0.
        -12    1    1    2    0    0 -0.16568125573E+02  0.13375395644E+02  0.23734129355E+02  0.31885935612E+02  0.00000000000E+00 0.  1.
         11    1    3    3    0    0  0.19378719543E+02 -0.59775172213E+01  0.26285821572E+01  0.20449325849E+02  0.51100000000E-03 0.  1.
        -11    1    3    3    0    0  0.47661670772E+01 -0.58142524281E+01  0.32899514746E+01  0.82064402070E+01  0.51100000000E-03 0. -1.
         12    1    3    3    0    0 -0.75767610469E+01 -0.15836259942E+01 -0.29652662987E+02  0.30646298332E+02  0.00000000000E+00 0. -1.
</event>
<event>
 7    1  0.1327607E-011  0.5930192E+02  0.7816164E-02  0.1266605E+00
        -11   -1    0    0    0    0  0.00000000000E+00  0.00000000000E+00  0.45593999997E+02  0.45594000000E+02  0.51100000000E-03 0.  1.
         11   -1    0    0    0    0 -0.00000000000E+00 -0.00000000000E+00 -0.45593999997E+02  0.45594000000E+02  0.51100000000E-03 0. -1.
    9900012    2    1    2    0    0  0.18209738213E+02  0.18667861936E+02 -0.18347706968E+02  0.59301921752E+02  0.49999959375E+02 0.  0.
        -12    1    1    2    0    0 -0.18209738213E+02 -0.18667861936E+02  0.18347706968E+02  0.31886078248E+02  0.00000000000E+00 0.  1.
         11    1    3    3    0    0  0.57151599290E+00  0.11820853733E+01 -0.46142843828E+01  0.47974552615E+01  0.51100000000E-03 0. -1.
        -11    1    3    3    0    0  0.80855716445E+01  0.15299599168E+02 -0.30509786351E+02  0.35075650628E+02  0.51100000000E-03 0.  1.
        -12    1    3    3    0    0  0.95526505752E+01  0.21861773951E+01  0.16776363766E+02  0.19428815863E+02  0.00000000000E+00 0.  1.
</event>
<event>
 7    1  0.1327607E-011  0.5930194E+02  0.7816164E-02  0.1266605E+00
        -11   -1    0    0    0    0  0.00000000000E+00  0.00000000000E+00  0.45593999997E+02  0.45594000000E+02  0.51100000000E-03 0.  1.
         11   -1    0    0    0    0 -0.00000000000E+00 -0.00000000000E+00 -0.45593999997E+02  0.45594000000E+02  0.51100000000E-03 0. -1.
    9900012    2    1    2    0    0  0.19040369653E+02  0.22830263576E+02 -0.11531005756E+02  0.59301941836E+02  0.49999996004E+02 0.  0.
        -12    1    1    2    0    0 -0.19040369653E+02 -0.22830263576E+02  0.11531005756E+02  0.31886058164E+02  0.00000000000E+00 0.  1.
         11    1    3    3    0    0  0.37063540760E-02 -0.64555500868E+01 -0.13067826922E+02  0.14575398498E+02  0.51100000000E-03 0. -1.
        -11    1    3    3    0    0  0.12560077983E+02  0.43526248842E+01 -0.98669061861E+01  0.16554659171E+02  0.51100000000E-03 0.  1.
        -12    1    3    3    0    0  0.64765853161E+01  0.24933188778E+02  0.11403727352E+02  0.28171884167E+02  0.00000000000E+00 0.  1.
</event>
<event>
 7    1  0.1327607E-011  0.5930196E+02  0.7816164E-02  0.1266605E+00
        -11   -1    0    0    0    0  0.00000000000E+00  0.00000000000E+00  0.45593999997E+02  0.45594000000E+02  0.51100000000E-03 0.  1.
         11   -1    0    0    0    0 -0.00000000000E+00 -0.00000000000E+00 -0.45593999997E+02  0.45594000000E+02  0.51100000000E-03 0. -1.
    9900012    2    1    2    0    0 -0.35678767423E+01 -0.27705790567E+01 -0.31564433738E+02  0.59301963402E+02  0.50000035333E+02 0.  0.
        -12    1    1    2    0    0  0.35678767423E+01  0.27705790567E+01  0.31564433738E+02  0.31886036598E+02  0.00000000000E+00 0.  1.
         11    1    3    3    0    0  0.68229490821E+01 -0.20700461136E+02 -0.24383882033E+02  0.32705281358E+02  0.51100000000E-03 0. -1.
        -11    1    3    3    0    0  0.35014522010E+01  0.15997973851E+01  0.36714430377E+00  0.38670808616E+01  0.51100000000E-03 0.  1.
         12    1    3    3    0    0 -0.13892278025E+02  0.16330084695E+02 -0.75476960092E+01  0.22729601182E+02  0.00000000000E+00 0. -1.
</event>
<event>
 7    1  0.1327607E-011  0.5930196E+02  0.7816164E-02  0.1266605E+00
        -11   -1    0    0    0    0  0.00000000000E+00  0.00000000000E+00  0.45593999997E+02  0.45594000000E+02  0.51100000000E-03 0.  1.
         11   -1    0    0    0    0 -0.00000000000E+00 -0.00000000000E+00 -0.45593999997E+02  0.45594000000E+02  0.51100000000E-03 0. -1.
    9900012    2    1    2    0    0 -0.22824009921E+01  0.18984407598E+01 -0.31747537711E+02  0.59301959444E+02  0.50000028115E+02 0.  0.
        -12    1    1    2    0    0  0.22824009921E+01 -0.18984407598E+01  0.31747537711E+02  0.31886040556E+02  0.00000000000E+00 0.  1.
         11    1    3    3    0    0  0.35121223167E+01 -0.67515707906E+01  0.77639756402E+01  0.10871891708E+02  0.51100000000E-03 0. -1.
        -11    1    3    3    0    0 -0.60051358470E+01  0.14096460100E+02 -0.97226716106E+01  0.18146685301E+02  0.51100000000E-03 0.  1.
         12    1    3    3    0    0  0.21061253821E+00 -0.54464485496E+01 -0.29788841741E+02  0.30283382435E+02  0.00000000000E+00 0. -1.
</event>
<event>
 7    1  0.1327607E-011  0.5930194E+02  0.7816164E-02  0.1266605E+00
        -11   -1    0    0    0    0  0.00000000000E+00  0.00000000000E+00  0.45593999997E+02  0.45594000000E+02  0.51100000000E-03 0.  1.
         11   -1    0    0    0    0 -0.00000000000E+00 -0.00000000000E+00 -0.45593999997E+02  0.45594000000E+02  0.51100000000E-03 0. -1.
    9900012    2    1    2    0    0  0.29002382351E+02 -0.10285945045E+02 -0.83535488230E+01  0.59301943087E+02  0.49999998285E+02 0.  0.
        -12    1    1    2    0    0 -0.29002382351E+02  0.10285945045E+02  0.83535488230E+01  0.31886056913E+02  0.00000000000E+00 0.  1.
         11    1    3    3    0    0  0.35734780942E+01  0.12668503639E+02  0.51418185344E+01  0.14131490659E+02  0.51100000000E-03 0. -1.
        -11    1    3    3    0    0  0.21770825798E+02 -0.34662979483E+01 -0.17269486586E+01  0.22112585315E+02  0.51100000000E-03 0.  1.
         12    1    3    3    0    0  0.36580784591E+01 -0.19488150736E+02 -0.11768418699E+02  0.23057867113E+02  0.00000000000E+00 0. -1.
</event>
<event>
 7    1  0.1327607E-011  0.5930195E+02  0.7816164E-02  0.1266605E+00
        -11   -1    0    0    0    0  0.00000000000E+00  0.00000000000E+00  0.45593999997E+02  0.45594000000E+02  0.51100000000E-03 0. -1.
         11   -1    0    0    0    0 -0.00000000000E+00 -0.00000000000E+00 -0.45593999997E+02  0.45594000000E+02  0.51100000000E-03 0.  1.
    9900012    2    1    2    0    0  0.27060786703E+02 -0.12148470212E+02 -0.11698235484E+02  0.59301949462E+02  0.50000009911E+02 0.  0.
        -12    1    1    2    0    0 -0.27060786703E+02  0.12148470212E+02  0.11698235484E+02  0.31886050538E+02  0.00000000000E+00 0.  1.
         11    1    3    3    0    0 -0.28420327736E+01  0.13305725542E+02  0.80091241481E+00  0.13629414641E+02  0.51100000000E-03 0. -1.
        -11    1    3    3    0    0  0.34294298711E+01  0.32512849594E+01 -0.19122146783E+00  0.47295252445E+01  0.51100000000E-03 0.  1.
         12    1    3    3    0    0  0.26473389606E+02 -0.28705480713E+02 -0.12307926431E+02  0.40943009577E+02  0.00000000000E+00 0. -1.
</event>
<event>
 7    1  0.1327607E-011  0.5930196E+02  0.7816164E-02  0.1266605E+00
        -11   -1    0    0    0    0  0.00000000000E+00  0.00000000000E+00  0.45593999997E+02  0.45594000000E+02  0.51100000000E-03 0.  1.
         11   -1    0    0    0    0 -0.00000000000E+00 -0.00000000000E+00 -0.45593999997E+02  0.45594000000E+02  0.51100000000E-03 0. -1.
    9900012    2    1    2    0    0 -0.22405417382E+02  0.12541170894E+02  0.18905976955E+02  0.59301958225E+02  0.50000025893E+02 0.  0.
        -12    1    1    2    0    0  0.22405417382E+02 -0.12541170894E+02 -0.18905976955E+02  0.31886041775E+02  0.00000000000E+00 0.  1.
         11    1    3    3    0    0 -0.31915704450E+01  0.10165606573E+02 -0.68488158053E+01  0.12666173736E+02  0.51100000000E-03 0. -1.
        -11    1    3    3    0    0 -0.50583522067E+01  0.88468727370E+01 -0.56016067221E+01  0.11628932986E+02  0.51100000000E-03 0.  1.
        -12    1    3    3    0    0 -0.14155494730E+02 -0.64713084162E+01  0.31356399482E+02  0.35006851503E+02  0.00000000000E+00 0.  1.
</event>
<event>
 7    1  0.1327607E-011  0.5930193E+02  0.7816164E-02  0.1266605E+00
        -11   -1    0    0    0    0  0.00000000000E+00  0.00000000000E+00  0.45593999997E+02  0.45594000000E+02  0.51100000000E-03 0.  1.
         11   -1    0    0    0    0 -0.00000000000E+00 -0.00000000000E+00 -0.45593999997E+02  0.45594000000E+02  0.51100000000E-03 0. -1.
    9900012    2    1    2    0    0  0.15320917108E+02  0.21337002726E+02 -0.18075483351E+02  0.59301932749E+02  0.49999979431E+02 0.  0.
        -12    1    1    2    0    0 -0.15320917108E+02 -0.21337002726E+02  0.18075483351E+02  0.31886067251E+02  0.00000000000E+00 0.  1.
         11    1    3    3    0    0  0.43820254830E+01  0.70770719554E+01 -0.13644533816E+00  0.83250052484E+01  0.51100000000E-03 0. -1.
        -11    1    3    3    0    0 -0.12359562064E+02  0.19493191789E+02 -0.43033145841E+01  0.23478965420E+02  0.51100000000E-03 0.  1.
        -12    1    3    3    0    0  0.23298453689E+02 -0.52332610180E+01 -0.13635723428E+02  0.27497962081E+02  0.00000000000E+00 0.  1.
</event>
<event>
 7    1  0.1327607E-011  0.5930193E+02  0.7816164E-02  0.1266605E+00
        -11   -1    0    0    0    0  0.00000000000E+00  0.00000000000E+00  0.45593999997E+02  0.45594000000E+02  0.51100000000E-03 0. -1.
         11   -1    0    0    0    0 -0.00000000000E+00 -0.00000000000E+00 -0.45593999997E+02  0.45594000000E+02  0.51100000000E-03 0.  1.
    9900012    2    1    2    0    0 -0.19444647238E+02  0.24620577911E+02  0.56968881945E+01  0.59301926269E+02  0.49999967613E+02 0.  0.
        -12    1    1    2    0    0  0.19444647238E+02 -0.24620577911E+02 -0.56968881945E+01  0.31886073731E+02  0.00000000000E+00 0.  1.
         11    1    3    3    0    0 -0.18618676459E+02  0.21239013161E+02  0.83332140786E+01  0.29448145108E+02  0.51100000000E-03 0. -1.
        -11    1    3    3    0    0  0.63666298692E+01  0.73020938973E+01  0.10554313515E+02  0.14326481955E+02  0.51100000000E-03 0.  1.
         12    1    3    3    0    0 -0.71926006482E+01 -0.39205291478E+01 -0.13190639399E+02  0.15527299206E+02  0.00000000000E+00 0. -1.
</event>
<event>
 7    1  0.1327607E-011  0.5930199E+02  0.7816164E-02  0.1266605E+00
        -11   -1    0    0    0    0  0.00000000000E+00  0.00000000000E+00  0.45593999997E+02  0.45594000000E+02  0.51100000000E-03 0.  1.
         11   -1    0    0    0    0 -0.00000000000E+00 -0.00000000000E+00 -0.45593999997E+02  0.45594000000E+02  0.51100000000E-03 0. -1.
    9900012    2    1    2    0    0  0.55961259057E+01 -0.34182566640E+01 -0.31204432388E+02  0.59301988892E+02  0.50000081821E+02 0.  0.
        -12    1    1    2    0    0 -0.55961259057E+01  0.34182566640E+01  0.31204432388E+02  0.31886011108E+02  0.00000000000E+00 0.  1.
         11    1    3    3    0    0  0.12240465268E+02  0.63354873707E+01 -0.71246107590E+01  0.15515394578E+02  0.51100000000E-03 0.  1.
        -11    1    3    3    0    0 -0.18592772138E+01  0.27067156094E+01 -0.29278648224E+02  0.29462220949E+02  0.51100000000E-03 0. -1.
        -12    1    3    3    0    0 -0.47850621482E+01 -0.12460459644E+02  0.51988265958E+01  0.14324373364E+02  0.00000000000E+00 0.  1.
</event>
<event>
 7    1  0.1327607E-011  0.5930188E+02  0.7816164E-02  0.1266605E+00
        -11   -1    0    0    0    0  0.00000000000E+00  0.00000000000E+00  0.45593999997E+02  0.45594000000E+02  0.51100000000E-03 0.  1.
         11   -1    0    0    0    0 -0.00000000000E+00 -0.00000000000E+00 -0.45593999997E+02  0.45594000000E+02  0.51100000000E-03 0. -1.
    9900012    2    1    2    0    0  0.20451733167E+02  0.21922758694E+02  0.10855584455E+02  0.59301883081E+02  0.49999888847E+02 0.  0.
        -12    1    1    2    0    0 -0.20451733167E+02 -0.21922758694E+02 -0.10855584455E+02  0.31886116919E+02  0.00000000000E+00 0.  1.
         11    1    3    3    0    0  0.15732207700E+02 -0.27390077828E+01  0.78207170906E+01  0.17781117480E+02  0.51100000000E-03 0. -1.
        -11    1    3    3    0    0  0.53495859883E+01 -0.35146999098E+01  0.10561305687E+02  0.12349589620E+02  0.51100000000E-03 0.  1.
         12    1    3    3    0    0 -0.63006052084E+00  0.28176466387E+02 -0.75264383223E+01  0.29171175981E+02  0.00000000000E+00 0. -1.
</event>
<event>
 7    1  0.1327607E-011  0.5930192E+02  0.7816164E-02  0.1266605E+00
        -11   -1    0    0    0    0  0.00000000000E+00  0.00000000000E+00  0.45593999997E+02  0.45594000000E+02  0.51100000000E-03 0.  1.
         11   -1    0    0    0    0 -0.00000000000E+00 -0.00000000000E+00 -0.45593999997E+02  0.45594000000E+02  0.51100000000E-03 0. -1.
    9900012    2    1    2    0    0 -0.23049586843E+02 -0.11418656115E+02 -0.18842852180E+02  0.59301917779E+02  0.49999952128E+02 0.  0.
        -12    1    1    2    0    0  0.23049586843E+02  0.11418656115E+02  0.18842852180E+02  0.31886082221E+02  0.00000000000E+00 0.  1.
         11    1    3    3    0    0 -0.16810277904E+01  0.85151076383E+01  0.17690277233E+01  0.88578988407E+01  0.51100000000E-03 0. -1.
        -11    1    3    3    0    0 -0.11047762775E+02  0.18857901075E+01  0.74283668531E+01  0.13445813513E+02  0.51100000000E-03 0.  1.
         12    1    3    3    0    0 -0.10320796278E+02 -0.21819553861E+02 -0.28040246757E+02  0.36998205425E+02  0.00000000000E+00 0. -1.
</event>
<event>
 7    1  0.1327607E-011  0.5930194E+02  0.7816164E-02  0.1266605E+00
        -11   -1    0    0    0    0  0.00000000000E+00  0.00000000000E+00  0.45593999997E+02  0.45594000000E+02  0.51100000000E-03 0.  1.
         11   -1    0    0    0    0 -0.00000000000E+00 -0.00000000000E+00 -0.45593999997E+02  0.45594000000E+02  0.51100000000E-03 0. -1.
    9900012    2    1    2    0    0  0.30004419202E+01  0.15920796226E+02 -0.27463546225E+02  0.59301940736E+02  0.49999993996E+02 0.  0.
        -12    1    1    2    0    0 -0.30004419202E+01 -0.15920796226E+02  0.27463546225E+02  0.31886059264E+02  0.00000000000E+00 0.  1.
         11    1    3    3    0    0 -0.17403099814E+01 -0.10657724615E+02 -0.15655102446E+02  0.19018359699E+02  0.51100000000E-03 0. -1.
        -11    1    3    3    0    0 -0.37547361454E+00 -0.57073323184E+01 -0.28453137501E+01  0.63883044092E+01  0.51100000000E-03 0.  1.
        -12    1    3    3    0    0  0.51162255162E+01  0.32285853159E+02 -0.89631300283E+01  0.33895276627E+02  0.00000000000E+00 0.  1.
</event>
<event>
 7    1  0.1327607E-011  0.5930195E+02  0.7816164E-02  0.1266605E+00
        -11   -1    0    0    0    0  0.00000000000E+00  0.00000000000E+00  0.45593999997E+02  0.45594000000E+02  0.51100000000E-03 0.  1.
         11   -1    0    0    0    0 -0.00000000000E+00 -0.00000000000E+00 -0.45593999997E+02  0.45594000000E+02  0.51100000000E-03 0. -1.
    9900012    2    1    2    0    0 -0.26241138007E+01  0.58042795902E+01 -0.31243313435E+02  0.59301948674E+02  0.50000008473E+02 0.  0.
        -12    1    1    2    0    0  0.26241138007E+01 -0.58042795902E+01  0.31243313435E+02  0.31886051326E+02  0.00000000000E+00 0.  1.
         11    1    3    3    0    0 -0.73324743235E+01 -0.29674290133E+00 -0.15171621736E+01  0.74936651497E+01  0.51100000000E-03 0. -1.
        -11    1    3    3    0    0  0.63847444095E+01 -0.17460952123E+02 -0.15717603822E+02  0.24345284561E+02  0.51100000000E-03 0.  1.
        -12    1    3    3    0    0 -0.16763838867E+01  0.23561974614E+02 -0.14008547439E+02  0.27462998963E+02  0.00000000000E+00 0.  1.
</event>
<event>
 7    1  0.1327607E-011  0.5930194E+02  0.7816164E-02  0.1266605E+00
        -11   -1    0    0    0    0  0.00000000000E+00  0.00000000000E+00  0.45593999997E+02  0.45594000000E+02  0.51100000000E-03 0.  1.
         11   -1    0    0    0    0 -0.00000000000E+00 -0.00000000000E+00 -0.45593999997E+02  0.45594000000E+02  0.51100000000E-03 0. -1.
    9900012    2    1    2    0    0 -0.81112890972E+01  0.21862185074E+02 -0.21747937097E+02  0.59301938547E+02  0.49999990004E+02 0.  0.
        -12    1    1    2    0    0  0.81112890972E+01 -0.21862185074E+02  0.21747937097E+02  0.31886061453E+02  0.00000000000E+00 0.  1.
         11    1    3    3    0    0  0.75666021082E-01 -0.75637074999E+01 -0.61800923795E+01  0.97677499237E+01  0.51100000000E-03 0. -1.
        -11    1    3    3    0    0 -0.18520815890E+01 -0.81673745256E+01 -0.57762333647E+01  0.10173548299E+02  0.51100000000E-03 0.  1.
        -12    1    3    3    0    0 -0.63348735292E+01  0.37593267099E+02 -0.97916113530E+01  0.39360640324E+02  0.00000000000E+00 0.  1.
</event>
<event>
 7    1  0.1327607E-011  0.5930195E+02  0.7816164E-02  0.1266605E+00
        -11   -1    0    0    0    0  0.00000000000E+00  0.00000000000E+00  0.45593999997E+02  0.45594000000E+02  0.51100000000E-03 0.  1.
         11   -1    0    0    0    0 -0.00000000000E+00 -0.00000000000E+00 -0.45593999997E+02  0.45594000000E+02  0.51100000000E-03 0. -1.
    9900012    2    1    2    0    0  0.29492078604E+02  0.11980514471E+02 -0.18451630962E+01  0.59301952044E+02  0.50000014620E+02 0.  0.
        -12    1    1    2    0    0 -0.29492078604E+02 -0.11980514471E+02  0.18451630962E+01  0.31886047956E+02  0.00000000000E+00 0.  1.
         11    1    3    3    0    0 -0.39821993115E+01 -0.13615751153E+02 -0.51508510125E+01  0.15092311196E+02  0.51100000000E-03 0. -1.
        -11    1    3    3    0    0  0.11845203005E+00 -0.86776102372E+00  0.13205387204E+01  0.15845702417E+01  0.51100000000E-03 0.  1.
         12    1    3    3    0    0  0.33355825886E+02  0.26464026647E+02  0.19851491959E+01  0.42625070607E+02  0.00000000000E+00 0. -1.
</event>
<event>
 7    1  0.1327607E-011  0.5930181E+02  0.7816164E-02  0.1266605E+00
        -11   -1    0    0    0    0  0.00000000000E+00  0.00000000000E+00  0.45593999997E+02  0.45594000000E+02  0.51100000000E-03 0.  1.
         11   -1    0    0    0    0 -0.00000000000E+00 -0.00000000000E+00 -0.45593999997E+02  0.45594000000E+02  0.51100000000E-03 0. -1.
    9900012    2    1    2    0    0  0.21404432569E+02  0.14271319914E+02 -0.18839017494E+02  0.59301813558E+02  0.49999762054E+02 0.  0.
        -12    1    1    2    0    0 -0.21404432569E+02 -0.14271319914E+02  0.18839017494E+02  0.31886186442E+02  0.00000000000E+00 0.  1.
         11    1    3    3    0    0  0.33744415297E+01 -0.94099775020E+01 -0.14932109512E+02  0.17969485996E+02  0.51100000000E-03 0. -1.
        -11    1    3    3    0    0 -0.69465900968E+01  0.45063796836E+01  0.34920904404E+01  0.89865047561E+01  0.51100000000E-03 0.  1.
        -12    1    3    3    0    0  0.24976581136E+02  0.19174917733E+02 -0.73989984219E+01  0.32345822805E+02  0.00000000000E+00 0.  1.
</event>
<event>
 7    1  0.1327607E-011  0.5930193E+02  0.7816164E-02  0.1266605E+00
        -11   -1    0    0    0    0  0.00000000000E+00  0.00000000000E+00  0.45593999997E+02  0.45594000000E+02  0.51100000000E-03 0.  1.
         11   -1    0    0    0    0 -0.00000000000E+00 -0.00000000000E+00 -0.45593999997E+02  0.45594000000E+02  0.51100000000E-03 0. -1.
    9900012    2    1    2    0    0 -0.79260521134E+01 -0.27475498959E+02 -0.14106589899E+02  0.59301933705E+02  0.49999981174E+02 0.  0.
        -12    1    1    2    0    0  0.79260521134E+01  0.27475498959E+02  0.14106589899E+02  0.31886066295E+02  0.00000000000E+00 0.  1.
         11    1    3    3    0    0 -0.20810240113E+02 -0.14356792405E+02 -0.24151105265E+01  0.25397171907E+02  0.51100000000E-03 0. -1.
        -11    1    3    3    0    0 -0.49723407346E+01  0.34292433638E+01 -0.67594159792E+01  0.90649648135E+01  0.51100000000E-03 0.  1.
         12    1    3    3    0    0  0.17856528735E+02 -0.16547949918E+02 -0.49320633938E+01  0.24839796985E+02  0.00000000000E+00 0. -1.
</event>
<event>
 7    1  0.1327607E-011  0.5930193E+02  0.7816164E-02  0.1266605E+00
        -11   -1    0    0    0    0  0.00000000000E+00  0.00000000000E+00  0.45593999997E+02  0.45594000000E+02  0.51100000000E-03 0. -1.
         11   -1    0    0    0    0 -0.00000000000E+00 -0.00000000000E+00 -0.45593999997E+02  0.45594000000E+02  0.51100000000E-03 0.  1.
    9900012    2    1    2    0    0 -0.13811786918E+02  0.17944165161E+02  0.22449124444E+02  0.59301926088E+02  0.49999967282E+02 0.  0.
        -12    1    1    2    0    0  0.13811786918E+02 -0.17944165161E+02 -0.22449124444E+02  0.31886073912E+02  0.00000000000E+00 0.  1.
         11    1    3    3    0    0 -0.18142967821E+02  0.28108007677E+02  0.32216318725E+01  0.33609616022E+02  0.51100000000E-03 0.  1.
        -11    1    3    3    0    0  0.37569570066E+01 -0.19346900208E+01  0.16456139742E+02  0.16990064358E+02  0.51100000000E-03 0. -1.
        -12    1    3    3    0    0  0.57422389656E+00 -0.82291524946E+01  0.27713528293E+01  0.87022457083E+01  0.00000000000E+00 0.  1.
</event>
<event>
 7    1  0.1327607E-011  0.5930195E+02  0.7816164E-02  0.1266605E+00
        -11   -1    0    0    0    0  0.00000000000E+00  0.00000000000E+00  0.45593999997E+02  0.45594000000E+02  0.51100000000E-03 0.  1.
         11   -1    0    0    0    0 -0.00000000000E+00 -0.00000000000E+00 -0.45593999997E+02  0.45594000000E+02  0.51100000000E-03 0. -1.
    9900012    2    1    2    0    0 -0.23670062814E+02  0.81879377955E+01 -0.19733379528E+02  0.59301945579E+02  0.50000002829E+02 0.  0.
        -12    1    1    2    0    0  0.23670062814E+02 -0.81879377955E+01  0.19733379528E+02  0.31886054421E+02  0.00000000000E+00 0.  1.
         11    1    3    3    0    0 -0.57151876702E+01  0.84239006879E+01 -0.68131575998E+01  0.12249268943E+02  0.51100000000E-03 0. -1.
        -11    1    3    3    0    0 -0.28102837168E+02  0.92666065945E+01 -0.25351796140E+01  0.29699605900E+02  0.51100000000E-03 0.  1.
        -12    1    3    3    0    0  0.10147962024E+02 -0.95025694869E+01 -0.10385042314E+02  0.17353070735E+02  0.00000000000E+00 0.  1.
</event>
<event>
 7    1  0.1327607E-011  0.5930195E+02  0.7816164E-02  0.1266605E+00
        -11   -1    0    0    0    0  0.00000000000E+00  0.00000000000E+00  0.45593999997E+02  0.45594000000E+02  0.51100000000E-03 0.  1.
         11   -1    0    0    0    0 -0.00000000000E+00 -0.00000000000E+00 -0.45593999997E+02  0.45594000000E+02  0.51100000000E-03 0. -1.
    9900012    2    1    2    0    0 -0.27539020128E+02  0.86534283678E+01 -0.13544028230E+02  0.59301950498E+02  0.50000011800E+02 0.  0.
        -12    1    1    2    0    0  0.27539020128E+02 -0.86534283678E+01  0.13544028230E+02  0.31886049502E+02  0.00000000000E+00 0.  1.
         11    1    3    3    0    0 -0.23246236928E+02  0.75664664636E+01 -0.11031149905E+02  0.26820238898E+02  0.51100000000E-03 0. -1.
        -11    1    3    3    0    0 -0.83262016291E+01 -0.14034291335E+02  0.13125745111E+01  0.16371005435E+02  0.51100000000E-03 0.  1.
         12    1    3    3    0    0  0.40334184283E+01  0.15121253239E+02 -0.38254528361E+01  0.16110706165E+02  0.00000000000E+00 0. -1.
</event>
<event>
 7    1  0.1327607E-011  0.5930185E+02  0.7816164E-02  0.1266605E+00
        -11   -1    0    0    0    0  0.00000000000E+00  0.00000000000E+00  0.45593999997E+02  0.45594000000E+02  0.51100000000E-03 0.  1.
         11   -1    0    0    0    0 -0.00000000000E+00 -0.00000000000E+00 -0.45593999997E+02  0.45594000000E+02  0.51100000000E-03 0. -1.
    9900012    2    1    2    0    0 -0.65665381495E+01 -0.12651884772E+02 -0.28522564790E+02  0.59301853890E+02  0.49999835611E+02 0.  0.
        -12    1    1    2    0    0  0.65665381495E+01  0.12651884772E+02  0.28522564790E+02  0.31886146110E+02  0.00000000000E+00 0.  1.
         11    1    3    3    0    0 -0.21573421813E+01 -0.44200372526E+01 -0.33824877406E+02  0.34180596636E+02  0.51100000000E-03 0. -1.
        -11    1    3    3    0    0  0.64203967767E+01 -0.95864475067E+01 -0.23721119838E+01  0.11779150483E+02  0.51100000000E-03 0.  1.
        -12    1    3    3    0    0 -0.10829592745E+02  0.13545999872E+01  0.76744246005E+01  0.13342106771E+02  0.00000000000E+00 0.  1.
</event>
<event>
 7    1  0.1327607E-011  0.5930195E+02  0.7816164E-02  0.1266605E+00
        -11   -1    0    0    0    0  0.00000000000E+00  0.00000000000E+00  0.45593999997E+02  0.45594000000E+02  0.51100000000E-03 0.  1.
         11   -1    0    0    0    0 -0.00000000000E+00 -0.00000000000E+00 -0.45593999997E+02  0.45594000000E+02  0.51100000000E-03 0. -1.
    9900012    2    1    2    0    0 -0.20597786727E+02 -0.22358252276E+02  0.96208231769E+01  0.59301945031E+02  0.50000001830E+02 0.  0.
        -12    1    1    2    0    0  0.20597786727E+02  0.22358252276E+02 -0.96208231769E+01  0.31886054969E+02  0.00000000000E+00 0.  1.
         11    1    3    3    0    0  0.32639991644E+01 -0.90000211086E+01  0.14025744963E+02  0.16981625144E+02  0.51100000000E-03 0. -1.
        -11    1    3    3    0    0 -0.51121444606E+01  0.40078618455E+01  0.10785195619E+02  0.12590370223E+02  0.51100000000E-03 0.  1.
         12    1    3    3    0    0 -0.18749641431E+02 -0.17366093013E+02 -0.15190117404E+02  0.29729949665E+02  0.00000000000E+00 0. -1.
</event>
<event>
 7    1  0.1327607E-011  0.5930194E+02  0.7816164E-02  0.1266605E+00
        -11   -1    0    0    0    0  0.00000000000E+00  0.00000000000E+00  0.45593999997E+02  0.45594000000E+02  0.51100000000E-03 0. -1.
         11   -1    0    0    0    0 -0.00000000000E+00 -0.00000000000E+00 -0.45593999997E+02  0.45594000000E+02  0.51100000000E-03 0.  1.
    9900012    2    1    2    0    0 -0.94213921189E+01 -0.78743957276E+01  0.29427060382E+02  0.59301943168E+02  0.49999998432E+02 0.  0.
        -12    1    1    2    0    0  0.94213921189E+01  0.78743957276E+01 -0.29427060382E+02  0.31886056832E+02  0.00000000000E+00 0.  1.
         11    1    3    3    0    0 -0.99322332053E+01 -0.21369917581E+01  0.13444674319E+02  0.16851565447E+02  0.51100000000E-03 0.  1.
        -11    1    3    3    0    0 -0.42594598437E+01 -0.20558160411E+02  0.12762521935E+01  0.21033539349E+02  0.51100000000E-03 0. -1.
        -12    1    3    3    0    0  0.47703009301E+01  0.14820756441E+02  0.14706133870E+02  0.21416838372E+02  0.00000000000E+00 0.  1.
</event>
<event>
 7    1  0.1327607E-011  0.5930197E+02  0.7816164E-02  0.1266605E+00
        -11   -1    0    0    0    0  0.00000000000E+00  0.00000000000E+00  0.45593999997E+02  0.45594000000E+02  0.51100000000E-03 0. -1.
         11   -1    0    0    0    0 -0.00000000000E+00 -0.00000000000E+00 -0.45593999997E+02  0.45594000000E+02  0.51100000000E-03 0.  1.
    9900012    2    1    2    0    0 -0.28103370361E+01 -0.29190296967E+02  0.12519871305E+02  0.59301974710E+02  0.50000055958E+02 0.  0.
        -12    1    1    2    0    0  0.28103370361E+01  0.29190296967E+02 -0.12519871305E+02  0.31886025290E+02  0.00000000000E+00 0.  1.
         11    1    3    3    0    0 -0.11287580147E+01  0.12647572623E+01  0.19799211655E+02  0.19871650360E+02  0.51100000000E-03 0. -1.
        -11    1    3    3    0    0 -0.28679835554E+01 -0.18930150241E+02  0.75765537226E+01  0.20590776682E+02  0.51100000000E-03 0.  1.
        -12    1    3    3    0    0  0.11864045339E+01 -0.11524903988E+02 -0.14855894072E+02  0.18839547668E+02  0.00000000000E+00 0.  1.
</event>
<event>
 7    1  0.1327607E-011  0.5930194E+02  0.7816164E-02  0.1266605E+00
        -11   -1    0    0    0    0  0.00000000000E+00  0.00000000000E+00  0.45593999997E+02  0.45594000000E+02  0.51100000000E-03 0. -1.
         11   -1    0    0    0    0 -0.00000000000E+00 -0.00000000000E+00 -0.45593999997E+02  0.45594000000E+02  0.51100000000E-03 0.  1.
    9900012    2    1    2    0    0  0.19583863150E+02  0.12332499388E+02  0.21934052721E+02  0.59301938691E+02  0.49999990267E+02 0.  0.
        -12    1    1    2    0    0 -0.19583863150E+02 -0.12332499388E+02 -0.21934052721E+02  0.31886061309E+02  0.00000000000E+00 0.  1.
         11    1    3    3    0    0  0.63260467042E+01 -0.82049565180E+01  0.46571427844E+01  0.11359100208E+02  0.51100000000E-03 0. -1.
        -11    1    3    3    0    0  0.16677518064E+02  0.74715819067E+01  0.26062284891E+02  0.31830910118E+02  0.51100000000E-03 0.  1.
        -12    1    3    3    0    0 -0.34197016175E+01  0.13065873999E+02 -0.87853749545E+01  0.16111928364E+02  0.00000000000E+00 0.  1.
</event>
<event>
 7    1  0.1327607E-011  0.5930196E+02  0.7816164E-02  0.1266605E+00
        -11   -1    0    0    0    0  0.00000000000E+00  0.00000000000E+00  0.45593999997E+02  0.45594000000E+02  0.51100000000E-03 0. -1.
         11   -1    0    0    0    0 -0.00000000000E+00 -0.00000000000E+00 -0.45593999997E+02  0.45594000000E+02  0.51100000000E-03 0.  1.
    9900012    2    1    2    0    0 -0.31816388198E+02  0.18155738684E+01 -0.10678868776E+01  0.59301964674E+02  0.50000037654E+02 0.  0.
        -12    1    1    2    0    0  0.31816388198E+02 -0.18155738684E+01  0.10678868776E+01  0.31886035326E+02  0.00000000000E+00 0.  1.
         11    1    3    3    0    0 -0.35093913560E+02  0.11415421166E+02 -0.62237114369E+01  0.37424980877E+02  0.51100000000E-03 0. -1.
        -11    1    3    3    0    0 -0.70578579341E+01 -0.90432900322E+00 -0.71120521499E+00  0.71510127033E+01  0.51100000000E-03 0.  1.
        -12    1    3    3    0    0  0.10335383296E+02 -0.86955182946E+01  0.58670297743E+01  0.14725971094E+02  0.00000000000E+00 0.  1.
</event>
<event>
 7    1  0.1327607E-011  0.5930201E+02  0.7816164E-02  0.1266605E+00
        -11   -1    0    0    0    0  0.00000000000E+00  0.00000000000E+00  0.45593999997E+02  0.45594000000E+02  0.51100000000E-03 0. -1.
         11   -1    0    0    0    0 -0.00000000000E+00 -0.00000000000E+00 -0.45593999997E+02  0.45594000000E+02  0.51100000000E-03 0.  1.
    9900012    2    1    2    0    0 -0.10345299246E+02 -0.35635310721E+01  0.29949833210E+02  0.59302008099E+02  0.50000116851E+02 0.  0.
        -12    1    1    2    0    0  0.10345299246E+02  0.35635310721E+01 -0.29949833210E+02  0.31885991901E+02  0.00000000000E+00 0.  1.
         11    1    3    3    0    0 -0.80046380856E+01 -0.66081600232E+01  0.40319724888E-02  0.10379885659E+02  0.51100000000E-03 0. -1.
        -11    1    3    3    0    0 -0.23488030788E+01 -0.61454972350E+01 -0.77247760320E+01  0.10146732340E+02  0.51100000000E-03 0.  1.
         12    1    3    3    0    0  0.81419185637E-02  0.91901261861E+01  0.37670577270E+02  0.38775390100E+02  0.00000000000E+00 0. -1.
</event>
<event>
 7    1  0.1327607E-011  0.5930193E+02  0.7816164E-02  0.1266605E+00
        -11   -1    0    0    0    0  0.00000000000E+00  0.00000000000E+00  0.45593999997E+02  0.45594000000E+02  0.51100000000E-03 0.  1.
         11   -1    0    0    0    0 -0.00000000000E+00 -0.00000000000E+00 -0.45593999997E+02  0.45594000000E+02  0.51100000000E-03 0. -1.
    9900012    2    1    2    0    0  0.20589965871E+02  0.15144625466E+02 -0.19063453998E+02  0.59301926968E+02  0.49999968887E+02 0.  0.
        -12    1    1    2    0    0 -0.20589965871E+02 -0.15144625466E+02  0.19063453998E+02  0.31886073032E+02  0.00000000000E+00 0.  1.
         11    1    3    3    0    0  0.29190453532E+01  0.17446696254E+02 -0.59737165542E+01  0.18670654131E+02  0.51100000000E-03 0. -1.
        -11    1    3    3    0    0  0.20600356023E+02  0.21236732881E+01  0.53941419930E+01  0.21400500569E+02  0.51100000000E-03 0.  1.
         12    1    3    3    0    0 -0.29294355049E+01 -0.44257440759E+01 -0.18483879436E+02  0.19230772268E+02  0.00000000000E+00 0. -1.
</event>
<event>
 7    1  0.1327607E-011  0.5930196E+02  0.7816164E-02  0.1266605E+00
        -11   -1    0    0    0    0  0.00000000000E+00  0.00000000000E+00  0.45593999997E+02  0.45594000000E+02  0.51100000000E-03 0.  1.
         11   -1    0    0    0    0 -0.00000000000E+00 -0.00000000000E+00 -0.45593999997E+02  0.45594000000E+02  0.51100000000E-03 0. -1.
    9900012    2    1    2    0    0  0.21754382706E+02 -0.21867393260E+02 -0.80798249938E+01  0.59301958746E+02  0.50000026843E+02 0.  0.
        -12    1    1    2    0    0 -0.21754382706E+02  0.21867393260E+02  0.80798249938E+01  0.31886041254E+02  0.00000000000E+00 0.  1.
         11    1    3    3    0    0  0.12615682538E+02 -0.89734557586E+00 -0.17796680732E+02  0.21833060260E+02  0.51100000000E-03 0. -1.
        -11    1    3    3    0    0 -0.10041102674E+02 -0.54916290475E+01  0.18217460426E+01  0.11588808887E+02  0.51100000000E-03 0.  1.
        -12    1    3    3    0    0  0.19179802842E+02 -0.15478418637E+02  0.78951096957E+01  0.25880089599E+02  0.00000000000E+00 0.  1.
</event>
<event>
 7    1  0.1327607E-011  0.5930198E+02  0.7816164E-02  0.1266605E+00
        -11   -1    0    0    0    0  0.00000000000E+00  0.00000000000E+00  0.45593999997E+02  0.45594000000E+02  0.51100000000E-03 0. -1.
         11   -1    0    0    0    0 -0.00000000000E+00 -0.00000000000E+00 -0.45593999997E+02  0.45594000000E+02  0.51100000000E-03 0.  1.
    9900012    2    1    2    0    0 -0.29090905486E+02  0.57093042937E+01 -0.11740581134E+02  0.59301981388E+02  0.50000068137E+02 0.  0.
        -12    1    1    2    0    0  0.29090905486E+02 -0.57093042937E+01  0.11740581134E+02  0.31886018612E+02  0.00000000000E+00 0.  1.
         11    1    3    3    0    0 -0.85211202889E+01 -0.12447008789E+01  0.10948684179E+02  0.13929553358E+02  0.51100000000E-03 0. -1.
        -11    1    3    3    0    0 -0.12604585875E+02  0.18564968901E+02 -0.54096245751E+01  0.23082410915E+02  0.51100000000E-03 0.  1.
        -12    1    3    3    0    0 -0.79651993228E+01 -0.11610963728E+02 -0.17279640738E+02  0.22290017115E+02  0.00000000000E+00 0.  1.
</event>
<event>
 7    1  0.1327607E-011  0.5930209E+02  0.7816164E-02  0.1266604E+00
        -11   -1    0    0    0    0  0.00000000000E+00  0.00000000000E+00  0.45593999997E+02  0.45594000000E+02  0.51100000000E-03 0.  1.
         11   -1    0    0    0    0 -0.00000000000E+00 -0.00000000000E+00 -0.45593999997E+02  0.45594000000E+02  0.51100000000E-03 0. -1.
    9900012    2    1    2    0    0  0.12050882211E+02  0.12564392963E+02 -0.26713737052E+02  0.59302086497E+02  0.50000259830E+02 0.  0.
        -12    1    1    2    0    0 -0.12050882211E+02 -0.12564392963E+02  0.26713737052E+02  0.31885913503E+02  0.00000000000E+00 0.  1.
         11    1    3    3    0    0  0.15461388408E+02  0.71079906854E+01 -0.29220410283E+02  0.33814352581E+02  0.51100000000E-03 0. -1.
        -11    1    3    3    0    0  0.94146703433E+01 -0.22524256965E+01 -0.19493479960E+01  0.98746846563E+01  0.51100000000E-03 0.  1.
        -12    1    3    3    0    0 -0.12825176540E+02  0.77088279745E+01  0.44560212271E+01  0.15613049260E+02  0.00000000000E+00 0.  1.
</event>
<event>
 7    1  0.1327607E-011  0.5930196E+02  0.7816164E-02  0.1266605E+00
        -11   -1    0    0    0    0  0.00000000000E+00  0.00000000000E+00  0.45593999997E+02  0.45594000000E+02  0.51100000000E-03 0. -1.
         11   -1    0    0    0    0 -0.00000000000E+00 -0.00000000000E+00 -0.45593999997E+02  0.45594000000E+02  0.51100000000E-03 0.  1.
    9900012    2    1    2    0    0 -0.93310290950E+01  0.21796911950E+02  0.21320088428E+02  0.59301958460E+02  0.50000026321E+02 0.  0.
        -12    1    1    2    0    0  0.93310290950E+01 -0.21796911950E+02 -0.21320088428E+02  0.31886041540E+02  0.00000000000E+00 0.  1.
         11    1    3    3    0    0  0.74692092635E+01  0.26119510124E+02  0.25317207388E+02  0.37134604970E+02  0.51100000000E-03 0. -1.
        -11    1    3    3    0    0 -0.64649312561E+01 -0.16807733586E+01  0.48936107570E+01  0.82805653026E+01  0.51100000000E-03 0.  1.
        -12    1    3    3    0    0 -0.10335307102E+02 -0.26418248158E+01 -0.88907297168E+01  0.13886788187E+02  0.00000000000E+00 0.  1.
</event>
<event>
 7    1  0.1327607E-011  0.5930196E+02  0.7816164E-02  0.1266605E+00
        -11   -1    0    0    0    0  0.00000000000E+00  0.00000000000E+00  0.45593999997E+02  0.45594000000E+02  0.51100000000E-03 0.  1.
         11   -1    0    0    0    0 -0.00000000000E+00 -0.00000000000E+00 -0.45593999997E+02  0.45594000000E+02  0.51100000000E-03 0. -1.
    9900012    2    1    2    0    0  0.46050488446E+01  0.10637328587E+02 -0.29704554949E+02  0.59301955732E+02  0.50000021346E+02 0.  0.
        -12    1    1    2    0    0 -0.46050488446E+01 -0.10637328587E+02  0.29704554949E+02  0.31886044268E+02  0.00000000000E+00 0.  1.
         11    1    3    3    0    0 -0.42314788482E+01 -0.72399571345E+01 -0.11522433924E+01  0.84646357068E+01  0.51100000000E-03 0.  1.
        -11    1    3    3    0    0  0.19131253936E+02 -0.18636353428E+01 -0.90763826435E+01  0.21256969116E+02  0.51100000000E-03 0. -1.
         12    1    3    3    0    0 -0.10294726243E+02  0.19740921065E+02 -0.19475928913E+02  0.29580350909E+02  0.00000000000E+00 0. -1.
</event>
<event>
 7    1  0.1327607E-011  0.5930195E+02  0.7816164E-02  0.1266605E+00
        -11   -1    0    0    0    0  0.00000000000E+00  0.00000000000E+00  0.45593999997E+02  0.45594000000E+02  0.51100000000E-03 0. -1.
         11   -1    0    0    0    0 -0.00000000000E+00 -0.00000000000E+00 -0.45593999997E+02  0.45594000000E+02  0.51100000000E-03 0.  1.
    9900012    2    1    2    0    0  0.23972367911E+02 -0.16371232579E+02 -0.13191993250E+02  0.59301947166E+02  0.50000005724E+02 0.  0.
        -12    1    1    2    0    0 -0.23972367911E+02  0.16371232579E+02  0.13191993250E+02  0.31886052834E+02  0.00000000000E+00 0.  1.
         11    1    3    3    0    0 -0.12273551781E+01  0.12009397707E+02  0.50936233816E+01  0.13102558278E+02  0.51100000000E-03 0. -1.
        -11    1    3    3    0    0  0.17165504927E+01  0.13006938757E+00 -0.75362051451E+01  0.77303202967E+01  0.51100000000E-03 0.  1.
         12    1    3    3    0    0  0.23483172596E+02 -0.28510699673E+02 -0.10749411487E+02  0.38469068592E+02  0.00000000000E+00 0. -1.
</event>
<event>
 7    1  0.1327607E-011  0.5930194E+02  0.7816164E-02  0.1266605E+00
        -11   -1    0    0    0    0  0.00000000000E+00  0.00000000000E+00  0.45593999997E+02  0.45594000000E+02  0.51100000000E-03 0.  1.
         11   -1    0    0    0    0 -0.00000000000E+00 -0.00000000000E+00 -0.45593999997E+02  0.45594000000E+02  0.51100000000E-03 0. -1.
    9900012    2    1    2    0    0  0.12769998877E+02  0.27014266847E+02 -0.11130032505E+02  0.59301935517E+02  0.49999984479E+02 0.  0.
        -12    1    1    2    0    0 -0.12769998877E+02 -0.27014266847E+02  0.11130032505E+02  0.31886064483E+02  0.00000000000E+00 0.  1.
         11    1    3    3    0    0  0.34720621952E+01 -0.53571441282E+01  0.79225696496E+01  0.10174542703E+02  0.51100000000E-03 0.  1.
        -11    1    3    3    0    0  0.13734234959E+02  0.20296632627E+01 -0.10146343973E+02  0.17195843659E+02  0.51100000000E-03 0. -1.
         12    1    3    3    0    0 -0.44362982769E+01  0.30341747713E+02 -0.89062581821E+01  0.31931549155E+02  0.00000000000E+00 0. -1.
</event>
<event>
 7    1  0.1327607E-011  0.5930194E+02  0.7816164E-02  0.1266605E+00
        -11   -1    0    0    0    0  0.00000000000E+00  0.00000000000E+00  0.45593999997E+02  0.45594000000E+02  0.51100000000E-03 0.  1.
         11   -1    0    0    0    0 -0.00000000000E+00 -0.00000000000E+00 -0.45593999997E+02  0.45594000000E+02  0.51100000000E-03 0. -1.
    9900012    2    1    2    0    0 -0.23406728768E+02  0.20741240874E+02 -0.62166487141E+01  0.59301941199E+02  0.49999994841E+02 0.  0.
        -12    1    1    2    0    0  0.23406728768E+02 -0.20741240874E+02  0.62166487141E+01  0.31886058801E+02  0.00000000000E+00 0.  1.
         11    1    3    3    0    0  0.45476872535E+01  0.11167788323E+01 -0.51041558042E+01  0.69268362945E+01  0.51100000000E-03 0.  1.
        -11    1    3    3    0    0  0.52737145494E+01 -0.62299098102E+01  0.53797076801E+01  0.97757401958E+01  0.51100000000E-03 0. -1.
         12    1    3    3    0    0 -0.33228130571E+02  0.25854371852E+02 -0.64922005899E+01  0.42599364709E+02  0.00000000000E+00 0. -1.
</event>
<event>
 7    1  0.1327607E-011  0.5930196E+02  0.7816164E-02  0.1266605E+00
        -11   -1    0    0    0    0  0.00000000000E+00  0.00000000000E+00  0.45593999997E+02  0.45594000000E+02  0.51100000000E-03 0.  1.
         11   -1    0    0    0    0 -0.00000000000E+00 -0.00000000000E+00 -0.45593999997E+02  0.45594000000E+02  0.51100000000E-03 0. -1.
    9900012    2    1    2    0    0  0.25749475064E+01 -0.29462681349E+02 -0.11918047595E+02  0.59301955946E+02  0.50000021736E+02 0.  0.
        -12    1    1    2    0    0 -0.25749475064E+01  0.29462681349E+02  0.11918047595E+02  0.31886044054E+02  0.00000000000E+00 0.  1.
         11    1    3    3    0    0 -0.40226513976E+01 -0.84260120598E+01  0.11087693468E+02  0.14495390653E+02  0.51100000000E-03 0. -1.
        -11    1    3    3    0    0 -0.88598402448E+01  0.34366357841E+01 -0.57762737115E+01  0.11120817098E+02  0.51100000000E-03 0.  1.
        -12    1    3    3    0    0  0.15457439149E+02 -0.24473305073E+02 -0.17229467351E+02  0.33685748195E+02  0.00000000000E+00 0.  1.
</event>
<event>
 7    1  0.1327607E-011  0.5930194E+02  0.7816164E-02  0.1266605E+00
        -11   -1    0    0    0    0  0.00000000000E+00  0.00000000000E+00  0.45593999997E+02  0.45594000000E+02  0.51100000000E-03 0.  1.
         11   -1    0    0    0    0 -0.00000000000E+00 -0.00000000000E+00 -0.45593999997E+02  0.45594000000E+02  0.51100000000E-03 0. -1.
    9900012    2    1    2    0    0 -0.29632757589E+02  0.29014604283E+01 -0.11410609774E+02  0.59301940188E+02  0.49999992997E+02 0.  0.
        -12    1    1    2    0    0  0.29632757589E+02 -0.29014604283E+01  0.11410609774E+02  0.31886059812E+02  0.00000000000E+00 0.  1.
         11    1    3    3    0    0  0.24388393496E+01 -0.37023173152E+01 -0.18895919101E+01  0.48192996093E+01  0.51100000000E-03 0. -1.
        -11    1    3    3    0    0 -0.15939804015E+02 -0.74016737265E+01  0.14174768233E+02  0.22578445046E+02  0.51100000000E-03 0.  1.
         12    1    3    3    0    0 -0.16131792923E+02  0.14005451470E+02 -0.23695786097E+02  0.31904195532E+02  0.00000000000E+00 0. -1.
</event>
<event>
 7    1  0.1327607E-011  0.5930195E+02  0.7816164E-02  0.1266605E+00
        -11   -1    0    0    0    0  0.00000000000E+00  0.00000000000E+00  0.45593999997E+02  0.45594000000E+02  0.51100000000E-03 0.  1.
         11   -1    0    0    0    0 -0.00000000000E+00 -0.00000000000E+00 -0.45593999997E+02  0.45594000000E+02  0.51100000000E-03 0. -1.
    9900012    2    1    2    0    0  0.23601680925E+02 -0.13819280657E+02 -0.16392332496E+02  0.59301946230E+02  0.50000004016E+02 0.  0.
        -12    1    1    2    0    0 -0.23601680925E+02  0.13819280657E+02  0.16392332496E+02  0.31886053770E+02  0.00000000000E+00 0.  1.
         11    1    3    3    0    0  0.71396774218E+01 -0.11014365569E+02  0.25665188642E+01  0.13374537821E+02  0.51100000000E-03 0. -1.
        -11    1    3    3    0    0 -0.40365699080E+01 -0.16141236779E+02 -0.35196246224E+01  0.17006504024E+02  0.51100000000E-03 0.  1.
        -12    1    3    3    0    0  0.20498573411E+02  0.13336321692E+02 -0.15439226738E+02  0.28920904385E+02  0.00000000000E+00 0.  1.
</event>
<event>
 7    1  0.1327607E-011  0.5930196E+02  0.7816164E-02  0.1266605E+00
        -11   -1    0    0    0    0  0.00000000000E+00  0.00000000000E+00  0.45593999997E+02  0.45594000000E+02  0.51100000000E-03 0. -1.
         11   -1    0    0    0    0 -0.00000000000E+00 -0.00000000000E+00 -0.45593999997E+02  0.45594000000E+02  0.51100000000E-03 0.  1.
    9900012    2    1    2    0    0 -0.25431589567E+02 -0.42089875832E+01  0.18768017639E+02  0.59301955867E+02  0.50000021591E+02 0.  0.
        -12    1    1    2    0    0  0.25431589567E+02  0.42089875832E+01 -0.18768017639E+02  0.31886044133E+02  0.00000000000E+00 0.  1.
         11    1    3    3    0    0  0.74316546982E+01 -0.36704871379E+01 -0.25449570990E-01  0.82887040800E+01  0.51100000000E-03 0.  1.
        -11    1    3    3    0    0 -0.23317055039E+01  0.12857552808E+02  0.10215294949E+02  0.16586312608E+02  0.51100000000E-03 0. -1.
         12    1    3    3    0    0 -0.30531538761E+02 -0.13396053253E+02  0.85781722611E+01  0.34426939179E+02  0.00000000000E+00 0. -1.
</event>
<event>
 7    1  0.1327607E-011  0.5930195E+02  0.7816164E-02  0.1266605E+00
        -11   -1    0    0    0    0  0.00000000000E+00  0.00000000000E+00  0.45593999997E+02  0.45594000000E+02  0.51100000000E-03 0. -1.
         11   -1    0    0    0    0 -0.00000000000E+00 -0.00000000000E+00 -0.45593999997E+02  0.45594000000E+02  0.51100000000E-03 0.  1.
    9900012    2    1    2    0    0 -0.87444101333E+01 -0.26430865197E+02  0.15545572716E+02  0.59301950155E+02  0.50000011175E+02 0.  0.
        -12    1    1    2    0    0  0.87444101333E+01  0.26430865197E+02 -0.15545572716E+02  0.31886049845E+02  0.00000000000E+00 0.  1.
         11    1    3    3    0    0 -0.29028765453E+01  0.64168828690E+01 -0.35408710161E+01  0.78829465180E+01  0.51100000000E-03 0. -1.
        -11    1    3    3    0    0 -0.10009506809E+02  0.31668913016E+01  0.11255683569E+00  0.10499147412E+02  0.51100000000E-03 0.  1.
         12    1    3    3    0    0  0.41679732214E+01 -0.36014639367E+02  0.18973886896E+02  0.40919856225E+02  0.00000000000E+00 0. -1.
</event>
<event>
 7    1  0.1327607E-011  0.5930198E+02  0.7816164E-02  0.1266605E+00
        -11   -1    0    0    0    0  0.00000000000E+00  0.00000000000E+00  0.45593999997E+02  0.45594000000E+02  0.51100000000E-03 0. -1.
         11   -1    0    0    0    0 -0.00000000000E+00 -0.00000000000E+00 -0.45593999997E+02  0.45594000000E+02  0.51100000000E-03 0.  1.
    9900012    2    1    2    0    0 -0.81084257926E+01  0.82260495815E+01  0.29720427716E+02  0.59301979801E+02  0.50000065241E+02 0.  0.
        -12    1    1    2    0    0  0.81084257926E+01 -0.82260495815E+01 -0.29720427716E+02  0.31886020199E+02  0.00000000000E+00 0.  1.
         11    1    3    3    0    0  0.59591902146E+01 -0.51809311149E+01  0.18401068212E+02  0.20023818488E+02  0.51100000000E-03 0. -1.
        -11    1    3    3    0    0 -0.63451672188E+00 -0.10318186740E+02  0.27090975526E+01  0.10686758109E+02  0.51100000000E-03 0.  1.
         12    1    3    3    0    0 -0.13433099285E+02  0.23725167436E+02  0.86102619512E+01  0.28591403204E+02  0.00000000000E+00 0. -1.
</event>
<event>
 7    1  0.1327607E-011  0.5930195E+02  0.7816164E-02  0.1266605E+00
        -11   -1    0    0    0    0  0.00000000000E+00  0.00000000000E+00  0.45593999997E+02  0.45594000000E+02  0.51100000000E-03 0.  1.
         11   -1    0    0    0    0 -0.00000000000E+00 -0.00000000000E+00 -0.45593999997E+02  0.45594000000E+02  0.51100000000E-03 0. -1.
    9900012    2    1    2    0    0 -0.16241299692E+02 -0.20990372941E+02 -0.17673267575E+02  0.59301953543E+02  0.50000017354E+02 0.  0.
        -12    1    1    2    0    0  0.16241299692E+02  0.20990372941E+02  0.17673267575E+02  0.31886046457E+02  0.00000000000E+00 0.  1.
         11    1    3    3    0    0 -0.23249006238E+02  0.11535883777E+01 -0.16742811336E+02  0.28673485817E+02  0.51100000000E-03 0. -1.
        -11    1    3    3    0    0 -0.57640753305E+01 -0.44421438233E+01  0.39228720414E+01  0.82671719153E+01  0.51100000000E-03 0.  1.
         12    1    3    3    0    0  0.12771781876E+02 -0.17701817495E+02 -0.48533282796E+01  0.22361295810E+02  0.00000000000E+00 0. -1.
</event>
<event>
 7    1  0.1327607E-011  0.5930195E+02  0.7816164E-02  0.1266605E+00
        -11   -1    0    0    0    0  0.00000000000E+00  0.00000000000E+00  0.45593999997E+02  0.45594000000E+02  0.51100000000E-03 0.  1.
         11   -1    0    0    0    0 -0.00000000000E+00 -0.00000000000E+00 -0.45593999997E+02  0.45594000000E+02  0.51100000000E-03 0. -1.
    9900012    2    1    2    0    0 -0.30676850095E+02  0.85177898450E+01 -0.17602358202E+01  0.59301948101E+02  0.50000007428E+02 0.  0.
        -12    1    1    2    0    0  0.30676850095E+02 -0.85177898450E+01  0.17602358202E+01  0.31886051899E+02  0.00000000000E+00 0.  1.
         11    1    3    3    0    0  0.67729479921E+01  0.91591556156E+01 -0.96692338120E+01  0.14941788342E+02  0.51100000000E-03 0. -1.
        -11    1    3    3    0    0  0.79127555994E+00  0.34605348948E+01  0.45248155668E+01  0.57511194514E+01  0.51100000000E-03 0.  1.
        -12    1    3    3    0    0 -0.38241073647E+02 -0.41019006654E+01  0.33841824249E+01  0.38609040307E+02  0.00000000000E+00 0.  1.
</event>
<event>
 7    1  0.1327607E-011  0.5930195E+02  0.7816164E-02  0.1266605E+00
        -11   -1    0    0    0    0  0.00000000000E+00  0.00000000000E+00  0.45593999997E+02  0.45594000000E+02  0.51100000000E-03 0.  1.
         11   -1    0    0    0    0 -0.00000000000E+00 -0.00000000000E+00 -0.45593999997E+02  0.45594000000E+02  0.51100000000E-03 0. -1.
    9900012    2    1    2    0    0  0.10497026488E+02  0.19854173282E+02 -0.22635020457E+02  0.59301954260E+02  0.50000018662E+02 0.  0.
        -12    1    1    2    0    0 -0.10497026488E+02 -0.19854173282E+02  0.22635020457E+02  0.31886045740E+02  0.00000000000E+00 0.  1.
         11    1    3    3    0    0  0.15612426017E+02  0.17296670755E+02 -0.95442613142E+01  0.25179666194E+02  0.51100000000E-03 0.  1.
        -11    1    3    3    0    0 -0.12542716581E+02  0.41624676671E+01 -0.19920394417E+02  0.23905396677E+02  0.51100000000E-03 0. -1.
         12    1    3    3    0    0  0.74273170520E+01 -0.16049651395E+01  0.68296352741E+01  0.10216891390E+02  0.00000000000E+00 0. -1.
</event>
<event>
 7    1  0.1327607E-011  0.5930193E+02  0.7816164E-02  0.1266605E+00
        -11   -1    0    0    0    0  0.00000000000E+00  0.00000000000E+00  0.45593999997E+02  0.45594000000E+02  0.51100000000E-03 0.  1.
         11   -1    0    0    0    0 -0.00000000000E+00 -0.00000000000E+00 -0.45593999997E+02  0.45594000000E+02  0.51100000000E-03 0. -1.
    9900012    2    1    2    0    0  0.31589934202E+02 -0.11214458049E+01 -0.41880469926E+01  0.59301932177E+02  0.49999978387E+02 0.  0.
        -12    1    1    2    0    0 -0.31589934202E+02  0.11214458049E+01  0.41880469926E+01  0.31886067823E+02  0.00000000000E+00 0.  1.
         11    1    3    3    0    0  0.34345261362E+01 -0.43607902435E+01 -0.13744967716E+01  0.57185402826E+01  0.51100000000E-03 0. -1.
        -11    1    3    3    0    0 -0.46517390866E+01 -0.11476994577E+02 -0.11160281019E+02  0.16670691460E+02  0.51100000000E-03 0.  1.
        -12    1    3    3    0    0  0.32807147153E+02  0.14716339016E+02  0.83467307984E+01  0.36912700434E+02  0.00000000000E+00 0.  1.
</event>
<event>
 7    1  0.1327607E-011  0.5930190E+02  0.7816164E-02  0.1266605E+00
        -11   -1    0    0    0    0  0.00000000000E+00  0.00000000000E+00  0.45593999997E+02  0.45594000000E+02  0.51100000000E-03 0.  1.
         11   -1    0    0    0    0 -0.00000000000E+00 -0.00000000000E+00 -0.45593999997E+02  0.45594000000E+02  0.51100000000E-03 0. -1.
    9900012    2    1    2    0    0 -0.18022187750E+02  0.22031804536E+02 -0.14370931896E+02  0.59301900427E+02  0.49999920482E+02 0.  0.
        -12    1    1    2    0    0  0.18022187750E+02 -0.22031804536E+02  0.14370931896E+02  0.31886099573E+02  0.00000000000E+00 0.  1.
         11    1    3    3    0    0 -0.27089244467E+02  0.96729668785E+01 -0.23749998857E+02  0.37302223794E+02  0.51100000000E-03 0. -1.
        -11    1    3    3    0    0  0.53121738334E+01 -0.75051485145E+00 -0.14437485222E+00  0.53668713174E+01  0.51100000000E-03 0.  1.
        -12    1    3    3    0    0  0.37548828835E+01  0.13109352509E+02  0.95234418133E+01  0.16632805315E+02  0.00000000000E+00 0.  1.
</event>
<event>
 7    1  0.1327607E-011  0.5930202E+02  0.7816164E-02  0.1266604E+00
        -11   -1    0    0    0    0  0.00000000000E+00  0.00000000000E+00  0.45593999997E+02  0.45594000000E+02  0.51100000000E-03 0.  1.
         11   -1    0    0    0    0 -0.00000000000E+00 -0.00000000000E+00 -0.45593999997E+02  0.45594000000E+02  0.51100000000E-03 0. -1.
    9900012    2    1    2    0    0 -0.82872757597E+00  0.12704076095E+02 -0.29234143150E+02  0.59302024014E+02  0.50000145876E+02 0.  0.
        -12    1    1    2    0    0  0.82872757597E+00 -0.12704076095E+02  0.29234143150E+02  0.31885975986E+02  0.00000000000E+00 0.  1.
         11    1    3    3    0    0 -0.12401401325E+01  0.12753771224E+02 -0.11703513098E+02  0.17354216983E+02  0.51100000000E-03 0. -1.
        -11    1    3    3    0    0 -0.10235589585E+02  0.96345907017E+01  0.52469650547E+01  0.15004108594E+02  0.51100000000E-03 0.  1.
        -12    1    3    3    0    0  0.10647002142E+02 -0.96842858308E+01 -0.22777595107E+02  0.26943698438E+02  0.00000000000E+00 0.  1.
</event>
<event>
 7    1  0.1327607E-011  0.5930194E+02  0.7816164E-02  0.1266605E+00
        -11   -1    0    0    0    0  0.00000000000E+00  0.00000000000E+00  0.45593999997E+02  0.45594000000E+02  0.51100000000E-03 0.  1.
         11   -1    0    0    0    0 -0.00000000000E+00 -0.00000000000E+00 -0.45593999997E+02  0.45594000000E+02  0.51100000000E-03 0. -1.
    9900012    2    1    2    0    0 -0.27752984656E+02  0.86430582416E+01 -0.13106882767E+02  0.59301937387E+02  0.49999987890E+02 0.  0.
        -12    1    1    2    0    0  0.27752984656E+02 -0.86430582416E+01  0.13106882767E+02  0.31886062613E+02  0.00000000000E+00 0.  1.
         11    1    3    3    0    0  0.31795233419E+01  0.54425905160E+00 -0.20409130712E+02  0.20662482989E+02  0.51100000000E-03 0. -1.
        -11    1    3    3    0    0 -0.17065595479E+02  0.11030687338E+02 -0.37535520443E+01  0.20663972644E+02  0.51100000000E-03 0.  1.
        -12    1    3    3    0    0 -0.13866912518E+02 -0.29318881478E+01  0.11055799989E+02  0.17975481755E+02  0.00000000000E+00 0.  1.
</event>
<event>
 7    1  0.1327607E-011  0.5930193E+02  0.7816164E-02  0.1266605E+00
        -11   -1    0    0    0    0  0.00000000000E+00  0.00000000000E+00  0.45593999997E+02  0.45594000000E+02  0.51100000000E-03 0.  1.
         11   -1    0    0    0    0 -0.00000000000E+00 -0.00000000000E+00 -0.45593999997E+02  0.45594000000E+02  0.51100000000E-03 0. -1.
    9900012    2    1    2    0    0 -0.22269738873E+01 -0.20758533100E+01 -0.31740396004E+02  0.59301932225E+02  0.49999978475E+02 0.  0.
        -12    1    1    2    0    0  0.22269738873E+01  0.20758533100E+01  0.31740396004E+02  0.31886067775E+02  0.00000000000E+00 0.  1.
         11    1    3    3    0    0 -0.16306302347E+02  0.27326398693E+01 -0.22682010778E+01  0.16688545571E+02  0.51100000000E-03 0. -1.
        -11    1    3    3    0    0 -0.56234348552E+01 -0.90136610876E+01 -0.97284640760E+01  0.14405280952E+02  0.51100000000E-03 0.  1.
        -12    1    3    3    0    0  0.19702763315E+02  0.42051679083E+01 -0.19743730850E+02  0.28208105702E+02  0.00000000000E+00 0.  1.
</event>
<event>
 7    1  0.1327607E-011  0.5930187E+02  0.7816164E-02  0.1266605E+00
        -11   -1    0    0    0    0  0.00000000000E+00  0.00000000000E+00  0.45593999997E+02  0.45594000000E+02  0.51100000000E-03 0. -1.
         11   -1    0    0    0    0 -0.00000000000E+00 -0.00000000000E+00 -0.45593999997E+02  0.45594000000E+02  0.51100000000E-03 0.  1.
    9900012    2    1    2    0    0 -0.12030100625E+02  0.17047503307E+02  0.24111917677E+02  0.59301870349E+02  0.49999865628E+02 0.  0.
        -12    1    1    2    0    0  0.12030100625E+02 -0.17047503307E+02 -0.24111917677E+02  0.31886129651E+02  0.00000000000E+00 0.  1.
         11    1    3    3    0    0  0.75122207598E+01  0.12339826514E+02  0.18480897589E+02  0.23457373150E+02  0.51100000000E-03 0. -1.
        -11    1    3    3    0    0 -0.81160653925E+01  0.16245930569E+02  0.71885661794E+01  0.19531417293E+02  0.51100000000E-03 0.  1.
        -12    1    3    3    0    0 -0.11426255993E+02 -0.11538253776E+02 -0.15575460912E+01  0.16313079907E+02  0.00000000000E+00 0.  1.
</event>
<event>
 7    1  0.1327607E-011  0.5930193E+02  0.7816164E-02  0.1266605E+00
        -11   -1    0    0    0    0  0.00000000000E+00  0.00000000000E+00  0.45593999997E+02  0.45594000000E+02  0.51100000000E-03 0. -1.
         11   -1    0    0    0    0 -0.00000000000E+00 -0.00000000000E+00 -0.45593999997E+02  0.45594000000E+02  0.51100000000E-03 0.  1.
    9900012    2    1    2    0    0  0.17211278292E+02  0.21326620745E+02  0.16299339116E+02  0.59301932377E+02  0.49999978752E+02 0.  0.
        -12    1    1    2    0    0 -0.17211278292E+02 -0.21326620745E+02 -0.16299339116E+02  0.31886067623E+02  0.00000000000E+00 0.  1.
         11    1    3    3    0    0  0.20121113890E+02  0.25088276819E+02  0.90940534932E+01  0.33421290626E+02  0.51100000000E-03 0. -1.
        -11    1    3    3    0    0  0.74760533112E+01  0.61606655222E+01 -0.26375602691E+00  0.96909617836E+01  0.51100000000E-03 0.  1.
        -12    1    3    3    0    0 -0.10385888909E+02 -0.99223215964E+01  0.74690416494E+01  0.16189679967E+02  0.00000000000E+00 0.  1.
</event>
<event>
 7    1  0.1327607E-011  0.5930195E+02  0.7816164E-02  0.1266605E+00
        -11   -1    0    0    0    0  0.00000000000E+00  0.00000000000E+00  0.45593999997E+02  0.45594000000E+02  0.51100000000E-03 0. -1.
         11   -1    0    0    0    0 -0.00000000000E+00 -0.00000000000E+00 -0.45593999997E+02  0.45594000000E+02  0.51100000000E-03 0.  1.
    9900012    2    1    2    0    0 -0.17505857766E+02  0.24245930449E+02 -0.11063453471E+02  0.59301949724E+02  0.50000010390E+02 0.  0.
        -12    1    1    2    0    0  0.17505857766E+02 -0.24245930449E+02  0.11063453471E+02  0.31886050276E+02  0.00000000000E+00 0.  1.
         11    1    3    3    0    0 -0.33991507632E+01  0.26471984205E+02 -0.14232698549E+00  0.26689706459E+02  0.51100000000E-03 0. -1.
        -11    1    3    3    0    0  0.47370702467E+01  0.60698257211E+01  0.24292571595E+01  0.80736552698E+01  0.51100000000E-03 0.  1.
        -12    1    3    3    0    0 -0.18843777250E+02 -0.82958794770E+01 -0.13350383645E+02  0.24538587996E+02  0.00000000000E+00 0.  1.
</event>
<event>
 7    1  0.1327607E-011  0.5930194E+02  0.7816164E-02  0.1266605E+00
        -11   -1    0    0    0    0  0.00000000000E+00  0.00000000000E+00  0.45593999997E+02  0.45594000000E+02  0.51100000000E-03 0.  1.
         11   -1    0    0    0    0 -0.00000000000E+00 -0.00000000000E+00 -0.45593999997E+02  0.45594000000E+02  0.51100000000E-03 0. -1.
    9900012    2    1    2    0    0  0.55069442529E+01 -0.28731850183E+02 -0.12683660654E+02  0.59301938821E+02  0.49999990504E+02 0.  0.
        -12    1    1    2    0    0 -0.55069442529E+01  0.28731850183E+02  0.12683660654E+02  0.31886061179E+02  0.00000000000E+00 0.  1.
         11    1    3    3    0    0 -0.32017287693E+01 -0.27866733255E+02  0.26262596929E+01  0.28172737347E+02  0.51100000000E-03 0. -1.
        -11    1    3    3    0    0  0.72390953199E+01 -0.18239198956E+01  0.61042316312E+01  0.96432789498E+01  0.51100000000E-03 0.  1.
         12    1    3    3    0    0  0.14695777023E+01  0.95880296717E+00 -0.21414151978E+02  0.21485922524E+02  0.00000000000E+00 0. -1.
</event>
<event>
 7    1  0.1327607E-011  0.5930197E+02  0.7816164E-02  0.1266605E+00
        -11   -1    0    0    0    0  0.00000000000E+00  0.00000000000E+00  0.45593999997E+02  0.45594000000E+02  0.51100000000E-03 0.  1.
         11   -1    0    0    0    0 -0.00000000000E+00 -0.00000000000E+00 -0.45593999997E+02  0.45594000000E+02  0.51100000000E-03 0. -1.
    9900012    2    1    2    0    0  0.95104657923E+01  0.18628242960E+02 -0.24067788581E+02  0.59301971045E+02  0.50000049273E+02 0.  0.
        -12    1    1    2    0    0 -0.95104657923E+01 -0.18628242960E+02  0.24067788581E+02  0.31886028955E+02  0.00000000000E+00 0.  1.
         11    1    3    3    0    0  0.38835766388E+00 -0.20300308850E+01  0.28271842311E+01  0.35021162184E+01  0.51100000000E-03 0. -1.
        -11    1    3    3    0    0  0.20974353318E+02  0.13146871469E+02  0.78483946433E+00  0.24766503585E+02  0.51100000000E-03 0.  1.
         12    1    3    3    0    0 -0.11852245190E+02  0.75114023752E+01 -0.27679812276E+02  0.31033351242E+02  0.00000000000E+00 0. -1.
</event>
<event>
 7    1  0.1327607E-011  0.5930203E+02  0.7816164E-02  0.1266604E+00
        -11   -1    0    0    0    0  0.00000000000E+00  0.00000000000E+00  0.45593999997E+02  0.45594000000E+02  0.51100000000E-03 0. -1.
         11   -1    0    0    0    0 -0.00000000000E+00 -0.00000000000E+00 -0.45593999997E+02  0.45594000000E+02  0.51100000000E-03 0.  1.
    9900012    2    1    2    0    0  0.27093077915E+02 -0.42334010647E+01  0.16271409301E+02  0.59302026341E+02  0.50000150120E+02 0.  0.
        -12    1    1    2    0    0 -0.27093077915E+02  0.42334010647E+01 -0.16271409301E+02  0.31885973659E+02  0.00000000000E+00 0.  1.
         11    1    3    3    0    0 -0.11443995717E+02 -0.31954929442E+01  0.59681466617E+01  0.13296427639E+02  0.51100000000E-03 0. -1.
        -11    1    3    3    0    0  0.93536587475E+01 -0.39521351237E+01 -0.66419964975E+01  0.12133689535E+02  0.51100000000E-03 0.  1.
         12    1    3    3    0    0  0.29183414885E+02  0.29142270031E+01  0.16945259137E+02  0.33871909167E+02  0.00000000000E+00 0. -1.
</event>
<event>
 7    1  0.1327607E-011  0.5930197E+02  0.7816164E-02  0.1266605E+00
        -11   -1    0    0    0    0  0.00000000000E+00  0.00000000000E+00  0.45593999997E+02  0.45594000000E+02  0.51100000000E-03 0. -1.
         11   -1    0    0    0    0 -0.00000000000E+00 -0.00000000000E+00 -0.45593999997E+02  0.45594000000E+02  0.51100000000E-03 0.  1.
    9900012    2    1    2    0    0  0.22054904696E+02 -0.22924744367E+02 -0.21808907472E+01  0.59301968421E+02  0.50000044487E+02 0.  0.
        -12    1    1    2    0    0 -0.22054904696E+02  0.22924744367E+02  0.21808907472E+01  0.31886031579E+02  0.00000000000E+00 0.  1.
         11    1    3    3    0    0  0.45074587762E+01  0.78344148606E+01 -0.17191514521E+01  0.92005827426E+01  0.51100000000E-03 0. -1.
        -11    1    3    3    0    0  0.25844862021E+02 -0.25084589842E+02 -0.87598792171E+01  0.37066548593E+02  0.51100000000E-03 0.  1.
         12    1    3    3    0    0 -0.82974161018E+01 -0.56745693858E+01  0.82981399221E+01  0.13034837086E+02  0.00000000000E+00 0. -1.
</event>
<event>
 7    1  0.1327607E-011  0.5930194E+02  0.7816164E-02  0.1266605E+00
        -11   -1    0    0    0    0  0.00000000000E+00  0.00000000000E+00  0.45593999997E+02  0.45594000000E+02  0.51100000000E-03 0.  1.
         11   -1    0    0    0    0 -0.00000000000E+00 -0.00000000000E+00 -0.45593999997E+02  0.45594000000E+02  0.51100000000E-03 0. -1.
    9900012    2    1    2    0    0  0.68419016448E+01 -0.56232177552E+01 -0.30631493866E+02  0.59301943291E+02  0.49999998655E+02 0.  0.
        -12    1    1    2    0    0 -0.68419016448E+01  0.56232177552E+01  0.30631493866E+02  0.31886056709E+02  0.00000000000E+00 0.  1.
         11    1    3    3    0    0 -0.33836142799E+01 -0.24815773748E+01 -0.26152814678E+01  0.49443674296E+01  0.51100000000E-03 0. -1.
        -11    1    3    3    0    0 -0.12486868750E+02 -0.49824235418E+01  0.49122766343E+01  0.14313521493E+02  0.51100000000E-03 0.  1.
         12    1    3    3    0    0  0.22712384675E+02  0.18407831615E+01 -0.32928489032E+02  0.40044054368E+02  0.00000000000E+00 0. -1.
</event>
<event>
 7    1  0.1327607E-011  0.5930194E+02  0.7816164E-02  0.1266605E+00
        -11   -1    0    0    0    0  0.00000000000E+00  0.00000000000E+00  0.45593999997E+02  0.45594000000E+02  0.51100000000E-03 0. -1.
         11   -1    0    0    0    0 -0.00000000000E+00 -0.00000000000E+00 -0.45593999997E+02  0.45594000000E+02  0.51100000000E-03 0.  1.
    9900012    2    1    2    0    0  0.18567533796E+02 -0.21647211939E+02 -0.14260634008E+02  0.59301940690E+02  0.49999993913E+02 0.  0.
        -12    1    1    2    0    0 -0.18567533796E+02  0.21647211939E+02  0.14260634008E+02  0.31886059310E+02  0.00000000000E+00 0.  1.
         11    1    3    3    0    0  0.14676620360E+02  0.24124027953E+01  0.10464563566E+02  0.18185982605E+02  0.51100000000E-03 0. -1.
        -11    1    3    3    0    0 -0.83089047050E+01 -0.14760537997E+02 -0.16771319097E+02  0.23836705391E+02  0.51100000000E-03 0.  1.
         12    1    3    3    0    0  0.12199818142E+02 -0.92990767374E+01 -0.79538784758E+01  0.17279252694E+02  0.00000000000E+00 0. -1.
</event>
<event>
 7    1  0.1327607E-011  0.5930194E+02  0.7816164E-02  0.1266605E+00
        -11   -1    0    0    0    0  0.00000000000E+00  0.00000000000E+00  0.45593999997E+02  0.45594000000E+02  0.51100000000E-03 0.  1.
         11   -1    0    0    0    0 -0.00000000000E+00 -0.00000000000E+00 -0.45593999997E+02  0.45594000000E+02  0.51100000000E-03 0. -1.
    9900012    2    1    2    0    0 -0.15415333457E+02  0.23098740546E+02 -0.15669608148E+02  0.59301938156E+02  0.49999989291E+02 0.  0.
        -12    1    1    2    0    0  0.15415333457E+02 -0.23098740546E+02  0.15669608148E+02  0.31886061844E+02  0.00000000000E+00 0.  1.
         11    1    3    3    0    0 -0.15552838039E+01 -0.41325325274E+01  0.57175144624E+01  0.72240365925E+01  0.51100000000E-03 0. -1.
        -11    1    3    3    0    0  0.15066876151E+01 -0.39219755055E+01  0.63578692210E+01  0.76206627486E+01  0.51100000000E-03 0.  1.
         12    1    3    3    0    0 -0.15366737268E+02  0.31153248579E+02 -0.27744991832E+02  0.44457238815E+02  0.00000000000E+00 0. -1.
</event>
<event>
 7    1  0.1327607E-011  0.5930194E+02  0.7816164E-02  0.1266605E+00
        -11   -1    0    0    0    0  0.00000000000E+00  0.00000000000E+00  0.45593999997E+02  0.45594000000E+02  0.51100000000E-03 0.  1.
         11   -1    0    0    0    0 -0.00000000000E+00 -0.00000000000E+00 -0.45593999997E+02  0.45594000000E+02  0.51100000000E-03 0. -1.
    9900012    2    1    2    0    0  0.13581218669E+02  0.76621485413E+01 -0.27813000364E+02  0.59301937056E+02  0.49999987286E+02 0.  0.
        -12    1    1    2    0    0 -0.13581218669E+02 -0.76621485413E+01  0.27813000364E+02  0.31886062944E+02  0.00000000000E+00 0.  1.
         11    1    3    3    0    0  0.15991134382E+01  0.56878996983E+01 -0.76914620728E+01  0.96988636368E+01  0.51100000000E-03 0. -1.
        -11    1    3    3    0    0 -0.11563750317E+02  0.13565398628E+02 -0.25192906330E+01  0.18002421695E+02  0.51100000000E-03 0.  1.
        -12    1    3    3    0    0  0.23545855548E+02 -0.11591149785E+02 -0.17602247658E+02  0.31600651725E+02  0.00000000000E+00 0.  1.
</event>
<event>
 7    1  0.1327607E-011  0.5930195E+02  0.7816164E-02  0.1266605E+00
        -11   -1    0    0    0    0  0.00000000000E+00  0.00000000000E+00  0.45593999997E+02  0.45594000000E+02  0.51100000000E-03 0.  1.
         11   -1    0    0    0    0 -0.00000000000E+00 -0.00000000000E+00 -0.45593999997E+02  0.45594000000E+02  0.51100000000E-03 0. -1.
    9900012    2    1    2    0    0  0.14060726967E+02 -0.28475283438E+02 -0.28590739116E+01  0.59301951117E+02  0.50000012930E+02 0.  0.
        -12    1    1    2    0    0 -0.14060726967E+02  0.28475283438E+02  0.28590739116E+01  0.31886048883E+02  0.00000000000E+00 0.  1.
         11    1    3    3    0    0 -0.18890397156E-01 -0.51215626648E+01  0.17946234868E+01  0.54269176055E+01  0.51100000000E-03 0. -1.
        -11    1    3    3    0    0  0.22999870092E+02 -0.22426547717E+02  0.12538568868E+02  0.34484196037E+02  0.51100000000E-03 0.  1.
         12    1    3    3    0    0 -0.89202527280E+01 -0.92717305622E+00 -0.17192266267E+02  0.19390837475E+02  0.00000000000E+00 0. -1.
</event>
<event>
 7    1  0.1327607E-011  0.5930195E+02  0.7816164E-02  0.1266605E+00
        -11   -1    0    0    0    0  0.00000000000E+00  0.00000000000E+00  0.45593999997E+02  0.45594000000E+02  0.51100000000E-03 0.  1.
         11   -1    0    0    0    0 -0.00000000000E+00 -0.00000000000E+00 -0.45593999997E+02  0.45594000000E+02  0.51100000000E-03 0. -1.
    9900012    2    1    2    0    0 -0.61554397111E+01 -0.28836000995E+02 -0.12137365991E+02  0.59301952195E+02  0.50000014895E+02 0.  0.
        -12    1    1    2    0    0  0.61554397111E+01  0.28836000995E+02  0.12137365991E+02  0.31886047805E+02  0.00000000000E+00 0.  1.
         11    1    3    3    0    0  0.49422864036E+01  0.33013775346E+01 -0.12565153207E+02  0.13899941147E+02  0.51100000000E-03 0.  1.
        -11    1    3    3    0    0 -0.40545961474E+01  0.32775344162E+01 -0.68086777041E+01  0.85755509507E+01  0.51100000000E-03 0. -1.
         12    1    3    3    0    0 -0.70431299672E+01 -0.35414912946E+02  0.72364649203E+01  0.36826460097E+02  0.00000000000E+00 0. -1.
</event>
<event>
 7    1  0.1327607E-011  0.5930187E+02  0.7816164E-02  0.1266605E+00
        -11   -1    0    0    0    0  0.00000000000E+00  0.00000000000E+00  0.45593999997E+02  0.45594000000E+02  0.51100000000E-03 0.  1.
         11   -1    0    0    0    0 -0.00000000000E+00 -0.00000000000E+00 -0.45593999997E+02  0.45594000000E+02  0.51100000000E-03 0. -1.
    9900012    2    1    2    0    0  0.10779220901E+01  0.19238862074E+02 -0.25405309232E+02  0.59301867166E+02  0.49999859823E+02 0.  0.
        -12    1    1    2    0    0 -0.10779220901E+01 -0.19238862074E+02  0.25405309232E+02  0.31886132834E+02  0.00000000000E+00 0.  1.
         11    1    3    3    0    0  0.98074156797E+01  0.70058788063E+01 -0.29057959945E+02  0.31458429341E+02  0.51100000000E-03 0. -1.
        -11    1    3    3    0    0 -0.60954680846E+01  0.17136638082E+02 -0.37605125376E+01  0.18573113652E+02  0.51100000000E-03 0.  1.
        -12    1    3    3    0    0 -0.26340255049E+01 -0.49036548144E+01  0.74131632505E+01  0.92703241733E+01  0.00000000000E+00 0.  1.
</event>
<event>
 7    1  0.1327607E-011  0.5930206E+02  0.7816164E-02  0.1266604E+00
        -11   -1    0    0    0    0  0.00000000000E+00  0.00000000000E+00  0.45593999997E+02  0.45594000000E+02  0.51100000000E-03 0. -1.
         11   -1    0    0    0    0 -0.00000000000E+00 -0.00000000000E+00 -0.45593999997E+02  0.45594000000E+02  0.51100000000E-03 0.  1.
    9900012    2    1    2    0    0 -0.20550425820E+02 -0.21308447071E+02  0.11846662972E+02  0.59302057305E+02  0.50000206589E+02 0.  0.
        -12    1    1    2    0    0  0.20550425820E+02  0.21308447071E+02 -0.11846662972E+02  0.31885942695E+02  0.00000000000E+00 0.  1.
         11    1    3    3    0    0 -0.19998790705E+02 -0.85284275106E+01 -0.73574357246E+01  0.22952506751E+02  0.51100000000E-03 0. -1.
        -11    1    3    3    0    0 -0.62757468452E+01  0.72833310888E+01  0.88084031741E+01  0.13039167034E+02  0.51100000000E-03 0.  1.
        -12    1    3    3    0    0  0.57241117297E+01 -0.20063350650E+02  0.10395695523E+02  0.23310383519E+02  0.00000000000E+00 0.  1.
</event>
<event>
 7    1  0.1327607E-011  0.5930196E+02  0.7816164E-02  0.1266605E+00
        -11   -1    0    0    0    0  0.00000000000E+00  0.00000000000E+00  0.45593999997E+02  0.45594000000E+02  0.51100000000E-03 0.  1.
         11   -1    0    0    0    0 -0.00000000000E+00 -0.00000000000E+00 -0.45593999997E+02  0.45594000000E+02  0.51100000000E-03 0. -1.
    9900012    2    1    2    0    0  0.17231634559E+02 -0.25266732081E+02 -0.90212448206E+01  0.59301955439E+02  0.50000020811E+02 0.  0.
        -12    1    1    2    0    0 -0.17231634559E+02  0.25266732081E+02  0.90212448206E+01  0.31886044561E+02  0.00000000000E+00 0.  1.
         11    1    3    3    0    0 -0.22247109155E+01 -0.18983949338E+02  0.24262409261E+00  0.19115400541E+02  0.51100000000E-03 0.  1.
        -11    1    3    3    0    0  0.12010804391E+02 -0.18900226309E+02  0.80747196957E+00  0.22408257136E+02  0.51100000000E-03 0. -1.
        -12    1    3    3    0    0  0.74455410830E+01  0.12617443565E+02 -0.10071340883E+02  0.17778297762E+02  0.00000000000E+00 0.  1.
</event>
<event>
 7    1  0.1327607E-011  0.5930196E+02  0.7816164E-02  0.1266605E+00
        -11   -1    0    0    0    0  0.00000000000E+00  0.00000000000E+00  0.45593999997E+02  0.45594000000E+02  0.51100000000E-03 0.  1.
         11   -1    0    0    0    0 -0.00000000000E+00 -0.00000000000E+00 -0.45593999997E+02  0.45594000000E+02  0.51100000000E-03 0. -1.
    9900012    2    1    2    0    0 -0.13713654302E+02 -0.17194169377E+01 -0.28734975007E+02  0.59301960773E+02  0.50000030539E+02 0.  0.
        -12    1    1    2    0    0  0.13713654302E+02  0.17194169377E+01  0.28734975007E+02  0.31886039227E+02  0.00000000000E+00 0.  1.
         11    1    3    3    0    0 -0.10621777419E+02 -0.13341648884E+02  0.69946891302E+01  0.18432238789E+02  0.51100000000E-03 0. -1.
        -11    1    3    3    0    0 -0.29091455196E+01 -0.27350208913E+01 -0.26065060326E+01  0.47683687870E+01  0.51100000000E-03 0.  1.
         12    1    3    3    0    0 -0.18273136361E+00  0.14357252838E+02 -0.33123158105E+02  0.36101353197E+02  0.00000000000E+00 0. -1.
</event>
<event>
 7    1  0.1327607E-011  0.5930191E+02  0.7816164E-02  0.1266605E+00
        -11   -1    0    0    0    0  0.00000000000E+00  0.00000000000E+00  0.45593999997E+02  0.45594000000E+02  0.51100000000E-03 0. -1.
         11   -1    0    0    0    0 -0.00000000000E+00 -0.00000000000E+00 -0.45593999997E+02  0.45594000000E+02  0.51100000000E-03 0.  1.
    9900012    2    1    2    0    0  0.17464335116E+02  0.11314129475E+02  0.24160100602E+02  0.59301906041E+02  0.49999930722E+02 0.  0.
        -12    1    1    2    0    0 -0.17464335116E+02 -0.11314129475E+02 -0.24160100602E+02  0.31886093959E+02  0.00000000000E+00 0.  1.
         11    1    3    3    0    0  0.24007947181E+01 -0.88486718390E+01  0.25705275460E+02  0.27291463782E+02  0.51100000000E-03 0. -1.
        -11    1    3    3    0    0  0.10674905356E+02  0.73772831473E+01  0.81967089800E+01  0.15348092695E+02  0.51100000000E-03 0.  1.
        -12    1    3    3    0    0  0.43886350418E+01  0.12785518166E+02 -0.97418838381E+01  0.16662349565E+02  0.00000000000E+00 0.  1.
</event>
<event>
 7    1  0.1327607E-011  0.5930193E+02  0.7816164E-02  0.1266605E+00
        -11   -1    0    0    0    0  0.00000000000E+00  0.00000000000E+00  0.45593999997E+02  0.45594000000E+02  0.51100000000E-03 0.  1.
         11   -1    0    0    0    0 -0.00000000000E+00 -0.00000000000E+00 -0.45593999997E+02  0.45594000000E+02  0.51100000000E-03 0. -1.
    9900012    2    1    2    0    0  0.17026556106E+02  0.56313353112E+01 -0.26364857742E+02  0.59301932917E+02  0.49999979737E+02 0.  0.
        -12    1    1    2    0    0 -0.17026556106E+02 -0.56313353112E+01  0.26364857742E+02  0.31886067083E+02  0.00000000000E+00 0.  1.
         11    1    3    3    0    0  0.23143565086E+02  0.90325798843E+01  0.52998059466E+01  0.25402756693E+02  0.51100000000E-03 0. -1.
        -11    1    3    3    0    0 -0.45588832813E+01 -0.38065629924E+00 -0.41538907687E+01  0.61792495313E+01  0.51100000000E-03 0.  1.
        -12    1    3    3    0    0 -0.15581256983E+01 -0.30205882739E+01 -0.27510772920E+02  0.27719926693E+02  0.00000000000E+00 0.  1.
</event>
<event>
 7    1  0.1327607E-011  0.5930194E+02  0.7816164E-02  0.1266605E+00
        -11   -1    0    0    0    0  0.00000000000E+00  0.00000000000E+00  0.45593999997E+02  0.45594000000E+02  0.51100000000E-03 0.  1.
         11   -1    0    0    0    0 -0.00000000000E+00 -0.00000000000E+00 -0.45593999997E+02  0.45594000000E+02  0.51100000000E-03 0. -1.
    9900012    2    1    2    0    0 -0.69455585875E+00 -0.10677480162E+02 -0.30037135822E+02  0.59301944759E+02  0.50000001333E+02 0.  0.
        -12    1    1    2    0    0  0.69455585875E+00  0.10677480162E+02  0.30037135822E+02  0.31886055241E+02  0.00000000000E+00 0.  1.
         11    1    3    3    0    0  0.25581425889E+01  0.31543080124E+01 -0.88314946883E+01  0.97205478875E+01  0.51100000000E-03 0. -1.
        -11    1    3    3    0    0  0.16694938942E+01  0.14431485945E+02 -0.13603605664E+02  0.19902589876E+02  0.51100000000E-03 0.  1.
         12    1    3    3    0    0 -0.49221923418E+01 -0.28263274119E+02 -0.76020354695E+01  0.29678806996E+02  0.00000000000E+00 0. -1.
</event>
<event>
 7    1  0.1327607E-011  0.5930195E+02  0.7816164E-02  0.1266605E+00
        -11   -1    0    0    0    0  0.00000000000E+00  0.00000000000E+00  0.45593999997E+02  0.45594000000E+02  0.51100000000E-03 0.  1.
         11   -1    0    0    0    0 -0.00000000000E+00 -0.00000000000E+00 -0.45593999997E+02  0.45594000000E+02  0.51100000000E-03 0. -1.
    9900012    2    1    2    0    0 -0.28312074978E+01  0.89763614169E+01 -0.30465212876E+02  0.59301952961E+02  0.50000016292E+02 0.  0.
        -12    1    1    2    0    0  0.28312074978E+01 -0.89763614169E+01  0.30465212876E+02  0.31886047039E+02  0.00000000000E+00 0.  1.
         11    1    3    3    0    0  0.80549128548E+00 -0.73783717549E+01 -0.62752215228E+01  0.97194439854E+01  0.51100000000E-03 0. -1.
        -11    1    3    3    0    0 -0.20535109371E+02  0.16510853857E+02 -0.13795149966E+02  0.29742312870E+02  0.51100000000E-03 0.  1.
         12    1    3    3    0    0  0.16898410588E+02 -0.15612068557E+00 -0.10394841387E+02  0.19840196106E+02  0.00000000000E+00 0. -1.
</event>
<event>
 7    1  0.1327607E-011  0.5930196E+02  0.7816164E-02  0.1266605E+00
        -11   -1    0    0    0    0  0.00000000000E+00  0.00000000000E+00  0.45593999997E+02  0.45594000000E+02  0.51100000000E-03 0.  1.
         11   -1    0    0    0    0 -0.00000000000E+00 -0.00000000000E+00 -0.45593999997E+02  0.45594000000E+02  0.51100000000E-03 0. -1.
    9900012    2    1    2    0    0 -0.19150981385E+02 -0.16385377200E+00 -0.25493780351E+02  0.59301956459E+02  0.50000022673E+02 0.  0.
        -12    1    1    2    0    0  0.19150981385E+02  0.16385377200E+00  0.25493780351E+02  0.31886043541E+02  0.00000000000E+00 0.  1.
         11    1    3    3    0    0 -0.19912632471E+02  0.86571744593E+00 -0.15028140541E+02  0.24962119441E+02  0.51100000000E-03 0. -1.
        -11    1    3    3    0    0 -0.64190100817E+01  0.70414322801E+01  0.83331702366E+01  0.12658087748E+02  0.51100000000E-03 0.  1.
        -12    1    3    3    0    0  0.71806611668E+01 -0.80710034980E+01 -0.18798810047E+02  0.21681749270E+02  0.00000000000E+00 0.  1.
</event>
<event>
 7    1  0.1327607E-011  0.5930193E+02  0.7816164E-02  0.1266605E+00
        -11   -1    0    0    0    0  0.00000000000E+00  0.00000000000E+00  0.45593999997E+02  0.45594000000E+02  0.51100000000E-03 0.  1.
         11   -1    0    0    0    0 -0.00000000000E+00 -0.00000000000E+00 -0.45593999997E+02  0.45594000000E+02  0.51100000000E-03 0. -1.
    9900012    2    1    2    0    0 -0.25074661859E+02 -0.97247891174E+01 -0.17129244086E+02  0.59301934177E+02  0.49999982035E+02 0.  0.
        -12    1    1    2    0    0  0.25074661859E+02  0.97247891174E+01  0.17129244086E+02  0.31886065823E+02  0.00000000000E+00 0.  1.
         11    1    3    3    0    0  0.12259233040E+01 -0.90252495533E+00  0.63830918608E+01  0.65621110328E+01  0.51100000000E-03 0. -1.
        -11    1    3    3    0    0  0.77189476323E+01  0.39132080009E+01  0.12970770158E+01  0.87508718683E+01  0.51100000000E-03 0.  1.
         12    1    3    3    0    0 -0.34019532795E+02 -0.12735472163E+02 -0.24809412963E+02  0.43988951276E+02  0.00000000000E+00 0. -1.
</event>
<event>
 7    1  0.1327607E-011  0.5930194E+02  0.7816164E-02  0.1266605E+00
        -11   -1    0    0    0    0  0.00000000000E+00  0.00000000000E+00  0.45593999997E+02  0.45594000000E+02  0.51100000000E-03 0. -1.
         11   -1    0    0    0    0 -0.00000000000E+00 -0.00000000000E+00 -0.45593999997E+02  0.45594000000E+02  0.51100000000E-03 0.  1.
    9900012    2    1    2    0    0 -0.23265421152E+02 -0.75849818179E+01  0.20442818254E+02  0.59301943663E+02  0.49999999335E+02 0.  0.
        -12    1    1    2    0    0  0.23265421152E+02  0.75849818179E+01 -0.20442818254E+02  0.31886056337E+02  0.00000000000E+00 0.  1.
         11    1    3    3    0    0 -0.67476461480E+01  0.24304429123E+01  0.41705194889E+01  0.82964458871E+01  0.51100000000E-03 0. -1.
        -11    1    3    3    0    0 -0.30590017630E+02 -0.87562015410E+01  0.18341306914E+02  0.36726336376E+02  0.51100000000E-03 0.  1.
         12    1    3    3    0    0  0.14072242626E+02 -0.12592231891E+01 -0.20690081489E+01  0.14279161400E+02  0.00000000000E+00 0. -1.
</event>
<event>
 7    1  0.1327607E-011  0.5930195E+02  0.7816164E-02  0.1266605E+00
        -11   -1    0    0    0    0  0.00000000000E+00  0.00000000000E+00  0.45593999997E+02  0.45594000000E+02  0.51100000000E-03 0. -1.
         11   -1    0    0    0    0 -0.00000000000E+00 -0.00000000000E+00 -0.45593999997E+02  0.45594000000E+02  0.51100000000E-03 0.  1.
    9900012    2    1    2    0    0 -0.25613714535E+02 -0.17680815805E+02  0.69315572151E+01  0.59301951245E+02  0.50000013163E+02 0.  0.
        -12    1    1    2    0    0  0.25613714535E+02  0.17680815805E+02 -0.69315572151E+01  0.31886048755E+02  0.00000000000E+00 0.  1.
         11    1    3    3    0    0 -0.20756325396E+02 -0.11268462762E+02  0.67372282812E+01  0.24559998822E+02  0.51100000000E-03 0. -1.
        -11    1    3    3    0    0  0.13018194268E+01 -0.18316995539E+02 -0.68509445855E+01  0.19599553601E+02  0.51100000000E-03 0.  1.
         12    1    3    3    0    0 -0.61592085658E+01  0.11904642496E+02  0.70452735194E+01  0.15142398822E+02  0.00000000000E+00 0. -1.
</event>
<event>
 7    1  0.1327607E-011  0.5930193E+02  0.7816164E-02  0.1266605E+00
        -11   -1    0    0    0    0  0.00000000000E+00  0.00000000000E+00  0.45593999997E+02  0.45594000000E+02  0.51100000000E-03 0.  1.
         11   -1    0    0    0    0 -0.00000000000E+00 -0.00000000000E+00 -0.45593999997E+02  0.45594000000E+02  0.51100000000E-03 0. -1.
    9900012    2    1    2    0    0  0.22431944284E+01  0.22733693367E+02 -0.22245645213E+02  0.59301929902E+02  0.49999974239E+02 0.  0.
        -12    1    1    2    0    0 -0.22431944284E+01 -0.22733693367E+02  0.22245645213E+02  0.31886070098E+02  0.00000000000E+00 0.  1.
         11    1    3    3    0    0  0.47994209123E+01  0.14536536566E+01 -0.37090827942E+01  0.62373748871E+01  0.51100000000E-03 0. -1.
        -11    1    3    3    0    0  0.17151873695E+02 -0.33488425666E+01 -0.24205721806E+01  0.17642581662E+02  0.51100000000E-03 0.  1.
        -12    1    3    3    0    0 -0.19708100179E+02  0.24628882277E+02 -0.16115990238E+02  0.35421973353E+02  0.00000000000E+00 0.  1.
</event>
<event>
 7    1  0.1327607E-011  0.5930177E+02  0.7816164E-02  0.1266605E+00
        -11   -1    0    0    0    0  0.00000000000E+00  0.00000000000E+00  0.45593999997E+02  0.45594000000E+02  0.51100000000E-03 0. -1.
         11   -1    0    0    0    0 -0.00000000000E+00 -0.00000000000E+00 -0.45593999997E+02  0.45594000000E+02  0.51100000000E-03 0.  1.
    9900012    2    1    2    0    0  0.78612408650E+01 -0.28827891829E+02  0.11130375346E+02  0.59301769264E+02  0.49999681272E+02 0.  0.
        -12    1    1    2    0    0 -0.78612408650E+01  0.28827891829E+02 -0.11130375346E+02  0.31886230736E+02  0.00000000000E+00 0.  1.
         11    1    3    3    0    0  0.13057153316E+02 -0.50241347733E+01  0.12335743548E+02  0.18652124600E+02  0.51100000000E-03 0. -1.
        -11    1    3    3    0    0 -0.40892581014E+01  0.77384561293E+01 -0.23662212058E+01  0.90666828631E+01  0.51100000000E-03 0.  1.
         12    1    3    3    0    0 -0.11066543495E+01 -0.31542213184E+02  0.11608530033E+01  0.31582961801E+02  0.00000000000E+00 0. -1.
</event>
<event>
 7    1  0.1327607E-011  0.5930198E+02  0.7816164E-02  0.1266605E+00
        -11   -1    0    0    0    0  0.00000000000E+00  0.00000000000E+00  0.45593999997E+02  0.45594000000E+02  0.51100000000E-03 0. -1.
         11   -1    0    0    0    0 -0.00000000000E+00 -0.00000000000E+00 -0.45593999997E+02  0.45594000000E+02  0.51100000000E-03 0.  1.
    9900012    2    1    2    0    0 -0.24114692990E+02  0.19414633370E+02  0.76335957729E+01  0.59301981256E+02  0.50000067896E+02 0.  0.
        -12    1    1    2    0    0  0.24114692990E+02 -0.19414633370E+02 -0.76335957729E+01  0.31886018744E+02  0.00000000000E+00 0.  1.
         11    1    3    3    0    0  0.21985662291E+01  0.14452387919E+01  0.12356980573E+02  0.12633977116E+02  0.51100000000E-03 0. -1.
        -11    1    3    3    0    0 -0.75415947996E+01 -0.10115098060E+02 -0.20433609910E+01  0.12781478212E+02  0.51100000000E-03 0.  1.
         12    1    3    3    0    0 -0.18771664419E+02  0.28084492639E+02 -0.26800238091E+01  0.33886525928E+02  0.00000000000E+00 0. -1.
</event>
<event>
 7    1  0.1327607E-011  0.5930191E+02  0.7816164E-02  0.1266605E+00
        -11   -1    0    0    0    0  0.00000000000E+00  0.00000000000E+00  0.45593999997E+02  0.45594000000E+02  0.51100000000E-03 0.  1.
         11   -1    0    0    0    0 -0.00000000000E+00 -0.00000000000E+00 -0.45593999997E+02  0.45594000000E+02  0.51100000000E-03 0. -1.
    9900012    2    1    2    0    0  0.24171298209E+02 -0.15856480571E+02 -0.13455229068E+02  0.59301908636E+02  0.49999935453E+02 0.  0.
        -12    1    1    2    0    0 -0.24171298209E+02  0.15856480571E+02  0.13455229068E+02  0.31886091364E+02  0.00000000000E+00 0.  1.
         11    1    3    3    0    0 -0.12080128814E+01 -0.53868371453E+01  0.40581676765E+01  0.68517176461E+01  0.51100000000E-03 0. -1.
        -11    1    3    3    0    0  0.22509366893E+02 -0.11319840799E+01  0.89434776004E+01  0.24247448891E+02  0.51100000000E-03 0.  1.
         12    1    3    3    0    0  0.28699441972E+01 -0.93376593464E+01 -0.26456874345E+02  0.28202742098E+02  0.00000000000E+00 0. -1.
</event>
<event>
 7    1  0.1327607E-011  0.5930195E+02  0.7816164E-02  0.1266605E+00
        -11   -1    0    0    0    0  0.00000000000E+00  0.00000000000E+00  0.45593999997E+02  0.45594000000E+02  0.51100000000E-03 0.  1.
         11   -1    0    0    0    0 -0.00000000000E+00 -0.00000000000E+00 -0.45593999997E+02  0.45594000000E+02  0.51100000000E-03 0. -1.
    9900012    2    1    2    0    0 -0.12057143263E+02  0.24437929069E+02 -0.16556962066E+02  0.59301951739E+02  0.50000014063E+02 0.  0.
        -12    1    1    2    0    0  0.12057143263E+02 -0.24437929069E+02  0.16556962066E+02  0.31886048261E+02  0.00000000000E+00 0.  1.
         11    1    3    3    0    0 -0.64842441994E+01 -0.41264581767E+01  0.97830827142E+01  0.12441132890E+02  0.51100000000E-03 0.  1.
        -11    1    3    3    0    0  0.90063066916E+01  0.12008301053E+02 -0.41558476218E+01  0.15575105911E+02  0.51100000000E-03 0. -1.
        -12    1    3    3    0    0 -0.14579205755E+02  0.16556086193E+02 -0.22184197159E+02  0.31285712938E+02  0.00000000000E+00 0.  1.
</event>
<event>
 7    1  0.1327607E-011  0.5930194E+02  0.7816164E-02  0.1266605E+00
        -11   -1    0    0    0    0  0.00000000000E+00  0.00000000000E+00  0.45593999997E+02  0.45594000000E+02  0.51100000000E-03 0.  1.
         11   -1    0    0    0    0 -0.00000000000E+00 -0.00000000000E+00 -0.45593999997E+02  0.45594000000E+02  0.51100000000E-03 0. -1.
    9900012    2    1    2    0    0 -0.29474895411E+02 -0.98063721316E+01 -0.71962648252E+01  0.59301943152E+02  0.49999998403E+02 0.  0.
        -12    1    1    2    0    0  0.29474895411E+02  0.98063721316E+01  0.71962648252E+01  0.31886056848E+02  0.00000000000E+00 0.  1.
         11    1    3    3    0    0 -0.73530858309E+01  0.35136660050E+01  0.20591735942E+01  0.84055883901E+01  0.51100000000E-03 0. -1.
        -11    1    3    3    0    0 -0.25981314573E+02 -0.99663423236E+01  0.11062050998E+02  0.29945377920E+02  0.51100000000E-03 0.  1.
         12    1    3    3    0    0  0.38595049931E+01 -0.33536958130E+01 -0.20317489417E+02  0.20950976842E+02  0.00000000000E+00 0. -1.
</event>
<event>
 7    1  0.1327607E-011  0.5930192E+02  0.7816164E-02  0.1266605E+00
        -11   -1    0    0    0    0  0.00000000000E+00  0.00000000000E+00  0.45593999997E+02  0.45594000000E+02  0.51100000000E-03 0. -1.
         11   -1    0    0    0    0 -0.00000000000E+00 -0.00000000000E+00 -0.45593999997E+02  0.45594000000E+02  0.51100000000E-03 0.  1.
    9900012    2    1    2    0    0 -0.19472921381E+02 -0.20579039889E+02  0.14629776002E+02  0.59301923168E+02  0.49999961957E+02 0.  0.
        -12    1    1    2    0    0  0.19472921381E+02  0.20579039889E+02 -0.14629776002E+02  0.31886076832E+02  0.00000000000E+00 0.  1.
         11    1    3    3    0    0  0.86333048308E+01 -0.10665123937E+02  0.47122470686E+01  0.14508069947E+02  0.51100000000E-03 0. -1.
        -11    1    3    3    0    0  0.77279431684E+00  0.90354504951E+01  0.10219994592E+01  0.91258457066E+01  0.51100000000E-03 0.  1.
         12    1    3    3    0    0 -0.28879020529E+02 -0.18949366446E+02  0.88955294740E+01  0.35668007514E+02  0.00000000000E+00 0. -1.
</event>
<event>
 7    1  0.1327607E-011  0.5930201E+02  0.7816164E-02  0.1266605E+00
        -11   -1    0    0    0    0  0.00000000000E+00  0.00000000000E+00  0.45593999997E+02  0.45594000000E+02  0.51100000000E-03 0. -1.
         11   -1    0    0    0    0 -0.00000000000E+00 -0.00000000000E+00 -0.45593999997E+02  0.45594000000E+02  0.51100000000E-03 0.  1.
    9900012    2    1    2    0    0 -0.27738704434E+02  0.10530568667E+02  0.11678506445E+02  0.59302013847E+02  0.50000127334E+02 0.  0.
        -12    1    1    2    0    0  0.27738704434E+02 -0.10530568667E+02 -0.11678506445E+02  0.31885986153E+02  0.00000000000E+00 0.  1.
         11    1    3    3    0    0 -0.89221225508E+01  0.11966580993E+02  0.10488207648E+02  0.18242966628E+02  0.51100000000E-03 0. -1.
        -11    1    3    3    0    0  0.48032483134E+01  0.12618258569E+02 -0.60953840604E+00  0.13515294336E+02  0.51100000000E-03 0.  1.
         12    1    3    3    0    0 -0.23619830197E+02 -0.14054270895E+02  0.17998372033E+01  0.27543752883E+02  0.00000000000E+00 0. -1.
</event>
<event>
 7    1  0.1327607E-011  0.5930194E+02  0.7816164E-02  0.1266605E+00
        -11   -1    0    0    0    0  0.00000000000E+00  0.00000000000E+00  0.45593999997E+02  0.45594000000E+02  0.51100000000E-03 0.  1.
         11   -1    0    0    0    0 -0.00000000000E+00 -0.00000000000E+00 -0.45593999997E+02  0.45594000000E+02  0.51100000000E-03 0. -1.
    9900012    2    1    2    0    0 -0.10669895332E+02  0.16245047595E+02 -0.25277906196E+02  0.59301940673E+02  0.49999993881E+02 0.  0.
        -12    1    1    2    0    0  0.10669895332E+02 -0.16245047595E+02  0.25277906196E+02  0.31886059327E+02  0.00000000000E+00 0.  1.
         11    1    3    3    0    0 -0.23602967758E+01  0.65335649707E+01 -0.25706494396E+02  0.26628599785E+02  0.51100000000E-03 0. -1.
        -11    1    3    3    0    0 -0.32444394636E+00 -0.78918875519E+01 -0.83057475082E+01  0.11461788470E+02  0.51100000000E-03 0.  1.
        -12    1    3    3    0    0 -0.79851546100E+01  0.17603370176E+02  0.87343357080E+01  0.21211552418E+02  0.00000000000E+00 0.  1.
</event>
<event>
 7    1  0.1327607E-011  0.5930210E+02  0.7816164E-02  0.1266604E+00
        -11   -1    0    0    0    0  0.00000000000E+00  0.00000000000E+00  0.45593999997E+02  0.45594000000E+02  0.51100000000E-03 0.  1.
         11   -1    0    0    0    0 -0.00000000000E+00 -0.00000000000E+00 -0.45593999997E+02  0.45594000000E+02  0.51100000000E-03 0. -1.
    9900012    2    1    2    0    0  0.25475178444E+02  0.68348670765E+01 -0.17916766092E+02  0.59302099795E+02  0.50000284080E+02 0.  0.
        -12    1    1    2    0    0 -0.25475178444E+02 -0.68348670765E+01  0.17916766092E+02  0.31885900205E+02  0.00000000000E+00 0.  1.
         11    1    3    3    0    0  0.23327704619E+01 -0.85827944343E+01 -0.79461002077E+01  0.11926721557E+02  0.51100000000E-03 0. -1.
        -11    1    3    3    0    0  0.31204085211E+02  0.13057129697E+02  0.65280538437E+00  0.33832081298E+02  0.51100000000E-03 0.  1.
         12    1    3    3    0    0 -0.80616772293E+01  0.23605318139E+01 -0.10623471269E+02  0.13543296940E+02  0.00000000000E+00 0. -1.
</event>
<event>
 7    1  0.1327607E-011  0.5930192E+02  0.7816164E-02  0.1266605E+00
        -11   -1    0    0    0    0  0.00000000000E+00  0.00000000000E+00  0.45593999997E+02  0.45594000000E+02  0.51100000000E-03 0. -1.
         11   -1    0    0    0    0 -0.00000000000E+00 -0.00000000000E+00 -0.45593999997E+02  0.45594000000E+02  0.51100000000E-03 0.  1.
    9900012    2    1    2    0    0  0.89153798728E+01 -0.25179878318E+02  0.17412987748E+02  0.59301915062E+02  0.49999947174E+02 0.  0.
        -12    1    1    2    0    0 -0.89153798728E+01  0.25179878318E+02 -0.17412987748E+02  0.31886084938E+02  0.00000000000E+00 0.  1.
         11    1    3    3    0    0 -0.51075600370E+01 -0.30066937245E+02  0.19467500847E+02  0.36181369161E+02  0.51100000000E-03 0. -1.
        -11    1    3    3    0    0  0.49748894348E+01 -0.44276581941E+01 -0.65864058249E+01  0.93666655712E+01  0.51100000000E-03 0.  1.
         12    1    3    3    0    0  0.90480504749E+01  0.93147171220E+01  0.45318927252E+01  0.13753880330E+02  0.00000000000E+00 0. -1.
</event>
<event>
 7    1  0.1327607E-011  0.5930195E+02  0.7816164E-02  0.1266605E+00
        -11   -1    0    0    0    0  0.00000000000E+00  0.00000000000E+00  0.45593999997E+02  0.45594000000E+02  0.51100000000E-03 0. -1.
         11   -1    0    0    0    0 -0.00000000000E+00 -0.00000000000E+00 -0.45593999997E+02  0.45594000000E+02  0.51100000000E-03 0.  1.
    9900012    2    1    2    0    0  0.15622041076E+02 -0.25138922618E+02  0.11861984342E+02  0.59301948656E+02  0.50000008440E+02 0.  0.
        -12    1    1    2    0    0 -0.15622041076E+02  0.25138922618E+02 -0.11861984342E+02  0.31886051344E+02  0.00000000000E+00 0.  1.
         11    1    3    3    0    0 -0.96356978752E+01 -0.54329677203E+00  0.59838897491E+01  0.11355561709E+02  0.51100000000E-03 0. -1.
        -11    1    3    3    0    0  0.18072863719E+02  0.33842497194E+01  0.49596385224E+01  0.19044147755E+02  0.51100000000E-03 0.  1.
         12    1    3    3    0    0  0.71848752325E+01 -0.27979875566E+02  0.91845607099E+00  0.28902239192E+02  0.00000000000E+00 0. -1.
</event>
<event>
 7    1  0.1327607E-011  0.5930190E+02  0.7816164E-02  0.1266605E+00
        -11   -1    0    0    0    0  0.00000000000E+00  0.00000000000E+00  0.45593999997E+02  0.45594000000E+02  0.51100000000E-03 0.  1.
         11   -1    0    0    0    0 -0.00000000000E+00 -0.00000000000E+00 -0.45593999997E+02  0.45594000000E+02  0.51100000000E-03 0. -1.
    9900012    2    1    2    0    0  0.17567593699E+02 -0.24929029380E+02 -0.93084182551E+01  0.59301897940E+02  0.49999915946E+02 0.  0.
        -12    1    1    2    0    0 -0.17567593699E+02  0.24929029380E+02  0.93084182551E+01  0.31886102060E+02  0.00000000000E+00 0.  1.
         11    1    3    3    0    0  0.94445969467E+01  0.47549570810E+01  0.35297013511E+01  0.11147592575E+02  0.51100000000E-03 0.  1.
        -11    1    3    3    0    0  0.15308387633E+02 -0.24368783117E+01  0.30599614766E+01  0.15800268109E+02  0.51100000000E-03 0. -1.
         12    1    3    3    0    0 -0.71853908810E+01 -0.27247108149E+02 -0.15898081083E+02  0.32354037255E+02  0.00000000000E+00 0. -1.
</event>
<event>
 7    1  0.1327607E-011  0.5930196E+02  0.7816164E-02  0.1266605E+00
        -11   -1    0    0    0    0  0.00000000000E+00  0.00000000000E+00  0.45593999997E+02  0.45594000000E+02  0.51100000000E-03 0. -1.
         11   -1    0    0    0    0 -0.00000000000E+00 -0.00000000000E+00 -0.45593999997E+02  0.45594000000E+02  0.51100000000E-03 0.  1.
    9900012    2    1    2    0    0  0.18280050950E+02 -0.12714004548E+02  0.22823527657E+02  0.59301959338E+02  0.50000027922E+02 0.  0.
        -12    1    1    2    0    0 -0.18280050950E+02  0.12714004548E+02 -0.22823527657E+02  0.31886040662E+02  0.00000000000E+00 0.  1.
         11    1    3    3    0    0  0.17668429368E+01  0.31504712809E+01  0.19689560211E+02  0.20018141392E+02  0.51100000000E-03 0. -1.
        -11    1    3    3    0    0  0.16697159003E+02  0.54024964226E+01 -0.11569256159E+01  0.17587511578E+02  0.51100000000E-03 0.  1.
         12    1    3    3    0    0 -0.18395098950E+00 -0.21266972252E+02  0.42908930622E+01  0.21696306368E+02  0.00000000000E+00 0. -1.
</event>
<event>
 7    1  0.1327607E-011  0.5930193E+02  0.7816164E-02  0.1266605E+00
        -11   -1    0    0    0    0  0.00000000000E+00  0.00000000000E+00  0.45593999997E+02  0.45594000000E+02  0.51100000000E-03 0.  1.
         11   -1    0    0    0    0 -0.00000000000E+00 -0.00000000000E+00 -0.45593999997E+02  0.45594000000E+02  0.51100000000E-03 0. -1.
    9900012    2    1    2    0    0 -0.83945454107E+01  0.81582354720E+00 -0.30750403142E+02  0.59301933230E+02  0.49999980307E+02 0.  0.
        -12    1    1    2    0    0  0.83945454107E+01 -0.81582354720E+00  0.30750403142E+02  0.31886066770E+02  0.00000000000E+00 0.  1.
         11    1    3    3    0    0  0.70481736435E+01  0.10243754748E+02 -0.29811725443E+01  0.12786659182E+02  0.51100000000E-03 0.  1.
        -11    1    3    3    0    0 -0.61041182854E+01  0.11806651704E+02 -0.55827965770E+01  0.14416133406E+02  0.51100000000E-03 0. -1.
         12    1    3    3    0    0 -0.93386007687E+01 -0.21234582904E+02 -0.22186434020E+02  0.32099140642E+02  0.00000000000E+00 0. -1.
</event>
<event>
 7    1  0.1327607E-011  0.5930194E+02  0.7816164E-02  0.1266605E+00
        -11   -1    0    0    0    0  0.00000000000E+00  0.00000000000E+00  0.45593999997E+02  0.45594000000E+02  0.51100000000E-03 0.  1.
         11   -1    0    0    0    0 -0.00000000000E+00 -0.00000000000E+00 -0.45593999997E+02  0.45594000000E+02  0.51100000000E-03 0. -1.
    9900012    2    1    2    0    0  0.47247949766E+01  0.15788512149E+02 -0.27296886890E+02  0.59301939764E+02  0.49999992224E+02 0.  0.
        -12    1    1    2    0    0 -0.47247949766E+01 -0.15788512149E+02  0.27296886890E+02  0.31886060236E+02  0.00000000000E+00 0.  1.
         11    1    3    3    0    0 -0.96121013449E+01  0.68019484813E+01 -0.14938276218E+02  0.19021332551E+02  0.51100000000E-03 0. -1.
        -11    1    3    3    0    0 -0.67821349580E+01 -0.13110395947E+01  0.70019408161E+01  0.98358199893E+01  0.51100000000E-03 0.  1.
         12    1    3    3    0    0  0.21119031280E+02  0.10297603263E+02 -0.19360551489E+02  0.30444787224E+02  0.00000000000E+00 0. -1.
</event>
<event>
 7    1  0.1327607E-011  0.5930197E+02  0.7816164E-02  0.1266605E+00
        -11   -1    0    0    0    0  0.00000000000E+00  0.00000000000E+00  0.45593999997E+02  0.45594000000E+02  0.51100000000E-03 0.  1.
         11   -1    0    0    0    0 -0.00000000000E+00 -0.00000000000E+00 -0.45593999997E+02  0.45594000000E+02  0.51100000000E-03 0. -1.
    9900012    2    1    2    0    0 -0.22614079370E+02  0.34427947367E+01 -0.22214180052E+02  0.59301965177E+02  0.50000038571E+02 0.  0.
        -12    1    1    2    0    0  0.22614079370E+02 -0.34427947367E+01  0.22214180052E+02  0.31886034823E+02  0.00000000000E+00 0.  1.
         11    1    3    3    0    0 -0.10828525380E+02  0.30130390624E+01 -0.17795339508E+01  0.11379899281E+02  0.51100000000E-03 0. -1.
        -11    1    3    3    0    0 -0.14165615482E+02 -0.18845484142E+02 -0.14211045473E+02  0.27527636081E+02  0.51100000000E-03 0.  1.
        -12    1    3    3    0    0  0.23800614920E+01  0.19275239816E+02 -0.62236006281E+01  0.20394429814E+02  0.00000000000E+00 0.  1.
</event>
<event>
 7    1  0.1327607E-011  0.5930195E+02  0.7816164E-02  0.1266605E+00
        -11   -1    0    0    0    0  0.00000000000E+00  0.00000000000E+00  0.45593999997E+02  0.45594000000E+02  0.51100000000E-03 0. -1.
         11   -1    0    0    0    0 -0.00000000000E+00 -0.00000000000E+00 -0.45593999997E+02  0.45594000000E+02  0.51100000000E-03 0.  1.
    9900012    2    1    2    0    0  0.19061518446E+02 -0.79868582612E+01  0.24281455517E+02  0.59301945488E+02  0.50000002663E+02 0.  0.
        -12    1    1    2    0    0 -0.19061518446E+02  0.79868582612E+01 -0.24281455517E+02  0.31886054512E+02  0.00000000000E+00 0.  1.
         11    1    3    3    0    0 -0.75875687727E+00 -0.14637594622E+02  0.12791544199E+02  0.19454009653E+02  0.51100000000E-03 0. -1.
        -11    1    3    3    0    0 -0.31565701934E+01  0.12226687118E+02  0.10088449604E+02  0.16162692503E+02  0.51100000000E-03 0.  1.
        -12    1    3    3    0    0  0.22976845517E+02 -0.55759507578E+01  0.14014617133E+01  0.23685243332E+02  0.00000000000E+00 0.  1.
</event>
<event>
 7    1  0.1327607E-011  0.5930192E+02  0.7816164E-02  0.1266605E+00
        -11   -1    0    0    0    0  0.00000000000E+00  0.00000000000E+00  0.45593999997E+02  0.45594000000E+02  0.51100000000E-03 0.  1.
         11   -1    0    0    0    0 -0.00000000000E+00 -0.00000000000E+00 -0.45593999997E+02  0.45594000000E+02  0.51100000000E-03 0. -1.
    9900012    2    1    2    0    0 -0.12748044235E+02 -0.21007675684E+01 -0.29151260978E+02  0.59301923528E+02  0.49999962613E+02 0.  0.
        -12    1    1    2    0    0  0.12748044235E+02  0.21007675684E+01  0.29151260978E+02  0.31886076472E+02  0.00000000000E+00 0.  1.
         11    1    3    3    0    0 -0.99740995402E+01  0.29663637944E+01  0.64789240600E+01  0.12257994658E+02  0.51100000000E-03 0. -1.
        -11    1    3    3    0    0 -0.68735014554E+01  0.18997044452E+01  0.28827394268E+01  0.76918194272E+01  0.51100000000E-03 0.  1.
         12    1    3    3    0    0  0.40995567604E+01 -0.69668358081E+01 -0.38512924464E+02  0.39352109443E+02  0.00000000000E+00 0. -1.
</event>
<event>
 7    1  0.1327607E-011  0.5930175E+02  0.7816164E-02  0.1266605E+00
        -11   -1    0    0    0    0  0.00000000000E+00  0.00000000000E+00  0.45593999997E+02  0.45594000000E+02  0.51100000000E-03 0.  1.
         11   -1    0    0    0    0 -0.00000000000E+00 -0.00000000000E+00 -0.45593999997E+02  0.45594000000E+02  0.51100000000E-03 0. -1.
    9900012    2    1    2    0    0  0.22579699096E+02 -0.88822007379E+01 -0.20688077386E+02  0.59301751442E+02  0.49999648768E+02 0.  0.
        -12    1    1    2    0    0 -0.22579699096E+02  0.88822007379E+01  0.20688077386E+02  0.31886248558E+02  0.00000000000E+00 0.  1.
         11    1    3    3    0    0  0.59395402245E+00 -0.82729988772E+01 -0.11127057402E+02  0.13878281540E+02  0.51100000000E-03 0. -1.
        -11    1    3    3    0    0  0.60198633402E+01 -0.47519584162E+01 -0.22938100263E+02  0.24186283455E+02  0.51100000000E-03 0.  1.
        -12    1    3    3    0    0  0.15965881733E+02  0.41427565554E+01  0.13377080279E+02  0.21237186447E+02  0.00000000000E+00 0.  1.
</event>
<event>
 7    1  0.1327607E-011  0.5930194E+02  0.7816164E-02  0.1266605E+00
        -11   -1    0    0    0    0  0.00000000000E+00  0.00000000000E+00  0.45593999997E+02  0.45594000000E+02  0.51100000000E-03 0. -1.
         11   -1    0    0    0    0 -0.00000000000E+00 -0.00000000000E+00 -0.45593999997E+02  0.45594000000E+02  0.51100000000E-03 0.  1.
    9900012    2    1    2    0    0 -0.10594572873E+02  0.13446619078E+02  0.26901008076E+02  0.59301940749E+02  0.49999994021E+02 0.  0.
        -12    1    1    2    0    0  0.10594572873E+02 -0.13446619078E+02 -0.26901008076E+02  0.31886059251E+02  0.00000000000E+00 0.  1.
         11    1    3    3    0    0 -0.79335527239E+01  0.23303618764E+02  0.28028023462E+02  0.37303753240E+02  0.51100000000E-03 0. -1.
        -11    1    3    3    0    0  0.63450280948E+00  0.44418582881E+01  0.44320054847E+01  0.63067718957E+01  0.51100000000E-03 0.  1.
        -12    1    3    3    0    0 -0.32955229590E+01 -0.14298857974E+02 -0.55590208698E+01  0.15691415614E+02  0.00000000000E+00 0.  1.
</event>
<event>
 7    1  0.1327607E-011  0.5930195E+02  0.7816164E-02  0.1266605E+00
        -11   -1    0    0    0    0  0.00000000000E+00  0.00000000000E+00  0.45593999997E+02  0.45594000000E+02  0.51100000000E-03 0.  1.
         11   -1    0    0    0    0 -0.00000000000E+00 -0.00000000000E+00 -0.45593999997E+02  0.45594000000E+02  0.51100000000E-03 0. -1.
    9900012    2    1    2    0    0 -0.59822724272E+01  0.30127973337E+02 -0.85579203713E+01  0.59301947220E+02  0.50000005822E+02 0.  0.
        -12    1    1    2    0    0  0.59822724272E+01 -0.30127973337E+02  0.85579203713E+01  0.31886052780E+02  0.00000000000E+00 0.  1.
         11    1    3    3    0    0 -0.52616319932E+01  0.25591860389E+02 -0.15528097098E+02  0.30393254008E+02  0.51100000000E-03 0. -1.
        -11    1    3    3    0    0 -0.63746071742E+00 -0.56158344281E+01 -0.86179928096E+01  0.10306005667E+02  0.51100000000E-03 0.  1.
         12    1    3    3    0    0 -0.83179716652E-01  0.10151947376E+02  0.15588169537E+02  0.18602687545E+02  0.00000000000E+00 0. -1.
</event>
<event>
 7    1  0.1327607E-011  0.5930197E+02  0.7816164E-02  0.1266605E+00
        -11   -1    0    0    0    0  0.00000000000E+00  0.00000000000E+00  0.45593999997E+02  0.45594000000E+02  0.51100000000E-03 0.  1.
         11   -1    0    0    0    0 -0.00000000000E+00 -0.00000000000E+00 -0.45593999997E+02  0.45594000000E+02  0.51100000000E-03 0. -1.
    9900012    2    1    2    0    0  0.25839400557E+02  0.10941167106E+02 -0.15143825019E+02  0.59301965518E+02  0.50000039193E+02 0.  0.
        -12    1    1    2    0    0 -0.25839400557E+02 -0.10941167106E+02  0.15143825019E+02  0.31886034482E+02  0.00000000000E+00 0.  1.
         11    1    3    3    0    0  0.18454844657E+02 -0.91417475755E+00 -0.89421632996E+00  0.18499098084E+02  0.51100000000E-03 0.  1.
        -11    1    3    3    0    0  0.13984071755E+02 -0.38335495834E+01 -0.18259457445E+02  0.23316478116E+02  0.51100000000E-03 0. -1.
        -12    1    3    3    0    0 -0.65995158558E+01  0.15688891447E+02  0.40098487560E+01  0.17486389319E+02  0.00000000000E+00 0.  1.
</event>
<event>
 7    1  0.1327607E-011  0.5930199E+02  0.7816164E-02  0.1266605E+00
        -11   -1    0    0    0    0  0.00000000000E+00  0.00000000000E+00  0.45593999997E+02  0.45594000000E+02  0.51100000000E-03 0. -1.
         11   -1    0    0    0    0 -0.00000000000E+00 -0.00000000000E+00 -0.45593999997E+02  0.45594000000E+02  0.51100000000E-03 0.  1.
    9900012    2    1    2    0    0 -0.20239276688E+02 -0.53088560327E+01  0.24060451204E+02  0.59301990758E+02  0.50000085225E+02 0.  0.
        -12    1    1    2    0    0  0.20239276688E+02  0.53088560327E+01 -0.24060451204E+02  0.31886009242E+02  0.00000000000E+00 0.  1.
         11    1    3    3    0    0 -0.11849261222E+02 -0.44307999184E+01 -0.20960119752E+01  0.12823035752E+02  0.51100000000E-03 0. -1.
        -11    1    3    3    0    0 -0.52416385379E+01  0.57769253702E+01 -0.82146591680E+01  0.11328206690E+02  0.51100000000E-03 0.  1.
        -12    1    3    3    0    0 -0.31483769281E+01 -0.66549814845E+01  0.34371122347E+02  0.35150748317E+02  0.00000000000E+00 0.  1.
</event>
<event>
 7    1  0.1327607E-011  0.5930192E+02  0.7816164E-02  0.1266605E+00
        -11   -1    0    0    0    0  0.00000000000E+00  0.00000000000E+00  0.45593999997E+02  0.45594000000E+02  0.51100000000E-03 0.  1.
         11   -1    0    0    0    0 -0.00000000000E+00 -0.00000000000E+00 -0.45593999997E+02  0.45594000000E+02  0.51100000000E-03 0. -1.
    9900012    2    1    2    0    0 -0.62923874568E+01 -0.29327707397E+02 -0.10817283777E+02  0.59301918563E+02  0.49999953559E+02 0.  0.
        -12    1    1    2    0    0  0.62923874568E+01  0.29327707397E+02  0.10817283777E+02  0.31886081437E+02  0.00000000000E+00 0.  1.
         11    1    3    3    0    0 -0.12226653630E+02 -0.21033729670E+02 -0.15630842250E+02  0.28917677509E+02  0.51100000000E-03 0. -1.
        -11    1    3    3    0    0  0.12954120300E+02 -0.14627090992E+02 -0.48802747953E+00  0.19544799685E+02  0.51100000000E-03 0.  1.
        -12    1    3    3    0    0 -0.70198541262E+01  0.63331132659E+01  0.53015859519E+01  0.10839441369E+02  0.00000000000E+00 0.  1.
</event>
<event>
 7    1  0.1327607E-011  0.5930190E+02  0.7816164E-02  0.1266605E+00
        -11   -1    0    0    0    0  0.00000000000E+00  0.00000000000E+00  0.45593999997E+02  0.45594000000E+02  0.51100000000E-03 0.  1.
         11   -1    0    0    0    0 -0.00000000000E+00 -0.00000000000E+00 -0.45593999997E+02  0.45594000000E+02  0.51100000000E-03 0. -1.
    9900012    2    1    2    0    0 -0.21737882387E+02  0.20084314952E+02 -0.11866256424E+02  0.59301901473E+02  0.49999922390E+02 0.  0.
        -12    1    1    2    0    0  0.21737882387E+02 -0.20084314952E+02  0.11866256424E+02  0.31886098527E+02  0.00000000000E+00 0.  1.
         11    1    3    3    0    0  0.60389107485E+01  0.38751738814E+01  0.33754535314E+01  0.79296344458E+01  0.51100000000E-03 0. -1.
        -11    1    3    3    0    0  0.89456751257E+01  0.56793632586E+01 -0.55410241960E+01  0.11957559110E+02  0.51100000000E-03 0.  1.
         12    1    3    3    0    0 -0.36722468261E+02  0.10529777812E+02 -0.97006857599E+01  0.39414707917E+02  0.00000000000E+00 0. -1.
</event>
<event>
 7    1  0.1327607E-011  0.5930192E+02  0.7816164E-02  0.1266605E+00
        -11   -1    0    0    0    0  0.00000000000E+00  0.00000000000E+00  0.45593999997E+02  0.45594000000E+02  0.51100000000E-03 0.  1.
         11   -1    0    0    0    0 -0.00000000000E+00 -0.00000000000E+00 -0.45593999997E+02  0.45594000000E+02  0.51100000000E-03 0. -1.
    9900012    2    1    2    0    0 -0.12229033519E+02 -0.26322138515E+02 -0.13202943841E+02  0.59301922115E+02  0.49999960036E+02 0.  0.
        -12    1    1    2    0    0  0.12229033519E+02  0.26322138515E+02  0.13202943841E+02  0.31886077885E+02  0.00000000000E+00 0.  1.
         11    1    3    3    0    0 -0.36331174658E+01  0.13286278150E+02 -0.46743812134E+01  0.14545603102E+02  0.51100000000E-03 0. -1.
        -11    1    3    3    0    0 -0.66969035765E+01 -0.44554431684E+01  0.14320822512E+01  0.81700888107E+01  0.51100000000E-03 0.  1.
         12    1    3    3    0    0 -0.18990124770E+01 -0.35152973497E+02 -0.99606448790E+01  0.36586230203E+02  0.00000000000E+00 0. -1.
</event>
<event>
 7    1  0.1327607E-011  0.5930194E+02  0.7816164E-02  0.1266605E+00
        -11   -1    0    0    0    0  0.00000000000E+00  0.00000000000E+00  0.45593999997E+02  0.45594000000E+02  0.51100000000E-03 0.  1.
         11   -1    0    0    0    0 -0.00000000000E+00 -0.00000000000E+00 -0.45593999997E+02  0.45594000000E+02  0.51100000000E-03 0. -1.
    9900012    2    1    2    0    0  0.92859436330E+01  0.10023525376E+02 -0.28810082880E+02  0.59301942143E+02  0.49999996563E+02 0.  0.
        -12    1    1    2    0    0 -0.92859436330E+01 -0.10023525376E+02  0.28810082880E+02  0.31886057857E+02  0.00000000000E+00 0.  1.
         11    1    3    3    0    0 -0.28348316266E+01  0.20737045173E+02 -0.23378908641E+02  0.31378889119E+02  0.51100000000E-03 0. -1.
        -11    1    3    3    0    0  0.22745470059E+01  0.60356511992E+01  0.25271107754E+01  0.69274048974E+01  0.51100000000E-03 0.  1.
        -12    1    3    3    0    0  0.98462282538E+01 -0.16749170996E+02 -0.79582850140E+01  0.20995648126E+02  0.00000000000E+00 0.  1.
</event>
<event>
 7    1  0.1327607E-011  0.5930187E+02  0.7816164E-02  0.1266605E+00
        -11   -1    0    0    0    0  0.00000000000E+00  0.00000000000E+00  0.45593999997E+02  0.45594000000E+02  0.51100000000E-03 0. -1.
         11   -1    0    0    0    0 -0.00000000000E+00 -0.00000000000E+00 -0.45593999997E+02  0.45594000000E+02  0.51100000000E-03 0.  1.
    9900012    2    1    2    0    0  0.97084795518E+01  0.80157274823E+00  0.30361625250E+02  0.59301868502E+02  0.49999862259E+02 0.  0.
        -12    1    1    2    0    0 -0.97084795518E+01 -0.80157274823E+00 -0.30361625250E+02  0.31886131498E+02  0.00000000000E+00 0.  1.
         11    1    3    3    0    0  0.44115703731E+01  0.97057184490E+01  0.33115982630E+02  0.34789815026E+02  0.51100000000E-03 0. -1.
        -11    1    3    3    0    0 -0.46448590272E+01 -0.16184551369E+01  0.71649116380E+01  0.86908038440E+01  0.51100000000E-03 0.  1.
        -12    1    3    3    0    0  0.99417682059E+01 -0.72856905639E+01 -0.99192690176E+01  0.15821249631E+02  0.00000000000E+00 0.  1.
</event>
<event>
 7    1  0.1327607E-011  0.5930194E+02  0.7816164E-02  0.1266605E+00
        -11   -1    0    0    0    0  0.00000000000E+00  0.00000000000E+00  0.45593999997E+02  0.45594000000E+02  0.51100000000E-03 0.  1.
         11   -1    0    0    0    0 -0.00000000000E+00 -0.00000000000E+00 -0.45593999997E+02  0.45594000000E+02  0.51100000000E-03 0. -1.
    9900012    2    1    2    0    0 -0.26567838802E+02 -0.68068483423E+01 -0.16264605697E+02  0.59301942836E+02  0.49999997827E+02 0.  0.
        -12    1    1    2    0    0  0.26567838802E+02  0.68068483423E+01  0.16264605697E+02  0.31886057164E+02  0.00000000000E+00 0.  1.
         11    1    3    3    0    0  0.14863101595E+01 -0.27007105030E+01 -0.56887036844E+00  0.31347358530E+01  0.51100000000E-03 0. -1.
        -11    1    3    3    0    0 -0.14582529833E+01 -0.20801096926E+02 -0.13172643884E+02  0.24664360569E+02  0.51100000000E-03 0.  1.
         12    1    3    3    0    0 -0.26595895978E+02  0.16694959087E+02 -0.25230914441E+01  0.31502846415E+02  0.00000000000E+00 0. -1.
</event>
<event>
 7    1  0.1327607E-011  0.5930197E+02  0.7816164E-02  0.1266605E+00
        -11   -1    0    0    0    0  0.00000000000E+00  0.00000000000E+00  0.45593999997E+02  0.45594000000E+02  0.51100000000E-03 0.  1.
         11   -1    0    0    0    0 -0.00000000000E+00 -0.00000000000E+00 -0.45593999997E+02  0.45594000000E+02  0.51100000000E-03 0. -1.
    9900012    2    1    2    0    0 -0.67713749646E+01 -0.31093764603E+02 -0.20113221507E+01  0.59301966492E+02  0.50000040969E+02 0.  0.
        -12    1    1    2    0    0  0.67713749646E+01  0.31093764603E+02  0.20113221507E+01  0.31886033508E+02  0.00000000000E+00 0.  1.
         11    1    3    3    0    0 -0.16576080616E+01 -0.16138556180E+02 -0.81879439539E+00  0.16244109228E+02  0.51100000000E-03 0. -1.
        -11    1    3    3    0    0 -0.15353260829E+02 -0.30198651195E+00  0.13088652684E+02  0.20177379495E+02  0.51100000000E-03 0.  1.
         12    1    3    3    0    0  0.10239493926E+02 -0.14653221911E+02 -0.14281180439E+02  0.22880477769E+02  0.00000000000E+00 0. -1.
</event>
<event>
 7    1  0.1327607E-011  0.5930195E+02  0.7816164E-02  0.1266605E+00
        -11   -1    0    0    0    0  0.00000000000E+00  0.00000000000E+00  0.45593999997E+02  0.45594000000E+02  0.51100000000E-03 0.  1.
         11   -1    0    0    0    0 -0.00000000000E+00 -0.00000000000E+00 -0.45593999997E+02  0.45594000000E+02  0.51100000000E-03 0. -1.
    9900012    2    1    2    0    0 -0.13229873106E+02 -0.18209537043E+02 -0.22585475003E+02  0.59301945637E+02  0.50000002934E+02 0.  0.
        -12    1    1    2    0    0  0.13229873106E+02  0.18209537043E+02  0.22585475003E+02  0.31886054363E+02  0.00000000000E+00 0.  1.
         11    1    3    3    0    0  0.73013551029E+01  0.48720836581E+00  0.26809030649E+01  0.77932278188E+01  0.51100000000E-03 0.  1.
        -11    1    3    3    0    0 -0.59419998525E+01 -0.14217057855E+02 -0.31465822631E+02  0.35036125505E+02  0.51100000000E-03 0. -1.
         12    1    3    3    0    0 -0.14589228357E+02 -0.44796875538E+01  0.61994445625E+01  0.16472592313E+02  0.00000000000E+00 0. -1.
</event>
<event>
 7    1  0.1327607E-011  0.5930194E+02  0.7816164E-02  0.1266605E+00
        -11   -1    0    0    0    0  0.00000000000E+00  0.00000000000E+00  0.45593999997E+02  0.45594000000E+02  0.51100000000E-03 0.  1.
         11   -1    0    0    0    0 -0.00000000000E+00 -0.00000000000E+00 -0.45593999997E+02  0.45594000000E+02  0.51100000000E-03 0. -1.
    9900012    2    1    2    0    0 -0.24302923517E+02 -0.19232983742E+02 -0.74954002142E+01  0.59301940672E+02  0.49999993880E+02 0.  0.
        -12    1    1    2    0    0  0.24302923517E+02  0.19232983742E+02  0.74954002142E+01  0.31886059328E+02  0.00000000000E+00 0.  1.
         11    1    3    3    0    0  0.40144457257E+01  0.18922525840E+00  0.54040592744E+01  0.67346445775E+01  0.51100000000E-03 0. -1.
        -11    1    3    3    0    0 -0.35032315351E+02 -0.11933899012E+02 -0.10492926021E+01  0.37024074326E+02  0.51100000000E-03 0.  1.
         12    1    3    3    0    0  0.67149461076E+01 -0.74883099883E+01 -0.11850166886E+02  0.15543221769E+02  0.00000000000E+00 0. -1.
</event>
<event>
 7    1  0.1327607E-011  0.5930194E+02  0.7816164E-02  0.1266605E+00
        -11   -1    0    0    0    0  0.00000000000E+00  0.00000000000E+00  0.45593999997E+02  0.45594000000E+02  0.51100000000E-03 0. -1.
         11   -1    0    0    0    0 -0.00000000000E+00 -0.00000000000E+00 -0.45593999997E+02  0.45594000000E+02  0.51100000000E-03 0.  1.
    9900012    2    1    2    0    0 -0.31287649594E+02 -0.32456885574E+01  0.52219913683E+01  0.59301941837E+02  0.49999996004E+02 0.  0.
        -12    1    1    2    0    0  0.31287649594E+02  0.32456885574E+01 -0.52219913683E+01  0.31886058163E+02  0.00000000000E+00 0.  1.
         11    1    3    3    0    0 -0.56188083287E-01  0.15897252953E+00  0.87757107581E+01  0.87773303992E+01  0.51100000000E-03 0. -1.
        -11    1    3    3    0    0 -0.23426089129E+01  0.10524675387E+02  0.10912992250E+02  0.15341121492E+02  0.51100000000E-03 0.  1.
        -12    1    3    3    0    0 -0.28888852598E+02 -0.13929336474E+02 -0.14466711640E+02  0.35183489945E+02  0.00000000000E+00 0.  1.
</event>
<event>
 7    1  0.1327607E-011  0.5930182E+02  0.7816164E-02  0.1266605E+00
        -11   -1    0    0    0    0  0.00000000000E+00  0.00000000000E+00  0.45593999997E+02  0.45594000000E+02  0.51100000000E-03 0.  1.
         11   -1    0    0    0    0 -0.00000000000E+00 -0.00000000000E+00 -0.45593999997E+02  0.45594000000E+02  0.51100000000E-03 0. -1.
    9900012    2    1    2    0    0 -0.14934214827E+02  0.22273441173E+02 -0.17250844105E+02  0.59301818407E+02  0.49999770898E+02 0.  0.
        -12    1    1    2    0    0  0.14934214827E+02 -0.22273441173E+02  0.17250844105E+02  0.31886181593E+02  0.00000000000E+00 0.  1.
         11    1    3    3    0    0 -0.52572868547E+01 -0.13154921247E+02 -0.23136230101E+01  0.14354228289E+02  0.51100000000E-03 0. -1.
        -11    1    3    3    0    0 -0.41642606036E+01 -0.18020586747E+01 -0.30936777720E+01  0.54917505642E+01  0.51100000000E-03 0.  1.
        -12    1    3    3    0    0 -0.55126673692E+01  0.37230421095E+02 -0.11843543323E+02  0.39455839554E+02  0.00000000000E+00 0.  1.
</event>
<event>
 7    1  0.1327607E-011  0.5930193E+02  0.7816164E-02  0.1266605E+00
        -11   -1    0    0    0    0  0.00000000000E+00  0.00000000000E+00  0.45593999997E+02  0.45594000000E+02  0.51100000000E-03 0.  1.
         11   -1    0    0    0    0 -0.00000000000E+00 -0.00000000000E+00 -0.45593999997E+02  0.45594000000E+02  0.51100000000E-03 0. -1.
    9900012    2    1    2    0    0  0.30862737410E+02 -0.75063746395E+01  0.28048667816E+01  0.59301929400E+02  0.49999973322E+02 0.  0.
        -12    1    1    2    0    0 -0.30862737410E+02  0.75063746395E+01 -0.28048667816E+01  0.31886070600E+02  0.00000000000E+00 0.  1.
         11    1    3    3    0    0  0.48356155778E+01  0.73325013364E+00 -0.39278044956E+01  0.62728368536E+01  0.51100000000E-03 0. -1.
        -11    1    3    3    0    0  0.38810711934E+02 -0.83673380676E+01  0.65796425204E+01  0.40243948652E+02  0.51100000000E-03 0.  1.
         12    1    3    3    0    0 -0.12783590102E+02  0.12771329448E+00  0.15302875684E+00  0.12785143894E+02  0.00000000000E+00 0. -1.
</event>
<event>
 7    1  0.1327607E-011  0.5930194E+02  0.7816164E-02  0.1266605E+00
        -11   -1    0    0    0    0  0.00000000000E+00  0.00000000000E+00  0.45593999997E+02  0.45594000000E+02  0.51100000000E-03 0.  1.
         11   -1    0    0    0    0 -0.00000000000E+00 -0.00000000000E+00 -0.45593999997E+02  0.45594000000E+02  0.51100000000E-03 0. -1.
    9900012    2    1    2    0    0 -0.13185392252E+02  0.16466685256E+02 -0.23910548179E+02  0.59301943386E+02  0.49999998830E+02 0.  0.
        -12    1    1    2    0    0  0.13185392252E+02 -0.16466685256E+02  0.23910548179E+02  0.31886056614E+02  0.00000000000E+00 0.  1.
         11    1    3    3    0    0  0.84799617418E+01 -0.66669814360E+01 -0.20039779648E+01  0.10971523165E+02  0.51100000000E-03 0. -1.
        -11    1    3    3    0    0 -0.58667147253E+01  0.23196426848E+01  0.69597617854E+01  0.93934747683E+01  0.51100000000E-03 0.  1.
         12    1    3    3    0    0 -0.15798639269E+02  0.20814024007E+02 -0.28866331999E+02  0.38936945453E+02  0.00000000000E+00 0. -1.
</event>
<event>
 7    1  0.1327607E-011  0.5930188E+02  0.7816164E-02  0.1266605E+00
        -11   -1    0    0    0    0  0.00000000000E+00  0.00000000000E+00  0.45593999997E+02  0.45594000000E+02  0.51100000000E-03 0.  1.
         11   -1    0    0    0    0 -0.00000000000E+00 -0.00000000000E+00 -0.45593999997E+02  0.45594000000E+02  0.51100000000E-03 0. -1.
    9900012    2    1    2    0    0  0.26498883011E+02  0.12586303934E+02 -0.12494743181E+02  0.59301883042E+02  0.49999888776E+02 0.  0.
        -12    1    1    2    0    0 -0.26498883011E+02 -0.12586303934E+02  0.12494743181E+02  0.31886116958E+02  0.00000000000E+00 0.  1.
         11    1    3    3    0    0  0.75600327897E+01  0.87056584683E+01 -0.33105448779E+01  0.11995928176E+02  0.51100000000E-03 0.  1.
        -11    1    3    3    0    0  0.18514948664E+02 -0.55992754957E+01  0.12913060644E+02  0.23257307359E+02  0.51100000000E-03 0. -1.
         12    1    3    3    0    0  0.42390155686E+00  0.94799209611E+01 -0.22097258947E+02  0.24048647507E+02  0.00000000000E+00 0. -1.
</event>
<event>
 7    1  0.1327607E-011  0.5930194E+02  0.7816164E-02  0.1266605E+00
        -11   -1    0    0    0    0  0.00000000000E+00  0.00000000000E+00  0.45593999997E+02  0.45594000000E+02  0.51100000000E-03 0.  1.
         11   -1    0    0    0    0 -0.00000000000E+00 -0.00000000000E+00 -0.45593999997E+02  0.45594000000E+02  0.51100000000E-03 0. -1.
    9900012    2    1    2    0    0  0.95552982640E+01  0.57556339702E+01 -0.29871221313E+02  0.59301938624E+02  0.49999990145E+02 0.  0.
        -12    1    1    2    0    0 -0.95552982640E+01 -0.57556339702E+01  0.29871221313E+02  0.31886061376E+02  0.00000000000E+00 0.  1.
         11    1    3    3    0    0  0.14203833808E+02 -0.51981430580E+01 -0.54717397490E+01  0.16084449703E+02  0.51100000000E-03 0.  1.
        -11    1    3    3    0    0  0.12727538322E+02  0.40113611408E+01 -0.11798684513E+01  0.13396766018E+02  0.51100000000E-03 0. -1.
        -12    1    3    3    0    0 -0.17376073866E+02  0.69424158875E+01 -0.23219613113E+02  0.29820722903E+02  0.00000000000E+00 0.  1.
</event>
<event>
 7    1  0.1327607E-011  0.5930193E+02  0.7816164E-02  0.1266605E+00
        -11   -1    0    0    0    0  0.00000000000E+00  0.00000000000E+00  0.45593999997E+02  0.45594000000E+02  0.51100000000E-03 0.  1.
         11   -1    0    0    0    0 -0.00000000000E+00 -0.00000000000E+00 -0.45593999997E+02  0.45594000000E+02  0.51100000000E-03 0. -1.
    9900012    2    1    2    0    0 -0.33779712249E+01  0.17026196551E+02 -0.26747326052E+02  0.59301929224E+02  0.49999973001E+02 0.  0.
        -12    1    1    2    0    0  0.33779712249E+01 -0.17026196551E+02  0.26747326052E+02  0.31886070776E+02  0.00000000000E+00 0.  1.
         11    1    3    3    0    0  0.56921067363E+01  0.17871275531E+02 -0.26872628489E+02  0.32770729781E+02  0.51100000000E-03 0. -1.
        -11    1    3    3    0    0 -0.10006767677E+02  0.59633154299E+01 -0.92723679930E+01  0.14888698355E+02  0.51100000000E-03 0.  1.
         12    1    3    3    0    0  0.93668971556E+00 -0.68083944099E+01  0.93976704297E+01  0.11642501087E+02  0.00000000000E+00 0. -1.
</event>
<event>
 7    1  0.1327607E-011  0.5930207E+02  0.7816164E-02  0.1266604E+00
        -11   -1    0    0    0    0  0.00000000000E+00  0.00000000000E+00  0.45593999997E+02  0.45594000000E+02  0.51100000000E-03 0.  1.
         11   -1    0    0    0    0 -0.00000000000E+00 -0.00000000000E+00 -0.45593999997E+02  0.45594000000E+02  0.51100000000E-03 0. -1.
    9900012    2    1    2    0    0  0.77040815111E+01 -0.65961425923E+01 -0.30229964390E+02  0.59302067113E+02  0.50000224478E+02 0.  0.
        -12    1    1    2    0    0 -0.77040815111E+01  0.65961425923E+01  0.30229964390E+02  0.31885932887E+02  0.00000000000E+00 0.  1.
         11    1    3    3    0    0 -0.39881879223E+01  0.12649373895E+02 -0.16347059929E+02  0.21050859161E+02  0.51100000000E-03 0. -1.
        -11    1    3    3    0    0  0.40763306157E+01  0.70333529605E+01 -0.47051825866E+01  0.93927242369E+01  0.51100000000E-03 0.  1.
         12    1    3    3    0    0  0.76159388177E+01 -0.26278869448E+02 -0.91777218748E+01  0.28858483715E+02  0.00000000000E+00 0. -1.
</event>
<event>
 7    1  0.1327607E-011  0.5930194E+02  0.7816164E-02  0.1266605E+00
        -11   -1    0    0    0    0  0.00000000000E+00  0.00000000000E+00  0.45593999997E+02  0.45594000000E+02  0.51100000000E-03 0.  1.
         11   -1    0    0    0    0 -0.00000000000E+00 -0.00000000000E+00 -0.45593999997E+02  0.45594000000E+02  0.51100000000E-03 0. -1.
    9900012    2    1    2    0    0  0.28016600450E+01 -0.12092783283E+02 -0.29370670371E+02  0.59301937456E+02  0.49999988015E+02 0.  0.
        -12    1    1    2    0    0 -0.28016600450E+01  0.12092783283E+02  0.29370670371E+02  0.31886062544E+02  0.00000000000E+00 0.  1.
         11    1    3    3    0    0 -0.44799892756E+01 -0.40034992607E+01  0.13723086129E+01  0.61629166334E+01  0.51100000000E-03 0. -1.
        -11    1    3    3    0    0  0.24848426625E+01 -0.18543497220E+02  0.16331797946E+01  0.18780388939E+02  0.51100000000E-03 0.  1.
         12    1    3    3    0    0  0.47968066581E+01  0.10454213197E+02 -0.32376158778E+02  0.34358631884E+02  0.00000000000E+00 0. -1.
</event>
<event>
 7    1  0.1327607E-011  0.5930194E+02  0.7816164E-02  0.1266605E+00
        -11   -1    0    0    0    0  0.00000000000E+00  0.00000000000E+00  0.45593999997E+02  0.45594000000E+02  0.51100000000E-03 0.  1.
         11   -1    0    0    0    0 -0.00000000000E+00 -0.00000000000E+00 -0.45593999997E+02  0.45594000000E+02  0.51100000000E-03 0. -1.
    9900012    2    1    2    0    0 -0.53153589345E+01 -0.34672202360E+01 -0.31248135167E+02  0.59301943358E+02  0.49999998778E+02 0.  0.
        -12    1    1    2    0    0  0.53153589345E+01  0.34672202360E+01  0.31248135167E+02  0.31886056642E+02  0.00000000000E+00 0.  1.
         11    1    3    3    0    0 -0.11195967230E+02 -0.11140595918E+01  0.34994645615E+01  0.11782914048E+02  0.51100000000E-03 0. -1.
        -11    1    3    3    0    0 -0.58113676804E+01  0.34496912385E+01 -0.33759055496E+02  0.34428856970E+02  0.51100000000E-03 0.  1.
         12    1    3    3    0    0  0.11691975976E+02 -0.58028518827E+01 -0.98854423235E+00  0.13090172340E+02  0.00000000000E+00 0. -1.
</event>
<event>
 7    1  0.1327607E-011  0.5930195E+02  0.7816164E-02  0.1266605E+00
        -11   -1    0    0    0    0  0.00000000000E+00  0.00000000000E+00  0.45593999997E+02  0.45594000000E+02  0.51100000000E-03 0. -1.
         11   -1    0    0    0    0 -0.00000000000E+00 -0.00000000000E+00 -0.45593999997E+02  0.45594000000E+02  0.51100000000E-03 0.  1.
    9900012    2    1    2    0    0 -0.10697382250E+02 -0.18299879002E+02 -0.23820176123E+02  0.59301947422E+02  0.50000006190E+02 0.  0.
        -12    1    1    2    0    0  0.10697382250E+02  0.18299879002E+02  0.23820176123E+02  0.31886052578E+02  0.00000000000E+00 0.  1.
         11    1    3    3    0    0 -0.50792797432E+01 -0.53729497927E+01  0.71634048644E+01  0.10294757972E+02  0.51100000000E-03 0. -1.
        -11    1    3    3    0    0  0.14157218657E+02  0.93327052006E-01 -0.96181028291E+01  0.17115590914E+02  0.51100000000E-03 0.  1.
        -12    1    3    3    0    0 -0.19775321164E+02 -0.13020256261E+02 -0.21365478159E+02  0.31891598536E+02  0.00000000000E+00 0.  1.
</event>
<event>
 7    1  0.1327607E-011  0.5930195E+02  0.7816164E-02  0.1266605E+00
        -11   -1    0    0    0    0  0.00000000000E+00  0.00000000000E+00  0.45593999997E+02  0.45594000000E+02  0.51100000000E-03 0.  1.
         11   -1    0    0    0    0 -0.00000000000E+00 -0.00000000000E+00 -0.45593999997E+02  0.45594000000E+02  0.51100000000E-03 0. -1.
    9900012    2    1    2    0    0  0.14844754229E+02 -0.22174469644E+01 -0.28132475369E+02  0.59301953372E+02  0.50000017041E+02 0.  0.
        -12    1    1    2    0    0 -0.14844754229E+02  0.22174469644E+01  0.28132475369E+02  0.31886046628E+02  0.00000000000E+00 0.  1.
         11    1    3    3    0    0 -0.48567295949E+01 -0.42982485744E+00  0.10451158966E+01  0.49864656085E+01  0.51100000000E-03 0. -1.
        -11    1    3    3    0    0 -0.70312020373E+01  0.11582233963E+02 -0.15935374417E+01  0.13642774919E+02  0.51100000000E-03 0.  1.
         12    1    3    3    0    0  0.26732685862E+02 -0.13369856070E+02 -0.27584053824E+02  0.40672712844E+02  0.00000000000E+00 0. -1.
</event>
<event>
 7    1  0.1327607E-011  0.5930209E+02  0.7816164E-02  0.1266604E+00
        -11   -1    0    0    0    0  0.00000000000E+00  0.00000000000E+00  0.45593999997E+02  0.45594000000E+02  0.51100000000E-03 0. -1.
         11   -1    0    0    0    0 -0.00000000000E+00 -0.00000000000E+00 -0.45593999997E+02  0.45594000000E+02  0.51100000000E-03 0.  1.
    9900012    2    1    2    0    0  0.92368897167E+01 -0.30445537446E+02  0.21120288947E+01  0.59302085429E+02  0.50000257881E+02 0.  0.
        -12    1    1    2    0    0 -0.92368897167E+01  0.30445537446E+02 -0.21120288947E+01  0.31885914571E+02  0.00000000000E+00 0.  1.
         11    1    3    3    0    0  0.82164845917E+01  0.74851888740E+01  0.31781878357E+01  0.11560257337E+02  0.51100000000E-03 0. -1.
        -11    1    3    3    0    0 -0.11927273105E+02 -0.66577982994E+01 -0.23971055837E+01  0.13868389862E+02  0.51100000000E-03 0.  1.
        -12    1    3    3    0    0  0.12947678230E+02 -0.31272928020E+02  0.13309466427E+01  0.33873438229E+02  0.00000000000E+00 0.  1.
</event>
<event>
 7    1  0.1327607E-011  0.5930193E+02  0.7816164E-02  0.1266605E+00
        -11   -1    0    0    0    0  0.00000000000E+00  0.00000000000E+00  0.45593999997E+02  0.45594000000E+02  0.51100000000E-03 0. -1.
         11   -1    0    0    0    0 -0.00000000000E+00 -0.00000000000E+00 -0.45593999997E+02  0.45594000000E+02  0.51100000000E-03 0.  1.
    9900012    2    1    2    0    0 -0.23868167819E+02  0.20160114106E+02  0.63719757115E+01  0.59301926076E+02  0.49999967261E+02 0.  0.
        -12    1    1    2    0    0  0.23868167819E+02 -0.20160114106E+02 -0.63719757115E+01  0.31886073924E+02  0.00000000000E+00 0.  1.
         11    1    3    3    0    0 -0.34377744202E+02  0.21100223423E+02  0.47651448182E+01  0.40617180236E+02  0.51100000000E-03 0. -1.
        -11    1    3    3    0    0 -0.40119841089E+01  0.36385583156E+00  0.56058703183E+00  0.40672675887E+01  0.51100000000E-03 0.  1.
        -12    1    3    3    0    0  0.14521560492E+02 -0.13039651485E+01  0.10462438615E+01  0.14617478252E+02  0.00000000000E+00 0.  1.
</event>
<event>
 7    1  0.1327607E-011  0.5930194E+02  0.7816164E-02  0.1266605E+00
        -11   -1    0    0    0    0  0.00000000000E+00  0.00000000000E+00  0.45593999997E+02  0.45594000000E+02  0.51100000000E-03 0. -1.
         11   -1    0    0    0    0 -0.00000000000E+00 -0.00000000000E+00 -0.45593999997E+02  0.45594000000E+02  0.51100000000E-03 0.  1.
    9900012    2    1    2    0    0 -0.16913031530E+02  0.62930257901E+01  0.26288175736E+02  0.59301937329E+02  0.49999987783E+02 0.  0.
        -12    1    1    2    0    0  0.16913031530E+02 -0.62930257901E+01 -0.26288175736E+02  0.31886062671E+02  0.00000000000E+00 0.  1.
         11    1    3    3    0    0 -0.16648632146E+02 -0.36470813757E+00  0.23225775098E+02  0.28578778727E+02  0.51100000000E-03 0. -1.
        -11    1    3    3    0    0 -0.94267091182E+01  0.11472679152E+02 -0.68852609384E+01  0.16367407558E+02  0.51100000000E-03 0.  1.
         12    1    3    3    0    0  0.91623097349E+01 -0.48149452244E+01  0.99476615763E+01  0.14355751044E+02  0.00000000000E+00 0. -1.
</event>
<event>
 7    1  0.1327607E-011  0.5930187E+02  0.7816164E-02  0.1266605E+00
        -11   -1    0    0    0    0  0.00000000000E+00  0.00000000000E+00  0.45593999997E+02  0.45594000000E+02  0.51100000000E-03 0. -1.
         11   -1    0    0    0    0 -0.00000000000E+00 -0.00000000000E+00 -0.45593999997E+02  0.45594000000E+02  0.51100000000E-03 0.  1.
    9900012    2    1    2    0    0  0.43941530036E+01 -0.30614742834E+02  0.77559197071E+01  0.59301869003E+02  0.49999863174E+02 0.  0.
        -12    1    1    2    0    0 -0.43941530036E+01  0.30614742834E+02 -0.77559197071E+01  0.31886130997E+02  0.00000000000E+00 0.  1.
         11    1    3    3    0    0  0.10239462056E+02 -0.29522637032E+02  0.10865921056E+02  0.33083242301E+02  0.51100000000E-03 0. -1.
        -11    1    3    3    0    0  0.98059520343E+01 -0.29548380012E+01 -0.60741094425E+00  0.10259469344E+02  0.51100000000E-03 0.  1.
        -12    1    3    3    0    0 -0.15651261087E+02  0.18627321984E+01 -0.25025904043E+01  0.15959157358E+02  0.00000000000E+00 0.  1.
</event>
<event>
 7    1  0.1327607E-011  0.5930196E+02  0.7816164E-02  0.1266605E+00
        -11   -1    0    0    0    0  0.00000000000E+00  0.00000000000E+00  0.45593999997E+02  0.45594000000E+02  0.51100000000E-03 0. -1.
         11   -1    0    0    0    0 -0.00000000000E+00 -0.00000000000E+00 -0.45593999997E+02  0.45594000000E+02  0.51100000000E-03 0.  1.
    9900012    2    1    2    0    0  0.18460100413E+02  0.17639970097E+02  0.19099109223E+02  0.59301955632E+02  0.50000021164E+02 0.  0.
        -12    1    1    2    0    0 -0.18460100413E+02 -0.17639970097E+02 -0.19099109223E+02  0.31886044368E+02  0.00000000000E+00 0.  1.
         11    1    3    3    0    0  0.15824784539E+02  0.22485551522E+02 -0.42548654586E+01  0.27823150671E+02  0.51100000000E-03 0. -1.
        -11    1    3    3    0    0  0.65100772561E+01  0.52770875102E+01  0.39763641555E+01  0.92757873320E+01  0.51100000000E-03 0.  1.
        -12    1    3    3    0    0 -0.38747613817E+01 -0.10122668935E+02  0.19377610527E+02  0.22203017629E+02  0.00000000000E+00 0.  1.
</event>
<event>
 7    1  0.1327607E-011  0.5930201E+02  0.7816164E-02  0.1266605E+00
        -11   -1    0    0    0    0  0.00000000000E+00  0.00000000000E+00  0.45593999997E+02  0.45594000000E+02  0.51100000000E-03 0. -1.
         11   -1    0    0    0    0 -0.00000000000E+00 -0.00000000000E+00 -0.45593999997E+02  0.45594000000E+02  0.51100000000E-03 0.  1.
    9900012    2    1    2    0    0 -0.31866393899E+02 -0.91720001538E+00  0.63861238709E+00  0.59302013395E+02  0.50000126509E+02 0.  0.
        -12    1    1    2    0    0  0.31866393899E+02  0.91720001538E+00 -0.63861238709E+00  0.31885986605E+02  0.00000000000E+00 0.  1.
         11    1    3    3    0    0 -0.25265731957E+02  0.12376227603E+02 -0.10219284552E+02  0.29932624309E+02  0.51100000000E-03 0. -1.
        -11    1    3    3    0    0  0.34733447090E+01 -0.86600217655E+00 -0.54528086749E+01  0.65228219310E+01  0.51100000000E-03 0.  1.
         12    1    3    3    0    0 -0.10074006651E+02 -0.12427425442E+02  0.16310705614E+02  0.22846567155E+02  0.00000000000E+00 0. -1.
</event>
<event>
 7    1  0.1327607E-011  0.5930193E+02  0.7816164E-02  0.1266605E+00
        -11   -1    0    0    0    0  0.00000000000E+00  0.00000000000E+00  0.45593999997E+02  0.45594000000E+02  0.51100000000E-03 0.  1.
         11   -1    0    0    0    0 -0.00000000000E+00 -0.00000000000E+00 -0.45593999997E+02  0.45594000000E+02  0.51100000000E-03 0. -1.
    9900012    2    1    2    0    0  0.30492128124E+02 -0.40808992816E+01  0.83843895153E+01  0.59301927742E+02  0.49999970299E+02 0.  0.
        -12    1    1    2    0    0 -0.30492128124E+02  0.40808992816E+01 -0.83843895153E+01  0.31886072258E+02  0.00000000000E+00 0.  1.
         11    1    3    3    0    0  0.50688736696E+01 -0.19564239990E+01  0.15506473312E+01  0.56502727853E+01  0.51100000000E-03 0. -1.
        -11    1    3    3    0    0  0.97762952827E+01 -0.14735125704E+02  0.22179729241E+02  0.28366181774E+02  0.51100000000E-03 0.  1.
        -12    1    3    3    0    0  0.15646959172E+02  0.12610650421E+02 -0.15345987057E+02  0.25285473183E+02  0.00000000000E+00 0.  1.
</event>
<event>
 7    1  0.1327607E-011  0.5930198E+02  0.7816164E-02  0.1266605E+00
        -11   -1    0    0    0    0  0.00000000000E+00  0.00000000000E+00  0.45593999997E+02  0.45594000000E+02  0.51100000000E-03 0. -1.
         11   -1    0    0    0    0 -0.00000000000E+00 -0.00000000000E+00 -0.45593999997E+02  0.45594000000E+02  0.51100000000E-03 0.  1.
    9900012    2    1    2    0    0  0.11210114348E+02  0.23135735574E+02  0.18862375826E+02  0.59301981966E+02  0.50000069191E+02 0.  0.
        -12    1    1    2    0    0 -0.11210114348E+02 -0.23135735574E+02 -0.18862375826E+02  0.31886018034E+02  0.00000000000E+00 0.  1.
         11    1    3    3    0    0  0.28435573801E+01  0.37253488652E+00 -0.37504127103E+01  0.47212494717E+01  0.51100000000E-03 0. -1.
        -11    1    3    3    0    0  0.19200672602E+02 -0.35221318381E+01  0.16361634215E+02  0.25471048575E+02  0.51100000000E-03 0.  1.
         12    1    3    3    0    0 -0.10834115634E+02  0.26285332526E+02  0.62511543219E+01  0.29109683920E+02  0.00000000000E+00 0. -1.
</event>
<event>
 7    1  0.1327607E-011  0.5930197E+02  0.7816164E-02  0.1266605E+00
        -11   -1    0    0    0    0  0.00000000000E+00  0.00000000000E+00  0.45593999997E+02  0.45594000000E+02  0.51100000000E-03 0. -1.
         11   -1    0    0    0    0 -0.00000000000E+00 -0.00000000000E+00 -0.45593999997E+02  0.45594000000E+02  0.51100000000E-03 0.  1.
    9900012    2    1    2    0    0  0.73982448058E+01  0.69122400846E+01  0.30235841078E+02  0.59301965833E+02  0.50000039768E+02 0.  0.
        -12    1    1    2    0    0 -0.73982448058E+01 -0.69122400846E+01 -0.30235841078E+02  0.31886034167E+02  0.00000000000E+00 0.  1.
         11    1    3    3    0    0  0.85213393917E+01 -0.61527147478E+01  0.25637632534E+02  0.27708434203E+02  0.51100000000E-03 0. -1.
        -11    1    3    3    0    0  0.47423808907E+01 -0.51302219118E+01  0.95620426566E+01  0.11842382083E+02  0.51100000000E-03 0.  1.
        -12    1    3    3    0    0 -0.58654754766E+01  0.18195176744E+02 -0.49638341125E+01  0.19751149547E+02  0.00000000000E+00 0.  1.
</event>
<event>
 7    1  0.1327607E-011  0.5930192E+02  0.7816164E-02  0.1266605E+00
        -11   -1    0    0    0    0  0.00000000000E+00  0.00000000000E+00  0.45593999997E+02  0.45594000000E+02  0.51100000000E-03 0.  1.
         11   -1    0    0    0    0 -0.00000000000E+00 -0.00000000000E+00 -0.45593999997E+02  0.45594000000E+02  0.51100000000E-03 0. -1.
    9900012    2    1    2    0    0  0.26304396071E+02 -0.55532635019E+01 -0.17145320510E+02  0.59301921477E+02  0.49999958872E+02 0.  0.
        -12    1    1    2    0    0 -0.26304396071E+02  0.55532635019E+01  0.17145320510E+02  0.31886078523E+02  0.00000000000E+00 0.  1.
         11    1    3    3    0    0  0.24944404129E+02  0.67767625427E+01  0.10421517536E+01  0.25869555243E+02  0.51100000000E-03 0. -1.
        -11    1    3    3    0    0  0.68881847901E+01 -0.13653396462E+02 -0.99539791442E+00  0.15324918986E+02  0.51100000000E-03 0.  1.
        -12    1    3    3    0    0 -0.55281928477E+01  0.13233704173E+01 -0.17192074349E+02  0.18107447248E+02  0.00000000000E+00 0.  1.
</event>
<event>
 7    1  0.1327607E-011  0.5930197E+02  0.7816164E-02  0.1266605E+00
        -11   -1    0    0    0    0  0.00000000000E+00  0.00000000000E+00  0.45593999997E+02  0.45594000000E+02  0.51100000000E-03 0.  1.
         11   -1    0    0    0    0 -0.00000000000E+00 -0.00000000000E+00 -0.45593999997E+02  0.45594000000E+02  0.51100000000E-03 0. -1.
    9900012    2    1    2    0    0  0.63114487429E+01  0.27421250269E+02 -0.14998656258E+02  0.59301967931E+02  0.50000043594E+02 0.  0.
        -12    1    1    2    0    0 -0.63114487429E+01 -0.27421250269E+02  0.14998656258E+02  0.31886032069E+02  0.00000000000E+00 0.  1.
         11    1    3    3    0    0 -0.16797032659E+01 -0.11502642796E+02 -0.32344756413E+01  0.12066235009E+02  0.51100000000E-03 0. -1.
        -11    1    3    3    0    0  0.20154080386E+01 -0.23257777985E+01  0.15957750340E+01  0.34666424895E+01  0.51100000000E-03 0.  1.
         12    1    3    3    0    0  0.59757439702E+01  0.41249670863E+02 -0.13359955650E+02  0.43769090433E+02  0.00000000000E+00 0. -1.
</event>
<event>
 7    1  0.1327607E-011  0.5930193E+02  0.7816164E-02  0.1266605E+00
        -11   -1    0    0    0    0  0.00000000000E+00  0.00000000000E+00  0.45593999997E+02  0.45594000000E+02  0.51100000000E-03 0.  1.
         11   -1    0    0    0    0 -0.00000000000E+00 -0.00000000000E+00 -0.45593999997E+02  0.45594000000E+02  0.51100000000E-03 0. -1.
    9900012    2    1    2    0    0  0.31518390440E+02  0.21563727796E+01  0.43200314242E+01  0.59301928574E+02  0.49999971816E+02 0.  0.
        -12    1    1    2    0    0 -0.31518390440E+02 -0.21563727796E+01 -0.43200314242E+01  0.31886071426E+02  0.00000000000E+00 0.  1.
         11    1    3    3    0    0  0.35439228603E+02 -0.13865613003E+02  0.65146442501E+01  0.38608739139E+02  0.51100000000E-03 0. -1.
        -11    1    3    3    0    0 -0.49593258958E+01  0.10695445362E+01  0.14332811089E+01  0.52719193710E+01  0.51100000000E-03 0.  1.
        -12    1    3    3    0    0  0.10384877328E+01  0.14952441246E+02 -0.36278939348E+01  0.15421270064E+02  0.00000000000E+00 0.  1.
</event>
<event>
 7    1  0.1327607E-011  0.5930201E+02  0.7816164E-02  0.1266605E+00
        -11   -1    0    0    0    0  0.00000000000E+00  0.00000000000E+00  0.45593999997E+02  0.45594000000E+02  0.51100000000E-03 0.  1.
         11   -1    0    0    0    0 -0.00000000000E+00 -0.00000000000E+00 -0.45593999997E+02  0.45594000000E+02  0.51100000000E-03 0. -1.
    9900012    2    1    2    0    0  0.18743602285E+02 -0.41370297601E+01 -0.25461317528E+02  0.59302010410E+02  0.50000121065E+02 0.  0.
        -12    1    1    2    0    0 -0.18743602285E+02  0.41370297601E+01  0.25461317528E+02  0.31885989590E+02  0.00000000000E+00 0.  1.
         11    1    3    3    0    0  0.17054683443E+02  0.10542974008E+02 -0.56157309534E+01  0.20821934652E+02  0.51100000000E-03 0. -1.
        -11    1    3    3    0    0  0.37887951591E+01  0.85687941272E+01 -0.79133287077E+01  0.12263766675E+02  0.51100000000E-03 0.  1.
        -12    1    3    3    0    0 -0.20998763168E+01 -0.23248797895E+02 -0.11932257867E+02  0.26216309083E+02  0.00000000000E+00 0.  1.
</event>
<event>
 7    1  0.1327607E-011  0.5930194E+02  0.7816164E-02  0.1266605E+00
        -11   -1    0    0    0    0  0.00000000000E+00  0.00000000000E+00  0.45593999997E+02  0.45594000000E+02  0.51100000000E-03 0.  1.
         11   -1    0    0    0    0 -0.00000000000E+00 -0.00000000000E+00 -0.45593999997E+02  0.45594000000E+02  0.51100000000E-03 0. -1.
    9900012    2    1    2    0    0 -0.19848359719E+02  0.16127364784E+02 -0.19043933158E+02  0.59301942412E+02  0.49999997053E+02 0.  0.
        -12    1    1    2    0    0  0.19848359719E+02 -0.16127364784E+02  0.19043933158E+02  0.31886057588E+02  0.00000000000E+00 0.  1.
         11    1    3    3    0    0 -0.94060516264E+01 -0.48832083920E+01 -0.78380424330E+01  0.13181594776E+02  0.51100000000E-03 0. -1.
        -11    1    3    3    0    0 -0.58198874455E+01 -0.10593751669E+02  0.51250502598E+00  0.12097988509E+02  0.51100000000E-03 0.  1.
         12    1    3    3    0    0 -0.46224206467E+01  0.31604324845E+02 -0.11718395751E+02  0.34022359126E+02  0.00000000000E+00 0. -1.
</event>
<event>
 7    1  0.1327607E-011  0.5930186E+02  0.7816164E-02  0.1266605E+00
        -11   -1    0    0    0    0  0.00000000000E+00  0.00000000000E+00  0.45593999997E+02  0.45594000000E+02  0.51100000000E-03 0.  1.
         11   -1    0    0    0    0 -0.00000000000E+00 -0.00000000000E+00 -0.45593999997E+02  0.45594000000E+02  0.51100000000E-03 0. -1.
    9900012    2    1    2    0    0  0.14710152255E+02  0.26688376599E+02 -0.93844638205E+01  0.59301855892E+02  0.49999839262E+02 0.  0.
        -12    1    1    2    0    0 -0.14710152255E+02 -0.26688376599E+02  0.93844638205E+01  0.31886144108E+02  0.00000000000E+00 0.  1.
         11    1    3    3    0    0  0.23266138414E+02  0.10569485376E+01  0.76963632709E+01  0.24528847196E+02  0.51100000000E-03 0. -1.
        -11    1    3    3    0    0  0.21132149386E+00  0.47314581158E+01  0.20048178736E+01  0.51430193119E+01  0.51100000000E-03 0.  1.
         12    1    3    3    0    0 -0.87673076524E+01  0.20899969946E+02 -0.19085644965E+02  0.29629989385E+02  0.00000000000E+00 0. -1.
</event>
<event>
 7    1  0.1327607E-011  0.5930194E+02  0.7816164E-02  0.1266605E+00
        -11   -1    0    0    0    0  0.00000000000E+00  0.00000000000E+00  0.45593999997E+02  0.45594000000E+02  0.51100000000E-03 0. -1.
         11   -1    0    0    0    0 -0.00000000000E+00 -0.00000000000E+00 -0.45593999997E+02  0.45594000000E+02  0.51100000000E-03 0.  1.
    9900012    2    1    2    0    0 -0.54265012373E+01  0.27799521746E+02  0.14644477644E+02  0.59301936423E+02  0.49999986131E+02 0.  0.
        -12    1    1    2    0    0  0.54265012373E+01 -0.27799521746E+02 -0.14644477644E+02  0.31886063577E+02  0.00000000000E+00 0.  1.
         11    1    3    3    0    0 -0.18774847269E+02  0.73765297473E+01  0.11461014192E+02  0.23200494125E+02  0.51100000000E-03 0. -1.
        -11    1    3    3    0    0 -0.64860746833E+01  0.41013939416E+01  0.66848905752E+01  0.10177345397E+02  0.51100000000E-03 0.  1.
        -12    1    3    3    0    0  0.19834420715E+02  0.16321598057E+02 -0.35014271227E+01  0.25924096901E+02  0.00000000000E+00 0.  1.
</event>
<event>
 7    1  0.1327607E-011  0.5930190E+02  0.7816164E-02  0.1266605E+00
        -11   -1    0    0    0    0  0.00000000000E+00  0.00000000000E+00  0.45593999997E+02  0.45594000000E+02  0.51100000000E-03 0.  1.
         11   -1    0    0    0    0 -0.00000000000E+00 -0.00000000000E+00 -0.45593999997E+02  0.45594000000E+02  0.51100000000E-03 0. -1.
    9900012    2    1    2    0    0  0.10763861861E+02 -0.11906410128E+02 -0.27551767012E+02  0.59301902876E+02  0.49999924950E+02 0.  0.
        -12    1    1    2    0    0 -0.10763861861E+02  0.11906410128E+02  0.27551767012E+02  0.31886097124E+02  0.00000000000E+00 0.  1.
         11    1    3    3    0    0  0.14787848873E+01 -0.87126416744E+01 -0.12909958772E+02  0.15644934178E+02  0.51100000000E-03 0. -1.
        -11    1    3    3    0    0  0.13033604853E+02 -0.18730916439E+02 -0.15605277851E+02  0.27645013713E+02  0.51100000000E-03 0.  1.
         12    1    3    3    0    0 -0.37485278793E+01  0.15537147985E+02  0.96346961104E+00  0.16011954986E+02  0.00000000000E+00 0. -1.
</event>
<event>
 7    1  0.1327607E-011  0.5930200E+02  0.7816164E-02  0.1266605E+00
        -11   -1    0    0    0    0  0.00000000000E+00  0.00000000000E+00  0.45593999997E+02  0.45594000000E+02  0.51100000000E-03 0.  1.
         11   -1    0    0    0    0 -0.00000000000E+00 -0.00000000000E+00 -0.45593999997E+02  0.45594000000E+02  0.51100000000E-03 0. -1.
    9900012    2    1    2    0    0 -0.31642793394E+02 -0.23437594263E+01 -0.31555852083E+01  0.59301995232E+02  0.50000093384E+02 0.  0.
        -12    1    1    2    0    0  0.31642793394E+02  0.23437594263E+01  0.31555852083E+01  0.31886004768E+02  0.00000000000E+00 0.  1.
         11    1    3    3    0    0 -0.24222725003E+01  0.44291580272E+01 -0.14929722522E+01  0.52643908767E+01  0.51100000000E-03 0. -1.
        -11    1    3    3    0    0  0.19463445147E+01  0.14940606241E+02  0.41081475572E+01  0.15616877039E+02  0.51100000000E-03 0.  1.
         12    1    3    3    0    0 -0.31166865409E+02 -0.21713523695E+02 -0.57707605132E+01  0.38420727317E+02  0.00000000000E+00 0. -1.
</event>
<event>
 7    1  0.1327607E-011  0.5930199E+02  0.7816164E-02  0.1266605E+00
        -11   -1    0    0    0    0  0.00000000000E+00  0.00000000000E+00  0.45593999997E+02  0.45594000000E+02  0.51100000000E-03 0.  1.
         11   -1    0    0    0    0 -0.00000000000E+00 -0.00000000000E+00 -0.45593999997E+02  0.45594000000E+02  0.51100000000E-03 0. -1.
    9900012    2    1    2    0    0  0.13901114487E+02 -0.86773637851E+01 -0.27352882688E+02  0.59301987117E+02  0.50000078584E+02 0.  0.
        -12    1    1    2    0    0 -0.13901114487E+02  0.86773637851E+01  0.27352882688E+02  0.31886012883E+02  0.00000000000E+00 0.  1.
         11    1    3    3    0    0 -0.72933598289E+01 -0.20848848531E+02 -0.14536515494E+02  0.26441971667E+02  0.51100000000E-03 0. -1.
        -11    1    3    3    0    0 -0.23081784021E+01  0.13465036606E+01  0.17227124764E+01  0.31793864473E+01  0.51100000000E-03 0.  1.
        -12    1    3    3    0    0  0.23502652718E+02  0.10824981086E+02 -0.14539079671E+02  0.29680629003E+02  0.00000000000E+00 0.  1.
</event>
<event>
 7    1  0.1327607E-011  0.5930195E+02  0.7816164E-02  0.1266605E+00
        -11   -1    0    0    0    0  0.00000000000E+00  0.00000000000E+00  0.45593999997E+02  0.45594000000E+02  0.51100000000E-03 0. -1.
         11   -1    0    0    0    0 -0.00000000000E+00 -0.00000000000E+00 -0.45593999997E+02  0.45594000000E+02  0.51100000000E-03 0.  1.
    9900012    2    1    2    0    0 -0.13565973084E+02  0.28469258632E+02  0.47101600568E+01  0.59301954141E+02  0.50000018445E+02 0.  0.
        -12    1    1    2    0    0  0.13565973084E+02 -0.28469258632E+02 -0.47101600568E+01  0.31886045859E+02  0.00000000000E+00 0.  1.
         11    1    3    3    0    0 -0.11608421315E+02  0.28178239405E+02  0.82909325534E+01  0.31583352961E+02  0.51100000000E-03 0. -1.
        -11    1    3    3    0    0  0.10768581098E+02  0.50523208912E+01 -0.68730163192E+01  0.13737781438E+02  0.51100000000E-03 0.  1.
         12    1    3    3    0    0 -0.12726132867E+02 -0.47613016646E+01  0.32922438226E+01  0.13980819743E+02  0.00000000000E+00 0. -1.
</event>
<event>
 7    1  0.1327607E-011  0.5930195E+02  0.7816164E-02  0.1266605E+00
        -11   -1    0    0    0    0  0.00000000000E+00  0.00000000000E+00  0.45593999997E+02  0.45594000000E+02  0.51100000000E-03 0. -1.
         11   -1    0    0    0    0 -0.00000000000E+00 -0.00000000000E+00 -0.45593999997E+02  0.45594000000E+02  0.51100000000E-03 0.  1.
    9900012    2    1    2    0    0  0.19784193910E+02  0.76496433688E+01  0.23807331927E+02  0.59301946217E+02  0.50000003993E+02 0.  0.
        -12    1    1    2    0    0 -0.19784193910E+02 -0.76496433688E+01 -0.23807331927E+02  0.31886053783E+02  0.00000000000E+00 0.  1.
         11    1    3    3    0    0 -0.26594120519E+01  0.75452205731E+01 -0.65861666492E+01  0.10362452285E+02  0.51100000000E-03 0. -1.
        -11    1    3    3    0    0  0.65607079687E+01  0.13805577441E+02  0.51745598110E+01  0.16137314740E+02  0.51100000000E-03 0.  1.
         12    1    3    3    0    0  0.15882897993E+02 -0.13701154645E+02  0.25218938766E+02  0.32802179192E+02  0.00000000000E+00 0. -1.
</event>
<event>
 7    1  0.1327607E-011  0.5930194E+02  0.7816164E-02  0.1266605E+00
        -11   -1    0    0    0    0  0.00000000000E+00  0.00000000000E+00  0.45593999997E+02  0.45594000000E+02  0.51100000000E-03 0. -1.
         11   -1    0    0    0    0 -0.00000000000E+00 -0.00000000000E+00 -0.45593999997E+02  0.45594000000E+02  0.51100000000E-03 0.  1.
    9900012    2    1    2    0    0  0.10998375658E+02 -0.20361496971E+00  0.29928500617E+02  0.59301939169E+02  0.49999991138E+02 0.  0.
        -12    1    1    2    0    0 -0.10998375658E+02  0.20361496971E+00 -0.29928500617E+02  0.31886060831E+02  0.00000000000E+00 0.  1.
         11    1    3    3    0    0 -0.29895403697E-01  0.95157972851E+01 -0.45440603429E+01  0.10545130458E+02  0.51100000000E-03 0. -1.
        -11    1    3    3    0    0 -0.57128288998E+01  0.41168358683E+01 -0.10512853564E+01  0.71196876874E+01  0.51100000000E-03 0.  1.
         12    1    3    3    0    0  0.16741099961E+02 -0.13836248123E+02  0.35523846316E+02  0.41637121024E+02  0.00000000000E+00 0. -1.
</event>
<event>
 7    1  0.1327607E-011  0.5930215E+02  0.7816164E-02  0.1266604E+00
        -11   -1    0    0    0    0  0.00000000000E+00  0.00000000000E+00  0.45593999997E+02  0.45594000000E+02  0.51100000000E-03 0.  1.
         11   -1    0    0    0    0 -0.00000000000E+00 -0.00000000000E+00 -0.45593999997E+02  0.45594000000E+02  0.51100000000E-03 0. -1.
    9900012    2    1    2    0    0  0.30306365793E+02 -0.44519523625E+01  0.88550358407E+01  0.59302151302E+02  0.50000378018E+02 0.  0.
        -12    1    1    2    0    0 -0.30306365793E+02  0.44519523625E+01 -0.88550358407E+01  0.31885848698E+02  0.00000000000E+00 0.  1.
         11    1    3    3    0    0  0.14673570441E+02  0.29950773874E+01 -0.84403317206E+01  0.17190792822E+02  0.51100000000E-03 0. -1.
        -11    1    3    3    0    0 -0.34765365363E+01 -0.14875391270E+02  0.15120390036E+02  0.21493947214E+02  0.51100000000E-03 0.  1.
         12    1    3    3    0    0  0.19109331888E+02  0.74283615199E+01  0.21749775251E+01  0.20617411266E+02  0.00000000000E+00 0. -1.
</event>
<event>
 7    1  0.1327607E-011  0.5930182E+02  0.7816164E-02  0.1266605E+00
        -11   -1    0    0    0    0  0.00000000000E+00  0.00000000000E+00  0.45593999997E+02  0.45594000000E+02  0.51100000000E-03 0. -1.
         11   -1    0    0    0    0 -0.00000000000E+00 -0.00000000000E+00 -0.45593999997E+02  0.45594000000E+02  0.51100000000E-03 0.  1.
    9900012    2    1    2    0    0  0.30928609001E+02  0.12919531680E+01  0.76472326421E+01  0.59301824864E+02  0.49999782674E+02 0.  0.
        -12    1    1    2    0    0 -0.30928609001E+02 -0.12919531680E+01 -0.76472326421E+01  0.31886175136E+02  0.00000000000E+00 0.  1.
         11    1    3    3    0    0  0.21500543235E+02 -0.72128214480E+01 -0.70707951156E+00  0.22689162928E+02  0.51100000000E-03 0. -1.
        -11    1    3    3    0    0  0.14728595749E+02 -0.89206340802E+01  0.60615317568E+01  0.18255174955E+02  0.51100000000E-03 0.  1.
        -12    1    3    3    0    0 -0.53005299836E+01  0.17425408696E+02  0.22927803968E+01  0.18357486982E+02  0.00000000000E+00 0.  1.
</event>
<event>
 7    1  0.1327607E-011  0.5930193E+02  0.7816164E-02  0.1266605E+00
        -11   -1    0    0    0    0  0.00000000000E+00  0.00000000000E+00  0.45593999997E+02  0.45594000000E+02  0.51100000000E-03 0. -1.
         11   -1    0    0    0    0 -0.00000000000E+00 -0.00000000000E+00 -0.45593999997E+02  0.45594000000E+02  0.51100000000E-03 0.  1.
    9900012    2    1    2    0    0 -0.30786969065E+02  0.81335881085E+01 -0.16518611270E+01  0.59301931492E+02  0.49999977137E+02 0.  0.
        -12    1    1    2    0    0  0.30786969065E+02 -0.81335881085E+01  0.16518611270E+01  0.31886068508E+02  0.00000000000E+00 0.  1.
         11    1    3    3    0    0  0.59963679396E+01  0.36270745842E+01  0.96343706733E+00  0.70739175674E+01  0.51100000000E-03 0. -1.
        -11    1    3    3    0    0  0.30799496944E+01  0.33854787561E+01  0.95035510200E+01  0.10548224437E+02  0.51100000000E-03 0.  1.
         12    1    3    3    0    0 -0.39863286699E+02  0.11210347682E+01 -0.12118849214E+02  0.41679789487E+02  0.00000000000E+00 0. -1.
</event>
<event>
 7    1  0.1327607E-011  0.5930195E+02  0.7816164E-02  0.1266605E+00
        -11   -1    0    0    0    0  0.00000000000E+00  0.00000000000E+00  0.45593999997E+02  0.45594000000E+02  0.51100000000E-03 0.  1.
         11   -1    0    0    0    0 -0.00000000000E+00 -0.00000000000E+00 -0.45593999997E+02  0.45594000000E+02  0.51100000000E-03 0. -1.
    9900012    2    1    2    0    0  0.16641148180E+02 -0.74825748791E+01 -0.26149633801E+02  0.59301951523E+02  0.50000013669E+02 0.  0.
        -12    1    1    2    0    0 -0.16641148180E+02  0.74825748791E+01  0.26149633801E+02  0.31886048477E+02  0.00000000000E+00 0.  1.
         11    1    3    3    0    0  0.12945565801E+02 -0.15765377754E+02 -0.26901855545E+02  0.33761585295E+02  0.51100000000E-03 0. -1.
        -11    1    3    3    0    0  0.33604443810E+01 -0.23410152368E+01 -0.97640087353E+01  0.10588144579E+02  0.51100000000E-03 0.  1.
        -12    1    3    3    0    0  0.33513799851E+00  0.10623818112E+02  0.10516230479E+02  0.14952221649E+02  0.00000000000E+00 0.  1.
</event>
<event>
 7    1  0.1327607E-011  0.5930195E+02  0.7816164E-02  0.1266605E+00
        -11   -1    0    0    0    0  0.00000000000E+00  0.00000000000E+00  0.45593999997E+02  0.45594000000E+02  0.51100000000E-03 0.  1.
         11   -1    0    0    0    0 -0.00000000000E+00 -0.00000000000E+00 -0.45593999997E+02  0.45594000000E+02  0.51100000000E-03 0. -1.
    9900012    2    1    2    0    0  0.22831861261E+02 -0.21988653110E+02  0.34533297109E+01  0.59301949126E+02  0.50000009299E+02 0.  0.
        -12    1    1    2    0    0 -0.22831861261E+02  0.21988653110E+02 -0.34533297109E+01  0.31886050874E+02  0.00000000000E+00 0.  1.
         11    1    3    3    0    0  0.87902975760E+01  0.23151978507E+00 -0.87986113304E+01  0.12439392851E+02  0.51100000000E-03 0. -1.
        -11    1    3    3    0    0  0.63583814710E+01  0.63790925689E+01  0.14601761529E+02  0.17156144000E+02  0.51100000000E-03 0.  1.
        -12    1    3    3    0    0  0.76831822140E+01 -0.28599265464E+02 -0.23498204874E+01  0.29706412276E+02  0.00000000000E+00 0.  1.
</event>
<event>
 7    1  0.1327607E-011  0.5930194E+02  0.7816164E-02  0.1266605E+00
        -11   -1    0    0    0    0  0.00000000000E+00  0.00000000000E+00  0.45593999997E+02  0.45594000000E+02  0.51100000000E-03 0.  1.
         11   -1    0    0    0    0 -0.00000000000E+00 -0.00000000000E+00 -0.45593999997E+02  0.45594000000E+02  0.51100000000E-03 0. -1.
    9900012    2    1    2    0    0 -0.87360461795E+01  0.55027906039E+01 -0.30168220718E+02  0.59301941157E+02  0.49999994764E+02 0.  0.
        -12    1    1    2    0    0  0.87360461795E+01 -0.55027906039E+01  0.30168220718E+02  0.31886058843E+02  0.00000000000E+00 0.  1.
         11    1    3    3    0    0 -0.62502221721E+01  0.13316195968E+01  0.34279224947E+01  0.72518370667E+01  0.51100000000E-03 0. -1.
        -11    1    3    3    0    0 -0.11168599394E+02 -0.75145804323E+01  0.19839991639E+01  0.13606718357E+02  0.51100000000E-03 0.  1.
         12    1    3    3    0    0  0.86827753867E+01  0.11685751439E+02 -0.35580142376E+02  0.38443385733E+02  0.00000000000E+00 0. -1.
</event>
<event>
 7    1  0.1327607E-011  0.5930192E+02  0.7816164E-02  0.1266605E+00
        -11   -1    0    0    0    0  0.00000000000E+00  0.00000000000E+00  0.45593999997E+02  0.45594000000E+02  0.51100000000E-03 0. -1.
         11   -1    0    0    0    0 -0.00000000000E+00 -0.00000000000E+00 -0.45593999997E+02  0.45594000000E+02  0.51100000000E-03 0.  1.
    9900012    2    1    2    0    0  0.24568632347E+02  0.19343663094E+02  0.62391551775E+01  0.59301920676E+02  0.49999957412E+02 0.  0.
        -12    1    1    2    0    0 -0.24568632347E+02 -0.19343663094E+02 -0.62391551775E+01  0.31886079324E+02  0.00000000000E+00 0.  1.
         11    1    3    3    0    0  0.28490946199E+01  0.44103971911E+01 -0.77462853801E+01  0.93580917386E+01  0.51100000000E-03 0. -1.
        -11    1    3    3    0    0 -0.22925342409E+01  0.11326893775E+02 -0.10388345124E+02  0.15539367764E+02  0.51100000000E-03 0.  1.
         12    1    3    3    0    0  0.24012071968E+02  0.36063721282E+01  0.24373785682E+02  0.34404461173E+02  0.00000000000E+00 0. -1.
</event>
<event>
 7    1  0.1327607E-011  0.5930194E+02  0.7816164E-02  0.1266605E+00
        -11   -1    0    0    0    0  0.00000000000E+00  0.00000000000E+00  0.45593999997E+02  0.45594000000E+02  0.51100000000E-03 0. -1.
         11   -1    0    0    0    0 -0.00000000000E+00 -0.00000000000E+00 -0.45593999997E+02  0.45594000000E+02  0.51100000000E-03 0.  1.
    9900012    2    1    2    0    0 -0.12791962709E+02 -0.29155298787E+02  0.17478338861E+01  0.59301942223E+02  0.49999996708E+02 0.  0.
        -12    1    1    2    0    0  0.12791962709E+02  0.29155298787E+02 -0.17478338861E+01  0.31886057777E+02  0.00000000000E+00 0.  1.
         11    1    3    3    0    0  0.38457458745E+01 -0.83886137267E-01 -0.23558531945E+01  0.45107474714E+01  0.51100000000E-03 0. -1.
        -11    1    3    3    0    0 -0.13328083873E+02 -0.13785975726E+02 -0.18933036598E+02  0.26947185781E+02  0.51100000000E-03 0.  1.
         12    1    3    3    0    0 -0.33096247102E+01 -0.15285436924E+02  0.23036723679E+02  0.27844008970E+02  0.00000000000E+00 0. -1.
</event>
<event>
 7    1  0.1327607E-011  0.5930190E+02  0.7816164E-02  0.1266605E+00
        -11   -1    0    0    0    0  0.00000000000E+00  0.00000000000E+00  0.45593999997E+02  0.45594000000E+02  0.51100000000E-03 0.  1.
         11   -1    0    0    0    0 -0.00000000000E+00 -0.00000000000E+00 -0.45593999997E+02  0.45594000000E+02  0.51100000000E-03 0. -1.
    9900012    2    1    2    0    0  0.36247210003E+01  0.68112889348E+01 -0.30938509476E+02  0.59301896006E+02  0.49999912420E+02 0.  0.
        -12    1    1    2    0    0 -0.36247210003E+01 -0.68112889348E+01  0.30938509476E+02  0.31886103994E+02  0.00000000000E+00 0.  1.
         11    1    3    3    0    0  0.50938508255E+00 -0.12284815385E+02 -0.15992376951E+02  0.20172562629E+02  0.51100000000E-03 0. -1.
        -11    1    3    3    0    0 -0.12360110593E+02  0.14762808154E+02 -0.39449569789E+01  0.19653893362E+02  0.51100000000E-03 0.  1.
         12    1    3    3    0    0  0.15475446511E+02  0.43332961657E+01 -0.11001175546E+02  0.19475440015E+02  0.00000000000E+00 0. -1.
</event>
<event>
 7    1  0.1327607E-011  0.5930196E+02  0.7816164E-02  0.1266605E+00
        -11   -1    0    0    0    0  0.00000000000E+00  0.00000000000E+00  0.45593999997E+02  0.45594000000E+02  0.51100000000E-03 0. -1.
         11   -1    0    0    0    0 -0.00000000000E+00 -0.00000000000E+00 -0.45593999997E+02  0.45594000000E+02  0.51100000000E-03 0.  1.
    9900012    2    1    2    0    0  0.18461628373E+02  0.22574586139E+02  0.12894794357E+02  0.59301962569E+02  0.50000033815E+02 0.  0.
        -12    1    1    2    0    0 -0.18461628373E+02 -0.22574586139E+02 -0.12894794357E+02  0.31886037431E+02  0.00000000000E+00 0.  1.
         11    1    3    3    0    0  0.13233901777E+02  0.16884080392E+02  0.87189246797E+01  0.23156596787E+02  0.51100000000E-03 0. -1.
        -11    1    3    3    0    0 -0.12189944653E+01 -0.13550024091E+02  0.75740362408E+01  0.15570970606E+02  0.51100000000E-03 0.  1.
         12    1    3    3    0    0  0.64467210611E+01  0.19240529837E+02 -0.33981665638E+01  0.20574395176E+02  0.00000000000E+00 0. -1.
</event>
<event>
 7    1  0.1327607E-011  0.5930194E+02  0.7816164E-02  0.1266605E+00
        -11   -1    0    0    0    0  0.00000000000E+00  0.00000000000E+00  0.45593999997E+02  0.45594000000E+02  0.51100000000E-03 0.  1.
         11   -1    0    0    0    0 -0.00000000000E+00 -0.00000000000E+00 -0.45593999997E+02  0.45594000000E+02  0.51100000000E-03 0. -1.
    9900012    2    1    2    0    0 -0.47010699281E+01  0.30822064173E+02 -0.66798956798E+01  0.59301941845E+02  0.49999996019E+02 0.  0.
        -12    1    1    2    0    0  0.47010699281E+01 -0.30822064173E+02  0.66798956798E+01  0.31886058155E+02  0.00000000000E+00 0.  1.
         11    1    3    3    0    0 -0.10014878213E+02  0.39465087329E+01 -0.11720864064E+02  0.15913873553E+02  0.51100000000E-03 0. -1.
        -11    1    3    3    0    0  0.96579571327E+01  0.31848192775E+01  0.14331170903E+02  0.17572753612E+02  0.51100000000E-03 0.  1.
         12    1    3    3    0    0 -0.43441488474E+01  0.23690736163E+02 -0.92902025186E+01  0.25815314679E+02  0.00000000000E+00 0. -1.
</event>
<event>
 7    1  0.1327607E-011  0.5930195E+02  0.7816164E-02  0.1266605E+00
        -11   -1    0    0    0    0  0.00000000000E+00  0.00000000000E+00  0.45593999997E+02  0.45594000000E+02  0.51100000000E-03 0.  1.
         11   -1    0    0    0    0 -0.00000000000E+00 -0.00000000000E+00 -0.45593999997E+02  0.45594000000E+02  0.51100000000E-03 0. -1.
    9900012    2    1    2    0    0  0.12110513394E+02  0.89671767121E+00 -0.29483074720E+02  0.59301947686E+02  0.50000006671E+02 0.  0.
        -12    1    1    2    0    0 -0.12110513394E+02 -0.89671767121E+00  0.29483074720E+02  0.31886052314E+02  0.00000000000E+00 0.  1.
         11    1    3    3    0    0 -0.28179137071E+01 -0.56937827710E+01  0.41190910828E+01  0.75714405177E+01  0.51100000000E-03 0.  1.
        -11    1    3    3    0    0  0.13185038126E+01 -0.10941924477E+02 -0.26050697170E+02  0.28286091757E+02  0.51100000000E-03 0. -1.
         12    1    3    3    0    0  0.13609923289E+02  0.17532424919E+02 -0.75514686324E+01  0.23444415411E+02  0.00000000000E+00 0. -1.
</event>
<event>
 7    1  0.1327607E-011  0.5930193E+02  0.7816164E-02  0.1266605E+00
        -11   -1    0    0    0    0  0.00000000000E+00  0.00000000000E+00  0.45593999997E+02  0.45594000000E+02  0.51100000000E-03 0.  1.
         11   -1    0    0    0    0 -0.00000000000E+00 -0.00000000000E+00 -0.45593999997E+02  0.45594000000E+02  0.51100000000E-03 0. -1.
    9900012    2    1    2    0    0  0.77084133287E+01  0.20459750426E+02 -0.23209917288E+02  0.59301932760E+02  0.49999979451E+02 0.  0.
        -12    1    1    2    0    0 -0.77084133287E+01 -0.20459750426E+02  0.23209917288E+02  0.31886067240E+02  0.00000000000E+00 0.  1.
         11    1    3    3    0    0 -0.14809686903E+02  0.58302461784E+00 -0.49918485918E+01  0.15639223014E+02  0.51100000000E-03 0. -1.
        -11    1    3    3    0    0  0.35613625752E+01 -0.19932070532E+00  0.59702733854E+01  0.69546528809E+01  0.51100000000E-03 0.  1.
         12    1    3    3    0    0  0.18956737656E+02  0.20076046513E+02 -0.24188342081E+02  0.36708056865E+02  0.00000000000E+00 0. -1.
</event>
<event>
 7    1  0.1327607E-011  0.5930195E+02  0.7816164E-02  0.1266605E+00
        -11   -1    0    0    0    0  0.00000000000E+00  0.00000000000E+00  0.45593999997E+02  0.45594000000E+02  0.51100000000E-03 0.  1.
         11   -1    0    0    0    0 -0.00000000000E+00 -0.00000000000E+00 -0.45593999997E+02  0.45594000000E+02  0.51100000000E-03 0. -1.
    9900012    2    1    2    0    0 -0.50598225374E+01  0.22280773561E+02  0.22241527319E+02  0.59301949569E+02  0.50000010106E+02 0.  0.
        -12    1    1    2    0    0  0.50598225374E+01 -0.22280773561E+02 -0.22241527319E+02  0.31886050431E+02  0.00000000000E+00 0.  1.
         11    1    3    3    0    0  0.46651845518E+00  0.52490141170E+00 -0.71001785951E+01  0.71348228642E+01  0.51100000000E-03 0. -1.
        -11    1    3    3    0    0 -0.16159412755E+01 -0.97517273764E+01  0.16162789182E+01  0.10015977777E+02  0.51100000000E-03 0.  1.
         12    1    3    3    0    0 -0.39103997171E+01  0.31507599526E+02  0.27725426996E+02  0.42151148928E+02  0.00000000000E+00 0. -1.
</event>
<event>
 7    1  0.1327607E-011  0.5930196E+02  0.7816164E-02  0.1266605E+00
        -11   -1    0    0    0    0  0.00000000000E+00  0.00000000000E+00  0.45593999997E+02  0.45594000000E+02  0.51100000000E-03 0. -1.
         11   -1    0    0    0    0 -0.00000000000E+00 -0.00000000000E+00 -0.45593999997E+02  0.45594000000E+02  0.51100000000E-03 0.  1.
    9900012    2    1    2    0    0 -0.21461131059E+02  0.23429872027E+02  0.26796060737E+01  0.59301963272E+02  0.50000035096E+02 0.  0.
        -12    1    1    2    0    0  0.21461131059E+02 -0.23429872027E+02 -0.26796060737E+01  0.31886036728E+02  0.00000000000E+00 0.  1.
         11    1    3    3    0    0 -0.15051483129E+02  0.45899636187E+01  0.35472910054E+01  0.16130659755E+02  0.51100000000E-03 0. -1.
        -11    1    3    3    0    0 -0.12549647987E+02 -0.78912923359E+01 -0.45285372944E+01  0.15500768033E+02  0.51100000000E-03 0.  1.
         12    1    3    3    0    0  0.61400000567E+01  0.26731200744E+02  0.36608523627E+01  0.27670535484E+02  0.00000000000E+00 0. -1.
</event>
<event>
 7    1  0.1327607E-011  0.5930192E+02  0.7816164E-02  0.1266605E+00
        -11   -1    0    0    0    0  0.00000000000E+00  0.00000000000E+00  0.45593999997E+02  0.45594000000E+02  0.51100000000E-03 0.  1.
         11   -1    0    0    0    0 -0.00000000000E+00 -0.00000000000E+00 -0.45593999997E+02  0.45594000000E+02  0.51100000000E-03 0. -1.
    9900012    2    1    2    0    0 -0.21227941213E+02  0.20334405768E+02 -0.12353488066E+02  0.59301918186E+02  0.49999952871E+02 0.  0.
        -12    1    1    2    0    0  0.21227941213E+02 -0.20334405768E+02  0.12353488066E+02  0.31886081814E+02  0.00000000000E+00 0.  1.
         11    1    3    3    0    0 -0.13071014755E+02  0.84751271620E-01 -0.21019919075E+02  0.24752688898E+02  0.51100000000E-03 0. -1.
        -11    1    3    3    0    0 -0.11443307463E+02  0.61003055282E+00 -0.24860937682E+01  0.11726128324E+02  0.51100000000E-03 0.  1.
        -12    1    3    3    0    0  0.32863810057E+01  0.19639623943E+02  0.11152524777E+02  0.22823100965E+02  0.00000000000E+00 0.  1.
</event>
<event>
 7    1  0.1327607E-011  0.5930194E+02  0.7816164E-02  0.1266605E+00
        -11   -1    0    0    0    0  0.00000000000E+00  0.00000000000E+00  0.45593999997E+02  0.45594000000E+02  0.51100000000E-03 0. -1.
         11   -1    0    0    0    0 -0.00000000000E+00 -0.00000000000E+00 -0.45593999997E+02  0.45594000000E+02  0.51100000000E-03 0.  1.
    9900012    2    1    2    0    0 -0.87994587033E+01 -0.23956217251E+02  0.19115170324E+02  0.59301944192E+02  0.50000000300E+02 0.  0.
        -12    1    1    2    0    0  0.87994587033E+01  0.23956217251E+02 -0.19115170324E+02  0.31886055808E+02  0.00000000000E+00 0.  1.
         11    1    3    3    0    0 -0.22617656146E+02 -0.17207700170E+02  0.10340843781E+01  0.28438225076E+02  0.51100000000E-03 0. -1.
        -11    1    3    3    0    0 -0.37855576504E+01  0.30467247630E+01  0.32064975642E+01  0.58219073675E+01  0.51100000000E-03 0.  1.
         12    1    3    3    0    0  0.17603755093E+02 -0.97952418434E+01  0.14874588382E+02  0.25041811749E+02  0.00000000000E+00 0. -1.
</event>
<event>
 7    1  0.1327607E-011  0.5930185E+02  0.7816164E-02  0.1266605E+00
        -11   -1    0    0    0    0  0.00000000000E+00  0.00000000000E+00  0.45593999997E+02  0.45594000000E+02  0.51100000000E-03 0.  1.
         11   -1    0    0    0    0 -0.00000000000E+00 -0.00000000000E+00 -0.45593999997E+02  0.45594000000E+02  0.51100000000E-03 0. -1.
    9900012    2    1    2    0    0 -0.40661392841E+01 -0.18207703394E+02 -0.25858703687E+02  0.59301850845E+02  0.49999830057E+02 0.  0.
        -12    1    1    2    0    0  0.40661392841E+01  0.18207703394E+02  0.25858703687E+02  0.31886149155E+02  0.00000000000E+00 0.  1.
         11    1    3    3    0    0 -0.18358419110E+02 -0.39168685145E+01 -0.10106619883E+02  0.21319408456E+02  0.51100000000E-03 0. -1.
        -11    1    3    3    0    0 -0.85631162886E+00 -0.51334916037E+01 -0.19248013768E+02  0.19939208609E+02  0.51100000000E-03 0.  1.
        -12    1    3    3    0    0  0.15148591455E+02 -0.91573432762E+01  0.34959299651E+01  0.18043233781E+02  0.00000000000E+00 0.  1.
</event>
<event>
 7    1  0.1327607E-011  0.5930207E+02  0.7816164E-02  0.1266604E+00
        -11   -1    0    0    0    0  0.00000000000E+00  0.00000000000E+00  0.45593999997E+02  0.45594000000E+02  0.51100000000E-03 0.  1.
         11   -1    0    0    0    0 -0.00000000000E+00 -0.00000000000E+00 -0.45593999997E+02  0.45594000000E+02  0.51100000000E-03 0. -1.
    9900012    2    1    2    0    0 -0.29454367737E+02  0.83321700024E+00 -0.12184351041E+02  0.59302071448E+02  0.50000232383E+02 0.  0.
        -12    1    1    2    0    0  0.29454367737E+02 -0.83321700024E+00  0.12184351041E+02  0.31885928552E+02  0.00000000000E+00 0.  1.
         11    1    3    3    0    0  0.26624067989E+01 -0.17656825052E+01  0.25193331014E+00  0.32046084513E+01  0.51100000000E-03 0. -1.
        -11    1    3    3    0    0  0.83959485515E+01 -0.82681704615E+01  0.15433473421E+01  0.11884297040E+02  0.51100000000E-03 0.  1.
         12    1    3    3    0    0 -0.40512723087E+02  0.10867069967E+02 -0.13979631693E+02  0.44213165956E+02  0.00000000000E+00 0. -1.
</event>
<event>
 7    1  0.1327607E-011  0.5930191E+02  0.7816164E-02  0.1266605E+00
        -11   -1    0    0    0    0  0.00000000000E+00  0.00000000000E+00  0.45593999997E+02  0.45594000000E+02  0.51100000000E-03 0. -1.
         11   -1    0    0    0    0 -0.00000000000E+00 -0.00000000000E+00 -0.45593999997E+02  0.45594000000E+02  0.51100000000E-03 0.  1.
    9900012    2    1    2    0    0 -0.23445574597E+02  0.13932541391E+02  0.16520050685E+02  0.59301909734E+02  0.49999937457E+02 0.  0.
        -12    1    1    2    0    0  0.23445574597E+02 -0.13932541391E+02 -0.16520050685E+02  0.31886090266E+02  0.00000000000E+00 0.  1.
         11    1    3    3    0    0  0.39764794672E+00 -0.52875397258E+01  0.42652795941E+01  0.68050577160E+01  0.51100000000E-03 0. -1.
        -11    1    3    3    0    0 -0.25246727493E+02  0.83752275049E+01  0.24441068863E+02  0.36123503876E+02  0.51100000000E-03 0.  1.
        -12    1    3    3    0    0  0.14035049496E+01  0.10844853612E+02 -0.12186297771E+02  0.16373348142E+02  0.00000000000E+00 0.  1.
</event>
<event>
 7    1  0.1327607E-011  0.5930195E+02  0.7816164E-02  0.1266605E+00
        -11   -1    0    0    0    0  0.00000000000E+00  0.00000000000E+00  0.45593999997E+02  0.45594000000E+02  0.51100000000E-03 0.  1.
         11   -1    0    0    0    0 -0.00000000000E+00 -0.00000000000E+00 -0.45593999997E+02  0.45594000000E+02  0.51100000000E-03 0. -1.
    9900012    2    1    2    0    0  0.80034454492E+01 -0.30819236007E+02  0.16851026628E+01  0.59301952611E+02  0.50000015653E+02 0.  0.
        -12    1    1    2    0    0 -0.80034454492E+01  0.30819236007E+02 -0.16851026628E+01  0.31886047389E+02  0.00000000000E+00 0.  1.
         11    1    3    3    0    0  0.17206260791E+02 -0.16245374108E+02 -0.91000802650E+01  0.25353087611E+02  0.51100000000E-03 0. -1.
        -11    1    3    3    0    0  0.92919180396E+01 -0.44824431548E+01  0.71916863246E+01  0.12575865376E+02  0.51100000000E-03 0.  1.
         12    1    3    3    0    0 -0.18494733381E+02 -0.10091418745E+02  0.35934966032E+01  0.21372999625E+02  0.00000000000E+00 0. -1.
</event>
<event>
 7    1  0.1327607E-011  0.5930193E+02  0.7816164E-02  0.1266605E+00
        -11   -1    0    0    0    0  0.00000000000E+00  0.00000000000E+00  0.45593999997E+02  0.45594000000E+02  0.51100000000E-03 0.  1.
         11   -1    0    0    0    0 -0.00000000000E+00 -0.00000000000E+00 -0.45593999997E+02  0.45594000000E+02  0.51100000000E-03 0. -1.
    9900012    2    1    2    0    0 -0.95787209617E+01 -0.27187017361E+02 -0.13632147439E+02  0.59301933261E+02  0.49999980364E+02 0.  0.
        -12    1    1    2    0    0  0.95787209617E+01  0.27187017361E+02  0.13632147439E+02  0.31886066739E+02  0.00000000000E+00 0.  1.
         11    1    3    3    0    0 -0.46643665640E+01 -0.22390856921E+02 -0.93143842637E+01  0.24695435683E+02  0.51100000000E-03 0. -1.
        -11    1    3    3    0    0  0.87468426094E+01 -0.14662502963E+02  0.49754985478E+00  0.17080509503E+02  0.51100000000E-03 0.  1.
         12    1    3    3    0    0 -0.13661197007E+02  0.98663425222E+01 -0.48153130304E+01  0.17525988075E+02  0.00000000000E+00 0. -1.
</event>
<event>
 7    1  0.1327607E-011  0.5930195E+02  0.7816164E-02  0.1266605E+00
        -11   -1    0    0    0    0  0.00000000000E+00  0.00000000000E+00  0.45593999997E+02  0.45594000000E+02  0.51100000000E-03 0. -1.
         11   -1    0    0    0    0 -0.00000000000E+00 -0.00000000000E+00 -0.45593999997E+02  0.45594000000E+02  0.51100000000E-03 0.  1.
    9900012    2    1    2    0    0  0.13100492963E+02  0.16150971898E+02  0.24171125139E+02  0.59301951333E+02  0.50000013323E+02 0.  0.
        -12    1    1    2    0    0 -0.13100492963E+02 -0.16150971898E+02 -0.24171125139E+02  0.31886048667E+02  0.00000000000E+00 0.  1.
         11    1    3    3    0    0  0.33460648143E+01  0.11921038001E+02  0.10878541683E+01  0.12429429742E+02  0.51100000000E-03 0. -1.
        -11    1    3    3    0    0  0.10989038674E+02  0.19079618789E+02  0.23181283378E+02  0.31971279664E+02  0.51100000000E-03 0.  1.
        -12    1    3    3    0    0 -0.12346105251E+01 -0.14849684892E+02 -0.98012407085E-01  0.14901241927E+02  0.00000000000E+00 0.  1.
</event>
<event>
 7    1  0.1327607E-011  0.5930194E+02  0.7816164E-02  0.1266605E+00
        -11   -1    0    0    0    0  0.00000000000E+00  0.00000000000E+00  0.45593999997E+02  0.45594000000E+02  0.51100000000E-03 0. -1.
         11   -1    0    0    0    0 -0.00000000000E+00 -0.00000000000E+00 -0.45593999997E+02  0.45594000000E+02  0.51100000000E-03 0.  1.
    9900012    2    1    2    0    0  0.21666197355E+02  0.18949171387E+02 -0.13719542142E+02  0.59301936576E+02  0.49999986410E+02 0.  0.
        -12    1    1    2    0    0 -0.21666197355E+02 -0.18949171387E+02  0.13719542142E+02  0.31886063424E+02  0.00000000000E+00 0.  1.
         11    1    3    3    0    0  0.22607628580E+02  0.73817381932E+01 -0.11706385602E+01  0.23811033654E+02  0.51100000000E-03 0. -1.
        -11    1    3    3    0    0  0.56648420063E+01 -0.92815620866E+01 -0.14648808754E+01  0.10971950873E+02  0.51100000000E-03 0.  1.
         12    1    3    3    0    0 -0.66062732314E+01  0.20848995280E+02 -0.11084022707E+02  0.24518952049E+02  0.00000000000E+00 0. -1.
</event>
<event>
 7    1  0.1327607E-011  0.5930196E+02  0.7816164E-02  0.1266605E+00
        -11   -1    0    0    0    0  0.00000000000E+00  0.00000000000E+00  0.45593999997E+02  0.45594000000E+02  0.51100000000E-03 0.  1.
         11   -1    0    0    0    0 -0.00000000000E+00 -0.00000000000E+00 -0.45593999997E+02  0.45594000000E+02  0.51100000000E-03 0. -1.
    9900012    2    1    2    0    0 -0.11165604432E+02 -0.69755461671E+01 -0.29041190363E+02  0.59301957530E+02  0.50000024625E+02 0.  0.
        -12    1    1    2    0    0  0.11165604432E+02  0.69755461671E+01  0.29041190363E+02  0.31886042470E+02  0.00000000000E+00 0.  1.
         11    1    3    3    0    0 -0.21321314663E+02 -0.99331724850E+01 -0.72749180914E+01  0.24620942469E+02  0.51100000000E-03 0. -1.
        -11    1    3    3    0    0 -0.25823105104E+01 -0.52592198394E+01 -0.18184819667E+02  0.19105375879E+02  0.51100000000E-03 0.  1.
        -12    1    3    3    0    0  0.12738020741E+02  0.82168461573E+01 -0.35814526051E+01  0.15575639182E+02  0.00000000000E+00 0.  1.
</event>
<event>
 7    1  0.1327607E-011  0.5930197E+02  0.7816164E-02  0.1266605E+00
        -11   -1    0    0    0    0  0.00000000000E+00  0.00000000000E+00  0.45593999997E+02  0.45594000000E+02  0.51100000000E-03 0. -1.
         11   -1    0    0    0    0 -0.00000000000E+00 -0.00000000000E+00 -0.45593999997E+02  0.45594000000E+02  0.51100000000E-03 0.  1.
    9900012    2    1    2    0    0 -0.38449021579E+01 -0.67298863714E+01  0.30929671138E+02  0.59301965441E+02  0.50000039053E+02 0.  0.
        -12    1    1    2    0    0  0.38449021579E+01  0.67298863714E+01 -0.30929671138E+02  0.31886034559E+02  0.00000000000E+00 0.  1.
         11    1    3    3    0    0  0.20243371298E+02 -0.53189156209E+01  0.17422873020E+02  0.27233094745E+02  0.51100000000E-03 0. -1.
        -11    1    3    3    0    0 -0.22639163047E+01 -0.10282819578E+01 -0.35729801047E+01  0.43530297391E+01  0.51100000000E-03 0.  1.
        -12    1    3    3    0    0 -0.21824357151E+02 -0.38268879269E+00  0.17079778224E+02  0.27715840957E+02  0.00000000000E+00 0.  1.
</event>
<event>
 7    1  0.1327607E-011  0.5930195E+02  0.7816164E-02  0.1266605E+00
        -11   -1    0    0    0    0  0.00000000000E+00  0.00000000000E+00  0.45593999997E+02  0.45594000000E+02  0.51100000000E-03 0. -1.
         11   -1    0    0    0    0 -0.00000000000E+00 -0.00000000000E+00 -0.45593999997E+02  0.45594000000E+02  0.51100000000E-03 0.  1.
    9900012    2    1    2    0    0 -0.26938465781E+02 -0.49767718515E+00  0.17052602434E+02  0.59301954918E+02  0.50000019861E+02 0.  0.
        -12    1    1    2    0    0  0.26938465781E+02  0.49767718515E+00 -0.17052602434E+02  0.31886045082E+02  0.00000000000E+00 0.  1.
         11    1    3    3    0    0  0.57877670921E+00 -0.10492362023E+01 -0.39793748800E+01  0.41558758143E+01  0.51100000000E-03 0. -1.
        -11    1    3    3    0    0 -0.14467510499E+02  0.38419794334E+01 -0.12188145533E+02  0.19303382030E+02  0.51100000000E-03 0.  1.
         12    1    3    3    0    0 -0.13049731991E+02 -0.32904204163E+01  0.33220122847E+02  0.35842697073E+02  0.00000000000E+00 0. -1.
</event>
<event>
 7    1  0.1327607E-011  0.5930196E+02  0.7816164E-02  0.1266605E+00
        -11   -1    0    0    0    0  0.00000000000E+00  0.00000000000E+00  0.45593999997E+02  0.45594000000E+02  0.51100000000E-03 0.  1.
         11   -1    0    0    0    0 -0.00000000000E+00 -0.00000000000E+00 -0.45593999997E+02  0.45594000000E+02  0.51100000000E-03 0. -1.
    9900012    2    1    2    0    0  0.49005513379E+01 -0.31428565972E+02  0.22247043754E+01  0.59301961174E+02  0.50000031271E+02 0.  0.
        -12    1    1    2    0    0 -0.49005513379E+01  0.31428565972E+02 -0.22247043754E+01  0.31886038826E+02  0.00000000000E+00 0.  1.
         11    1    3    3    0    0 -0.20211168550E+01 -0.45853928507E+01  0.71784627592E+01  0.87544884935E+01  0.51100000000E-03 0. -1.
        -11    1    3    3    0    0  0.16257739088E+02 -0.72058056490E+00  0.99320333337E+01  0.19065114817E+02  0.51100000000E-03 0.  1.
         12    1    3    3    0    0 -0.93360708946E+01 -0.26122592556E+02 -0.14885791717E+02  0.31482357864E+02  0.00000000000E+00 0. -1.
</event>
<event>
 7    1  0.1327607E-011  0.5930193E+02  0.7816164E-02  0.1266605E+00
        -11   -1    0    0    0    0  0.00000000000E+00  0.00000000000E+00  0.45593999997E+02  0.45594000000E+02  0.51100000000E-03 0. -1.
         11   -1    0    0    0    0 -0.00000000000E+00 -0.00000000000E+00 -0.45593999997E+02  0.45594000000E+02  0.51100000000E-03 0.  1.
    9900012    2    1    2    0    0  0.92974539829E+01 -0.29881771999E+02 -0.61121506686E+01  0.59301931974E+02  0.49999978017E+02 0.  0.
        -12    1    1    2    0    0 -0.92974539829E+01  0.29881771999E+02  0.61121506686E+01  0.31886068026E+02  0.00000000000E+00 0.  1.
         11    1    3    3    0    0  0.10228961021E+02  0.62532520028E+00  0.45885376775E+01  0.11228417228E+02  0.51100000000E-03 0. -1.
        -11    1    3    3    0    0  0.75543182288E+01  0.45677029468E+00  0.79234663281E+01  0.10957083641E+02  0.51100000000E-03 0.  1.
         12    1    3    3    0    0 -0.84858252669E+01 -0.30963867494E+02 -0.18624154674E+02  0.37116431105E+02  0.00000000000E+00 0. -1.
</event>
<event>
 7    1  0.1327607E-011  0.5930196E+02  0.7816164E-02  0.1266605E+00
        -11   -1    0    0    0    0  0.00000000000E+00  0.00000000000E+00  0.45593999997E+02  0.45594000000E+02  0.51100000000E-03 0.  1.
         11   -1    0    0    0    0 -0.00000000000E+00 -0.00000000000E+00 -0.45593999997E+02  0.45594000000E+02  0.51100000000E-03 0. -1.
    9900012    2    1    2    0    0 -0.13914554752E+02  0.18037010477E+02 -0.22310781083E+02  0.59301960211E+02  0.50000029515E+02 0.  0.
        -12    1    1    2    0    0  0.13914554752E+02 -0.18037010477E+02  0.22310781083E+02  0.31886039789E+02  0.00000000000E+00 0.  1.
         11    1    3    3    0    0 -0.12051598240E+02 -0.80807825292E+01 -0.19591955587E+02  0.24380008007E+02  0.51100000000E-03 0. -1.
        -11    1    3    3    0    0  0.36022070356E+01  0.46733961738E+01 -0.10011921523E+02  0.11621320931E+02  0.51100000000E-03 0.  1.
        -12    1    3    3    0    0 -0.54651635478E+01  0.21444396832E+02  0.72930960277E+01  0.23300631274E+02  0.00000000000E+00 0.  1.
</event>
<event>
 7    1  0.1327607E-011  0.5930195E+02  0.7816164E-02  0.1266605E+00
        -11   -1    0    0    0    0  0.00000000000E+00  0.00000000000E+00  0.45593999997E+02  0.45594000000E+02  0.51100000000E-03 0. -1.
         11   -1    0    0    0    0 -0.00000000000E+00 -0.00000000000E+00 -0.45593999997E+02  0.45594000000E+02  0.51100000000E-03 0.  1.
    9900012    2    1    2    0    0 -0.19457608755E+02 -0.10594104440E+02  0.22932222062E+02  0.59301946684E+02  0.50000004845E+02 0.  0.
        -12    1    1    2    0    0  0.19457608755E+02  0.10594104440E+02 -0.22932222062E+02  0.31886053316E+02  0.00000000000E+00 0.  1.
         11    1    3    3    0    0 -0.13652622945E+02 -0.45150837765E+01  0.81618891279E+01  0.16534706807E+02  0.51100000000E-03 0. -1.
        -11    1    3    3    0    0 -0.34835837881E+01 -0.13423944135E+02  0.25813357106E+02  0.29303020962E+02  0.51100000000E-03 0.  1.
        -12    1    3    3    0    0 -0.23214020215E+01  0.73449234709E+01 -0.11043024172E+02  0.13464218915E+02  0.00000000000E+00 0.  1.
</event>
<event>
 7    1  0.1327607E-011  0.5930193E+02  0.7816164E-02  0.1266605E+00
        -11   -1    0    0    0    0  0.00000000000E+00  0.00000000000E+00  0.45593999997E+02  0.45594000000E+02  0.51100000000E-03 0.  1.
         11   -1    0    0    0    0 -0.00000000000E+00 -0.00000000000E+00 -0.45593999997E+02  0.45594000000E+02  0.51100000000E-03 0. -1.
    9900012    2    1    2    0    0 -0.27882294334E+02 -0.77639384097E+01 -0.13379849866E+02  0.59301930010E+02  0.49999974435E+02 0.  0.
        -12    1    1    2    0    0  0.27882294334E+02  0.77639384097E+01  0.13379849866E+02  0.31886069990E+02  0.00000000000E+00 0.  1.
         11    1    3    3    0    0 -0.28851298476E+02 -0.17166717215E+02 -0.72786732356E+01  0.34352186074E+02  0.51100000000E-03 0. -1.
        -11    1    3    3    0    0 -0.10243021702E+02  0.75229490700E+01 -0.20062171735E+01  0.12866202389E+02  0.51100000000E-03 0.  1.
         12    1    3    3    0    0  0.11212025844E+02  0.18798297357E+01 -0.40949594570E+01  0.12083541547E+02  0.00000000000E+00 0. -1.
</event>
<event>
 7    1  0.1327607E-011  0.5930192E+02  0.7816164E-02  0.1266605E+00
        -11   -1    0    0    0    0  0.00000000000E+00  0.00000000000E+00  0.45593999997E+02  0.45594000000E+02  0.51100000000E-03 0.  1.
         11   -1    0    0    0    0 -0.00000000000E+00 -0.00000000000E+00 -0.45593999997E+02  0.45594000000E+02  0.51100000000E-03 0. -1.
    9900012    2    1    2    0    0 -0.13563582850E+02 -0.26163275468E+02  0.12175165241E+02  0.59301915079E+02  0.49999947205E+02 0.  0.
        -12    1    1    2    0    0  0.13563582850E+02  0.26163275468E+02 -0.12175165241E+02  0.31886084921E+02  0.00000000000E+00 0.  1.
         11    1    3    3    0    0 -0.12024211585E+01 -0.18726185430E+02 -0.34019590967E+01  0.19070636155E+02  0.51100000000E-03 0. -1.
        -11    1    3    3    0    0  0.30949158928E+01 -0.17059564545E+02  0.18638146102E+01  0.17437919945E+02  0.51100000000E-03 0.  1.
        -12    1    3    3    0    0 -0.15456077584E+02  0.96224745062E+01  0.13713309727E+02  0.22793358980E+02  0.00000000000E+00 0.  1.
</event>
<event>
 7    1  0.1327607E-011  0.5930194E+02  0.7816164E-02  0.1266605E+00
        -11   -1    0    0    0    0  0.00000000000E+00  0.00000000000E+00  0.45593999997E+02  0.45594000000E+02  0.51100000000E-03 0.  1.
         11   -1    0    0    0    0 -0.00000000000E+00 -0.00000000000E+00 -0.45593999997E+02  0.45594000000E+02  0.51100000000E-03 0. -1.
    9900012    2    1    2    0    0 -0.18175678272E+02  0.24871126024E+02 -0.82336198252E+01  0.59301942141E+02  0.49999996560E+02 0.  0.
        -12    1    1    2    0    0  0.18175678272E+02 -0.24871126024E+02  0.82336198252E+01  0.31886057859E+02  0.00000000000E+00 0.  1.
         11    1    3    3    0    0 -0.11353355769E+02  0.46748247698E+01 -0.13954800278E+02  0.18587337757E+02  0.51100000000E-03 0. -1.
        -11    1    3    3    0    0 -0.16686884312E+02  0.58112212619E+01 -0.71248417771E+01  0.19052185470E+02  0.51100000000E-03 0.  1.
         12    1    3    3    0    0  0.98645618093E+01  0.14385079992E+02  0.12846022229E+02  0.21662418914E+02  0.00000000000E+00 0. -1.
</event>
<event>
 7    1  0.1327607E-011  0.5930195E+02  0.7816164E-02  0.1266605E+00
        -11   -1    0    0    0    0  0.00000000000E+00  0.00000000000E+00  0.45593999997E+02  0.45594000000E+02  0.51100000000E-03 0. -1.
         11   -1    0    0    0    0 -0.00000000000E+00 -0.00000000000E+00 -0.45593999997E+02  0.45594000000E+02  0.51100000000E-03 0.  1.
    9900012    2    1    2    0    0  0.42611775677E+01 -0.29568518725E+02  0.11147431351E+02  0.59301950393E+02  0.50000011608E+02 0.  0.
        -12    1    1    2    0    0 -0.42611775677E+01  0.29568518725E+02 -0.11147431351E+02  0.31886049607E+02  0.00000000000E+00 0.  1.
         11    1    3    3    0    0 -0.52531093822E+00 -0.18611360802E+02  0.19379109584E+02  0.26873938882E+02  0.51100000000E-03 0. -1.
        -11    1    3    3    0    0  0.10284877772E+02 -0.47272679147E+01  0.82253665205E+01  0.13992227392E+02  0.51100000000E-03 0.  1.
        -12    1    3    3    0    0 -0.54983892664E+01 -0.62298900081E+01 -0.16457044754E+02  0.18435784119E+02  0.00000000000E+00 0.  1.
</event>
<event>
 7    1  0.1327607E-011  0.5930194E+02  0.7816164E-02  0.1266605E+00
        -11   -1    0    0    0    0  0.00000000000E+00  0.00000000000E+00  0.45593999997E+02  0.45594000000E+02  0.51100000000E-03 0. -1.
         11   -1    0    0    0    0 -0.00000000000E+00 -0.00000000000E+00 -0.45593999997E+02  0.45594000000E+02  0.51100000000E-03 0.  1.
    9900012    2    1    2    0    0 -0.30327911036E+01 -0.23818003528E+02  0.20981551224E+02  0.59301943396E+02  0.49999998849E+02 0.  0.
        -12    1    1    2    0    0  0.30327911036E+01  0.23818003528E+02 -0.20981551224E+02  0.31886056604E+02  0.00000000000E+00 0.  1.
         11    1    3    3    0    0 -0.16096077222E+01 -0.32925868570E+01  0.21922185306E+02  0.22226429630E+02  0.51100000000E-03 0. -1.
        -11    1    3    3    0    0 -0.70772594748E+01 -0.46078727185E+01  0.12776648370E+02  0.15315444378E+02  0.51100000000E-03 0.  1.
        -12    1    3    3    0    0  0.56540760933E+01 -0.15917543953E+02 -0.13717282452E+02  0.21760069389E+02  0.00000000000E+00 0.  1.
</event>
<event>
 7    1  0.1327607E-011  0.5930196E+02  0.7816164E-02  0.1266605E+00
        -11   -1    0    0    0    0  0.00000000000E+00  0.00000000000E+00  0.45593999997E+02  0.45594000000E+02  0.51100000000E-03 0.  1.
         11   -1    0    0    0    0 -0.00000000000E+00 -0.00000000000E+00 -0.45593999997E+02  0.45594000000E+02  0.51100000000E-03 0. -1.
    9900012    2    1    2    0    0  0.30506527923E+02  0.12784507522E+01 -0.91889365194E+01  0.59301964865E+02  0.50000038003E+02 0.  0.
        -12    1    1    2    0    0 -0.30506527923E+02 -0.12784507522E+01  0.91889365194E+01  0.31886035135E+02  0.00000000000E+00 0.  1.
         11    1    3    3    0    0  0.72262918002E+01 -0.33432166736E+01 -0.45547686779E+00  0.79752022135E+01  0.51100000000E-03 0. -1.
        -11    1    3    3    0    0  0.31274659086E+02 -0.48581885115E+01  0.58477536868E+01  0.32185439565E+02  0.51100000000E-03 0.  1.
         12    1    3    3    0    0 -0.79944229629E+01  0.94798559373E+01 -0.14581213338E+02  0.19141323087E+02  0.00000000000E+00 0. -1.
</event>
<event>
 7    1  0.1327607E-011  0.5930213E+02  0.7816164E-02  0.1266604E+00
        -11   -1    0    0    0    0  0.00000000000E+00  0.00000000000E+00  0.45593999997E+02  0.45594000000E+02  0.51100000000E-03 0. -1.
         11   -1    0    0    0    0 -0.00000000000E+00 -0.00000000000E+00 -0.45593999997E+02  0.45594000000E+02  0.51100000000E-03 0.  1.
    9900012    2    1    2    0    0  0.16385580797E+02  0.22172164333E+02 -0.16019262521E+02  0.59302126938E+02  0.50000333582E+02 0.  0.
        -12    1    1    2    0    0 -0.16385580797E+02 -0.22172164333E+02  0.16019262521E+02  0.31885873062E+02  0.00000000000E+00 0.  1.
         11    1    3    3    0    0 -0.30883236766E+01  0.91554667753E+01 -0.14171610119E+02  0.17152109160E+02  0.51100000000E-03 0. -1.
        -11    1    3    3    0    0  0.87183837935E+01  0.20002436241E+02 -0.12789272728E+02  0.25291760886E+02  0.51100000000E-03 0.  1.
         12    1    3    3    0    0  0.10755520680E+02 -0.69857386837E+01  0.10941620326E+02  0.16858256891E+02  0.00000000000E+00 0. -1.
</event>
<event>
 7    1  0.1327607E-011  0.5930196E+02  0.7816164E-02  0.1266605E+00
        -11   -1    0    0    0    0  0.00000000000E+00  0.00000000000E+00  0.45593999997E+02  0.45594000000E+02  0.51100000000E-03 0. -1.
         11   -1    0    0    0    0 -0.00000000000E+00 -0.00000000000E+00 -0.45593999997E+02  0.45594000000E+02  0.51100000000E-03 0.  1.
    9900012    2    1    2    0    0 -0.13938271013E+02 -0.25278038956E+02  0.13544929928E+02  0.59301956360E+02  0.50000022491E+02 0.  0.
        -12    1    1    2    0    0  0.13938271013E+02  0.25278038956E+02 -0.13544929928E+02  0.31886043640E+02  0.00000000000E+00 0.  1.
         11    1    3    3    0    0  0.92322224320E+01 -0.19490387097E+02  0.14971782258E+02  0.26253826092E+02  0.51100000000E-03 0. -1.
        -11    1    3    3    0    0 -0.18913146442E+02 -0.80838001308E+01  0.83040212260E+01  0.22181336787E+02  0.51100000000E-03 0.  1.
        -12    1    3    3    0    0 -0.42573470030E+01  0.22961482720E+01 -0.97308735561E+01  0.10866793481E+02  0.00000000000E+00 0.  1.
</event>
<event>
 7    1  0.1327607E-011  0.5930202E+02  0.7816164E-02  0.1266605E+00
        -11   -1    0    0    0    0  0.00000000000E+00  0.00000000000E+00  0.45593999997E+02  0.45594000000E+02  0.51100000000E-03 0. -1.
         11   -1    0    0    0    0 -0.00000000000E+00 -0.00000000000E+00 -0.45593999997E+02  0.45594000000E+02  0.51100000000E-03 0.  1.
    9900012    2    1    2    0    0  0.20760986390E+01  0.24572747425E+02  0.20213504134E+02  0.59302017955E+02  0.50000134826E+02 0.  0.
        -12    1    1    2    0    0 -0.20760986390E+01 -0.24572747425E+02 -0.20213504134E+02  0.31885982045E+02  0.00000000000E+00 0.  1.
         11    1    3    3    0    0 -0.91775938826E+01  0.11010167020E+02 -0.29762980140E+01  0.14639342793E+02  0.51100000000E-03 0. -1.
        -11    1    3    3    0    0 -0.41467499439E+01  0.14109596712E+02 -0.22917052616E+01  0.14883822350E+02  0.51100000000E-03 0.  1.
         12    1    3    3    0    0  0.15400442466E+02 -0.54701630661E+00  0.25481507409E+02  0.29778852813E+02  0.00000000000E+00 0. -1.
</event>
<event>
 7    1  0.1327607E-011  0.5930192E+02  0.7816164E-02  0.1266605E+00
        -11   -1    0    0    0    0  0.00000000000E+00  0.00000000000E+00  0.45593999997E+02  0.45594000000E+02  0.51100000000E-03 0. -1.
         11   -1    0    0    0    0 -0.00000000000E+00 -0.00000000000E+00 -0.45593999997E+02  0.45594000000E+02  0.51100000000E-03 0.  1.
    9900012    2    1    2    0    0  0.31874096967E+02  0.70627932949E+00 -0.51487208321E+00  0.59301921828E+02  0.49999959512E+02 0.  0.
        -12    1    1    2    0    0 -0.31874096967E+02 -0.70627932949E+00  0.51487208321E+00  0.31886078172E+02  0.00000000000E+00 0.  1.
         11    1    3    3    0    0  0.35299634235E+02 -0.95177106848E+01  0.10377701587E+02  0.38004574518E+02  0.51100000000E-03 0. -1.
        -11    1    3    3    0    0 -0.23485229494E+01 -0.54571225694E+00  0.28959239714E+01  0.37682539486E+01  0.51100000000E-03 0.  1.
        -12    1    3    3    0    0 -0.10770143181E+01  0.10769702271E+02 -0.13788497642E+02  0.17529093361E+02  0.00000000000E+00 0.  1.
</event>
<event>
 7    1  0.1327607E-011  0.5930194E+02  0.7816164E-02  0.1266605E+00
        -11   -1    0    0    0    0  0.00000000000E+00  0.00000000000E+00  0.45593999997E+02  0.45594000000E+02  0.51100000000E-03 0.  1.
         11   -1    0    0    0    0 -0.00000000000E+00 -0.00000000000E+00 -0.45593999997E+02  0.45594000000E+02  0.51100000000E-03 0. -1.
    9900012    2    1    2    0    0 -0.27264429053E+02  0.13204072770E+02  0.99510741493E+01  0.59301944960E+02  0.50000001700E+02 0.  0.
        -12    1    1    2    0    0  0.27264429053E+02 -0.13204072770E+02 -0.99510741493E+01  0.31886055040E+02  0.00000000000E+00 0.  1.
         11    1    3    3    0    0 -0.53036412679E+01  0.20223748748E+02  0.44701137035E+01  0.21380143613E+02  0.51100000000E-03 0. -1.
        -11    1    3    3    0    0 -0.25310362063E+01  0.34438741197E+01 -0.10060274043E+02  0.10930486142E+02  0.51100000000E-03 0.  1.
         12    1    3    3    0    0 -0.19429751579E+02 -0.10463550098E+02  0.15541234488E+02  0.26991315205E+02  0.00000000000E+00 0. -1.
</event>
<event>
 7    1  0.1327607E-011  0.5930196E+02  0.7816164E-02  0.1266605E+00
        -11   -1    0    0    0    0  0.00000000000E+00  0.00000000000E+00  0.45593999997E+02  0.45594000000E+02  0.51100000000E-03 0.  1.
         11   -1    0    0    0    0 -0.00000000000E+00 -0.00000000000E+00 -0.45593999997E+02  0.45594000000E+02  0.51100000000E-03 0. -1.
    9900012    2    1    2    0    0  0.26380843414E+02  0.15881894812E+02 -0.82786385953E+01  0.59301963259E+02  0.50000035074E+02 0.  0.
        -12    1    1    2    0    0 -0.26380843414E+02 -0.15881894812E+02  0.82786385953E+01  0.31886036741E+02  0.00000000000E+00 0.  1.
         11    1    3    3    0    0  0.19719182820E+02 -0.42572069955E+01 -0.21466033800E+02  0.29457776390E+02  0.51100000000E-03 0. -1.
        -11    1    3    3    0    0  0.79588375916E+01  0.78689450918E+01 -0.76557916558E+00  0.11218266550E+02  0.51100000000E-03 0.  1.
        -12    1    3    3    0    0 -0.12971769974E+01  0.12270156716E+02  0.13952974370E+02  0.18625920320E+02  0.00000000000E+00 0.  1.
</event>
<event>
 7    1  0.1327607E-011  0.5930195E+02  0.7816164E-02  0.1266605E+00
        -11   -1    0    0    0    0  0.00000000000E+00  0.00000000000E+00  0.45593999997E+02  0.45594000000E+02  0.51100000000E-03 0.  1.
         11   -1    0    0    0    0 -0.00000000000E+00 -0.00000000000E+00 -0.45593999997E+02  0.45594000000E+02  0.51100000000E-03 0. -1.
    9900012    2    1    2    0    0 -0.85830842348E+01  0.30291987878E+02  0.50444627903E+01  0.59301945534E+02  0.50000002747E+02 0.  0.
        -12    1    1    2    0    0  0.85830842348E+01 -0.30291987878E+02 -0.50444627903E+01  0.31886054466E+02  0.00000000000E+00 0.  1.
         11    1    3    3    0    0  0.33533088088E+01  0.74143666091E+01 -0.11358170363E+02  0.13972313568E+02  0.51100000000E-03 0.  1.
        -11    1    3    3    0    0 -0.26098928477E+01  0.78845823555E+01 -0.10353120268E+02  0.13272726892E+02  0.51100000000E-03 0. -1.
        -12    1    3    3    0    0 -0.93265001959E+01  0.14993038913E+02  0.26755753422E+02  0.32056905074E+02  0.00000000000E+00 0.  1.
</event>
<event>
 7    1  0.1327607E-011  0.5930193E+02  0.7816164E-02  0.1266605E+00
        -11   -1    0    0    0    0  0.00000000000E+00  0.00000000000E+00  0.45593999997E+02  0.45594000000E+02  0.51100000000E-03 0.  1.
         11   -1    0    0    0    0 -0.00000000000E+00 -0.00000000000E+00 -0.45593999997E+02  0.45594000000E+02  0.51100000000E-03 0. -1.
    9900012    2    1    2    0    0 -0.12719007914E+02 -0.12452170588E+02 -0.26455472510E+02  0.59301925604E+02  0.49999966400E+02 0.  0.
        -12    1    1    2    0    0  0.12719007914E+02  0.12452170588E+02  0.26455472510E+02  0.31886074396E+02  0.00000000000E+00 0.  1.
         11    1    3    3    0    0  0.10076609762E+02 -0.15182253246E+01 -0.44033405480E+01  0.11101012597E+02  0.51100000000E-03 0. -1.
        -11    1    3    3    0    0 -0.15416511481E+02  0.11429226821E+02 -0.11703965726E+02  0.22478408884E+02  0.51100000000E-03 0.  1.
         12    1    3    3    0    0 -0.73791061953E+01 -0.22363172085E+02 -0.10348166236E+02  0.25722504123E+02  0.00000000000E+00 0. -1.
</event>
<event>
 7    1  0.1327607E-011  0.5930191E+02  0.7816164E-02  0.1266605E+00
        -11   -1    0    0    0    0  0.00000000000E+00  0.00000000000E+00  0.45593999997E+02  0.45594000000E+02  0.51100000000E-03 0.  1.
         11   -1    0    0    0    0 -0.00000000000E+00 -0.00000000000E+00 -0.45593999997E+02  0.45594000000E+02  0.51100000000E-03 0. -1.
    9900012    2    1    2    0    0 -0.14304440143E+02  0.18588924444E+02 -0.21599951417E+02  0.59301905523E+02  0.49999929777E+02 0.  0.
        -12    1    1    2    0    0  0.14304440143E+02 -0.18588924444E+02  0.21599951417E+02  0.31886094477E+02  0.00000000000E+00 0.  1.
         11    1    3    3    0    0 -0.54479541832E+01 -0.85102114678E+01 -0.46664215862E+01  0.11130112070E+02  0.51100000000E-03 0. -1.
        -11    1    3    3    0    0  0.83536125417E+00 -0.75233091249E+01 -0.82264453170E+01  0.11179106021E+02  0.51100000000E-03 0.  1.
         12    1    3    3    0    0 -0.96918472141E+01  0.34622445036E+02 -0.87070845136E+01  0.36992687432E+02  0.00000000000E+00 0. -1.
</event>
<event>
 7    1  0.1327607E-011  0.5930191E+02  0.7816164E-02  0.1266605E+00
        -11   -1    0    0    0    0  0.00000000000E+00  0.00000000000E+00  0.45593999997E+02  0.45594000000E+02  0.51100000000E-03 0. -1.
         11   -1    0    0    0    0 -0.00000000000E+00 -0.00000000000E+00 -0.45593999997E+02  0.45594000000E+02  0.51100000000E-03 0.  1.
    9900012    2    1    2    0    0 -0.67807768250E+01 -0.76636650857E+01  0.30199541759E+02  0.59301905548E+02  0.49999929823E+02 0.  0.
        -12    1    1    2    0    0  0.67807768250E+01  0.76636650857E+01 -0.30199541759E+02  0.31886094452E+02  0.00000000000E+00 0.  1.
         11    1    3    3    0    0 -0.61049025964E+01  0.15361609211E+01  0.38404722877E+02  0.38917250232E+02  0.51100000000E-03 0. -1.
        -11    1    3    3    0    0 -0.41335496544E+01  0.34803842314E+01 -0.13898207262E+01  0.55795079582E+01  0.51100000000E-03 0.  1.
        -12    1    3    3    0    0  0.34576754258E+01 -0.12680210238E+02 -0.68153603916E+01  0.14805147358E+02  0.00000000000E+00 0.  1.
</event>
<event>
 7    1  0.1327607E-011  0.5930194E+02  0.7816164E-02  0.1266605E+00
        -11   -1    0    0    0    0  0.00000000000E+00  0.00000000000E+00  0.45593999997E+02  0.45594000000E+02  0.51100000000E-03 0. -1.
         11   -1    0    0    0    0 -0.00000000000E+00 -0.00000000000E+00 -0.45593999997E+02  0.45594000000E+02  0.51100000000E-03 0.  1.
    9900012    2    1    2    0    0 -0.14125139676E+02  0.26237041634E+02  0.11349841235E+02  0.59301940027E+02  0.49999992703E+02 0.  0.
        -12    1    1    2    0    0  0.14125139676E+02 -0.26237041634E+02 -0.11349841235E+02  0.31886059973E+02  0.00000000000E+00 0.  1.
         11    1    3    3    0    0 -0.12240213075E+02  0.65003561204E+01  0.10757174986E+02  0.17544066226E+02  0.51100000000E-03 0. -1.
        -11    1    3    3    0    0 -0.19885786025E+01 -0.10332452825E+02  0.44842690152E+01  0.11437774919E+02  0.51100000000E-03 0.  1.
         12    1    3    3    0    0  0.10365200151E+00  0.30069138338E+02 -0.38916027657E+01  0.30320098882E+02  0.00000000000E+00 0. -1.
</event>
<event>
 7    1  0.1327607E-011  0.5930194E+02  0.7816164E-02  0.1266605E+00
        -11   -1    0    0    0    0  0.00000000000E+00  0.00000000000E+00  0.45593999997E+02  0.45594000000E+02  0.51100000000E-03 0.  1.
         11   -1    0    0    0    0 -0.00000000000E+00 -0.00000000000E+00 -0.45593999997E+02  0.45594000000E+02  0.51100000000E-03 0. -1.
    9900012    2    1    2    0    0 -0.18950993920E+02  0.10060864236E+02 -0.23587271184E+02  0.59301944714E+02  0.50000001252E+02 0.  0.
        -12    1    1    2    0    0  0.18950993920E+02 -0.10060864236E+02  0.23587271184E+02  0.31886055286E+02  0.00000000000E+00 0.  1.
         11    1    3    3    0    0 -0.37542298153E+01  0.13358266682E+01 -0.14066562579E+02  0.14620084044E+02  0.51100000000E-03 0. -1.
        -11    1    3    3    0    0 -0.10184567621E+02 -0.61194915077E+01 -0.21765080333E+02  0.24797022324E+02  0.51100000000E-03 0.  1.
        -12    1    3    3    0    0 -0.50121964843E+01  0.14844529076E+02  0.12244371728E+02  0.19884838347E+02  0.00000000000E+00 0.  1.
</event>
<event>
 7    1  0.1327607E-011  0.5930194E+02  0.7816164E-02  0.1266605E+00
        -11   -1    0    0    0    0  0.00000000000E+00  0.00000000000E+00  0.45593999997E+02  0.45594000000E+02  0.51100000000E-03 0. -1.
         11   -1    0    0    0    0 -0.00000000000E+00 -0.00000000000E+00 -0.45593999997E+02  0.45594000000E+02  0.51100000000E-03 0.  1.
    9900012    2    1    2    0    0 -0.31485375560E+02 -0.48732769740E+01 -0.12818697915E+01  0.59301938895E+02  0.49999990639E+02 0.  0.
        -12    1    1    2    0    0  0.31485375560E+02  0.48732769740E+01  0.12818697915E+01  0.31886061105E+02  0.00000000000E+00 0.  1.
         11    1    3    3    0    0 -0.19672394766E+02 -0.16160939818E+02  0.97401569622E+01  0.27258938893E+02  0.51100000000E-03 0. -1.
        -11    1    3    3    0    0  0.20711389625E+01 -0.68829625639E+01 -0.20118209098E+01  0.74640614878E+01  0.51100000000E-03 0.  1.
        -12    1    3    3    0    0 -0.13884119757E+02  0.18170625408E+02 -0.90102058439E+01  0.24578938514E+02  0.00000000000E+00 0.  1.
</event>
<event>
 7    1  0.1327607E-011  0.5930196E+02  0.7816164E-02  0.1266605E+00
        -11   -1    0    0    0    0  0.00000000000E+00  0.00000000000E+00  0.45593999997E+02  0.45594000000E+02  0.51100000000E-03 0. -1.
         11   -1    0    0    0    0 -0.00000000000E+00 -0.00000000000E+00 -0.45593999997E+02  0.45594000000E+02  0.51100000000E-03 0.  1.
    9900012    2    1    2    0    0 -0.20809199186E+02 -0.45458818894E+01  0.23728286350E+02  0.59301962523E+02  0.50000033730E+02 0.  0.
        -12    1    1    2    0    0  0.20809199186E+02  0.45458818894E+01 -0.23728286350E+02  0.31886037477E+02  0.00000000000E+00 0.  1.
         11    1    3    3    0    0 -0.13772901465E+01  0.54240540463E+00  0.24061907025E+02  0.24107395167E+02  0.51100000000E-03 0. -1.
        -11    1    3    3    0    0 -0.42369476411E+01  0.14591286463E+01  0.13123425692E+02  0.13867410857E+02  0.51100000000E-03 0.  1.
        -12    1    3    3    0    0 -0.15194961399E+02 -0.65474159403E+01 -0.13457046368E+02  0.21327156499E+02  0.00000000000E+00 0.  1.
</event>
<event>
 7    1  0.1327607E-011  0.5930196E+02  0.7816164E-02  0.1266605E+00
        -11   -1    0    0    0    0  0.00000000000E+00  0.00000000000E+00  0.45593999997E+02  0.45594000000E+02  0.51100000000E-03 0.  1.
         11   -1    0    0    0    0 -0.00000000000E+00 -0.00000000000E+00 -0.45593999997E+02  0.45594000000E+02  0.51100000000E-03 0. -1.
    9900012    2    1    2    0    0 -0.15467229711E+02  0.21413314968E+02 -0.17859294294E+02  0.59301958453E+02  0.50000026308E+02 0.  0.
        -12    1    1    2    0    0  0.15467229711E+02 -0.21413314968E+02  0.17859294294E+02  0.31886041547E+02  0.00000000000E+00 0.  1.
         11    1    3    3    0    0  0.64477884358E+01  0.14720334165E+02 -0.57204669578E+01  0.17058310471E+02  0.51100000000E-03 0. -1.
        -11    1    3    3    0    0 -0.15325854755E+01  0.78555709928E+01  0.95482259510E+01  0.12459030176E+02  0.51100000000E-03 0.  1.
        -12    1    3    3    0    0 -0.20382432672E+02 -0.11625901892E+01 -0.21687053287E+02  0.29784617806E+02  0.00000000000E+00 0.  1.
</event>
<event>
 7    1  0.1327607E-011  0.5930200E+02  0.7816164E-02  0.1266605E+00
        -11   -1    0    0    0    0  0.00000000000E+00  0.00000000000E+00  0.45593999997E+02  0.45594000000E+02  0.51100000000E-03 0. -1.
         11   -1    0    0    0    0 -0.00000000000E+00 -0.00000000000E+00 -0.45593999997E+02  0.45594000000E+02  0.51100000000E-03 0.  1.
    9900012    2    1    2    0    0  0.24028886819E+02  0.20955290503E+02 -0.45352558056E+00  0.59301995433E+02  0.50000093751E+02 0.  0.
        -12    1    1    2    0    0 -0.24028886819E+02 -0.20955290503E+02  0.45352558056E+00  0.31886004567E+02  0.00000000000E+00 0.  1.
         11    1    3    3    0    0 -0.10264650525E+02 -0.83530560972E+00 -0.78352995208E+00  0.10328344752E+02  0.51100000000E-03 0.  1.
        -11    1    3    3    0    0  0.29470107254E+01  0.15785248446E+02 -0.45405032816E+01  0.16687573552E+02  0.51100000000E-03 0. -1.
         12    1    3    3    0    0  0.31346526618E+02  0.60053476659E+01  0.48705076531E+01  0.32286077130E+02  0.00000000000E+00 0. -1.
</event>
<event>
 7    1  0.1327607E-011  0.5930230E+02  0.7816164E-02  0.1266604E+00
        -11   -1    0    0    0    0  0.00000000000E+00  0.00000000000E+00  0.45593999997E+02  0.45594000000E+02  0.51100000000E-03 0.  1.
         11   -1    0    0    0    0 -0.00000000000E+00 -0.00000000000E+00 -0.45593999997E+02  0.45594000000E+02  0.51100000000E-03 0. -1.
    9900012    2    1    2    0    0  0.55597732984E+01 -0.22017070664E+02 -0.22383826699E+02  0.59302295093E+02  0.50000640254E+02 0.  0.
        -12    1    1    2    0    0 -0.55597732984E+01  0.22017070664E+02  0.22383826699E+02  0.31885704907E+02  0.00000000000E+00 0.  1.
         11    1    3    3    0    0 -0.16304952844E+02  0.24471767601E+00 -0.12655987605E+02  0.20641836074E+02  0.51100000000E-03 0. -1.
        -11    1    3    3    0    0  0.11477756217E+02  0.72611740900E+00  0.32548658400E+00  0.11505306430E+02  0.51100000000E-03 0.  1.
        -12    1    3    3    0    0  0.10386969925E+02 -0.22987905749E+02 -0.10053325678E+02  0.27155152589E+02  0.00000000000E+00 0.  1.
</event>
<event>
 7    1  0.1327607E-011  0.5930195E+02  0.7816164E-02  0.1266605E+00
        -11   -1    0    0    0    0  0.00000000000E+00  0.00000000000E+00  0.45593999997E+02  0.45594000000E+02  0.51100000000E-03 0.  1.
         11   -1    0    0    0    0 -0.00000000000E+00 -0.00000000000E+00 -0.45593999997E+02  0.45594000000E+02  0.51100000000E-03 0. -1.
    9900012    2    1    2    0    0 -0.15986983806E+02 -0.13382541520E+02  0.24125587681E+02  0.59301952115E+02  0.50000014749E+02 0.  0.
        -12    1    1    2    0    0  0.15986983806E+02  0.13382541520E+02 -0.24125587681E+02  0.31886047885E+02  0.00000000000E+00 0.  1.
         11    1    3    3    0    0 -0.15071188698E+02  0.11230106227E+02  0.17847091983E+01  0.18879650468E+02  0.51100000000E-03 0. -1.
        -11    1    3    3    0    0  0.81450837742E+01 -0.10823204808E+01  0.34288875299E+01  0.89034306459E+01  0.51100000000E-03 0.  1.
        -12    1    3    3    0    0 -0.90608788828E+01 -0.23530327266E+02  0.18911990953E+02  0.31518871001E+02  0.00000000000E+00 0.  1.
</event>
<event>
 7    1  0.1327607E-011  0.5930193E+02  0.7816164E-02  0.1266605E+00
        -11   -1    0    0    0    0  0.00000000000E+00  0.00000000000E+00  0.45593999997E+02  0.45594000000E+02  0.51100000000E-03 0. -1.
         11   -1    0    0    0    0 -0.00000000000E+00 -0.00000000000E+00 -0.45593999997E+02  0.45594000000E+02  0.51100000000E-03 0.  1.
    9900012    2    1    2    0    0 -0.17290753161E+02  0.23180347454E+02 -0.13432152424E+02  0.59301931385E+02  0.49999976942E+02 0.  0.
        -12    1    1    2    0    0  0.17290753161E+02 -0.23180347454E+02  0.13432152424E+02  0.31886068615E+02  0.00000000000E+00 0.  1.
         11    1    3    3    0    0 -0.30418946177E+01  0.20750863716E+02  0.71385434888E+01  0.22154238223E+02  0.51100000000E-03 0. -1.
        -11    1    3    3    0    0 -0.11771217187E+02  0.13967891244E+02 -0.81113531541E+01  0.19986435153E+02  0.51100000000E-03 0.  1.
        -12    1    3    3    0    0 -0.24776413565E+01 -0.11538407506E+02 -0.12459342759E+02  0.17161258009E+02  0.00000000000E+00 0.  1.
</event>
<event>
 7    1  0.1327607E-011  0.5930188E+02  0.7816164E-02  0.1266605E+00
        -11   -1    0    0    0    0  0.00000000000E+00  0.00000000000E+00  0.45593999997E+02  0.45594000000E+02  0.51100000000E-03 0.  1.
         11   -1    0    0    0    0 -0.00000000000E+00 -0.00000000000E+00 -0.45593999997E+02  0.45594000000E+02  0.51100000000E-03 0. -1.
    9900012    2    1    2    0    0 -0.91700664630E+01  0.39569747272E+01 -0.30281627762E+02  0.59301878445E+02  0.49999880392E+02 0.  0.
        -12    1    1    2    0    0  0.91700664630E+01 -0.39569747272E+01  0.30281627762E+02  0.31886121555E+02  0.00000000000E+00 0.  1.
         11    1    3    3    0    0 -0.84638301330E+01  0.75858546479E+01 -0.12278091005E+02  0.16731202295E+02  0.51100000000E-03 0. -1.
        -11    1    3    3    0    0  0.67659185101E+01 -0.10887736526E+02  0.76185018999E+01  0.14911808455E+02  0.51100000000E-03 0.  1.
         12    1    3    3    0    0 -0.74721548401E+01  0.72588566057E+01 -0.25622038657E+02  0.27658867694E+02  0.00000000000E+00 0. -1.
</event>
<event>
 7    1  0.1327607E-011  0.5930194E+02  0.7816164E-02  0.1266605E+00
        -11   -1    0    0    0    0  0.00000000000E+00  0.00000000000E+00  0.45593999997E+02  0.45594000000E+02  0.51100000000E-03 0. -1.
         11   -1    0    0    0    0 -0.00000000000E+00 -0.00000000000E+00 -0.45593999997E+02  0.45594000000E+02  0.51100000000E-03 0.  1.
    9900012    2    1    2    0    0 -0.55971149518E+01  0.29116644203E+02  0.11730898623E+02  0.59301942735E+02  0.49999997643E+02 0.  0.
        -12    1    1    2    0    0  0.55971149518E+01 -0.29116644203E+02 -0.11730898623E+02  0.31886057265E+02  0.00000000000E+00 0.  1.
         11    1    3    3    0    0  0.25040085957E+01  0.11103181372E+02 -0.43664538963E+01  0.12190841460E+02  0.51100000000E-03 0. -1.
        -11    1    3    3    0    0  0.26437884822E+01  0.28578017230E+02  0.13880089326E+02  0.31880237864E+02  0.51100000000E-03 0.  1.
        -12    1    3    3    0    0 -0.10744912030E+02 -0.10564554399E+02  0.22172631932E+01  0.15230863411E+02  0.00000000000E+00 0.  1.
</event>
<event>
 7    1  0.1327607E-011  0.5930193E+02  0.7816164E-02  0.1266605E+00
        -11   -1    0    0    0    0  0.00000000000E+00  0.00000000000E+00  0.45593999997E+02  0.45594000000E+02  0.51100000000E-03 0.  1.
         11   -1    0    0    0    0 -0.00000000000E+00 -0.00000000000E+00 -0.45593999997E+02  0.45594000000E+02  0.51100000000E-03 0. -1.
    9900012    2    1    2    0    0 -0.27370059219E+02  0.98331815918E+01  0.13073260708E+02  0.59301925494E+02  0.49999966199E+02 0.  0.
        -12    1    1    2    0    0  0.27370059219E+02 -0.98331815918E+01 -0.13073260708E+02  0.31886074506E+02  0.00000000000E+00 0.  1.
         11    1    3    3    0    0 -0.85498090954E+01 -0.10026002383E+02 -0.59045954970E+01  0.14438982221E+02  0.51100000000E-03 0. -1.
        -11    1    3    3    0    0 -0.16674065335E+02  0.92736426369E+01 -0.39810042741E+01  0.19490338577E+02  0.51100000000E-03 0.  1.
        -12    1    3    3    0    0 -0.21461847886E+01  0.10585541338E+02  0.22958860479E+02  0.25372604696E+02  0.00000000000E+00 0.  1.
</event>
<event>
 7    1  0.1327607E-011  0.5930190E+02  0.7816164E-02  0.1266605E+00
        -11   -1    0    0    0    0  0.00000000000E+00  0.00000000000E+00  0.45593999997E+02  0.45594000000E+02  0.51100000000E-03 0. -1.
         11   -1    0    0    0    0 -0.00000000000E+00 -0.00000000000E+00 -0.45593999997E+02  0.45594000000E+02  0.51100000000E-03 0.  1.
    9900012    2    1    2    0    0  0.18689409364E+02 -0.15834661635E+02  0.20413061120E+02  0.59301896510E+02  0.49999913340E+02 0.  0.
        -12    1    1    2    0    0 -0.18689409364E+02  0.15834661635E+02 -0.20413061120E+02  0.31886103490E+02  0.00000000000E+00 0.  1.
         11    1    3    3    0    0 -0.18520703980E+01 -0.10344498746E+01  0.74982966970E+01  0.77926057849E+01  0.51100000000E-03 0. -1.
        -11    1    3    3    0    0  0.13923505465E+02  0.13898974868E+02  0.95390936766E+01  0.21864121643E+02  0.51100000000E-03 0.  1.
         12    1    3    3    0    0  0.66179742970E+01 -0.28699186628E+02  0.33756707465E+01  0.29645169082E+02  0.00000000000E+00 0. -1.
</event>
<event>
 7    1  0.1327607E-011  0.5930194E+02  0.7816164E-02  0.1266605E+00
        -11   -1    0    0    0    0  0.00000000000E+00  0.00000000000E+00  0.45593999997E+02  0.45594000000E+02  0.51100000000E-03 0.  1.
         11   -1    0    0    0    0 -0.00000000000E+00 -0.00000000000E+00 -0.45593999997E+02  0.45594000000E+02  0.51100000000E-03 0. -1.
    9900012    2    1    2    0    0  0.12609378348E+02  0.25640986685E+02 -0.14151476291E+02  0.59301938755E+02  0.49999990383E+02 0.  0.
        -12    1    1    2    0    0 -0.12609378348E+02 -0.25640986685E+02  0.14151476291E+02  0.31886061245E+02  0.00000000000E+00 0.  1.
         11    1    3    3    0    0  0.18272749436E+01  0.14170407769E+02 -0.14279823804E+02  0.20200315794E+02  0.51100000000E-03 0. -1.
        -11    1    3    3    0    0  0.18852646547E+02  0.19334470435E+02  0.37544561103E+01  0.27264261768E+02  0.51100000000E-03 0.  1.
        -12    1    3    3    0    0 -0.80705431429E+01 -0.78638915183E+01 -0.36261085973E+01  0.11837361192E+02  0.00000000000E+00 0.  1.
</event>
<event>
 7    1  0.1327607E-011  0.5930193E+02  0.7816164E-02  0.1266605E+00
        -11   -1    0    0    0    0  0.00000000000E+00  0.00000000000E+00  0.45593999997E+02  0.45594000000E+02  0.51100000000E-03 0. -1.
         11   -1    0    0    0    0 -0.00000000000E+00 -0.00000000000E+00 -0.45593999997E+02  0.45594000000E+02  0.51100000000E-03 0.  1.
    9900012    2    1    2    0    0 -0.21376583993E+02 -0.21639056129E+01  0.23560152471E+02  0.59301927567E+02  0.49999969980E+02 0.  0.
        -12    1    1    2    0    0  0.21376583993E+02  0.21639056129E+01 -0.23560152471E+02  0.31886072433E+02  0.00000000000E+00 0.  1.
         11    1    3    3    0    0  0.54033262899E+01  0.16455572269E+02  0.81243423014E+01  0.19130779696E+02  0.51100000000E-03 0. -1.
        -11    1    3    3    0    0  0.83153214871E+00  0.56113405277E+00 -0.20453880207E+01  0.22781416892E+01  0.51100000000E-03 0.  1.
         12    1    3    3    0    0 -0.27611442432E+02 -0.19180611935E+02  0.17481198190E+02  0.37893006182E+02  0.00000000000E+00 0. -1.
</event>
<event>
 7    1  0.1327607E-011  0.5930189E+02  0.7816164E-02  0.1266605E+00
        -11   -1    0    0    0    0  0.00000000000E+00  0.00000000000E+00  0.45593999997E+02  0.45594000000E+02  0.51100000000E-03 0. -1.
         11   -1    0    0    0    0 -0.00000000000E+00 -0.00000000000E+00 -0.45593999997E+02  0.45594000000E+02  0.51100000000E-03 0.  1.
    9900012    2    1    2    0    0 -0.25503603816E+02 -0.12767018924E+02 -0.14258101615E+02  0.59301889521E+02  0.49999900593E+02 0.  0.
        -12    1    1    2    0    0  0.25503603816E+02  0.12767018924E+02  0.14258101615E+02  0.31886110479E+02  0.00000000000E+00 0.  1.
         11    1    3    3    0    0 -0.10151506660E+02  0.34651659512E+01  0.10590847888E+02  0.15074034688E+02  0.51100000000E-03 0. -1.
        -11    1    3    3    0    0 -0.36447824814E+01  0.39180157107E+01  0.43308466156E+01  0.68841498469E+01  0.51100000000E-03 0.  1.
         12    1    3    3    0    0 -0.11707314675E+02 -0.20150200586E+02 -0.29179796118E+02  0.37343704986E+02  0.00000000000E+00 0. -1.
</event>
<event>
 7    1  0.1327607E-011  0.5930194E+02  0.7816164E-02  0.1266605E+00
        -11   -1    0    0    0    0  0.00000000000E+00  0.00000000000E+00  0.45593999997E+02  0.45594000000E+02  0.51100000000E-03 0. -1.
         11   -1    0    0    0    0 -0.00000000000E+00 -0.00000000000E+00 -0.45593999997E+02  0.45594000000E+02  0.51100000000E-03 0.  1.
    9900012    2    1    2    0    0 -0.18296222923E+02  0.21590874407E+02  0.14690239326E+02  0.59301940940E+02  0.49999994369E+02 0.  0.
        -12    1    1    2    0    0  0.18296222923E+02 -0.21590874407E+02 -0.14690239326E+02  0.31886059060E+02  0.00000000000E+00 0.  1.
         11    1    3    3    0    0 -0.91005078891E+01  0.11793732552E+02 -0.37295348534E+01  0.15356457984E+02  0.51100000000E-03 0. -1.
        -11    1    3    3    0    0 -0.23779556097E+02  0.38081981422E+01  0.10045019991E+02  0.26093525790E+02  0.51100000000E-03 0.  1.
         12    1    3    3    0    0  0.14583841063E+02  0.59889437129E+01  0.83747541877E+01  0.17851957166E+02  0.00000000000E+00 0. -1.
</event>
<event>
 7    1  0.1327607E-011  0.5930193E+02  0.7816164E-02  0.1266605E+00
        -11   -1    0    0    0    0  0.00000000000E+00  0.00000000000E+00  0.45593999997E+02  0.45594000000E+02  0.51100000000E-03 0. -1.
         11   -1    0    0    0    0 -0.00000000000E+00 -0.00000000000E+00 -0.45593999997E+02  0.45594000000E+02  0.51100000000E-03 0.  1.
    9900012    2    1    2    0    0  0.19589510041E+02  0.21137009134E+02  0.13645490383E+02  0.59301929898E+02  0.49999974231E+02 0.  0.
        -12    1    1    2    0    0 -0.19589510041E+02 -0.21137009134E+02 -0.13645490383E+02  0.31886070102E+02  0.00000000000E+00 0.  1.
         11    1    3    3    0    0  0.49883982663E+01  0.12971912736E+02  0.99650687361E+01  0.17101381010E+02  0.51100000000E-03 0. -1.
        -11    1    3    3    0    0 -0.94201154675E+01  0.13615137420E+02 -0.26532702913E+01  0.16767539649E+02  0.51100000000E-03 0.  1.
         12    1    3    3    0    0  0.24021227242E+02 -0.54500410217E+01  0.63336919377E+01  0.25433009238E+02  0.00000000000E+00 0. -1.
</event>
<event>
 7    1  0.1327607E-011  0.5930173E+02  0.7816164E-02  0.1266606E+00
        -11   -1    0    0    0    0  0.00000000000E+00  0.00000000000E+00  0.45593999997E+02  0.45594000000E+02  0.51100000000E-03 0.  1.
         11   -1    0    0    0    0 -0.00000000000E+00 -0.00000000000E+00 -0.45593999997E+02  0.45594000000E+02  0.51100000000E-03 0. -1.
    9900012    2    1    2    0    0 -0.87679231163E+01 -0.16261891502E+02 -0.25988624227E+02  0.59301730538E+02  0.49999610644E+02 0.  0.
        -12    1    1    2    0    0  0.87679231163E+01  0.16261891502E+02  0.25988624227E+02  0.31886269462E+02  0.00000000000E+00 0.  1.
         11    1    3    3    0    0  0.34263423346E+01  0.19429070809E+01 -0.17265093631E+01  0.43006446680E+01  0.51100000000E-03 0. -1.
        -11    1    3    3    0    0  0.15647595085E+02 -0.35720401689E+01 -0.13879528009E+01  0.16110031538E+02  0.51100000000E-03 0.  1.
         12    1    3    3    0    0 -0.27841860536E+02 -0.14632758414E+02 -0.22874162063E+02  0.38891054331E+02  0.00000000000E+00 0. -1.
</event>
<event>
 7    1  0.1327607E-011  0.5930193E+02  0.7816164E-02  0.1266605E+00
        -11   -1    0    0    0    0  0.00000000000E+00  0.00000000000E+00  0.45593999997E+02  0.45594000000E+02  0.51100000000E-03 0. -1.
         11   -1    0    0    0    0 -0.00000000000E+00 -0.00000000000E+00 -0.45593999997E+02  0.45594000000E+02  0.51100000000E-03 0.  1.
    9900012    2    1    2    0    0 -0.14351933415E+02 -0.26759695267E+02  0.97294491441E+01  0.59301929936E+02  0.49999974299E+02 0.  0.
        -12    1    1    2    0    0  0.14351933415E+02  0.26759695267E+02 -0.97294491441E+01  0.31886070064E+02  0.00000000000E+00 0.  1.
         11    1    3    3    0    0  0.47904174186E+01 -0.67965545434E+01  0.84550982567E+01  0.11858749491E+02  0.51100000000E-03 0. -1.
        -11    1    3    3    0    0  0.20950115121E+01  0.41709914425E+01 -0.11837334045E+02  0.12724335755E+02  0.51100000000E-03 0.  1.
        -12    1    3    3    0    0 -0.21237362345E+02 -0.24134132166E+02  0.13111684933E+02  0.34718844689E+02  0.00000000000E+00 0.  1.
</event>
<event>
 7    1  0.1327607E-011  0.5930192E+02  0.7816164E-02  0.1266605E+00
        -11   -1    0    0    0    0  0.00000000000E+00  0.00000000000E+00  0.45593999997E+02  0.45594000000E+02  0.51100000000E-03 0.  1.
         11   -1    0    0    0    0 -0.00000000000E+00 -0.00000000000E+00 -0.45593999997E+02  0.45594000000E+02  0.51100000000E-03 0. -1.
    9900012    2    1    2    0    0  0.15065556395E+02  0.26585741449E+02 -0.91076474746E+01  0.59301923408E+02  0.49999962395E+02 0.  0.
        -12    1    1    2    0    0 -0.15065556395E+02 -0.26585741449E+02  0.91076474746E+01  0.31886076592E+02  0.00000000000E+00 0.  1.
         11    1    3    3    0    0  0.81085148724E+01  0.23713441226E+01 -0.76671481485E+01  0.11408612859E+02  0.51100000000E-03 0. -1.
        -11    1    3    3    0    0 -0.10459591004E+02  0.14451022605E+02 -0.15370639109E+02  0.23547646276E+02  0.51100000000E-03 0.  1.
         12    1    3    3    0    0  0.17416632526E+02  0.97633747216E+01  0.13930139783E+02  0.24345664273E+02  0.00000000000E+00 0. -1.
</event>
<event>
 7    1  0.1327607E-011  0.5930196E+02  0.7816164E-02  0.1266605E+00
        -11   -1    0    0    0    0  0.00000000000E+00  0.00000000000E+00  0.45593999997E+02  0.45594000000E+02  0.51100000000E-03 0.  1.
         11   -1    0    0    0    0 -0.00000000000E+00 -0.00000000000E+00 -0.45593999997E+02  0.45594000000E+02  0.51100000000E-03 0. -1.
    9900012    2    1    2    0    0 -0.12983814084E+02 -0.12146924173E+02 -0.26468707012E+02  0.59301958447E+02  0.50000026297E+02 0.  0.
        -12    1    1    2    0    0  0.12983814084E+02  0.12146924173E+02  0.26468707012E+02  0.31886041553E+02  0.00000000000E+00 0.  1.
         11    1    3    3    0    0 -0.61134780857E+01  0.37123723602E+01 -0.20782502616E+02  0.21978824766E+02  0.51100000000E-03 0. -1.
        -11    1    3    3    0    0 -0.16060756485E+02 -0.20832752158E+02 -0.26331395140E+01  0.26436431024E+02  0.51100000000E-03 0.  1.
         12    1    3    3    0    0  0.91904204864E+01  0.49734556246E+01 -0.30530648820E+01  0.10886702657E+02  0.00000000000E+00 0. -1.
</event>
<event>
 7    1  0.1327607E-011  0.5930194E+02  0.7816164E-02  0.1266605E+00
        -11   -1    0    0    0    0  0.00000000000E+00  0.00000000000E+00  0.45593999997E+02  0.45594000000E+02  0.51100000000E-03 0.  1.
         11   -1    0    0    0    0 -0.00000000000E+00 -0.00000000000E+00 -0.45593999997E+02  0.45594000000E+02  0.51100000000E-03 0. -1.
    9900012    2    1    2    0    0  0.29975422573E+02  0.28252417282E+01  0.10498234199E+02  0.59301939243E+02  0.49999991274E+02 0.  0.
        -12    1    1    2    0    0 -0.29975422573E+02 -0.28252417282E+01 -0.10498234199E+02  0.31886060757E+02  0.00000000000E+00 0.  1.
         11    1    3    3    0    0 -0.94351705824E+01  0.40539386902E+01  0.80442635146E+00  0.10300677882E+02  0.51100000000E-03 0. -1.
        -11    1    3    3    0    0  0.83001751340E+01  0.92832223274E+01  0.10295144077E+02  0.16157385799E+02  0.51100000000E-03 0.  1.
         12    1    3    3    0    0  0.31110418022E+02 -0.10511919289E+02 -0.60133622962E+00  0.32843875561E+02  0.00000000000E+00 0. -1.
</event>
<event>
 7    1  0.1327607E-011  0.5930197E+02  0.7816164E-02  0.1266605E+00
        -11   -1    0    0    0    0  0.00000000000E+00  0.00000000000E+00  0.45593999997E+02  0.45594000000E+02  0.51100000000E-03 0.  1.
         11   -1    0    0    0    0 -0.00000000000E+00 -0.00000000000E+00 -0.45593999997E+02  0.45594000000E+02  0.51100000000E-03 0. -1.
    9900012    2    1    2    0    0 -0.28607386612E+01 -0.35459740904E+01 -0.31558850977E+02  0.59301971195E+02  0.50000049547E+02 0.  0.
        -12    1    1    2    0    0  0.28607386612E+01  0.35459740904E+01  0.31558850977E+02  0.31886028805E+02  0.00000000000E+00 0.  1.
         11    1    3    3    0    0 -0.11836971615E+00  0.12875841971E+02 -0.40715622640E+01  0.13504774614E+02  0.51100000000E-03 0.  1.
        -11    1    3    3    0    0 -0.12075203915E+02  0.29778364092E+01 -0.18889015514E+02  0.22615768097E+02  0.51100000000E-03 0. -1.
         12    1    3    3    0    0  0.93328349698E+01 -0.19399652470E+02 -0.85982731994E+01  0.23181428484E+02  0.00000000000E+00 0. -1.
</event>
<event>
 7    1  0.1327607E-011  0.5930197E+02  0.7816164E-02  0.1266605E+00
        -11   -1    0    0    0    0  0.00000000000E+00  0.00000000000E+00  0.45593999997E+02  0.45594000000E+02  0.51100000000E-03 0. -1.
         11   -1    0    0    0    0 -0.00000000000E+00 -0.00000000000E+00 -0.45593999997E+02  0.45594000000E+02  0.51100000000E-03 0.  1.
    9900012    2    1    2    0    0  0.22749873617E+02 -0.19164161958E+02  0.11484657069E+02  0.59301965422E+02  0.50000039018E+02 0.  0.
        -12    1    1    2    0    0 -0.22749873617E+02  0.19164161958E+02 -0.11484657069E+02  0.31886034578E+02  0.00000000000E+00 0.  1.
         11    1    3    3    0    0  0.24335668266E+02  0.57304806441E+00 -0.44152433310E+01  0.24739593933E+02  0.51100000000E-03 0. -1.
        -11    1    3    3    0    0  0.78765864046E+01 -0.19166479546E+02  0.79642074575E+01  0.22199620543E+02  0.51100000000E-03 0.  1.
        -12    1    3    3    0    0 -0.94623810535E+01 -0.57073047623E+00  0.79356929429E+01  0.12362750946E+02  0.00000000000E+00 0.  1.
</event>
<event>
 7    1  0.1327607E-011  0.5930195E+02  0.7816164E-02  0.1266605E+00
        -11   -1    0    0    0    0  0.00000000000E+00  0.00000000000E+00  0.45593999997E+02  0.45594000000E+02  0.51100000000E-03 0.  1.
         11   -1    0    0    0    0 -0.00000000000E+00 -0.00000000000E+00 -0.45593999997E+02  0.45594000000E+02  0.51100000000E-03 0. -1.
    9900012    2    1    2    0    0  0.15417724721E+02  0.27777636202E+02 -0.27233987344E+01  0.59301949614E+02  0.50000010188E+02 0.  0.
        -12    1    1    2    0    0 -0.15417724721E+02 -0.27777636202E+02  0.27233987344E+01  0.31886050386E+02  0.00000000000E+00 0.  1.
         11    1    3    3    0    0  0.66017101899E+01  0.89480748760E+01  0.25029197978E+01  0.11398036199E+02  0.51100000000E-03 0. -1.
        -11    1    3    3    0    0 -0.16898285697E+02  0.12613377206E+02 -0.97256522568E+00  0.21109126638E+02  0.51100000000E-03 0.  1.
         12    1    3    3    0    0  0.25714300228E+02  0.62161841202E+01 -0.42537533065E+01  0.26794786777E+02  0.00000000000E+00 0. -1.
</event>
<event>
 7    1  0.1327607E-011  0.5930192E+02  0.7816164E-02  0.1266605E+00
        -11   -1    0    0    0    0  0.00000000000E+00  0.00000000000E+00  0.45593999997E+02  0.45594000000E+02  0.51100000000E-03 0.  1.
         11   -1    0    0    0    0 -0.00000000000E+00 -0.00000000000E+00 -0.45593999997E+02  0.45594000000E+02  0.51100000000E-03 0. -1.
    9900012    2    1    2    0    0  0.21215888123E+02  0.23502350041E+02 -0.37746241112E+01  0.59301919126E+02  0.49999954585E+02 0.  0.
        -12    1    1    2    0    0 -0.21215888123E+02 -0.23502350041E+02  0.37746241112E+01  0.31886080874E+02  0.00000000000E+00 0.  1.
         11    1    3    3    0    0  0.90179322291E+01 -0.10005909495E+02 -0.11847577846E+02  0.17938963950E+02  0.51100000000E-03 0. -1.
        -11    1    3    3    0    0  0.10583156111E+01  0.22838360734E+01  0.78145399474E+01  0.82099314245E+01  0.51100000000E-03 0.  1.
        -12    1    3    3    0    0  0.11139640283E+02  0.31224423462E+02  0.25841378770E+00  0.33153023752E+02  0.00000000000E+00 0.  1.
</event>
<event>
 7    1  0.1327607E-011  0.5930193E+02  0.7816164E-02  0.1266605E+00
        -11   -1    0    0    0    0  0.00000000000E+00  0.00000000000E+00  0.45593999997E+02  0.45594000000E+02  0.51100000000E-03 0.  1.
         11   -1    0    0    0    0 -0.00000000000E+00 -0.00000000000E+00 -0.45593999997E+02  0.45594000000E+02  0.51100000000E-03 0. -1.
    9900012    2    1    2    0    0 -0.12469832686E+02  0.22582210151E+02 -0.18742152267E+02  0.59301933856E+02  0.49999981449E+02 0.  0.
        -12    1    1    2    0    0  0.12469832686E+02 -0.22582210151E+02  0.18742152267E+02  0.31886066144E+02  0.00000000000E+00 0.  1.
         11    1    3    3    0    0  0.62889453075E+01 -0.10168546933E+02  0.28028977464E+01  0.12280326374E+02  0.51100000000E-03 0. -1.
        -11    1    3    3    0    0 -0.18113185881E+01  0.15887666401E+02 -0.19487275486E+01  0.16108890652E+02  0.51100000000E-03 0.  1.
         12    1    3    3    0    0 -0.16947459406E+02  0.16863090683E+02 -0.19596322465E+02  0.30912716830E+02  0.00000000000E+00 0. -1.
</event>
<event>
 7    1  0.1327607E-011  0.5930196E+02  0.7816164E-02  0.1266605E+00
        -11   -1    0    0    0    0  0.00000000000E+00  0.00000000000E+00  0.45593999997E+02  0.45594000000E+02  0.51100000000E-03 0.  1.
         11   -1    0    0    0    0 -0.00000000000E+00 -0.00000000000E+00 -0.45593999997E+02  0.45594000000E+02  0.51100000000E-03 0. -1.
    9900012    2    1    2    0    0  0.14345931282E+02  0.24673584643E+02 -0.14217172198E+02  0.59301960597E+02  0.50000030219E+02 0.  0.
        -12    1    1    2    0    0 -0.14345931282E+02 -0.24673584643E+02  0.14217172198E+02  0.31886039403E+02  0.00000000000E+00 0.  1.
         11    1    3    3    0    0  0.39818951399E+00 -0.48956986607E+01 -0.11120725292E+02  0.12157176956E+02  0.51100000000E-03 0. -1.
        -11    1    3    3    0    0  0.23158286044E+02  0.10528792683E+02  0.15596477842E+01  0.25487137723E+02  0.51100000000E-03 0.  1.
         12    1    3    3    0    0 -0.92105442760E+01  0.19040490620E+02 -0.46560946906E+01  0.21657645918E+02  0.00000000000E+00 0. -1.
</event>
<event>
 7    1  0.1327607E-011  0.5930193E+02  0.7816164E-02  0.1266605E+00
        -11   -1    0    0    0    0  0.00000000000E+00  0.00000000000E+00  0.45593999997E+02  0.45594000000E+02  0.51100000000E-03 0.  1.
         11   -1    0    0    0    0 -0.00000000000E+00 -0.00000000000E+00 -0.45593999997E+02  0.45594000000E+02  0.51100000000E-03 0. -1.
    9900012    2    1    2    0    0  0.47453629326E+01  0.13469160501E+02 -0.28509379492E+02  0.59301929797E+02  0.49999974046E+02 0.  0.
        -12    1    1    2    0    0 -0.47453629326E+01 -0.13469160501E+02  0.28509379492E+02  0.31886070203E+02  0.00000000000E+00 0.  1.
         11    1    3    3    0    0  0.10125550605E+02  0.13952371558E+02 -0.34687868812E+01  0.17584877874E+02  0.51100000000E-03 0. -1.
        -11    1    3    3    0    0  0.12220725625E+02  0.10540612606E+00 -0.14923226340E+01  0.12311956480E+02  0.51100000000E-03 0.  1.
         12    1    3    3    0    0 -0.17600913298E+02 -0.58861718284E+00 -0.23548269977E+02  0.29405095443E+02  0.00000000000E+00 0. -1.
</event>
<event>
 7    1  0.1327607E-011  0.5930194E+02  0.7816164E-02  0.1266605E+00
        -11   -1    0    0    0    0  0.00000000000E+00  0.00000000000E+00  0.45593999997E+02  0.45594000000E+02  0.51100000000E-03 0.  1.
         11   -1    0    0    0    0 -0.00000000000E+00 -0.00000000000E+00 -0.45593999997E+02  0.45594000000E+02  0.51100000000E-03 0. -1.
    9900012    2    1    2    0    0 -0.29295518960E+02  0.86375053631E+01 -0.91589713241E+01  0.59301942141E+02  0.49999996560E+02 0.  0.
        -12    1    1    2    0    0  0.29295518960E+02 -0.86375053631E+01  0.91589713241E+01  0.31886057859E+02  0.00000000000E+00 0.  1.
         11    1    3    3    0    0 -0.38698495659E+01 -0.19227992828E+01  0.75253342707E+01  0.86777617443E+01  0.51100000000E-03 0. -1.
        -11    1    3    3    0    0 -0.21479876025E+02  0.17932053993E+02  0.40450865264E+01  0.28272006645E+02  0.51100000000E-03 0.  1.
         12    1    3    3    0    0 -0.39457933696E+01 -0.73717493471E+01 -0.20729392121E+02  0.22352173753E+02  0.00000000000E+00 0. -1.
</event>
<event>
 7    1  0.1327607E-011  0.5930187E+02  0.7816164E-02  0.1266605E+00
        -11   -1    0    0    0    0  0.00000000000E+00  0.00000000000E+00  0.45593999997E+02  0.45594000000E+02  0.51100000000E-03 0.  1.
         11   -1    0    0    0    0 -0.00000000000E+00 -0.00000000000E+00 -0.45593999997E+02  0.45594000000E+02  0.51100000000E-03 0. -1.
    9900012    2    1    2    0    0 -0.62609446706E+01  0.27160221826E+02  0.15487025352E+02  0.59301873988E+02  0.49999872264E+02 0.  0.
        -12    1    1    2    0    0  0.62609446706E+01 -0.27160221826E+02 -0.15487025352E+02  0.31886126012E+02  0.00000000000E+00 0.  1.
         11    1    3    3    0    0 -0.70166257123E+00 -0.30168430669E+01 -0.58178225518E+01  0.65909583491E+01  0.51100000000E-03 0.  1.
        -11    1    3    3    0    0 -0.21238752688E+02  0.16913247618E+02  0.82518543758E+01  0.28376674605E+02  0.51100000000E-03 0. -1.
        -12    1    3    3    0    0  0.15679470589E+02  0.13263817274E+02  0.13052993528E+02  0.24334241034E+02  0.00000000000E+00 0.  1.
</event>
<event>
 7    1  0.1327607E-011  0.5930188E+02  0.7816164E-02  0.1266605E+00
        -11   -1    0    0    0    0  0.00000000000E+00  0.00000000000E+00  0.45593999997E+02  0.45594000000E+02  0.51100000000E-03 0.  1.
         11   -1    0    0    0    0 -0.00000000000E+00 -0.00000000000E+00 -0.45593999997E+02  0.45594000000E+02  0.51100000000E-03 0. -1.
    9900012    2    1    2    0    0 -0.11599003136E+02  0.21857137132E+02 -0.20111028076E+02  0.59301878134E+02  0.49999879826E+02 0.  0.
        -12    1    1    2    0    0  0.11599003136E+02 -0.21857137132E+02  0.20111028076E+02  0.31886121866E+02  0.00000000000E+00 0.  1.
         11    1    3    3    0    0  0.61057687381E+01  0.49217858414E+01 -0.12762275042E+02  0.14979320821E+02  0.51100000000E-03 0. -1.
        -11    1    3    3    0    0  0.78284620341E+01  0.15855555694E+02  0.16912570744E+00  0.17683666700E+02  0.51100000000E-03 0.  1.
         12    1    3    3    0    0 -0.25533233908E+02  0.10797955965E+01 -0.75178787415E+01  0.26638890614E+02  0.00000000000E+00 0. -1.
</event>
<event>
 7    1  0.1327607E-011  0.5930170E+02  0.7816164E-02  0.1266606E+00
        -11   -1    0    0    0    0  0.00000000000E+00  0.00000000000E+00  0.45593999997E+02  0.45594000000E+02  0.51100000000E-03 0. -1.
         11   -1    0    0    0    0 -0.00000000000E+00 -0.00000000000E+00 -0.45593999997E+02  0.45594000000E+02  0.51100000000E-03 0.  1.
    9900012    2    1    2    0    0 -0.29940823913E+02 -0.91378357117E+00  0.10929237162E+02  0.59301699463E+02  0.49999553970E+02 0.  0.
        -12    1    1    2    0    0  0.29940823913E+02  0.91378357117E+00 -0.10929237162E+02  0.31886300537E+02  0.00000000000E+00 0.  1.
         11    1    3    3    0    0 -0.80869176810E+01  0.10432304644E+02  0.73301274026E+01  0.15098410041E+02  0.51100000000E-03 0. -1.
        -11    1    3    3    0    0 -0.13097261979E+02  0.79043055625E+01  0.13909118968E+02  0.20675587259E+02  0.51100000000E-03 0.  1.
         12    1    3    3    0    0 -0.87566442529E+01 -0.19250393777E+02 -0.10310009209E+02  0.23527702162E+02  0.00000000000E+00 0. -1.
</event>
<event>
 7    1  0.1327607E-011  0.5930192E+02  0.7816164E-02  0.1266605E+00
        -11   -1    0    0    0    0  0.00000000000E+00  0.00000000000E+00  0.45593999997E+02  0.45594000000E+02  0.51100000000E-03 0.  1.
         11   -1    0    0    0    0 -0.00000000000E+00 -0.00000000000E+00 -0.45593999997E+02  0.45594000000E+02  0.51100000000E-03 0. -1.
    9900012    2    1    2    0    0  0.67057364699E+00 -0.32074483966E+01 -0.31717257655E+02  0.59301924239E+02  0.49999963911E+02 0.  0.
        -12    1    1    2    0    0 -0.67057364699E+00  0.32074483966E+01  0.31717257655E+02  0.31886075761E+02  0.00000000000E+00 0.  1.
         11    1    3    3    0    0  0.17046851795E+01 -0.11462304147E+02 -0.18903180306E+02  0.22172518888E+02  0.51100000000E-03 0. -1.
        -11    1    3    3    0    0 -0.15424943024E+02 -0.38765649728E+01 -0.74161642403E+01  0.17548678457E+02  0.51100000000E-03 0.  1.
        -12    1    3    3    0    0  0.14390831491E+02  0.12131420724E+02 -0.53979131095E+01  0.19580726894E+02  0.00000000000E+00 0.  1.
</event>
<event>
 7    1  0.1327607E-011  0.5930193E+02  0.7816164E-02  0.1266605E+00
        -11   -1    0    0    0    0  0.00000000000E+00  0.00000000000E+00  0.45593999997E+02  0.45594000000E+02  0.51100000000E-03 0.  1.
         11   -1    0    0    0    0 -0.00000000000E+00 -0.00000000000E+00 -0.45593999997E+02  0.45594000000E+02  0.51100000000E-03 0. -1.
    9900012    2    1    2    0    0 -0.10176316878E+02  0.30214079384E+02 -0.52307829043E+00  0.59301927349E+02  0.49999969581E+02 0.  0.
        -12    1    1    2    0    0  0.10176316878E+02 -0.30214079384E+02  0.52307829043E+00  0.31886072651E+02  0.00000000000E+00 0.  1.
         11    1    3    3    0    0  0.54538015152E+01  0.24715352591E+02  0.19892186498E+01  0.25387981325E+02  0.51100000000E-03 0. -1.
        -11    1    3    3    0    0 -0.10829888532E+02  0.15983503097E+02  0.52565013123E+01  0.20009739208E+02  0.51100000000E-03 0.  1.
         12    1    3    3    0    0 -0.48002298621E+01 -0.10484776304E+02 -0.77687982525E+01  0.13904206815E+02  0.00000000000E+00 0. -1.
</event>
<event>
 7    1  0.1327607E-011  0.5930195E+02  0.7816164E-02  0.1266605E+00
        -11   -1    0    0    0    0  0.00000000000E+00  0.00000000000E+00  0.45593999997E+02  0.45594000000E+02  0.51100000000E-03 0.  1.
         11   -1    0    0    0    0 -0.00000000000E+00 -0.00000000000E+00 -0.45593999997E+02  0.45594000000E+02  0.51100000000E-03 0. -1.
    9900012    2    1    2    0    0  0.31199476233E+02  0.65811186221E+01  0.42958579642E-01  0.59301948426E+02  0.50000008021E+02 0.  0.
        -12    1    1    2    0    0 -0.31199476233E+02 -0.65811186221E+01 -0.42958579642E-01  0.31886051574E+02  0.00000000000E+00 0.  1.
         11    1    3    3    0    0 -0.49863908132E+01 -0.18147797639E+01 -0.10903419993E+02  0.12126091157E+02  0.51100000000E-03 0. -1.
        -11    1    3    3    0    0  0.35889460794E+01  0.86507284280E+01  0.11170418919E+02  0.14577170349E+02  0.51100000000E-03 0.  1.
         12    1    3    3    0    0  0.32596920967E+02 -0.25483004200E+00 -0.22404034571E+00  0.32598686921E+02  0.00000000000E+00 0. -1.
</event>
<event>
 7    1  0.1327607E-011  0.5930195E+02  0.7816164E-02  0.1266605E+00
        -11   -1    0    0    0    0  0.00000000000E+00  0.00000000000E+00  0.45593999997E+02  0.45594000000E+02  0.51100000000E-03 0. -1.
         11   -1    0    0    0    0 -0.00000000000E+00 -0.00000000000E+00 -0.45593999997E+02  0.45594000000E+02  0.51100000000E-03 0.  1.
    9900012    2    1    2    0    0 -0.11076178209E+02 -0.13134520613E+02  0.26861176098E+02  0.59301950750E+02  0.50000012259E+02 0.  0.
        -12    1    1    2    0    0  0.11076178209E+02  0.13134520613E+02 -0.26861176098E+02  0.31886049250E+02  0.00000000000E+00 0.  1.
         11    1    3    3    0    0 -0.52284321121E+01  0.41863544413E+00 -0.63501617926E+01  0.82362802915E+01  0.51100000000E-03 0. -1.
        -11    1    3    3    0    0 -0.71187306628E+01 -0.24998512245E+02  0.16557163939E+02  0.30817878232E+02  0.51100000000E-03 0.  1.
         12    1    3    3    0    0  0.12709845662E+01  0.11445356188E+02  0.16654173951E+02  0.20247792226E+02  0.00000000000E+00 0. -1.
</event>
<event>
 7    1  0.1327607E-011  0.5930190E+02  0.7816164E-02  0.1266605E+00
        -11   -1    0    0    0    0  0.00000000000E+00  0.00000000000E+00  0.45593999997E+02  0.45594000000E+02  0.51100000000E-03 0. -1.
         11   -1    0    0    0    0 -0.00000000000E+00 -0.00000000000E+00 -0.45593999997E+02  0.45594000000E+02  0.51100000000E-03 0.  1.
    9900012    2    1    2    0    0  0.11600301325E+02 -0.43557042467E+01  0.29379995994E+02  0.59301900914E+02  0.49999921371E+02 0.  0.
        -12    1    1    2    0    0 -0.11600301325E+02  0.43557042467E+01 -0.29379995994E+02  0.31886099086E+02  0.00000000000E+00 0.  1.
         11    1    3    3    0    0  0.56406733674E+01 -0.31313883388E+01 -0.70255998571E+01  0.95384402593E+01  0.51100000000E-03 0. -1.
        -11    1    3    3    0    0  0.17863473723E+02  0.55183816409E+01  0.13418598380E+02  0.23013365945E+02  0.51100000000E-03 0.  1.
         12    1    3    3    0    0 -0.11903845765E+02 -0.67426975487E+01  0.22986997471E+02  0.26750094709E+02  0.00000000000E+00 0. -1.
</event>
<event>
 7    1  0.1327607E-011  0.5930187E+02  0.7816164E-02  0.1266605E+00
        -11   -1    0    0    0    0  0.00000000000E+00  0.00000000000E+00  0.45593999997E+02  0.45594000000E+02  0.51100000000E-03 0.  1.
         11   -1    0    0    0    0 -0.00000000000E+00 -0.00000000000E+00 -0.45593999997E+02  0.45594000000E+02  0.51100000000E-03 0. -1.
    9900012    2    1    2    0    0 -0.11228224036E+01 -0.28793498466E+02 -0.13652804635E+02  0.59301868870E+02  0.49999862929E+02 0.  0.
        -12    1    1    2    0    0  0.11228224036E+01  0.28793498466E+02  0.13652804635E+02  0.31886131130E+02  0.00000000000E+00 0.  1.
         11    1    3    3    0    0  0.34699005029E+01 -0.37514173503E+01 -0.22598369927E+02  0.23168937508E+02  0.51100000000E-03 0. -1.
        -11    1    3    3    0    0  0.81811496085E+01 -0.35975099431E+01  0.65034124871E+01  0.11052948066E+02  0.51100000000E-03 0.  1.
         12    1    3    3    0    0 -0.12773872515E+02 -0.21444571173E+02  0.24421528044E+01  0.25079983296E+02  0.00000000000E+00 0. -1.
</event>
<event>
 7    1  0.1327607E-011  0.5930193E+02  0.7816164E-02  0.1266605E+00
        -11   -1    0    0    0    0  0.00000000000E+00  0.00000000000E+00  0.45593999997E+02  0.45594000000E+02  0.51100000000E-03 0.  1.
         11   -1    0    0    0    0 -0.00000000000E+00 -0.00000000000E+00 -0.45593999997E+02  0.45594000000E+02  0.51100000000E-03 0. -1.
    9900012    2    1    2    0    0  0.23924641959E+02 -0.18827403985E+02 -0.94795368582E+01  0.59301933251E+02  0.49999980345E+02 0.  0.
        -12    1    1    2    0    0 -0.23924641959E+02  0.18827403985E+02  0.94795368582E+01  0.31886066749E+02  0.00000000000E+00 0.  1.
         11    1    3    3    0    0 -0.10424193197E+01  0.28540064997E+01 -0.25181396703E+01  0.39462664379E+01  0.51100000000E-03 0. -1.
        -11    1    3    3    0    0 -0.56070896626E+01  0.92852607527E+01 -0.45786017308E+01  0.11773661954E+02  0.51100000000E-03 0.  1.
         12    1    3    3    0    0  0.30574150942E+02 -0.30966671238E+02 -0.23827954571E+01  0.43582004859E+02  0.00000000000E+00 0. -1.
</event>
<event>
 7    1  0.1327607E-011  0.5930194E+02  0.7816164E-02  0.1266605E+00
        -11   -1    0    0    0    0  0.00000000000E+00  0.00000000000E+00  0.45593999997E+02  0.45594000000E+02  0.51100000000E-03 0. -1.
         11   -1    0    0    0    0 -0.00000000000E+00 -0.00000000000E+00 -0.45593999997E+02  0.45594000000E+02  0.51100000000E-03 0.  1.
    9900012    2    1    2    0    0  0.86031665148E+01 -0.15451883373E+02  0.26531970465E+02  0.59301943006E+02  0.49999998137E+02 0.  0.
        -12    1    1    2    0    0 -0.86031665148E+01  0.15451883373E+02 -0.26531970465E+02  0.31886056994E+02  0.00000000000E+00 0.  1.
         11    1    3    3    0    0 -0.37761140596E+01  0.29459978876E+01  0.15542758327E+02  0.16263925652E+02  0.51100000000E-03 0. -1.
        -11    1    3    3    0    0  0.13846311268E+02  0.51723549102E+01  0.12522686348E+02  0.19372435693E+02  0.51100000000E-03 0.  1.
        -12    1    3    3    0    0 -0.14670306934E+01 -0.23570236171E+02 -0.15334742095E+01  0.23665581661E+02  0.00000000000E+00 0.  1.
</event>
<event>
 7    1  0.1327607E-011  0.5930194E+02  0.7816164E-02  0.1266605E+00
        -11   -1    0    0    0    0  0.00000000000E+00  0.00000000000E+00  0.45593999997E+02  0.45594000000E+02  0.51100000000E-03 0. -1.
         11   -1    0    0    0    0 -0.00000000000E+00 -0.00000000000E+00 -0.45593999997E+02  0.45594000000E+02  0.51100000000E-03 0.  1.
    9900012    2    1    2    0    0  0.20005523169E+02 -0.24591480860E+02  0.34290899454E+01  0.59301944333E+02  0.50000000557E+02 0.  0.
        -12    1    1    2    0    0 -0.20005523169E+02  0.24591480860E+02 -0.34290899454E+01  0.31886055667E+02  0.00000000000E+00 0.  1.
         11    1    3    3    0    0  0.91462337307E+01  0.34853836021E+01 -0.10308866542E+01  0.98419620943E+01  0.51100000000E-03 0. -1.
        -11    1    3    3    0    0 -0.26142874440E+00 -0.26462326991E+01 -0.15210156755E+02  0.15440847168E+02  0.51100000000E-03 0.  1.
         12    1    3    3    0    0  0.11120718182E+02 -0.25430631763E+02  0.19670133355E+02  0.34019135071E+02  0.00000000000E+00 0. -1.
</event>
<event>
 7    1  0.1327607E-011  0.5930194E+02  0.7816164E-02  0.1266605E+00
        -11   -1    0    0    0    0  0.00000000000E+00  0.00000000000E+00  0.45593999997E+02  0.45594000000E+02  0.51100000000E-03 0. -1.
         11   -1    0    0    0    0 -0.00000000000E+00 -0.00000000000E+00 -0.45593999997E+02  0.45594000000E+02  0.51100000000E-03 0.  1.
    9900012    2    1    2    0    0  0.19115947543E+02  0.12873605359E+02  0.22035685510E+02  0.59301943466E+02  0.49999998976E+02 0.  0.
        -12    1    1    2    0    0 -0.19115947543E+02 -0.12873605359E+02 -0.22035685510E+02  0.31886056534E+02  0.00000000000E+00 0.  1.
         11    1    3    3    0    0  0.90703449026E+01  0.37236577894E+00  0.28738352230E+02  0.30138060689E+02  0.51100000000E-03 0. -1.
        -11    1    3    3    0    0  0.42005784273E+01  0.11395812774E+02  0.71460051509E+01  0.14091657028E+02  0.51100000000E-03 0.  1.
         12    1    3    3    0    0  0.58450242127E+01  0.11054268054E+01 -0.13848671870E+02  0.15072225750E+02  0.00000000000E+00 0. -1.
</event>
<event>
 7    1  0.1327607E-011  0.5930192E+02  0.7816164E-02  0.1266605E+00
        -11   -1    0    0    0    0  0.00000000000E+00  0.00000000000E+00  0.45593999997E+02  0.45594000000E+02  0.51100000000E-03 0.  1.
         11   -1    0    0    0    0 -0.00000000000E+00 -0.00000000000E+00 -0.45593999997E+02  0.45594000000E+02  0.51100000000E-03 0. -1.
    9900012    2    1    2    0    0  0.20191313284E+02 -0.18396419896E+02 -0.16450075326E+02  0.59301915647E+02  0.49999948241E+02 0.  0.
        -12    1    1    2    0    0 -0.20191313284E+02  0.18396419896E+02  0.16450075326E+02  0.31886084353E+02  0.00000000000E+00 0.  1.
         11    1    3    3    0    0 -0.63260269827E+01 -0.23101913265E+01 -0.58745741310E+00  0.67602298647E+01  0.51100000000E-03 0. -1.
        -11    1    3    3    0    0  0.12609432473E+02  0.75380859667E+01  0.75257026323E+01  0.16506263287E+02  0.51100000000E-03 0.  1.
        -12    1    3    3    0    0  0.13907907793E+02 -0.23624314536E+02 -0.23388320545E+02  0.36035422495E+02  0.00000000000E+00 0.  1.
</event>
<event>
 7    1  0.1327607E-011  0.5930195E+02  0.7816164E-02  0.1266605E+00
        -11   -1    0    0    0    0  0.00000000000E+00  0.00000000000E+00  0.45593999997E+02  0.45594000000E+02  0.51100000000E-03 0.  1.
         11   -1    0    0    0    0 -0.00000000000E+00 -0.00000000000E+00 -0.45593999997E+02  0.45594000000E+02  0.51100000000E-03 0. -1.
    9900012    2    1    2    0    0  0.17379554161E+02 -0.26208506306E+02 -0.52711802231E+01  0.59301952165E+02  0.50000014840E+02 0.  0.
        -12    1    1    2    0    0 -0.17379554161E+02  0.26208506306E+02  0.52711802231E+01  0.31886047835E+02  0.00000000000E+00 0.  1.
         11    1    3    3    0    0  0.16460316060E+01 -0.15039200633E+01 -0.10764730374E+02  0.10993207716E+02  0.51100000000E-03 0.  1.
        -11    1    3    3    0    0 -0.88310273128E+01 -0.31121018383E+01 -0.85835301514E+01  0.12702330943E+02  0.51100000000E-03 0. -1.
        -12    1    3    3    0    0  0.24564549868E+02 -0.21592484404E+02  0.14077080302E+02  0.35606413506E+02  0.00000000000E+00 0.  1.
</event>
<event>
 7    1  0.1327607E-011  0.5930192E+02  0.7816164E-02  0.1266605E+00
        -11   -1    0    0    0    0  0.00000000000E+00  0.00000000000E+00  0.45593999997E+02  0.45594000000E+02  0.51100000000E-03 0. -1.
         11   -1    0    0    0    0 -0.00000000000E+00 -0.00000000000E+00 -0.45593999997E+02  0.45594000000E+02  0.51100000000E-03 0.  1.
    9900012    2    1    2    0    0 -0.25495667085E+02  0.76840027309E+01  0.17539921790E+02  0.59301924756E+02  0.49999964852E+02 0.  0.
        -12    1    1    2    0    0  0.25495667085E+02 -0.76840027309E+01 -0.17539921790E+02  0.31886075244E+02  0.00000000000E+00 0.  1.
         11    1    3    3    0    0 -0.30128398929E+02  0.11859428150E+02  0.63891742556E+01  0.33002848453E+02  0.51100000000E-03 0. -1.
        -11    1    3    3    0    0 -0.90533261210E+01 -0.36195264828E+01  0.23867848287E+01  0.10037949387E+02  0.51100000000E-03 0.  1.
        -12    1    3    3    0    0  0.13686057965E+02 -0.55589893670E+00  0.87639627060E+01  0.16261126916E+02  0.00000000000E+00 0.  1.
</event>
<event>
 7    1  0.1327607E-011  0.5930193E+02  0.7816164E-02  0.1266605E+00
        -11   -1    0    0    0    0  0.00000000000E+00  0.00000000000E+00  0.45593999997E+02  0.45594000000E+02  0.51100000000E-03 0.  1.
         11   -1    0    0    0    0 -0.00000000000E+00 -0.00000000000E+00 -0.45593999997E+02  0.45594000000E+02  0.51100000000E-03 0. -1.
    9900012    2    1    2    0    0  0.86812990919E+01 -0.13094376186E+02 -0.27746966121E+02  0.59301925131E+02  0.49999965536E+02 0.  0.
        -12    1    1    2    0    0 -0.86812990919E+01  0.13094376186E+02  0.27746966121E+02  0.31886074869E+02  0.00000000000E+00 0.  1.
         11    1    3    3    0    0  0.91979488731E+01 -0.33145150336E+00 -0.23435484558E+02  0.25178047190E+02  0.51100000000E-03 0. -1.
        -11    1    3    3    0    0  0.11452269584E+02 -0.16527205383E+02 -0.70023160987E+01  0.21291675073E+02  0.51100000000E-03 0.  1.
         12    1    3    3    0    0 -0.11968919365E+02  0.37642807002E+01  0.26908345354E+01  0.12832202868E+02  0.00000000000E+00 0. -1.
</event>
<event>
 7    1  0.1327607E-011  0.5930195E+02  0.7816164E-02  0.1266605E+00
        -11   -1    0    0    0    0  0.00000000000E+00  0.00000000000E+00  0.45593999997E+02  0.45594000000E+02  0.51100000000E-03 0.  1.
         11   -1    0    0    0    0 -0.00000000000E+00 -0.00000000000E+00 -0.45593999997E+02  0.45594000000E+02  0.51100000000E-03 0. -1.
    9900012    2    1    2    0    0 -0.16642611159E+02  0.79712818737E+01 -0.26003889233E+02  0.59301951388E+02  0.50000013423E+02 0.  0.
        -12    1    1    2    0    0  0.16642611159E+02 -0.79712818737E+01  0.26003889233E+02  0.31886048612E+02  0.00000000000E+00 0.  1.
         11    1    3    3    0    0 -0.83055439666E+01  0.90434776858E+01 -0.43378750870E+01  0.13022431024E+02  0.51100000000E-03 0. -1.
        -11    1    3    3    0    0  0.15862572030E+02 -0.13722933029E+01 -0.13061680287E+02  0.20593976607E+02  0.51100000000E-03 0.  1.
        -12    1    3    3    0    0 -0.24199639222E+02  0.30009749080E+00 -0.86043338586E+01  0.25685543757E+02  0.00000000000E+00 0.  1.
</event>
<event>
 7    1  0.1327607E-011  0.5930194E+02  0.7816164E-02  0.1266605E+00
        -11   -1    0    0    0    0  0.00000000000E+00  0.00000000000E+00  0.45593999997E+02  0.45594000000E+02  0.51100000000E-03 0.  1.
         11   -1    0    0    0    0 -0.00000000000E+00 -0.00000000000E+00 -0.45593999997E+02  0.45594000000E+02  0.51100000000E-03 0. -1.
    9900012    2    1    2    0    0 -0.24186973258E+02  0.19792342645E+02  0.63225184227E+01  0.59301941260E+02  0.49999994952E+02 0.  0.
        -12    1    1    2    0    0  0.24186973258E+02 -0.19792342645E+02 -0.63225184227E+01  0.31886058740E+02  0.00000000000E+00 0.  1.
         11    1    3    3    0    0 -0.42873303764E+01  0.17138382708E+02  0.13804241554E+02  0.22420134896E+02  0.51100000000E-03 0.  1.
        -11    1    3    3    0    0 -0.14899131820E+02  0.15985899962E+02 -0.51800527945E+01  0.22458095952E+02  0.51100000000E-03 0. -1.
        -12    1    3    3    0    0 -0.50005110619E+01 -0.13331940025E+02 -0.23016703372E+01  0.14423710412E+02  0.00000000000E+00 0.  1.
</event>
<event>
 7    1  0.1327607E-011  0.5930191E+02  0.7816164E-02  0.1266605E+00
        -11   -1    0    0    0    0  0.00000000000E+00  0.00000000000E+00  0.45593999997E+02  0.45594000000E+02  0.51100000000E-03 0.  1.
         11   -1    0    0    0    0 -0.00000000000E+00 -0.00000000000E+00 -0.45593999997E+02  0.45594000000E+02  0.51100000000E-03 0. -1.
    9900012    2    1    2    0    0 -0.12957659858E+02 -0.11761323435E+02 -0.26655081206E+02  0.59301905350E+02  0.49999929461E+02 0.  0.
        -12    1    1    2    0    0  0.12957659858E+02  0.11761323435E+02  0.26655081206E+02  0.31886094650E+02  0.00000000000E+00 0.  1.
         11    1    3    3    0    0  0.10512573615E+02 -0.45941686562E+01 -0.24121367509E+02  0.26710690003E+02  0.51100000000E-03 0. -1.
        -11    1    3    3    0    0  0.13649355259E+01  0.33958966507E+01  0.33584066905E+01  0.49672989452E+01  0.51100000000E-03 0.  1.
         12    1    3    3    0    0 -0.24835168999E+02 -0.10563051429E+02 -0.58921203875E+01  0.27623916402E+02  0.00000000000E+00 0. -1.
</event>
<event>
 7    1  0.1327607E-011  0.5930195E+02  0.7816164E-02  0.1266605E+00
        -11   -1    0    0    0    0  0.00000000000E+00  0.00000000000E+00  0.45593999997E+02  0.45594000000E+02  0.51100000000E-03 0.  1.
         11   -1    0    0    0    0 -0.00000000000E+00 -0.00000000000E+00 -0.45593999997E+02  0.45594000000E+02  0.51100000000E-03 0. -1.
    9900012    2    1    2    0    0  0.20292852110E+02 -0.12549067771E+02 -0.21152810149E+02  0.59301947785E+02  0.50000006851E+02 0.  0.
        -12    1    1    2    0    0 -0.20292852110E+02  0.12549067771E+02  0.21152810149E+02  0.31886052215E+02  0.00000000000E+00 0.  1.
         11    1    3    3    0    0  0.14665420102E+02  0.12865935505E+01 -0.12777952518E+02  0.19493741061E+02  0.51100000000E-03 0. -1.
        -11    1    3    3    0    0  0.10410778061E+02  0.10101971096E+02 -0.30862455574E+01  0.14831015871E+02  0.51100000000E-03 0.  1.
        -12    1    3    3    0    0 -0.47833460528E+01 -0.23937632418E+02 -0.52886120736E+01  0.24977190853E+02  0.00000000000E+00 0.  1.
</event>
<event>
 7    1  0.1327607E-011  0.5930196E+02  0.7816164E-02  0.1266605E+00
        -11   -1    0    0    0    0  0.00000000000E+00  0.00000000000E+00  0.45593999997E+02  0.45594000000E+02  0.51100000000E-03 0. -1.
         11   -1    0    0    0    0 -0.00000000000E+00 -0.00000000000E+00 -0.45593999997E+02  0.45594000000E+02  0.51100000000E-03 0.  1.
    9900012    2    1    2    0    0 -0.87343461596E+01  0.24070516147E+02  0.19001077506E+02  0.59301960786E+02  0.50000030562E+02 0.  0.
        -12    1    1    2    0    0  0.87343461596E+01 -0.24070516147E+02 -0.19001077506E+02  0.31886039214E+02  0.00000000000E+00 0.  1.
         11    1    3    3    0    0 -0.11629319459E+02  0.19920660729E+02  0.15621288461E+02  0.27858543544E+02  0.51100000000E-03 0. -1.
        -11    1    3    3    0    0 -0.37784926583E+01  0.16163947700E+02  0.56067839910E+01  0.17521022773E+02  0.51100000000E-03 0.  1.
        -12    1    3    3    0    0  0.66734659580E+01 -0.12014092282E+02 -0.22269949460E+01  0.13922394469E+02  0.00000000000E+00 0.  1.
</event>
<event>
 7    1  0.1327607E-011  0.5930196E+02  0.7816164E-02  0.1266605E+00
        -11   -1    0    0    0    0  0.00000000000E+00  0.00000000000E+00  0.45593999997E+02  0.45594000000E+02  0.51100000000E-03 0. -1.
         11   -1    0    0    0    0 -0.00000000000E+00 -0.00000000000E+00 -0.45593999997E+02  0.45594000000E+02  0.51100000000E-03 0.  1.
    9900012    2    1    2    0    0  0.30537775467E+02 -0.82511580069E+01  0.40102911764E+01  0.59301956434E+02  0.50000022627E+02 0.  0.
        -12    1    1    2    0    0 -0.30537775467E+02  0.82511580069E+01 -0.40102911764E+01  0.31886043566E+02  0.00000000000E+00 0.  1.
         11    1    3    3    0    0 -0.46958170694E+00  0.96765360681E+01  0.11662769167E+02  0.15161663568E+02  0.51100000000E-03 0. -1.
        -11    1    3    3    0    0  0.22084591952E+01  0.10111369473E+01  0.64549623142E+01  0.68968274360E+01  0.51100000000E-03 0.  1.
        -12    1    3    3    0    0  0.28798897979E+02 -0.18938831022E+02 -0.14107440305E+02  0.37243465430E+02  0.00000000000E+00 0.  1.
</event>
<event>
 7    1  0.1327607E-011  0.5930192E+02  0.7816164E-02  0.1266605E+00
        -11   -1    0    0    0    0  0.00000000000E+00  0.00000000000E+00  0.45593999997E+02  0.45594000000E+02  0.51100000000E-03 0.  1.
         11   -1    0    0    0    0 -0.00000000000E+00 -0.00000000000E+00 -0.45593999997E+02  0.45594000000E+02  0.51100000000E-03 0. -1.
    9900012    2    1    2    0    0 -0.25607030965E+02  0.81519395683E+01 -0.17162399658E+02  0.59301919720E+02  0.49999955669E+02 0.  0.
        -12    1    1    2    0    0  0.25607030965E+02 -0.81519395683E+01  0.17162399658E+02  0.31886080280E+02  0.00000000000E+00 0.  1.
         11    1    3    3    0    0  0.22676962739E+01  0.10292487127E+02 -0.56230886497E+01  0.11945579261E+02  0.51100000000E-03 0. -1.
        -11    1    3    3    0    0  0.33471551592E+01  0.22706867957E+01  0.89023269696E+01  0.97780822210E+01  0.51100000000E-03 0.  1.
         12    1    3    3    0    0 -0.31221882399E+02 -0.44112343548E+01 -0.20441637978E+02  0.37578258239E+02  0.00000000000E+00 0. -1.
</event>
<event>
 7    1  0.1327607E-011  0.5930197E+02  0.7816164E-02  0.1266605E+00
        -11   -1    0    0    0    0  0.00000000000E+00  0.00000000000E+00  0.45593999997E+02  0.45594000000E+02  0.51100000000E-03 0. -1.
         11   -1    0    0    0    0 -0.00000000000E+00 -0.00000000000E+00 -0.45593999997E+02  0.45594000000E+02  0.51100000000E-03 0.  1.
    9900012    2    1    2    0    0  0.64879874276E+01  0.22037310771E+02  0.22112928544E+02  0.59301973975E+02  0.50000054617E+02 0.  0.
        -12    1    1    2    0    0 -0.64879874276E+01 -0.22037310771E+02 -0.22112928544E+02  0.31886026025E+02  0.00000000000E+00 0.  1.
         11    1    3    3    0    0  0.11107187633E+02  0.18968013256E+02  0.84818626271E+01  0.23560499525E+02  0.51100000000E-03 0. -1.
        -11    1    3    3    0    0  0.13722285805E+01  0.14406591394E+02 -0.29611728412E+01  0.14771642825E+02  0.51100000000E-03 0.  1.
        -12    1    3    3    0    0 -0.59914287861E+01 -0.11337293879E+02  0.16592238758E+02  0.20969831626E+02  0.00000000000E+00 0.  1.
</event>
<event>
 7    1  0.1327607E-011  0.5930197E+02  0.7816164E-02  0.1266605E+00
        -11   -1    0    0    0    0  0.00000000000E+00  0.00000000000E+00  0.45593999997E+02  0.45594000000E+02  0.51100000000E-03 0.  1.
         11   -1    0    0    0    0 -0.00000000000E+00 -0.00000000000E+00 -0.45593999997E+02  0.45594000000E+02  0.51100000000E-03 0. -1.
    9900012    2    1    2    0    0  0.21220982717E+02 -0.22612332245E+02 -0.74209823665E+01  0.59301973965E+02  0.50000054598E+02 0.  0.
        -12    1    1    2    0    0 -0.21220982717E+02  0.22612332245E+02  0.74209823665E+01  0.31886026035E+02  0.00000000000E+00 0.  1.
         11    1    3    3    0    0  0.19318713412E+01 -0.10859534212E+01 -0.49524048020E+01  0.54256552873E+01  0.51100000000E-03 0. -1.
        -11    1    3    3    0    0 -0.59216858487E+01 -0.27249311313E+02  0.20645352898E+00  0.27886088892E+02  0.51100000000E-03 0.  1.
        -12    1    3    3    0    0  0.25210797225E+02  0.57229324896E+01 -0.26750310935E+01  0.25990229786E+02  0.00000000000E+00 0.  1.
</event>
<event>
 7    1  0.1327607E-011  0.5930195E+02  0.7816164E-02  0.1266605E+00
        -11   -1    0    0    0    0  0.00000000000E+00  0.00000000000E+00  0.45593999997E+02  0.45594000000E+02  0.51100000000E-03 0. -1.
         11   -1    0    0    0    0 -0.00000000000E+00 -0.00000000000E+00 -0.45593999997E+02  0.45594000000E+02  0.51100000000E-03 0.  1.
    9900012    2    1    2    0    0 -0.24454128043E+02 -0.81592689447E+01  0.18765456179E+02  0.59301946722E+02  0.50000004913E+02 0.  0.
        -12    1    1    2    0    0  0.24454128043E+02  0.81592689447E+01 -0.18765456179E+02  0.31886053278E+02  0.00000000000E+00 0.  1.
         11    1    3    3    0    0 -0.97014705833E+01 -0.25602345065E+02  0.39535456983E+01  0.27662775135E+02  0.51100000000E-03 0. -1.
        -11    1    3    3    0    0  0.16186360389E+01 -0.18734517497E+01  0.41147420548E+00  0.25098038504E+01  0.51100000000E-03 0.  1.
         12    1    3    3    0    0 -0.16371293499E+02  0.19316527870E+02  0.14400436276E+02  0.29129367736E+02  0.00000000000E+00 0. -1.
</event>
<event>
 7    1  0.1327607E-011  0.5930194E+02  0.7816164E-02  0.1266605E+00
        -11   -1    0    0    0    0  0.00000000000E+00  0.00000000000E+00  0.45593999997E+02  0.45594000000E+02  0.51100000000E-03 0. -1.
         11   -1    0    0    0    0 -0.00000000000E+00 -0.00000000000E+00 -0.45593999997E+02  0.45594000000E+02  0.51100000000E-03 0.  1.
    9900012    2    1    2    0    0  0.13693575807E+02  0.15296828769E+02  0.24396998581E+02  0.59301944607E+02  0.50000001057E+02 0.  0.
        -12    1    1    2    0    0 -0.13693575807E+02 -0.15296828769E+02 -0.24396998581E+02  0.31886055393E+02  0.00000000000E+00 0.  1.
         11    1    3    3    0    0  0.18049736255E+02  0.15661280653E+02  0.39404074888E+01  0.24219733731E+02  0.51100000000E-03 0. -1.
        -11    1    3    3    0    0 -0.57727794510E+01  0.10165039040E+02 -0.37704454422E+00  0.11695946482E+02  0.51100000000E-03 0.  1.
        -12    1    3    3    0    0  0.14166190025E+01 -0.10529490923E+02  0.20833635636E+02  0.23386264394E+02  0.00000000000E+00 0.  1.
</event>
<event>
 7    1  0.1327607E-011  0.5930192E+02  0.7816164E-02  0.1266605E+00
        -11   -1    0    0    0    0  0.00000000000E+00  0.00000000000E+00  0.45593999997E+02  0.45594000000E+02  0.51100000000E-03 0. -1.
         11   -1    0    0    0    0 -0.00000000000E+00 -0.00000000000E+00 -0.45593999997E+02  0.45594000000E+02  0.51100000000E-03 0.  1.
    9900012    2    1    2    0    0 -0.19373751024E+02  0.75826320666E+01  0.24163678529E+02  0.59301923135E+02  0.49999961897E+02 0.  0.
        -12    1    1    2    0    0  0.19373751024E+02 -0.75826320666E+01 -0.24163678529E+02  0.31886076865E+02  0.00000000000E+00 0.  1.
         11    1    3    3    0    0 -0.12653704740E+02  0.16276851469E+02  0.96186929499E+01  0.22750195421E+02  0.51100000000E-03 0. -1.
        -11    1    3    3    0    0 -0.12313778269E+02  0.84778282910E+01  0.34071929519E+01  0.15333351619E+02  0.51100000000E-03 0.  1.
        -12    1    3    3    0    0  0.55937319856E+01 -0.17172047693E+02  0.11137792627E+02  0.21218376095E+02  0.00000000000E+00 0.  1.
</event>
<event>
 7    1  0.1327607E-011  0.5930199E+02  0.7816164E-02  0.1266605E+00
        -11   -1    0    0    0    0  0.00000000000E+00  0.00000000000E+00  0.45593999997E+02  0.45594000000E+02  0.51100000000E-03 0.  1.
         11   -1    0    0    0    0 -0.00000000000E+00 -0.00000000000E+00 -0.45593999997E+02  0.45594000000E+02  0.51100000000E-03 0. -1.
    9900012    2    1    2    0    0  0.23050263825E+01 -0.26378146855E+02 -0.17765082514E+02  0.59301985278E+02  0.50000075231E+02 0.  0.
        -12    1    1    2    0    0 -0.23050263825E+01  0.26378146855E+02  0.17765082514E+02  0.31886014722E+02  0.00000000000E+00 0.  1.
         11    1    3    3    0    0  0.10583048737E+02 -0.60439617557E+01 -0.10829074895E+02  0.16303351116E+02  0.51100000000E-03 0. -1.
        -11    1    3    3    0    0 -0.12642798165E+02 -0.27515181051E+02  0.24750265329E+01  0.30381759171E+02  0.51100000000E-03 0.  1.
         12    1    3    3    0    0  0.43647758103E+01  0.71809959517E+01 -0.94110341516E+01  0.12616874991E+02  0.00000000000E+00 0. -1.
</event>
<event>
 7    1  0.1327607E-011  0.5930194E+02  0.7816164E-02  0.1266605E+00
        -11   -1    0    0    0    0  0.00000000000E+00  0.00000000000E+00  0.45593999997E+02  0.45594000000E+02  0.51100000000E-03 0.  1.
         11   -1    0    0    0    0 -0.00000000000E+00 -0.00000000000E+00 -0.45593999997E+02  0.45594000000E+02  0.51100000000E-03 0. -1.
    9900012    2    1    2    0    0 -0.13334749525E+02  0.22231002188E+01 -0.28878419110E+02  0.59301940196E+02  0.49999993013E+02 0.  0.
        -12    1    1    2    0    0  0.13334749525E+02 -0.22231002188E+01  0.28878419110E+02  0.31886059804E+02  0.00000000000E+00 0.  1.
         11    1    3    3    0    0 -0.23785731983E+01  0.16886753733E+01 -0.30017391532E+02  0.30158796886E+02  0.51100000000E-03 0. -1.
        -11    1    3    3    0    0 -0.84880002893E+01 -0.93956240030E+01 -0.83670513770E+01  0.15176674482E+02  0.51100000000E-03 0.  1.
         12    1    3    3    0    0 -0.24681760376E+01  0.99300488485E+01  0.95060237985E+01  0.13966468829E+02  0.00000000000E+00 0. -1.
</event>
<event>
 7    1  0.1327607E-011  0.5930194E+02  0.7816164E-02  0.1266605E+00
        -11   -1    0    0    0    0  0.00000000000E+00  0.00000000000E+00  0.45593999997E+02  0.45594000000E+02  0.51100000000E-03 0. -1.
         11   -1    0    0    0    0 -0.00000000000E+00 -0.00000000000E+00 -0.45593999997E+02  0.45594000000E+02  0.51100000000E-03 0.  1.
    9900012    2    1    2    0    0 -0.24449009496E+02 -0.16493476376E+02 -0.12121538576E+02  0.59301944651E+02  0.50000001136E+02 0.  0.
        -12    1    1    2    0    0  0.24449009496E+02  0.16493476376E+02  0.12121538576E+02  0.31886055349E+02  0.00000000000E+00 0.  1.
         11    1    3    3    0    0 -0.69622882907E+00 -0.15129199948E+02 -0.27780051380E+01  0.15397880972E+02  0.51100000000E-03 0. -1.
        -11    1    3    3    0    0  0.85060951854E+01  0.52106900669E+01 -0.22986272881E+01  0.10236631963E+02  0.51100000000E-03 0.  1.
         12    1    3    3    0    0 -0.32258875852E+02 -0.65749664955E+01 -0.70449061496E+01  0.33667431715E+02  0.00000000000E+00 0. -1.
</event>
<event>
 7    1  0.1327607E-011  0.5930194E+02  0.7816164E-02  0.1266605E+00
        -11   -1    0    0    0    0  0.00000000000E+00  0.00000000000E+00  0.45593999997E+02  0.45594000000E+02  0.51100000000E-03 0. -1.
         11   -1    0    0    0    0 -0.00000000000E+00 -0.00000000000E+00 -0.45593999997E+02  0.45594000000E+02  0.51100000000E-03 0.  1.
    9900012    2    1    2    0    0  0.14195377925E+02 -0.28508084433E+02  0.15814151973E+01  0.59301944953E+02  0.50000001687E+02 0.  0.
        -12    1    1    2    0    0 -0.14195377925E+02  0.28508084433E+02 -0.15814151973E+01  0.31886055047E+02  0.00000000000E+00 0.  1.
         11    1    3    3    0    0 -0.54688927278E+01 -0.91496659749E+00 -0.40007327842E+01  0.68375298621E+01  0.51100000000E-03 0. -1.
        -11    1    3    3    0    0 -0.72408573665E+01  0.57557821064E+01  0.20185762412E+01  0.94675072412E+01  0.51100000000E-03 0.  1.
         12    1    3    3    0    0  0.26905128020E+02 -0.33348899942E+02  0.35635717403E+01  0.42996907849E+02  0.00000000000E+00 0. -1.
</event>
<event>
 7    1  0.1327607E-011  0.5930198E+02  0.7816164E-02  0.1266605E+00
        -11   -1    0    0    0    0  0.00000000000E+00  0.00000000000E+00  0.45593999997E+02  0.45594000000E+02  0.51100000000E-03 0. -1.
         11   -1    0    0    0    0 -0.00000000000E+00 -0.00000000000E+00 -0.45593999997E+02  0.45594000000E+02  0.51100000000E-03 0.  1.
    9900012    2    1    2    0    0  0.10847176366E+02  0.26764721076E+02  0.13516909309E+02  0.59301978507E+02  0.50000062883E+02 0.  0.
        -12    1    1    2    0    0 -0.10847176366E+02 -0.26764721076E+02 -0.13516909309E+02  0.31886021493E+02  0.00000000000E+00 0.  1.
         11    1    3    3    0    0 -0.11970400451E+02  0.12930886572E+02  0.54921088720E+01  0.18457019657E+02  0.51100000000E-03 0. -1.
        -11    1    3    3    0    0 -0.56929371342E+01  0.60923108943E+01  0.76256612314E+01  0.11299402406E+02  0.51100000000E-03 0.  1.
        -12    1    3    3    0    0  0.28510513951E+02  0.77415236092E+01  0.39913920531E+00  0.29545556445E+02  0.00000000000E+00 0.  1.
</event>
<event>
 7    1  0.1327607E-011  0.5930196E+02  0.7816164E-02  0.1266605E+00
        -11   -1    0    0    0    0  0.00000000000E+00  0.00000000000E+00  0.45593999997E+02  0.45594000000E+02  0.51100000000E-03 0. -1.
         11   -1    0    0    0    0 -0.00000000000E+00 -0.00000000000E+00 -0.45593999997E+02  0.45594000000E+02  0.51100000000E-03 0.  1.
    9900012    2    1    2    0    0  0.21487693398E+02  0.19588753443E+02  0.13087367060E+02  0.59301962216E+02  0.50000033172E+02 0.  0.
        -12    1    1    2    0    0 -0.21487693398E+02 -0.19588753443E+02 -0.13087367060E+02  0.31886037784E+02  0.00000000000E+00 0.  1.
         11    1    3    3    0    0  0.26162465691E+02  0.21821523638E+02  0.14086343152E+02  0.36865682804E+02  0.51100000000E-03 0. -1.
        -11    1    3    3    0    0  0.27253836315E+01  0.73652075865E+01  0.45833310803E+01  0.90929050795E+01  0.51100000000E-03 0.  1.
        -12    1    3    3    0    0 -0.74001559250E+01 -0.95979777823E+01 -0.55823071727E+01  0.13343374333E+02  0.00000000000E+00 0.  1.
</event>
<event>
 7    1  0.1327607E-011  0.5930196E+02  0.7816164E-02  0.1266605E+00
        -11   -1    0    0    0    0  0.00000000000E+00  0.00000000000E+00  0.45593999997E+02  0.45594000000E+02  0.51100000000E-03 0.  1.
         11   -1    0    0    0    0 -0.00000000000E+00 -0.00000000000E+00 -0.45593999997E+02  0.45594000000E+02  0.51100000000E-03 0. -1.
    9900012    2    1    2    0    0  0.13036229949E+02  0.11657293264E+02 -0.26662405525E+02  0.59301958447E+02  0.50000026297E+02 0.  0.
        -12    1    1    2    0    0 -0.13036229949E+02 -0.11657293264E+02  0.26662405525E+02  0.31886041553E+02  0.00000000000E+00 0.  1.
         11    1    3    3    0    0  0.10498952846E+02  0.48720030510E+01  0.28908781177E+01  0.11929861741E+02  0.51100000000E-03 0. -1.
        -11    1    3    3    0    0 -0.10724087568E+02  0.14827231825E+02 -0.61665207915E+01  0.19310070862E+02  0.51100000000E-03 0.  1.
         12    1    3    3    0    0  0.13261364671E+02 -0.80419416115E+01 -0.23386762851E+02  0.28062025844E+02  0.00000000000E+00 0. -1.
</event>
<event>
 7    1  0.1327607E-011  0.5930200E+02  0.7816164E-02  0.1266605E+00
        -11   -1    0    0    0    0  0.00000000000E+00  0.00000000000E+00  0.45593999997E+02  0.45594000000E+02  0.51100000000E-03 0.  1.
         11   -1    0    0    0    0 -0.00000000000E+00 -0.00000000000E+00 -0.45593999997E+02  0.45594000000E+02  0.51100000000E-03 0. -1.
    9900012    2    1    2    0    0  0.11677753669E+02  0.23509794325E+02 -0.18100735928E+02  0.59301999920E+02  0.50000101934E+02 0.  0.
        -12    1    1    2    0    0 -0.11677753669E+02 -0.23509794325E+02  0.18100735928E+02  0.31886000080E+02  0.00000000000E+00 0.  1.
         11    1    3    3    0    0  0.83709736228E+01  0.99027373377E+01 -0.21007064873E+01  0.13135843109E+02  0.51100000000E-03 0.  1.
        -11    1    3    3    0    0 -0.31620137981E+01  0.35044472984E+01  0.13510105734E+02  0.14310920282E+02  0.51100000000E-03 0. -1.
         12    1    3    3    0    0  0.64687938443E+01  0.10102609689E+02 -0.29510135174E+02  0.31855236529E+02  0.00000000000E+00 0. -1.
</event>
<event>
 7    1  0.1327607E-011  0.5930198E+02  0.7816164E-02  0.1266605E+00
        -11   -1    0    0    0    0  0.00000000000E+00  0.00000000000E+00  0.45593999997E+02  0.45594000000E+02  0.51100000000E-03 0.  1.
         11   -1    0    0    0    0 -0.00000000000E+00 -0.00000000000E+00 -0.45593999997E+02  0.45594000000E+02  0.51100000000E-03 0. -1.
    9900012    2    1    2    0    0 -0.84265804908E+01  0.10293343146E+02 -0.28978578492E+02  0.59301981382E+02  0.50000068125E+02 0.  0.
        -12    1    1    2    0    0  0.84265804908E+01 -0.10293343146E+02  0.28978578492E+02  0.31886018618E+02  0.00000000000E+00 0.  1.
         11    1    3    3    0    0 -0.43736174159E+01 -0.11863469410E+02 -0.11025028015E+02  0.16775627521E+02  0.51100000000E-03 0. -1.
        -11    1    3    3    0    0 -0.17149238907E+01 -0.57759919437E+01 -0.12631754363E+02  0.13995151497E+02  0.51100000000E-03 0.  1.
        -12    1    3    3    0    0 -0.23380391842E+01  0.27932804499E+02 -0.53217961144E+01  0.28531202364E+02  0.00000000000E+00 0.  1.
</event>
<event>
 7    1  0.1327607E-011  0.5930199E+02  0.7816164E-02  0.1266605E+00
        -11   -1    0    0    0    0  0.00000000000E+00  0.00000000000E+00  0.45593999997E+02  0.45594000000E+02  0.51100000000E-03 0.  1.
         11   -1    0    0    0    0 -0.00000000000E+00 -0.00000000000E+00 -0.45593999997E+02  0.45594000000E+02  0.51100000000E-03 0. -1.
    9900012    2    1    2    0    0  0.61435698251E+01  0.29469949127E+02  0.10511716579E+02  0.59301991514E+02  0.50000086604E+02 0.  0.
        -12    1    1    2    0    0 -0.61435698251E+01 -0.29469949127E+02 -0.10511716579E+02  0.31886008486E+02  0.00000000000E+00 0.  1.
         11    1    3    3    0    0 -0.99111258187E+01  0.13427324180E+02  0.39476329652E+01  0.17149555561E+02  0.51100000000E-03 0. -1.
        -11    1    3    3    0    0 -0.68138074299E+01 -0.38996074705E+01 -0.54084020688E+01  0.95334004067E+01  0.51100000000E-03 0.  1.
         12    1    3    3    0    0  0.22868503074E+02  0.19942232417E+02  0.11972485683E+02  0.32619035547E+02  0.00000000000E+00 0. -1.
</event>
<event>
 7    1  0.1327607E-011  0.5930193E+02  0.7816164E-02  0.1266605E+00
        -11   -1    0    0    0    0  0.00000000000E+00  0.00000000000E+00  0.45593999997E+02  0.45594000000E+02  0.51100000000E-03 0.  1.
         11   -1    0    0    0    0 -0.00000000000E+00 -0.00000000000E+00 -0.45593999997E+02  0.45594000000E+02  0.51100000000E-03 0. -1.
    9900012    2    1    2    0    0  0.31016263897E+02  0.59918135967E+01 -0.43371378798E+01  0.59301933744E+02  0.49999981244E+02 0.  0.
        -12    1    1    2    0    0 -0.31016263897E+02 -0.59918135967E+01  0.43371378798E+01  0.31886066256E+02  0.00000000000E+00 0.  1.
         11    1    3    3    0    0  0.19561399838E+02  0.19744402107E+01  0.15527074433E+02  0.25052680864E+02  0.51100000000E-03 0. -1.
        -11    1    3    3    0    0  0.42428122704E+01  0.51057519623E+01  0.50169620764E+01  0.83210616990E+01  0.51100000000E-03 0.  1.
        -12    1    3    3    0    0  0.72120517882E+01 -0.10883785763E+01 -0.24881174389E+02  0.25928191180E+02  0.00000000000E+00 0.  1.
</event>
<event>
 7    1  0.1327607E-011  0.5930194E+02  0.7816164E-02  0.1266605E+00
        -11   -1    0    0    0    0  0.00000000000E+00  0.00000000000E+00  0.45593999997E+02  0.45594000000E+02  0.51100000000E-03 0. -1.
         11   -1    0    0    0    0 -0.00000000000E+00 -0.00000000000E+00 -0.45593999997E+02  0.45594000000E+02  0.51100000000E-03 0.  1.
    9900012    2    1    2    0    0  0.22894665816E+02 -0.56729913732E+01 -0.21456280320E+02  0.59301944755E+02  0.50000001326E+02 0.  0.
        -12    1    1    2    0    0 -0.22894665816E+02  0.56729913732E+01  0.21456280320E+02  0.31886055245E+02  0.00000000000E+00 0.  1.
         11    1    3    3    0    0 -0.24697912088E+01 -0.24758724364E+00 -0.29683179765E+01  0.38693772017E+01  0.51100000000E-03 0. -1.
        -11    1    3    3    0    0 -0.38867012884E+01 -0.17660769655E+02 -0.15074194411E+02  0.23542314439E+02  0.51100000000E-03 0.  1.
         12    1    3    3    0    0  0.29251158313E+02  0.12235365526E+02 -0.34137679321E+01  0.31890253114E+02  0.00000000000E+00 0. -1.
</event>
<event>
 7    1  0.1327607E-011  0.5930192E+02  0.7816164E-02  0.1266605E+00
        -11   -1    0    0    0    0  0.00000000000E+00  0.00000000000E+00  0.45593999997E+02  0.45594000000E+02  0.51100000000E-03 0.  1.
         11   -1    0    0    0    0 -0.00000000000E+00 -0.00000000000E+00 -0.45593999997E+02  0.45594000000E+02  0.51100000000E-03 0. -1.
    9900012    2    1    2    0    0  0.12165259767E+01  0.24035731534E+02 -0.20917110697E+02  0.59301923952E+02  0.49999963387E+02 0.  0.
        -12    1    1    2    0    0 -0.12165259767E+01 -0.24035731534E+02  0.20917110697E+02  0.31886076048E+02  0.00000000000E+00 0.  1.
         11    1    3    3    0    0  0.14522923813E+02 -0.12149496104E+01  0.84332769535E+00  0.14598034816E+02  0.51100000000E-03 0. -1.
        -11    1    3    3    0    0  0.26196563680E+01  0.73790486584E+01  0.46118188892E+01  0.90874546666E+01  0.51100000000E-03 0.  1.
         12    1    3    3    0    0 -0.15926054204E+02  0.17871632486E+02 -0.26372257282E+02  0.35616434470E+02  0.00000000000E+00 0. -1.
</event>
<event>
 7    1  0.1327607E-011  0.5930194E+02  0.7816164E-02  0.1266605E+00
        -11   -1    0    0    0    0  0.00000000000E+00  0.00000000000E+00  0.45593999997E+02  0.45594000000E+02  0.51100000000E-03 0.  1.
         11   -1    0    0    0    0 -0.00000000000E+00 -0.00000000000E+00 -0.45593999997E+02  0.45594000000E+02  0.51100000000E-03 0. -1.
    9900012    2    1    2    0    0  0.84511147663E+01 -0.19201317168E+02 -0.24012683297E+02  0.59301939082E+02  0.49999990980E+02 0.  0.
        -12    1    1    2    0    0 -0.84511147663E+01  0.19201317168E+02  0.24012683297E+02  0.31886060918E+02  0.00000000000E+00 0.  1.
         11    1    3    3    0    0 -0.11647737688E+02  0.28091051463E+01 -0.36862859074E+01  0.12535931119E+02  0.51100000000E-03 0. -1.
        -11    1    3    3    0    0  0.84764563168E+01 -0.12887937998E+02  0.60206778409E+01  0.16558919635E+02  0.51100000000E-03 0.  1.
         12    1    3    3    0    0  0.11622396137E+02 -0.91224843157E+01 -0.26347075231E+02  0.30207088328E+02  0.00000000000E+00 0. -1.
</event>
<event>
 7    1  0.1327607E-011  0.5930196E+02  0.7816164E-02  0.1266605E+00
        -11   -1    0    0    0    0  0.00000000000E+00  0.00000000000E+00  0.45593999997E+02  0.45594000000E+02  0.51100000000E-03 0.  1.
         11   -1    0    0    0    0 -0.00000000000E+00 -0.00000000000E+00 -0.45593999997E+02  0.45594000000E+02  0.51100000000E-03 0. -1.
    9900012    2    1    2    0    0 -0.21561073620E+02 -0.26018432115E+01 -0.23346733522E+02  0.59301961521E+02  0.50000031903E+02 0.  0.
        -12    1    1    2    0    0  0.21561073620E+02  0.26018432115E+01  0.23346733522E+02  0.31886038479E+02  0.00000000000E+00 0.  1.
         11    1    3    3    0    0 -0.63740613526E+01 -0.85583716396E+01  0.69413928557E+01  0.12730173537E+02  0.51100000000E-03 0. -1.
        -11    1    3    3    0    0 -0.16150318221E+02  0.10284499610E+02 -0.35558323497E+01  0.19474281882E+02  0.51100000000E-03 0.  1.
        -12    1    3    3    0    0  0.96330595299E+00 -0.43279711820E+01 -0.26732294028E+02  0.27097506102E+02  0.00000000000E+00 0.  1.
</event>
<event>
 7    1  0.1327607E-011  0.5930186E+02  0.7816164E-02  0.1266605E+00
        -11   -1    0    0    0    0  0.00000000000E+00  0.00000000000E+00  0.45593999997E+02  0.45594000000E+02  0.51100000000E-03 0.  1.
         11   -1    0    0    0    0 -0.00000000000E+00 -0.00000000000E+00 -0.45593999997E+02  0.45594000000E+02  0.51100000000E-03 0. -1.
    9900012    2    1    2    0    0  0.23473387849E+01 -0.24595373316E+02 -0.20156468406E+02  0.59301864980E+02  0.49999855835E+02 0.  0.
        -12    1    1    2    0    0 -0.23473387849E+01  0.24595373316E+02  0.20156468406E+02  0.31886135020E+02  0.00000000000E+00 0.  1.
         11    1    3    3    0    0 -0.14978951524E+01  0.41226319887E+01 -0.14992415772E+02  0.15620893552E+02  0.51100000000E-03 0. -1.
        -11    1    3    3    0    0 -0.78518441502E+01 -0.60870644476E+01  0.99491461704E+01  0.14060203410E+02  0.51100000000E-03 0.  1.
         12    1    3    3    0    0  0.11697078088E+02 -0.22630940857E+02 -0.15113198804E+02  0.29620768018E+02  0.00000000000E+00 0. -1.
</event>
<event>
 7    1  0.1327607E-011  0.5930195E+02  0.7816164E-02  0.1266605E+00
        -11   -1    0    0    0    0  0.00000000000E+00  0.00000000000E+00  0.45593999997E+02  0.45594000000E+02  0.51100000000E-03 0.  1.
         11   -1    0    0    0    0 -0.00000000000E+00 -0.00000000000E+00 -0.45593999997E+02  0.45594000000E+02  0.51100000000E-03 0. -1.
    9900012    2    1    2    0    0 -0.14826228099E+02 -0.12922160844E+02 -0.25098229978E+02  0.59301946175E+02  0.50000003915E+02 0.  0.
        -12    1    1    2    0    0  0.14826228099E+02  0.12922160844E+02  0.25098229978E+02  0.31886053825E+02  0.00000000000E+00 0.  1.
         11    1    3    3    0    0  0.22666090521E+00  0.40331917354E+00  0.24179319277E+01  0.24617953997E+01  0.51100000000E-03 0. -1.
        -11    1    3    3    0    0 -0.43545279716E+00 -0.60973186260E+01  0.12343287824E+02  0.13774021495E+02  0.51100000000E-03 0.  1.
         12    1    3    3    0    0 -0.14617436207E+02 -0.72281613916E+01 -0.39859449730E+02  0.43066129280E+02  0.00000000000E+00 0. -1.
</event>
<event>
 7    1  0.1327607E-011  0.5930194E+02  0.7816164E-02  0.1266605E+00
        -11   -1    0    0    0    0  0.00000000000E+00  0.00000000000E+00  0.45593999997E+02  0.45594000000E+02  0.51100000000E-03 0.  1.
         11   -1    0    0    0    0 -0.00000000000E+00 -0.00000000000E+00 -0.45593999997E+02  0.45594000000E+02  0.51100000000E-03 0. -1.
    9900012    2    1    2    0    0  0.12307050802E+02  0.18673952293E+02 -0.22727534581E+02  0.59301940008E+02  0.49999992669E+02 0.  0.
        -12    1    1    2    0    0 -0.12307050802E+02 -0.18673952293E+02  0.22727534581E+02  0.31886059992E+02  0.00000000000E+00 0.  1.
         11    1    3    3    0    0 -0.13469091727E+01 -0.48412464026E+01 -0.29134446877E+02  0.29564638102E+02  0.51100000000E-03 0. -1.
        -11    1    3    3    0    0  0.58116157489E+01  0.24120073572E+01  0.29888201516E+01  0.69660392809E+01  0.51100000000E-03 0.  1.
        -12    1    3    3    0    0  0.78423442257E+01  0.21103191338E+02  0.34180921437E+01  0.22771262625E+02  0.00000000000E+00 0.  1.
</event>
<event>
 7    1  0.1327607E-011  0.5930198E+02  0.7816164E-02  0.1266605E+00
        -11   -1    0    0    0    0  0.00000000000E+00  0.00000000000E+00  0.45593999997E+02  0.45594000000E+02  0.51100000000E-03 0. -1.
         11   -1    0    0    0    0 -0.00000000000E+00 -0.00000000000E+00 -0.45593999997E+02  0.45594000000E+02  0.51100000000E-03 0.  1.
    9900012    2    1    2    0    0  0.98137044764E+01 -0.12493549983E+02  0.27646346067E+02  0.59301983667E+02  0.50000072293E+02 0.  0.
        -12    1    1    2    0    0 -0.98137044764E+01  0.12493549983E+02 -0.27646346067E+02  0.31886016333E+02  0.00000000000E+00 0.  1.
         11    1    3    3    0    0 -0.14022827499E+01 -0.15692813179E+02  0.44666431713E+01  0.16376253657E+02  0.51100000000E-03 0. -1.
        -11    1    3    3    0    0  0.50552541517E+00 -0.14989168380E+02  0.10399862845E+02  0.18250695113E+02  0.51100000000E-03 0.  1.
        -12    1    3    3    0    0  0.10710461811E+02  0.18188431576E+02  0.12779840051E+02  0.24675034896E+02  0.00000000000E+00 0.  1.
</event>
<event>
 7    1  0.1327607E-011  0.5930195E+02  0.7816164E-02  0.1266605E+00
        -11   -1    0    0    0    0  0.00000000000E+00  0.00000000000E+00  0.45593999997E+02  0.45594000000E+02  0.51100000000E-03 0.  1.
         11   -1    0    0    0    0 -0.00000000000E+00 -0.00000000000E+00 -0.45593999997E+02  0.45594000000E+02  0.51100000000E-03 0. -1.
    9900012    2    1    2    0    0 -0.14066444870E+01 -0.31219742608E+02 -0.63300172317E+01  0.59301951400E+02  0.50000013444E+02 0.  0.
        -12    1    1    2    0    0  0.14066444870E+01  0.31219742608E+02  0.63300172317E+01  0.31886048600E+02  0.00000000000E+00 0.  1.
         11    1    3    3    0    0 -0.40212299716E+01 -0.26778766561E+02 -0.60307774250E+01  0.27742438711E+02  0.51100000000E-03 0. -1.
        -11    1    3    3    0    0  0.22143547797E+01 -0.11315240483E+02  0.12512385706E+02  0.17014635776E+02  0.51100000000E-03 0.  1.
         12    1    3    3    0    0  0.40023070483E+00  0.68742644359E+01 -0.12811625512E+02  0.14544876913E+02  0.00000000000E+00 0. -1.
</event>
<event>
 7    1  0.1327607E-011  0.5930198E+02  0.7816164E-02  0.1266605E+00
        -11   -1    0    0    0    0  0.00000000000E+00  0.00000000000E+00  0.45593999997E+02  0.45594000000E+02  0.51100000000E-03 0. -1.
         11   -1    0    0    0    0 -0.00000000000E+00 -0.00000000000E+00 -0.45593999997E+02  0.45594000000E+02  0.51100000000E-03 0.  1.
    9900012    2    1    2    0    0 -0.25181899062E+02  0.18574215403E+02  0.61309692642E+01  0.59301979516E+02  0.50000064722E+02 0.  0.
        -12    1    1    2    0    0  0.25181899062E+02 -0.18574215403E+02 -0.61309692642E+01  0.31886020484E+02  0.00000000000E+00 0.  1.
         11    1    3    3    0    0  0.64384545378E+01 -0.24262273745E+00 -0.63766699698E+01  0.90650142191E+01  0.51100000000E-03 0. -1.
        -11    1    3    3    0    0 -0.27783152081E+01  0.16432372061E+02 -0.36940111046E+01  0.17070079240E+02  0.51100000000E-03 0.  1.
         12    1    3    3    0    0 -0.28842038391E+02  0.23844660795E+01  0.16201650339E+02  0.33166886057E+02  0.00000000000E+00 0. -1.
</event>
<event>
 7    1  0.1327607E-011  0.5930195E+02  0.7816164E-02  0.1266605E+00
        -11   -1    0    0    0    0  0.00000000000E+00  0.00000000000E+00  0.45593999997E+02  0.45594000000E+02  0.51100000000E-03 0. -1.
         11   -1    0    0    0    0 -0.00000000000E+00 -0.00000000000E+00 -0.45593999997E+02  0.45594000000E+02  0.51100000000E-03 0.  1.
    9900012    2    1    2    0    0 -0.18677763229E+02 -0.20405999630E+02  0.15857383113E+02  0.59301948828E+02  0.50000008755E+02 0.  0.
        -12    1    1    2    0    0  0.18677763229E+02  0.20405999630E+02 -0.15857383113E+02  0.31886051172E+02  0.00000000000E+00 0.  1.
         11    1    3    3    0    0 -0.23151086251E+02 -0.20787357146E+02  0.63133287572E+01  0.31748151630E+02  0.51100000000E-03 0. -1.
        -11    1    3    3    0    0  0.44521653126E+01 -0.11575001613E+02  0.24028012798E+00  0.12404038581E+02  0.51100000000E-03 0.  1.
         12    1    3    3    0    0  0.21157708950E-01  0.11956359129E+02  0.93037742274E+01  0.15149758617E+02  0.00000000000E+00 0. -1.
</event>
<event>
 7    1  0.1327607E-011  0.5930196E+02  0.7816164E-02  0.1266605E+00
        -11   -1    0    0    0    0  0.00000000000E+00  0.00000000000E+00  0.45593999997E+02  0.45594000000E+02  0.51100000000E-03 0. -1.
         11   -1    0    0    0    0 -0.00000000000E+00 -0.00000000000E+00 -0.45593999997E+02  0.45594000000E+02  0.51100000000E-03 0.  1.
    9900012    2    1    2    0    0  0.28688076693E+02  0.67090094632E+01  0.12194380067E+02  0.59301961401E+02  0.50000031685E+02 0.  0.
        -12    1    1    2    0    0 -0.28688076693E+02 -0.67090094632E+01 -0.12194380067E+02  0.31886038599E+02  0.00000000000E+00 0.  1.
         11    1    3    3    0    0  0.82269088786E+01  0.24509505930E+01 -0.11692219325E+02  0.14505074337E+02  0.51100000000E-03 0. -1.
        -11    1    3    3    0    0  0.62160933386E+01 -0.12475469009E+02  0.25549742357E+01  0.14170569396E+02  0.51100000000E-03 0.  1.
         12    1    3    3    0    0  0.14245074476E+02  0.16733527879E+02  0.21331625157E+02  0.30626317669E+02  0.00000000000E+00 0. -1.
</event>
<event>
 7    1  0.1327607E-011  0.5930196E+02  0.7816164E-02  0.1266605E+00
        -11   -1    0    0    0    0  0.00000000000E+00  0.00000000000E+00  0.45593999997E+02  0.45594000000E+02  0.51100000000E-03 0.  1.
         11   -1    0    0    0    0 -0.00000000000E+00 -0.00000000000E+00 -0.45593999997E+02  0.45594000000E+02  0.51100000000E-03 0. -1.
    9900012    2    1    2    0    0 -0.31210149957E+02  0.15596909519E+01  0.63414033690E+01  0.59301960847E+02  0.50000030674E+02 0.  0.
        -12    1    1    2    0    0  0.31210149957E+02 -0.15596909519E+01 -0.63414033690E+01  0.31886039153E+02  0.00000000000E+00 0.  1.
         11    1    3    3    0    0 -0.14184065253E+02  0.15653881393E+02 -0.46354398612E+01  0.21626812357E+02  0.51100000000E-03 0. -1.
        -11    1    3    3    0    0 -0.16057823669E+02  0.41299117969E+01  0.10078493788E+02  0.19403244825E+02  0.51100000000E-03 0.  1.
        -12    1    3    3    0    0 -0.96826103503E+00 -0.18224102238E+02  0.89834944189E+00  0.18271903665E+02  0.00000000000E+00 0.  1.
</event>
<event>
 7    1  0.1327607E-011  0.5930196E+02  0.7816164E-02  0.1266605E+00
        -11   -1    0    0    0    0  0.00000000000E+00  0.00000000000E+00  0.45593999997E+02  0.45594000000E+02  0.51100000000E-03 0.  1.
         11   -1    0    0    0    0 -0.00000000000E+00 -0.00000000000E+00 -0.45593999997E+02  0.45594000000E+02  0.51100000000E-03 0. -1.
    9900012    2    1    2    0    0 -0.18491427450E+02 -0.23488667358E+02  0.11093666635E+02  0.59301955673E+02  0.50000021239E+02 0.  0.
        -12    1    1    2    0    0  0.18491427450E+02  0.23488667358E+02 -0.11093666635E+02  0.31886044327E+02  0.00000000000E+00 0.  1.
         11    1    3    3    0    0 -0.11768264708E+02  0.12144505797E+02 -0.65990972591E+01  0.18152938059E+02  0.51100000000E-03 0. -1.
        -11    1    3    3    0    0 -0.55992074324E+01 -0.98570818187E+01  0.48796258638E+01  0.12341958300E+02  0.51100000000E-03 0.  1.
        -12    1    3    3    0    0 -0.11239553089E+01 -0.25776091336E+02  0.12813138030E+02  0.28807059314E+02  0.00000000000E+00 0.  1.
</event>
<event>
 7    1  0.1327607E-011  0.5930194E+02  0.7816164E-02  0.1266605E+00
        -11   -1    0    0    0    0  0.00000000000E+00  0.00000000000E+00  0.45593999997E+02  0.45594000000E+02  0.51100000000E-03 0. -1.
         11   -1    0    0    0    0 -0.00000000000E+00 -0.00000000000E+00 -0.45593999997E+02  0.45594000000E+02  0.51100000000E-03 0.  1.
    9900012    2    1    2    0    0 -0.20524276971E+02 -0.23504897407E+01  0.24288889296E+02  0.59301938932E+02  0.49999990707E+02 0.  0.
        -12    1    1    2    0    0  0.20524276971E+02  0.23504897407E+01 -0.24288889296E+02  0.31886061068E+02  0.00000000000E+00 0.  1.
         11    1    3    3    0    0 -0.47454236939E+01 -0.51526924571E+01  0.14370133324E+02  0.15986557403E+02  0.51100000000E-03 0. -1.
        -11    1    3    3    0    0 -0.36724498896E+01  0.19162968479E+02  0.11919502416E+02  0.22864399997E+02  0.51100000000E-03 0.  1.
        -12    1    3    3    0    0 -0.12106403387E+02 -0.16360765762E+02 -0.20007464440E+01  0.20450981532E+02  0.00000000000E+00 0.  1.
</event>
<event>
 7    1  0.1327607E-011  0.5930195E+02  0.7816164E-02  0.1266605E+00
        -11   -1    0    0    0    0  0.00000000000E+00  0.00000000000E+00  0.45593999997E+02  0.45594000000E+02  0.51100000000E-03 0. -1.
         11   -1    0    0    0    0 -0.00000000000E+00 -0.00000000000E+00 -0.45593999997E+02  0.45594000000E+02  0.51100000000E-03 0.  1.
    9900012    2    1    2    0    0  0.95159697778E+01  0.27122477031E+02  0.13803534234E+02  0.59301952919E+02  0.50000016216E+02 0.  0.
        -12    1    1    2    0    0 -0.95159697778E+01 -0.27122477031E+02 -0.13803534234E+02  0.31886047081E+02  0.00000000000E+00 0.  1.
         11    1    3    3    0    0  0.55587005304E+01 -0.86624147309E+01  0.12343727386E+02  0.16071844530E+02  0.51100000000E-03 0. -1.
        -11    1    3    3    0    0 -0.58853883657E+01  0.30388968319E+02  0.52233859266E+01  0.31391255988E+02  0.51100000000E-03 0.  1.
         12    1    3    3    0    0  0.98426576131E+01  0.53959234427E+01 -0.37635790791E+01  0.11838852401E+02  0.00000000000E+00 0. -1.
</event>
<event>
 7    1  0.1327607E-011  0.5930197E+02  0.7816164E-02  0.1266605E+00
        -11   -1    0    0    0    0  0.00000000000E+00  0.00000000000E+00  0.45593999997E+02  0.45594000000E+02  0.51100000000E-03 0.  1.
         11   -1    0    0    0    0 -0.00000000000E+00 -0.00000000000E+00 -0.45593999997E+02  0.45594000000E+02  0.51100000000E-03 0. -1.
    9900012    2    1    2    0    0  0.24010892601E+02  0.19649088365E+02 -0.73558800213E+01  0.59301974723E+02  0.50000055980E+02 0.  0.
        -12    1    1    2    0    0 -0.24010892601E+02 -0.19649088365E+02  0.73558800213E+01  0.31886025277E+02  0.00000000000E+00 0.  1.
         11    1    3    3    0    0 -0.97027897004E+01  0.52068234906E+01 -0.75856658396E+01  0.13371516942E+02  0.51100000000E-03 0. -1.
        -11    1    3    3    0    0  0.10185413055E+01  0.15514816753E+01  0.94224358149E+01  0.96034795114E+01  0.51100000000E-03 0.  1.
        -12    1    3    3    0    0  0.32695140996E+02  0.12890783200E+02 -0.91926499966E+01  0.36326978270E+02  0.00000000000E+00 0.  1.
</event>
<event>
 7    1  0.1327607E-011  0.5930194E+02  0.7816164E-02  0.1266605E+00
        -11   -1    0    0    0    0  0.00000000000E+00  0.00000000000E+00  0.45593999997E+02  0.45594000000E+02  0.51100000000E-03 0.  1.
         11   -1    0    0    0    0 -0.00000000000E+00 -0.00000000000E+00 -0.45593999997E+02  0.45594000000E+02  0.51100000000E-03 0. -1.
    9900012    2    1    2    0    0 -0.10397105080E+02 -0.77861381721E+01 -0.29120386562E+02  0.59301942621E+02  0.49999997434E+02 0.  0.
        -12    1    1    2    0    0  0.10397105080E+02  0.77861381721E+01  0.29120386562E+02  0.31886057379E+02  0.00000000000E+00 0.  1.
         11    1    3    3    0    0 -0.20385117211E+02 -0.52868539769E+00 -0.99065410912E+01  0.22670952089E+02  0.51100000000E-03 0. -1.
        -11    1    3    3    0    0  0.89537430300E+01  0.10043825327E+02 -0.55271298403E+01  0.14546377761E+02  0.51100000000E-03 0.  1.
        -12    1    3    3    0    0  0.10342691014E+01 -0.17301278101E+02 -0.13686715630E+02  0.22084612771E+02  0.00000000000E+00 0.  1.
</event>
<event>
 7    1  0.1327607E-011  0.5930195E+02  0.7816164E-02  0.1266605E+00
        -11   -1    0    0    0    0  0.00000000000E+00  0.00000000000E+00  0.45593999997E+02  0.45594000000E+02  0.51100000000E-03 0.  1.
         11   -1    0    0    0    0 -0.00000000000E+00 -0.00000000000E+00 -0.45593999997E+02  0.45594000000E+02  0.51100000000E-03 0. -1.
    9900012    2    1    2    0    0 -0.27197285211E+02  0.30296058677E+01 -0.16366110362E+02  0.59301946576E+02  0.50000004647E+02 0.  0.
        -12    1    1    2    0    0  0.27197285211E+02 -0.30296058677E+01  0.16366110362E+02  0.31886053424E+02  0.00000000000E+00 0.  1.
         11    1    3    3    0    0 -0.76340787064E-01 -0.71407477999E+01 -0.84226963728E+01  0.11042550498E+02  0.51100000000E-03 0. -1.
        -11    1    3    3    0    0 -0.12619303131E+02 -0.86840436200E+01 -0.16930458878E+02  0.22831992099E+02  0.51100000000E-03 0.  1.
        -12    1    3    3    0    0 -0.14501641293E+02  0.18854397288E+02  0.89870448885E+01  0.25427403979E+02  0.00000000000E+00 0.  1.
</event>
<event>
 7    1  0.1327607E-011  0.5930196E+02  0.7816164E-02  0.1266605E+00
        -11   -1    0    0    0    0  0.00000000000E+00  0.00000000000E+00  0.45593999997E+02  0.45594000000E+02  0.51100000000E-03 0. -1.
         11   -1    0    0    0    0 -0.00000000000E+00 -0.00000000000E+00 -0.45593999997E+02  0.45594000000E+02  0.51100000000E-03 0.  1.
    9900012    2    1    2    0    0  0.85872943323E+01  0.29262383967E+02  0.93108018985E+01  0.59301956480E+02  0.50000022710E+02 0.  0.
        -12    1    1    2    0    0 -0.85872943323E+01 -0.29262383967E+02 -0.93108018985E+01  0.31886043520E+02  0.00000000000E+00 0.  1.
         11    1    3    3    0    0  0.32852188742E+01  0.13347901650E+02  0.19237417523E+02  0.23643971213E+02  0.51100000000E-03 0. -1.
        -11    1    3    3    0    0  0.62995553779E+01  0.28485590212E+01  0.97893204447E+01  0.11984551785E+02  0.51100000000E-03 0.  1.
        -12    1    3    3    0    0 -0.99747991982E+00  0.13065923296E+02 -0.19715936069E+02  0.23673433482E+02  0.00000000000E+00 0.  1.
</event>
<event>
 7    1  0.1327607E-011  0.5930195E+02  0.7816164E-02  0.1266605E+00
        -11   -1    0    0    0    0  0.00000000000E+00  0.00000000000E+00  0.45593999997E+02  0.45594000000E+02  0.51100000000E-03 0.  1.
         11   -1    0    0    0    0 -0.00000000000E+00 -0.00000000000E+00 -0.45593999997E+02  0.45594000000E+02  0.51100000000E-03 0. -1.
    9900012    2    1    2    0    0  0.12465468300E+02  0.18580083252E+02 -0.22718122836E+02  0.59301945074E+02  0.50000001908E+02 0.  0.
        -12    1    1    2    0    0 -0.12465468300E+02 -0.18580083252E+02  0.22718122836E+02  0.31886054926E+02  0.00000000000E+00 0.  1.
         11    1    3    3    0    0  0.80259352522E+01 -0.32153463203E+01 -0.10910367736E+01  0.87146113014E+01  0.51100000000E-03 0. -1.
        -11    1    3    3    0    0  0.22145755286E+02  0.13750107395E+02 -0.99433049489E+01  0.27899269598E+02  0.51100000000E-03 0.  1.
         12    1    3    3    0    0 -0.17706222238E+02  0.80453221773E+01 -0.11683781113E+02  0.22688064174E+02  0.00000000000E+00 0. -1.
</event>
<event>
 7    1  0.1327607E-011  0.5930194E+02  0.7816164E-02  0.1266605E+00
        -11   -1    0    0    0    0  0.00000000000E+00  0.00000000000E+00  0.45593999997E+02  0.45594000000E+02  0.51100000000E-03 0. -1.
         11   -1    0    0    0    0 -0.00000000000E+00 -0.00000000000E+00 -0.45593999997E+02  0.45594000000E+02  0.51100000000E-03 0.  1.
    9900012    2    1    2    0    0  0.16469204341E+02  0.34133530620E+01  0.27089388411E+02  0.59301942933E+02  0.49999998004E+02 0.  0.
        -12    1    1    2    0    0 -0.16469204341E+02 -0.34133530620E+01 -0.27089388411E+02  0.31886057067E+02  0.00000000000E+00 0.  1.
         11    1    3    3    0    0  0.15801305582E+02 -0.96121401717E+01  0.27146819955E+02  0.32848505761E+02  0.51100000000E-03 0. -1.
        -11    1    3    3    0    0  0.62140977619E+01 -0.40018266442E+01  0.35283133291E+01  0.81901540092E+01  0.51100000000E-03 0.  1.
        -12    1    3    3    0    0 -0.55461990027E+01  0.17027319878E+02 -0.35857448729E+01  0.18263283163E+02  0.00000000000E+00 0.  1.
</event>
<event>
 7    1  0.1327607E-011  0.5930194E+02  0.7816164E-02  0.1266605E+00
        -11   -1    0    0    0    0  0.00000000000E+00  0.00000000000E+00  0.45593999997E+02  0.45594000000E+02  0.51100000000E-03 0. -1.
         11   -1    0    0    0    0 -0.00000000000E+00 -0.00000000000E+00 -0.45593999997E+02  0.45594000000E+02  0.51100000000E-03 0.  1.
    9900012    2    1    2    0    0  0.19701686548E+02  0.14590192769E+02  0.20388492056E+02  0.59301940566E+02  0.49999993687E+02 0.  0.
        -12    1    1    2    0    0 -0.19701686548E+02 -0.14590192769E+02 -0.20388492056E+02  0.31886059434E+02  0.00000000000E+00 0.  1.
         11    1    3    3    0    0 -0.91812263342E+01 -0.51549733542E+00  0.16482300084E+02  0.18873973371E+02  0.51100000000E-03 0. -1.
        -11    1    3    3    0    0  0.83028884154E+01  0.17574748061E+02  0.31143145609E+01  0.19685240179E+02  0.51100000000E-03 0.  1.
        -12    1    3    3    0    0  0.20580024467E+02 -0.24690579564E+01  0.79187741151E+00  0.20742727016E+02  0.00000000000E+00 0.  1.
</event>
<event>
 7    1  0.1327607E-011  0.5930184E+02  0.7816164E-02  0.1266605E+00
        -11   -1    0    0    0    0  0.00000000000E+00  0.00000000000E+00  0.45593999997E+02  0.45594000000E+02  0.51100000000E-03 0. -1.
         11   -1    0    0    0    0 -0.00000000000E+00 -0.00000000000E+00 -0.45593999997E+02  0.45594000000E+02  0.51100000000E-03 0.  1.
    9900012    2    1    2    0    0 -0.24787167035E+02  0.15839353272E+02 -0.12306030112E+02  0.59301840953E+02  0.49999812015E+02 0.  0.
        -12    1    1    2    0    0  0.24787167035E+02 -0.15839353272E+02  0.12306030112E+02  0.31886159047E+02  0.00000000000E+00 0.  1.
         11    1    3    3    0    0  0.13798888561E+02  0.31900647038E+01 -0.17775475036E+01  0.14273945275E+02  0.51100000000E-03 0. -1.
        -11    1    3    3    0    0 -0.55400676850E+01 -0.37992526113E+01 -0.29884823243E+01  0.73523939790E+01  0.51100000000E-03 0.  1.
        -12    1    3    3    0    0 -0.33045987911E+02  0.16448541180E+02 -0.75400002841E+01  0.37675501698E+02  0.00000000000E+00 0.  1.
</event>
<event>
 7    1  0.1327607E-011  0.5930195E+02  0.7816164E-02  0.1266605E+00
        -11   -1    0    0    0    0  0.00000000000E+00  0.00000000000E+00  0.45593999997E+02  0.45594000000E+02  0.51100000000E-03 0.  1.
         11   -1    0    0    0    0 -0.00000000000E+00 -0.00000000000E+00 -0.45593999997E+02  0.45594000000E+02  0.51100000000E-03 0. -1.
    9900012    2    1    2    0    0 -0.12652109603E+01  0.14181947009E+02 -0.28530543030E+02  0.59301948734E+02  0.50000008583E+02 0.  0.
        -12    1    1    2    0    0  0.12652109603E+01 -0.14181947009E+02  0.28530543030E+02  0.31886051266E+02  0.00000000000E+00 0.  1.
         11    1    3    3    0    0 -0.21618132000E+01 -0.54889496906E+01 -0.29913313599E+02  0.30489479099E+02  0.51100000000E-03 0. -1.
        -11    1    3    3    0    0 -0.13354866937E+01 -0.29355896866E+01 -0.43201026744E+01  0.53911500531E+01  0.51100000000E-03 0.  1.
        -12    1    3    3    0    0  0.22320889333E+01  0.22606486386E+02  0.57028732425E+01  0.23421319582E+02  0.00000000000E+00 0.  1.
</event>
<event>
 7    1  0.1327607E-011  0.5930193E+02  0.7816164E-02  0.1266605E+00
        -11   -1    0    0    0    0  0.00000000000E+00  0.00000000000E+00  0.45593999997E+02  0.45594000000E+02  0.51100000000E-03 0.  1.
         11   -1    0    0    0    0 -0.00000000000E+00 -0.00000000000E+00 -0.45593999997E+02  0.45594000000E+02  0.51100000000E-03 0. -1.
    9900012    2    1    2    0    0  0.25294751655E+02 -0.67021884900E+01 -0.18220248559E+02  0.59301933304E+02  0.49999980442E+02 0.  0.
        -12    1    1    2    0    0 -0.25294751655E+02  0.67021884900E+01  0.18220248559E+02  0.31886066696E+02  0.00000000000E+00 0.  1.
         11    1    3    3    0    0  0.18413195021E+02 -0.73617197208E+01 -0.24667391369E+02  0.31649974176E+02  0.51100000000E-03 0. -1.
        -11    1    3    3    0    0 -0.93240789691E+01 -0.38037265380E+01  0.27945302972E+01  0.10450654718E+02  0.51100000000E-03 0.  1.
        -12    1    3    3    0    0  0.16205635603E+02  0.44632577688E+01  0.36526125133E+01  0.17201304409E+02  0.00000000000E+00 0.  1.
</event>
<event>
 7    1  0.1327607E-011  0.5930196E+02  0.7816164E-02  0.1266605E+00
        -11   -1    0    0    0    0  0.00000000000E+00  0.00000000000E+00  0.45593999997E+02  0.45594000000E+02  0.51100000000E-03 0. -1.
         11   -1    0    0    0    0 -0.00000000000E+00 -0.00000000000E+00 -0.45593999997E+02  0.45594000000E+02  0.51100000000E-03 0.  1.
    9900012    2    1    2    0    0 -0.94111304417E+01  0.42234820246E+01  0.30171378074E+02  0.59301964946E+02  0.50000038150E+02 0.  0.
        -12    1    1    2    0    0  0.94111304417E+01 -0.42234820246E+01 -0.30171378074E+02  0.31886035054E+02  0.00000000000E+00 0.  1.
         11    1    3    3    0    0 -0.44948624258E+01  0.11750193069E+02 -0.28879570761E+01  0.12907793062E+02  0.51100000000E-03 0.  1.
        -11    1    3    3    0    0 -0.17306910587E+02 -0.74871897240E+01  0.13315764308E+02  0.23084556383E+02  0.51100000000E-03 0. -1.
         12    1    3    3    0    0  0.12390642571E+02 -0.39521320572E-01  0.19743570841E+02  0.23309615502E+02  0.00000000000E+00 0. -1.
</event>
<event>
 7    1  0.1327607E-011  0.5930196E+02  0.7816164E-02  0.1266605E+00
        -11   -1    0    0    0    0  0.00000000000E+00  0.00000000000E+00  0.45593999997E+02  0.45594000000E+02  0.51100000000E-03 0.  1.
         11   -1    0    0    0    0 -0.00000000000E+00 -0.00000000000E+00 -0.45593999997E+02  0.45594000000E+02  0.51100000000E-03 0. -1.
    9900012    2    1    2    0    0  0.19191713274E+02 -0.53704610058E+01 -0.24890882239E+02  0.59301957153E+02  0.50000023937E+02 0.  0.
        -12    1    1    2    0    0 -0.19191713274E+02  0.53704610058E+01  0.24890882239E+02  0.31886042847E+02  0.00000000000E+00 0.  1.
         11    1    3    3    0    0  0.21003795831E+02 -0.11374456769E+02 -0.15152122222E+02  0.28286472283E+02  0.51100000000E-03 0. -1.
        -11    1    3    3    0    0  0.11149407774E+02  0.91234855198E+00  0.35804091888E+01  0.11745680220E+02  0.51100000000E-03 0.  1.
         12    1    3    3    0    0 -0.12961490332E+02  0.50916472113E+01 -0.13319169206E+02  0.19269804651E+02  0.00000000000E+00 0. -1.
</event>
<event>
 7    1  0.1327607E-011  0.5930193E+02  0.7816164E-02  0.1266605E+00
        -11   -1    0    0    0    0  0.00000000000E+00  0.00000000000E+00  0.45593999997E+02  0.45594000000E+02  0.51100000000E-03 0. -1.
         11   -1    0    0    0    0 -0.00000000000E+00 -0.00000000000E+00 -0.45593999997E+02  0.45594000000E+02  0.51100000000E-03 0.  1.
    9900012    2    1    2    0    0 -0.39248152453E+01  0.23174220517E+02  0.21546990114E+02  0.59301930091E+02  0.49999974583E+02 0.  0.
        -12    1    1    2    0    0  0.39248152453E+01 -0.23174220517E+02 -0.21546990114E+02  0.31886069909E+02  0.00000000000E+00 0.  1.
         11    1    3    3    0    0 -0.10544405331E+02  0.11719062407E+02 -0.48352274202E+01  0.16489400594E+02  0.51100000000E-03 0. -1.
        -11    1    3    3    0    0  0.95050610256E+01 -0.47370098747E+01 -0.12115045480E+01  0.10688928439E+02  0.51100000000E-03 0.  1.
         12    1    3    3    0    0 -0.28854709402E+01  0.16192167984E+02  0.27593722082E+02  0.32123601058E+02  0.00000000000E+00 0. -1.
</event>
<event>
 7    1  0.1327607E-011  0.5930194E+02  0.7816164E-02  0.1266605E+00
        -11   -1    0    0    0    0  0.00000000000E+00  0.00000000000E+00  0.45593999997E+02  0.45594000000E+02  0.51100000000E-03 0. -1.
         11   -1    0    0    0    0 -0.00000000000E+00 -0.00000000000E+00 -0.45593999997E+02  0.45594000000E+02  0.51100000000E-03 0.  1.
    9900012    2    1    2    0    0  0.16865370999E+02  0.23342408815E+01  0.26959806160E+02  0.59301943994E+02  0.49999999939E+02 0.  0.
        -12    1    1    2    0    0 -0.16865370999E+02 -0.23342408815E+01 -0.26959806160E+02  0.31886056006E+02  0.00000000000E+00 0.  1.
         11    1    3    3    0    0  0.88696132979E+00  0.19853936228E+02  0.90758495026E+01  0.21848032603E+02  0.51100000000E-03 0. -1.
        -11    1    3    3    0    0  0.77118005260E+01  0.75762366967E+00  0.15401564186E+02  0.17241056830E+02  0.51100000000E-03 0.  1.
        -12    1    3    3    0    0  0.82666091436E+01 -0.18277319016E+02  0.24823924710E+01  0.20212854562E+02  0.00000000000E+00 0.  1.
</event>
<event>
 7    1  0.1327607E-011  0.5930193E+02  0.7816164E-02  0.1266605E+00
        -11   -1    0    0    0    0  0.00000000000E+00  0.00000000000E+00  0.45593999997E+02  0.45594000000E+02  0.51100000000E-03 0.  1.
         11   -1    0    0    0    0 -0.00000000000E+00 -0.00000000000E+00 -0.45593999997E+02  0.45594000000E+02  0.51100000000E-03 0. -1.
    9900012    2    1    2    0    0  0.26636545131E+02 -0.16011616494E+02 -0.71305112454E+01  0.59301927964E+02  0.49999970703E+02 0.  0.
        -12    1    1    2    0    0 -0.26636545131E+02  0.16011616494E+02  0.71305112454E+01  0.31886072036E+02  0.00000000000E+00 0.  1.
         11    1    3    3    0    0  0.52009158343E+01 -0.10257826638E+02 -0.86872705898E+01  0.14413230152E+02  0.51100000000E-03 0.  1.
        -11    1    3    3    0    0  0.11787519912E+02 -0.18687802021E+02  0.12505862231E+02  0.25388504495E+02  0.51100000000E-03 0. -1.
        -12    1    3    3    0    0  0.96481093847E+01  0.12934012166E+02 -0.10949102886E+02  0.19500193317E+02  0.00000000000E+00 0.  1.
</event>
<event>
 7    1  0.1327607E-011  0.5930195E+02  0.7816164E-02  0.1266605E+00
        -11   -1    0    0    0    0  0.00000000000E+00  0.00000000000E+00  0.45593999997E+02  0.45594000000E+02  0.51100000000E-03 0.  1.
         11   -1    0    0    0    0 -0.00000000000E+00 -0.00000000000E+00 -0.45593999997E+02  0.45594000000E+02  0.51100000000E-03 0. -1.
    9900012    2    1    2    0    0  0.11273946392E+02 -0.37693845261E+01 -0.29587326832E+02  0.59301952330E+02  0.50000015141E+02 0.  0.
        -12    1    1    2    0    0 -0.11273946392E+02  0.37693845261E+01  0.29587326832E+02  0.31886047670E+02  0.00000000000E+00 0.  1.
         11    1    3    3    0    0 -0.51838799672E+01 -0.63606578409E+01 -0.38934478339E+01  0.90823739177E+01  0.51100000000E-03 0. -1.
        -11    1    3    3    0    0  0.99533839731E+01 -0.16080934689E+02 -0.14967329435E+01  0.18971202459E+02  0.51100000000E-03 0.  1.
        -12    1    3    3    0    0  0.65044423862E+01  0.18672208004E+02 -0.24197146055E+02  0.31248375953E+02  0.00000000000E+00 0.  1.
</event>
<event>
 7    1  0.1327607E-011  0.5930199E+02  0.7816164E-02  0.1266605E+00
        -11   -1    0    0    0    0  0.00000000000E+00  0.00000000000E+00  0.45593999997E+02  0.45594000000E+02  0.51100000000E-03 0.  1.
         11   -1    0    0    0    0 -0.00000000000E+00 -0.00000000000E+00 -0.45593999997E+02  0.45594000000E+02  0.51100000000E-03 0. -1.
    9900012    2    1    2    0    0 -0.26400198796E+02 -0.98354819183E+01  0.14933528717E+02  0.59301992395E+02  0.50000088210E+02 0.  0.
        -12    1    1    2    0    0  0.26400198796E+02  0.98354819183E+01 -0.14933528717E+02  0.31886007605E+02  0.00000000000E+00 0.  1.
         11    1    3    3    0    0  0.55576556823E+00  0.30290060877E+01 -0.68428629938E+01  0.75039008162E+01  0.51100000000E-03 0. -1.
        -11    1    3    3    0    0 -0.11889565368E+02  0.12002406409E+02  0.13333164562E+02  0.21521914454E+02  0.51100000000E-03 0.  1.
        -12    1    3    3    0    0 -0.15066398997E+02 -0.24866894415E+02  0.84432271488E+01  0.30276177125E+02  0.00000000000E+00 0.  1.
</event>
<event>
 7    1  0.1327607E-011  0.5930195E+02  0.7816164E-02  0.1266605E+00
        -11   -1    0    0    0    0  0.00000000000E+00  0.00000000000E+00  0.45593999997E+02  0.45594000000E+02  0.51100000000E-03 0.  1.
         11   -1    0    0    0    0 -0.00000000000E+00 -0.00000000000E+00 -0.45593999997E+02  0.45594000000E+02  0.51100000000E-03 0. -1.
    9900012    2    1    2    0    0  0.24425511244E+00 -0.17160008008E+02 -0.26873681620E+02  0.59301948203E+02  0.50000007615E+02 0.  0.
        -12    1    1    2    0    0 -0.24425511244E+00  0.17160008008E+02  0.26873681620E+02  0.31886051797E+02  0.00000000000E+00 0.  1.
         11    1    3    3    0    0  0.55806829373E+01  0.77182571766E+01 -0.87676546720E+01  0.12945550765E+02  0.51100000000E-03 0. -1.
        -11    1    3    3    0    0 -0.19979634079E+02 -0.14187181110E+02 -0.94222469624E+01  0.26253392616E+02  0.51100000000E-03 0.  1.
         12    1    3    3    0    0  0.14643206254E+02 -0.10691084075E+02 -0.86837799851E+01  0.20103004823E+02  0.00000000000E+00 0. -1.
</event>
<event>
 7    1  0.1327607E-011  0.5930192E+02  0.7816164E-02  0.1266605E+00
        -11   -1    0    0    0    0  0.00000000000E+00  0.00000000000E+00  0.45593999997E+02  0.45594000000E+02  0.51100000000E-03 0. -1.
         11   -1    0    0    0    0 -0.00000000000E+00 -0.00000000000E+00 -0.45593999997E+02  0.45594000000E+02  0.51100000000E-03 0.  1.
    9900012    2    1    2    0    0 -0.31342997120E+02  0.19795699671E+01 -0.55154369381E+01  0.59301918235E+02  0.49999952960E+02 0.  0.
        -12    1    1    2    0    0  0.31342997120E+02 -0.19795699671E+01  0.55154369381E+01  0.31886081765E+02  0.00000000000E+00 0.  1.
         11    1    3    3    0    0  0.46395243969E+01 -0.26694233055E+01 -0.43244728680E+01  0.68812842740E+01  0.51100000000E-03 0. -1.
        -11    1    3    3    0    0 -0.13106151989E+02 -0.12562114180E+02 -0.12064380138E+02  0.21797412714E+02  0.51100000000E-03 0.  1.
        -12    1    3    3    0    0 -0.22876369528E+02  0.17211107453E+02  0.10873416068E+02  0.30623221246E+02  0.00000000000E+00 0.  1.
</event>
<event>
 7    1  0.1327607E-011  0.5930216E+02  0.7816164E-02  0.1266604E+00
        -11   -1    0    0    0    0  0.00000000000E+00  0.00000000000E+00  0.45593999997E+02  0.45594000000E+02  0.51100000000E-03 0.  1.
         11   -1    0    0    0    0 -0.00000000000E+00 -0.00000000000E+00 -0.45593999997E+02  0.45594000000E+02  0.51100000000E-03 0. -1.
    9900012    2    1    2    0    0  0.26461539862E+02 -0.35047251556E+00 -0.17786813965E+02  0.59302161860E+02  0.50000397271E+02 0.  0.
        -12    1    1    2    0    0 -0.26461539862E+02  0.35047251556E+00  0.17786813965E+02  0.31885838140E+02  0.00000000000E+00 0.  1.
         11    1    3    3    0    0  0.24133535601E+02  0.86678029319E+01  0.34176466836E+01  0.25869647415E+02  0.51100000000E-03 0. -1.
        -11    1    3    3    0    0 -0.23140258526E+01  0.11989057644E+01  0.46035991083E+01  0.52901054517E+01  0.51100000000E-03 0.  1.
         12    1    3    3    0    0  0.46420301145E+01 -0.10217181212E+02 -0.25808059757E+02  0.28142408993E+02  0.00000000000E+00 0. -1.
</event>
<event>
 7    1  0.1327607E-011  0.5930194E+02  0.7816164E-02  0.1266605E+00
        -11   -1    0    0    0    0  0.00000000000E+00  0.00000000000E+00  0.45593999997E+02  0.45594000000E+02  0.51100000000E-03 0.  1.
         11   -1    0    0    0    0 -0.00000000000E+00 -0.00000000000E+00 -0.45593999997E+02  0.45594000000E+02  0.51100000000E-03 0. -1.
    9900012    2    1    2    0    0  0.16058029627E+02  0.10441388353E+02 -0.25491913846E+02  0.59301943835E+02  0.49999999649E+02 0.  0.
        -12    1    1    2    0    0 -0.16058029627E+02 -0.10441388353E+02  0.25491913846E+02  0.31886056165E+02  0.00000000000E+00 0.  1.
         11    1    3    3    0    0 -0.61066783287E+00 -0.54819739243E+01 -0.21547495403E+01  0.59218155283E+01  0.51100000000E-03 0. -1.
        -11    1    3    3    0    0  0.95386833314E+01  0.10114179953E+01  0.11407409891E+02  0.14904309670E+02  0.51100000000E-03 0.  1.
         12    1    3    3    0    0  0.71300141283E+01  0.14911944282E+02 -0.34744574196E+02  0.38475818637E+02  0.00000000000E+00 0. -1.
</event>
<event>
 7    1  0.1327607E-011  0.5930194E+02  0.7816164E-02  0.1266605E+00
        -11   -1    0    0    0    0  0.00000000000E+00  0.00000000000E+00  0.45593999997E+02  0.45594000000E+02  0.51100000000E-03 0.  1.
         11   -1    0    0    0    0 -0.00000000000E+00 -0.00000000000E+00 -0.45593999997E+02  0.45594000000E+02  0.51100000000E-03 0. -1.
    9900012    2    1    2    0    0 -0.11452138429E+02  0.77686436115E+01 -0.28726602348E+02  0.59301937518E+02  0.49999988128E+02 0.  0.
        -12    1    1    2    0    0  0.11452138429E+02 -0.77686436115E+01  0.28726602348E+02  0.31886062482E+02  0.00000000000E+00 0.  1.
         11    1    3    3    0    0 -0.17475370524E+02  0.21839002813E+01 -0.28490272461E+02  0.33494083366E+02  0.51100000000E-03 0. -1.
        -11    1    3    3    0    0  0.12478142395E+01 -0.69369018790E+01 -0.77240926816E+01  0.10456541305E+02  0.51100000000E-03 0.  1.
        -12    1    3    3    0    0  0.47754178555E+01  0.12521645209E+02  0.74877627953E+01  0.15351312847E+02  0.00000000000E+00 0.  1.
</event>
<event>
 7    1  0.1327607E-011  0.5930195E+02  0.7816164E-02  0.1266605E+00
        -11   -1    0    0    0    0  0.00000000000E+00  0.00000000000E+00  0.45593999997E+02  0.45594000000E+02  0.51100000000E-03 0.  1.
         11   -1    0    0    0    0 -0.00000000000E+00 -0.00000000000E+00 -0.45593999997E+02  0.45594000000E+02  0.51100000000E-03 0. -1.
    9900012    2    1    2    0    0  0.98878453083E+01 -0.15059725804E+02 -0.26308844639E+02  0.59301950819E+02  0.50000012386E+02 0.  0.
        -12    1    1    2    0    0 -0.98878453083E+01  0.15059725804E+02  0.26308844639E+02  0.31886049181E+02  0.00000000000E+00 0.  1.
         11    1    3    3    0    0  0.13050862080E+02  0.22483804404E+01 -0.12221195203E+02  0.18020483570E+02  0.51100000000E-03 0. -1.
        -11    1    3    3    0    0  0.12242491139E+02 -0.36604016742E+01 -0.16153875937E+02  0.20596719102E+02  0.51100000000E-03 0.  1.
        -12    1    3    3    0    0 -0.15405507910E+02 -0.13647704570E+02  0.20662265008E+01  0.20684748148E+02  0.00000000000E+00 0.  1.
</event>
<event>
 7    1  0.1327607E-011  0.5930192E+02  0.7816164E-02  0.1266605E+00
        -11   -1    0    0    0    0  0.00000000000E+00  0.00000000000E+00  0.45593999997E+02  0.45594000000E+02  0.51100000000E-03 0.  1.
         11   -1    0    0    0    0 -0.00000000000E+00 -0.00000000000E+00 -0.45593999997E+02  0.45594000000E+02  0.51100000000E-03 0. -1.
    9900012    2    1    2    0    0  0.18074780495E+01  0.74335095484E+01 -0.30954770768E+02  0.59301923502E+02  0.49999962567E+02 0.  0.
        -12    1    1    2    0    0 -0.18074780495E+01 -0.74335095484E+01  0.30954770768E+02  0.31886076498E+02  0.00000000000E+00 0.  1.
         11    1    3    3    0    0 -0.13095730129E+02  0.11924481672E+02 -0.37558214350E+00  0.17715317467E+02  0.51100000000E-03 0. -1.
        -11    1    3    3    0    0 -0.29892523671E+01  0.63626186988E+01 -0.55175573425E+01  0.89365533462E+01  0.51100000000E-03 0.  1.
        -12    1    3    3    0    0  0.17892460545E+02 -0.10853590822E+02 -0.25061631282E+02  0.32650052689E+02  0.00000000000E+00 0.  1.
</event>
<event>
 7    1  0.1327607E-011  0.5930193E+02  0.7816164E-02  0.1266605E+00
        -11   -1    0    0    0    0  0.00000000000E+00  0.00000000000E+00  0.45593999997E+02  0.45594000000E+02  0.51100000000E-03 0.  1.
         11   -1    0    0    0    0 -0.00000000000E+00 -0.00000000000E+00 -0.45593999997E+02  0.45594000000E+02  0.51100000000E-03 0. -1.
    9900012    2    1    2    0    0 -0.26460513100E+02 -0.28077868489E+01 -0.17569263835E+02  0.59301930123E+02  0.49999974642E+02 0.  0.
        -12    1    1    2    0    0  0.26460513100E+02  0.28077868489E+01  0.17569263835E+02  0.31886069877E+02  0.00000000000E+00 0.  1.
         11    1    3    3    0    0  0.73881570782E+01 -0.19171118384E+01  0.55781701748E+01  0.94538968459E+01  0.51100000000E-03 0. -1.
        -11    1    3    3    0    0 -0.22256492899E+02 -0.10548846863E+02 -0.32000067142E+01  0.24836861507E+02  0.51100000000E-03 0.  1.
         12    1    3    3    0    0 -0.11592177279E+02  0.96581718529E+01 -0.19947427295E+02  0.25011171770E+02  0.00000000000E+00 0. -1.
</event>
<event>
 7    1  0.1327607E-011  0.5930194E+02  0.7816164E-02  0.1266605E+00
        -11   -1    0    0    0    0  0.00000000000E+00  0.00000000000E+00  0.45593999997E+02  0.45594000000E+02  0.51100000000E-03 0.  1.
         11   -1    0    0    0    0 -0.00000000000E+00 -0.00000000000E+00 -0.45593999997E+02  0.45594000000E+02  0.51100000000E-03 0. -1.
    9900012    2    1    2    0    0 -0.29657867745E+02 -0.11490242292E+02  0.22596045008E+01  0.59301943492E+02  0.49999999023E+02 0.  0.
        -12    1    1    2    0    0  0.29657867745E+02  0.11490242292E+02 -0.22596045008E+01  0.31886056508E+02  0.00000000000E+00 0.  1.
         11    1    3    3    0    0 -0.14790118606E+02  0.15696900966E+02 -0.39774730122E+01  0.21930813941E+02  0.51100000000E-03 0.  1.
        -11    1    3    3    0    0 -0.17860408119E+02 -0.14311849700E+02  0.32184947602E+00  0.22889447511E+02  0.51100000000E-03 0. -1.
        -12    1    3    3    0    0  0.29926589796E+01 -0.12875293558E+02  0.59152280369E+01  0.14481682040E+02  0.00000000000E+00 0.  1.
</event>
<event>
 7    1  0.1327607E-011  0.5930194E+02  0.7816164E-02  0.1266605E+00
        -11   -1    0    0    0    0  0.00000000000E+00  0.00000000000E+00  0.45593999997E+02  0.45594000000E+02  0.51100000000E-03 0. -1.
         11   -1    0    0    0    0 -0.00000000000E+00 -0.00000000000E+00 -0.45593999997E+02  0.45594000000E+02  0.51100000000E-03 0.  1.
    9900012    2    1    2    0    0  0.23825559072E+02 -0.31466479776E+01  0.20956196803E+02  0.59301939676E+02  0.49999992063E+02 0.  0.
        -12    1    1    2    0    0 -0.23825559072E+02  0.31466479776E+01 -0.20956196803E+02  0.31886060324E+02  0.00000000000E+00 0.  1.
         11    1    3    3    0    0 -0.38807547746E+01 -0.33471466663E+01  0.50545783343E+01  0.71980838301E+01  0.51100000000E-03 0.  1.
        -11    1    3    3    0    0  0.38650406092E+02 -0.16550122207E+00  0.12954989022E+02  0.40764114397E+02  0.51100000000E-03 0. -1.
         12    1    3    3    0    0 -0.10944092246E+02  0.36599991078E+00  0.29466294469E+01  0.11339741449E+02  0.00000000000E+00 0. -1.
</event>
<event>
 7    1  0.1327607E-011  0.5930194E+02  0.7816164E-02  0.1266605E+00
        -11   -1    0    0    0    0  0.00000000000E+00  0.00000000000E+00  0.45593999997E+02  0.45594000000E+02  0.51100000000E-03 0. -1.
         11   -1    0    0    0    0 -0.00000000000E+00 -0.00000000000E+00 -0.45593999997E+02  0.45594000000E+02  0.51100000000E-03 0.  1.
    9900012    2    1    2    0    0  0.25128563621E+02  0.12139157660E+02 -0.15424546837E+02  0.59301945000E+02  0.50000001773E+02 0.  0.
        -12    1    1    2    0    0 -0.25128563621E+02 -0.12139157660E+02  0.15424546837E+02  0.31886055000E+02  0.00000000000E+00 0.  1.
         11    1    3    3    0    0  0.20394774867E+02 -0.40552610728E+01 -0.40325128229E+01  0.21181433950E+02  0.51100000000E-03 0. -1.
        -11    1    3    3    0    0  0.14005439264E+02  0.17112276981E+02 -0.16411362991E+02  0.27537523271E+02  0.51100000000E-03 0.  1.
         12    1    3    3    0    0 -0.92716505103E+01 -0.91785824788E+00  0.50193289763E+01  0.10582987779E+02  0.00000000000E+00 0. -1.
</event>
<event>
 7    1  0.1327607E-011  0.5930195E+02  0.7816164E-02  0.1266605E+00
        -11   -1    0    0    0    0  0.00000000000E+00  0.00000000000E+00  0.45593999997E+02  0.45594000000E+02  0.51100000000E-03 0. -1.
         11   -1    0    0    0    0 -0.00000000000E+00 -0.00000000000E+00 -0.45593999997E+02  0.45594000000E+02  0.51100000000E-03 0.  1.
    9900012    2    1    2    0    0 -0.33346096423E+01 -0.14537937794E+02  0.28182421427E+02  0.59301950789E+02  0.50000012332E+02 0.  0.
        -12    1    1    2    0    0  0.33346096423E+01  0.14537937794E+02 -0.28182421427E+02  0.31886049211E+02  0.00000000000E+00 0.  1.
         11    1    3    3    0    0  0.10587813244E+01 -0.77431960913E+01  0.25715698680E+02  0.26877039689E+02  0.51100000000E-03 0. -1.
        -11    1    3    3    0    0 -0.96670793192E+01 -0.68941122182E+01  0.14821670585E+02  0.18991132800E+02  0.51100000000E-03 0.  1.
        -12    1    3    3    0    0  0.52736883525E+01  0.99370515388E-01 -0.12354947838E+02  0.13433778300E+02  0.00000000000E+00 0.  1.
</event>
<event>
 7    1  0.1327607E-011  0.5930166E+02  0.7816164E-02  0.1266606E+00
        -11   -1    0    0    0    0  0.00000000000E+00  0.00000000000E+00  0.45593999997E+02  0.45594000000E+02  0.51100000000E-03 0.  1.
         11   -1    0    0    0    0 -0.00000000000E+00 -0.00000000000E+00 -0.45593999997E+02  0.45594000000E+02  0.51100000000E-03 0. -1.
    9900012    2    1    2    0    0  0.29330807207E+01 -0.21329177625E+02 -0.23520249252E+02  0.59301656441E+02  0.49999475508E+02 0.  0.
        -12    1    1    2    0    0 -0.29330807207E+01  0.21329177625E+02  0.23520249252E+02  0.31886343559E+02  0.00000000000E+00 0.  1.
         11    1    3    3    0    0 -0.22026828708E+01 -0.81565889351E+01 -0.10976123474E+01  0.85197715939E+01  0.51100000000E-03 0. -1.
        -11    1    3    3    0    0 -0.44521284208E+01  0.69327788691E+01  0.90407589946E+01  0.12231933362E+02  0.51100000000E-03 0.  1.
         12    1    3    3    0    0  0.95878920122E+01 -0.20105367559E+02 -0.31463395900E+02  0.38549951485E+02  0.00000000000E+00 0. -1.
</event>
<event>
 7    1  0.1327607E-011  0.5930188E+02  0.7816164E-02  0.1266605E+00
        -11   -1    0    0    0    0  0.00000000000E+00  0.00000000000E+00  0.45593999997E+02  0.45594000000E+02  0.51100000000E-03 0.  1.
         11   -1    0    0    0    0 -0.00000000000E+00 -0.00000000000E+00 -0.45593999997E+02  0.45594000000E+02  0.51100000000E-03 0. -1.
    9900012    2    1    2    0    0 -0.19445124464E+02  0.35646045280E+01 -0.25018102664E+02  0.59301878697E+02  0.49999880852E+02 0.  0.
        -12    1    1    2    0    0  0.19445124464E+02 -0.35646045280E+01  0.25018102664E+02  0.31886121303E+02  0.00000000000E+00 0.  1.
         11    1    3    3    0    0 -0.13667247730E+02 -0.35326889963E+01 -0.83199252700E+01  0.16385808153E+02  0.51100000000E-03 0. -1.
        -11    1    3    3    0    0 -0.20770603804E+02 -0.34220859537E+01 -0.69490709040E+01  0.22167955281E+02  0.51100000000E-03 0.  1.
        -12    1    3    3    0    0  0.14992727070E+02  0.10519379478E+02 -0.97491064900E+01  0.20748115263E+02  0.00000000000E+00 0.  1.
</event>
<event>
 7    1  0.1327607E-011  0.5930203E+02  0.7816164E-02  0.1266604E+00
        -11   -1    0    0    0    0  0.00000000000E+00  0.00000000000E+00  0.45593999997E+02  0.45594000000E+02  0.51100000000E-03 0.  1.
         11   -1    0    0    0    0 -0.00000000000E+00 -0.00000000000E+00 -0.45593999997E+02  0.45594000000E+02  0.51100000000E-03 0. -1.
    9900012    2    1    2    0    0 -0.31300524592E+02  0.52932708669E+01 -0.29956135502E+01  0.59302027273E+02  0.50000151818E+02 0.  0.
        -12    1    1    2    0    0  0.31300524592E+02 -0.52932708669E+01  0.29956135502E+01  0.31885972727E+02  0.00000000000E+00 0.  1.
         11    1    3    3    0    0 -0.50748408466E+00 -0.33036457228E+01 -0.71780913625E+01  0.79181191597E+01  0.51100000000E-03 0. -1.
        -11    1    3    3    0    0 -0.35025765671E+02 -0.60010229935E+01 -0.30038187583E+00  0.35537399558E+02  0.51100000000E-03 0.  1.
        -12    1    3    3    0    0  0.42327251637E+01  0.14597939583E+02  0.44828596881E+01  0.15846508554E+02  0.00000000000E+00 0.  1.
</event>
<event>
 7    1  0.1327607E-011  0.5930195E+02  0.7816164E-02  0.1266605E+00
        -11   -1    0    0    0    0  0.00000000000E+00  0.00000000000E+00  0.45593999997E+02  0.45594000000E+02  0.51100000000E-03 0.  1.
         11   -1    0    0    0    0 -0.00000000000E+00 -0.00000000000E+00 -0.45593999997E+02  0.45594000000E+02  0.51100000000E-03 0. -1.
    9900012    2    1    2    0    0 -0.18794421500E+02  0.25585203755E+02  0.29811510265E+01  0.59301949882E+02  0.50000010676E+02 0.  0.
        -12    1    1    2    0    0  0.18794421500E+02 -0.25585203755E+02 -0.29811510265E+01  0.31886050118E+02  0.00000000000E+00 0.  1.
         11    1    3    3    0    0 -0.21530249372E+02  0.88574683121E+01  0.72439974736E+01  0.24381999150E+02  0.51100000000E-03 0. -1.
        -11    1    3    3    0    0 -0.11194895780E+02 -0.17564157653E+01 -0.30845802037E+01  0.11744161237E+02  0.51100000000E-03 0.  1.
        -12    1    3    3    0    0  0.13930723652E+02  0.18484151208E+02 -0.11782662434E+01  0.23175789495E+02  0.00000000000E+00 0.  1.
</event>
<event>
 7    1  0.1327607E-011  0.5930196E+02  0.7816164E-02  0.1266605E+00
        -11   -1    0    0    0    0  0.00000000000E+00  0.00000000000E+00  0.45593999997E+02  0.45594000000E+02  0.51100000000E-03 0.  1.
         11   -1    0    0    0    0 -0.00000000000E+00 -0.00000000000E+00 -0.45593999997E+02  0.45594000000E+02  0.51100000000E-03 0. -1.
    9900012    2    1    2    0    0  0.21329597402E+02 -0.22406928470E+02 -0.77264115568E+01  0.59301959099E+02  0.50000027486E+02 0.  0.
        -12    1    1    2    0    0 -0.21329597402E+02  0.22406928470E+02  0.77264115568E+01  0.31886040901E+02  0.00000000000E+00 0.  1.
         11    1    3    3    0    0  0.80468529465E+01  0.11899210338E+02 -0.48319294255E+01  0.15155546551E+02  0.51100000000E-03 0. -1.
        -11    1    3    3    0    0  0.55800122772E+00 -0.86046358446E+00  0.69557328114E+01  0.70309303904E+01  0.51100000000E-03 0.  1.
        -12    1    3    3    0    0  0.12724743228E+02 -0.33445675224E+02 -0.98502149428E+01  0.37115482158E+02  0.00000000000E+00 0.  1.
</event>
<event>
 7    1  0.1327607E-011  0.5930197E+02  0.7816164E-02  0.1266605E+00
        -11   -1    0    0    0    0  0.00000000000E+00  0.00000000000E+00  0.45593999997E+02  0.45594000000E+02  0.51100000000E-03 0.  1.
         11   -1    0    0    0    0 -0.00000000000E+00 -0.00000000000E+00 -0.45593999997E+02  0.45594000000E+02  0.51100000000E-03 0. -1.
    9900012    2    1    2    0    0 -0.19410700641E+02 -0.75943136992E+01 -0.24130266976E+02  0.59301973526E+02  0.50000053799E+02 0.  0.
        -12    1    1    2    0    0  0.19410700641E+02  0.75943136992E+01  0.24130266976E+02  0.31886026474E+02  0.00000000000E+00 0.  1.
         11    1    3    3    0    0 -0.16467015076E+02 -0.86780557198E+01 -0.15007874305E+02  0.23910406271E+02  0.51100000000E-03 0. -1.
        -11    1    3    3    0    0 -0.41572058556E+01 -0.28925786152E+01  0.12440329930E+02  0.13431722920E+02  0.51100000000E-03 0.  1.
         12    1    3    3    0    0  0.12135202914E+01  0.39763206358E+01 -0.21562722601E+02  0.21959844336E+02  0.00000000000E+00 0. -1.
</event>
<event>
 7    1  0.1327607E-011  0.5930194E+02  0.7816164E-02  0.1266605E+00
        -11   -1    0    0    0    0  0.00000000000E+00  0.00000000000E+00  0.45593999997E+02  0.45594000000E+02  0.51100000000E-03 0. -1.
         11   -1    0    0    0    0 -0.00000000000E+00 -0.00000000000E+00 -0.45593999997E+02  0.45594000000E+02  0.51100000000E-03 0.  1.
    9900012    2    1    2    0    0  0.81753051552E+01  0.16298644427E+02  0.26157969631E+02  0.59301940354E+02  0.49999993300E+02 0.  0.
        -12    1    1    2    0    0 -0.81753051552E+01 -0.16298644427E+02 -0.26157969631E+02  0.31886059646E+02  0.00000000000E+00 0.  1.
         11    1    3    3    0    0 -0.45050323719E+01 -0.11797064196E+02 -0.21298599532E+01  0.12806339992E+02  0.51100000000E-03 0. -1.
        -11    1    3    3    0    0  0.14420466591E+01 -0.32695601054E+01  0.30512656288E+01  0.46989088146E+01  0.51100000000E-03 0.  1.
        -12    1    3    3    0    0  0.11238290868E+02  0.31365268728E+02  0.25236563955E+02  0.41796691547E+02  0.00000000000E+00 0.  1.
</event>
<event>
 7    1  0.1327607E-011  0.5930192E+02  0.7816164E-02  0.1266605E+00
        -11   -1    0    0    0    0  0.00000000000E+00  0.00000000000E+00  0.45593999997E+02  0.45594000000E+02  0.51100000000E-03 0.  1.
         11   -1    0    0    0    0 -0.00000000000E+00 -0.00000000000E+00 -0.45593999997E+02  0.45594000000E+02  0.51100000000E-03 0. -1.
    9900012    2    1    2    0    0 -0.14064689763E+02 -0.22853204680E+02 -0.17223167971E+02  0.59301921890E+02  0.49999959626E+02 0.  0.
        -12    1    1    2    0    0  0.14064689763E+02  0.22853204680E+02  0.17223167971E+02  0.31886078110E+02  0.00000000000E+00 0.  1.
         11    1    3    3    0    0 -0.17247223702E+02 -0.77273459041E+01 -0.40836881993E+01  0.19335333194E+02  0.51100000000E-03 0. -1.
        -11    1    3    3    0    0 -0.71095252116E+01 -0.45823716316E+01 -0.21445063245E+02  0.23052857011E+02  0.51100000000E-03 0.  1.
        -12    1    3    3    0    0  0.10292059150E+02 -0.10543487144E+02  0.83055834729E+01  0.16913731686E+02  0.00000000000E+00 0.  1.
</event>
<event>
 7    1  0.1327607E-011  0.5930201E+02  0.7816164E-02  0.1266605E+00
        -11   -1    0    0    0    0  0.00000000000E+00  0.00000000000E+00  0.45593999997E+02  0.45594000000E+02  0.51100000000E-03 0.  1.
         11   -1    0    0    0    0 -0.00000000000E+00 -0.00000000000E+00 -0.45593999997E+02  0.45594000000E+02  0.51100000000E-03 0. -1.
    9900012    2    1    2    0    0  0.36069580298E+01  0.22058899815E+02 -0.22740075438E+02  0.59302011883E+02  0.50000123752E+02 0.  0.
        -12    1    1    2    0    0 -0.36069580298E+01 -0.22058899815E+02  0.22740075438E+02  0.31885988117E+02  0.00000000000E+00 0.  1.
         11    1    3    3    0    0  0.93623717102E+01  0.71554593779E+01 -0.11066732316E+02  0.16165616826E+02  0.51100000000E-03 0. -1.
        -11    1    3    3    0    0  0.16669344788E+01  0.21862995057E+02 -0.20236568292E+02  0.29837692939E+02  0.51100000000E-03 0.  1.
        -12    1    3    3    0    0 -0.74223481592E+01 -0.69595546196E+01  0.85632251707E+01  0.13298702118E+02  0.00000000000E+00 0.  1.
</event>
<event>
 7    1  0.1327607E-011  0.5930194E+02  0.7816164E-02  0.1266605E+00
        -11   -1    0    0    0    0  0.00000000000E+00  0.00000000000E+00  0.45593999997E+02  0.45594000000E+02  0.51100000000E-03 0.  1.
         11   -1    0    0    0    0 -0.00000000000E+00 -0.00000000000E+00 -0.45593999997E+02  0.45594000000E+02  0.51100000000E-03 0. -1.
    9900012    2    1    2    0    0  0.99935331025E+01 -0.17388161246E+02 -0.24789149982E+02  0.59301940158E+02  0.49999992942E+02 0.  0.
        -12    1    1    2    0    0 -0.99935331025E+01  0.17388161246E+02  0.24789149982E+02  0.31886059842E+02  0.00000000000E+00 0.  1.
         11    1    3    3    0    0  0.44264505097E+00  0.17248630522E+01 -0.17167845291E+02  0.17259953632E+02  0.51100000000E-03 0. -1.
        -11    1    3    3    0    0 -0.17651022578E+01  0.76574597655E+01  0.60556224281E+01  0.99208285589E+01  0.51100000000E-03 0.  1.
        -12    1    3    3    0    0  0.11315990309E+02 -0.26770484064E+02 -0.13676927120E+02  0.32121157967E+02  0.00000000000E+00 0.  1.
</event>
<event>
 7    1  0.1327607E-011  0.5930187E+02  0.7816164E-02  0.1266605E+00
        -11   -1    0    0    0    0  0.00000000000E+00  0.00000000000E+00  0.45593999997E+02  0.45594000000E+02  0.51100000000E-03 0.  1.
         11   -1    0    0    0    0 -0.00000000000E+00 -0.00000000000E+00 -0.45593999997E+02  0.45594000000E+02  0.51100000000E-03 0. -1.
    9900012    2    1    2    0    0 -0.34760184186E+01 -0.30143196769E+02  0.97995076318E+01  0.59301868762E+02  0.49999862734E+02 0.  0.
        -12    1    1    2    0    0  0.34760184186E+01  0.30143196769E+02 -0.97995076318E+01  0.31886131238E+02  0.00000000000E+00 0.  1.
         11    1    3    3    0    0  0.91104480599E+01 -0.33689264414E+02  0.77633818210E+01  0.35752439052E+02  0.51100000000E-03 0. -1.
        -11    1    3    3    0    0 -0.14617522996E+02 -0.24625718026E+01 -0.33857298222E+01  0.15205242685E+02  0.51100000000E-03 0.  1.
        -12    1    3    3    0    0  0.20310565180E+01  0.60086394481E+01  0.54218556330E+01  0.83441870246E+01  0.00000000000E+00 0.  1.
</event>
<event>
 7    1  0.1327607E-011  0.5930192E+02  0.7816164E-02  0.1266605E+00
        -11   -1    0    0    0    0  0.00000000000E+00  0.00000000000E+00  0.45593999997E+02  0.45594000000E+02  0.51100000000E-03 0.  1.
         11   -1    0    0    0    0 -0.00000000000E+00 -0.00000000000E+00 -0.45593999997E+02  0.45594000000E+02  0.51100000000E-03 0. -1.
    9900012    2    1    2    0    0  0.18137003776E+02 -0.22899967571E+02 -0.12781330588E+02  0.59301924162E+02  0.49999963770E+02 0.  0.
        -12    1    1    2    0    0 -0.18137003776E+02  0.22899967571E+02  0.12781330588E+02  0.31886075838E+02  0.00000000000E+00 0.  1.
         11    1    3    3    0    0  0.12977877752E+01 -0.29070154652E+01 -0.16923036051E-01  0.31835952435E+01  0.51100000000E-03 0. -1.
        -11    1    3    3    0    0  0.10058764874E+02  0.11843580004E+01  0.16502266967E+02  0.19362496481E+02  0.51100000000E-03 0.  1.
         12    1    3    3    0    0  0.67804511273E+01 -0.21177310107E+02 -0.29266674519E+02  0.36755832438E+02  0.00000000000E+00 0. -1.
</event>
<event>
 7    1  0.1327607E-011  0.5930195E+02  0.7816164E-02  0.1266605E+00
        -11   -1    0    0    0    0  0.00000000000E+00  0.00000000000E+00  0.45593999997E+02  0.45594000000E+02  0.51100000000E-03 0.  1.
         11   -1    0    0    0    0 -0.00000000000E+00 -0.00000000000E+00 -0.45593999997E+02  0.45594000000E+02  0.51100000000E-03 0. -1.
    9900012    2    1    2    0    0 -0.29361306444E+02 -0.98506747936E+01 -0.75893599696E+01  0.59301945137E+02  0.50000002022E+02 0.  0.
        -12    1    1    2    0    0  0.29361306444E+02  0.98506747936E+01  0.75893599696E+01  0.31886054863E+02  0.00000000000E+00 0.  1.
         11    1    3    3    0    0 -0.33402109634E+00 -0.20651193120E+02  0.26750389257E+01  0.20826405856E+02  0.51100000000E-03 0. -1.
        -11    1    3    3    0    0 -0.51525916258E+01 -0.55108036002E+01 -0.50915637410E+01  0.91017678707E+01  0.51100000000E-03 0.  1.
        -12    1    3    3    0    0 -0.23874693722E+02  0.16311321926E+02 -0.51728351543E+01  0.29373771410E+02  0.00000000000E+00 0.  1.
</event>
<event>
 7    1  0.1327607E-011  0.5930190E+02  0.7816164E-02  0.1266605E+00
        -11   -1    0    0    0    0  0.00000000000E+00  0.00000000000E+00  0.45593999997E+02  0.45594000000E+02  0.51100000000E-03 0. -1.
         11   -1    0    0    0    0 -0.00000000000E+00 -0.00000000000E+00 -0.45593999997E+02  0.45594000000E+02  0.51100000000E-03 0.  1.
    9900012    2    1    2    0    0 -0.13377139768E+02  0.24230623711E+02 -0.15832013853E+02  0.59301895559E+02  0.49999911605E+02 0.  0.
        -12    1    1    2    0    0  0.13377139768E+02 -0.24230623711E+02  0.15832013853E+02  0.31886104441E+02  0.00000000000E+00 0.  1.
         11    1    3    3    0    0  0.14972882984E+02  0.93996221452E+01 -0.70578150098E+01  0.19035568662E+02  0.51100000000E-03 0. -1.
        -11    1    3    3    0    0 -0.78081583652E+00 -0.28224425562E+01 -0.68769226832E+01  0.74744846782E+01  0.51100000000E-03 0.  1.
        -12    1    3    3    0    0 -0.27569206915E+02  0.17653444122E+02 -0.18972761599E+01  0.32791842219E+02  0.00000000000E+00 0.  1.
</event>
<event>
 7    1  0.1327607E-011  0.5930195E+02  0.7816164E-02  0.1266605E+00
        -11   -1    0    0    0    0  0.00000000000E+00  0.00000000000E+00  0.45593999997E+02  0.45594000000E+02  0.51100000000E-03 0. -1.
         11   -1    0    0    0    0 -0.00000000000E+00 -0.00000000000E+00 -0.45593999997E+02  0.45594000000E+02  0.51100000000E-03 0.  1.
    9900012    2    1    2    0    0  0.19493663760E+02  0.25068942625E+02 -0.28749040341E+01  0.59301954709E+02  0.50000019480E+02 0.  0.
        -12    1    1    2    0    0 -0.19493663760E+02 -0.25068942625E+02  0.28749040341E+01  0.31886045291E+02  0.00000000000E+00 0.  1.
         11    1    3    3    0    0  0.17565631480E+02 -0.36741323256E+00  0.52683689250E+01  0.18342358441E+02  0.51100000000E-03 0. -1.
        -11    1    3    3    0    0 -0.11654832162E+02  0.17055301968E+01 -0.67613007470E+01  0.13581573327E+02  0.51100000000E-03 0.  1.
         12    1    3    3    0    0  0.13582864442E+02  0.23730825660E+02 -0.13819722120E+01  0.27378022941E+02  0.00000000000E+00 0. -1.
</event>
<event>
 7    1  0.1327607E-011  0.5930196E+02  0.7816164E-02  0.1266605E+00
        -11   -1    0    0    0    0  0.00000000000E+00  0.00000000000E+00  0.45593999997E+02  0.45594000000E+02  0.51100000000E-03 0.  1.
         11   -1    0    0    0    0 -0.00000000000E+00 -0.00000000000E+00 -0.45593999997E+02  0.45594000000E+02  0.51100000000E-03 0. -1.
    9900012    2    1    2    0    0 -0.31311720532E+02 -0.58105138478E+01  0.15917632007E+01  0.59301958792E+02  0.50000026926E+02 0.  0.
        -12    1    1    2    0    0  0.31311720532E+02  0.58105138478E+01 -0.15917632007E+01  0.31886041208E+02  0.00000000000E+00 0.  1.
         11    1    3    3    0    0 -0.12972429001E+00 -0.33790954345E+01  0.54243274221E+01  0.63920609032E+01  0.51100000000E-03 0. -1.
        -11    1    3    3    0    0 -0.17236188765E+01 -0.88818162844E+00  0.16800021800E+02  0.16911548166E+02  0.51100000000E-03 0.  1.
         12    1    3    3    0    0 -0.29458377365E+02 -0.15432367848E+01 -0.20632586022E+02  0.35998349722E+02  0.00000000000E+00 0. -1.
</event>
<event>
 7    1  0.1327607E-011  0.5930196E+02  0.7816164E-02  0.1266605E+00
        -11   -1    0    0    0    0  0.00000000000E+00  0.00000000000E+00  0.45593999997E+02  0.45594000000E+02  0.51100000000E-03 0.  1.
         11   -1    0    0    0    0 -0.00000000000E+00 -0.00000000000E+00 -0.45593999997E+02  0.45594000000E+02  0.51100000000E-03 0. -1.
    9900012    2    1    2    0    0  0.22734595126E+02  0.19263014046E+02 -0.11348754033E+02  0.59301956913E+02  0.50000023499E+02 0.  0.
        -12    1    1    2    0    0 -0.22734595126E+02 -0.19263014046E+02  0.11348754033E+02  0.31886043087E+02  0.00000000000E+00 0.  1.
         11    1    3    3    0    0  0.53018679573E+01 -0.45150043256E+01 -0.70379237143E+01  0.99008806864E+01  0.51100000000E-03 0. -1.
        -11    1    3    3    0    0  0.25260967371E+02  0.25137198904E+02 -0.12713394863E+02  0.37836829286E+02  0.51100000000E-03 0.  1.
        -12    1    3    3    0    0 -0.78282402019E+01 -0.13591805323E+01  0.84025645442E+01  0.11564246940E+02  0.00000000000E+00 0.  1.
</event>
<event>
 7    1  0.1327607E-011  0.5930187E+02  0.7816164E-02  0.1266605E+00
        -11   -1    0    0    0    0  0.00000000000E+00  0.00000000000E+00  0.45593999997E+02  0.45594000000E+02  0.51100000000E-03 0.  1.
         11   -1    0    0    0    0 -0.00000000000E+00 -0.00000000000E+00 -0.45593999997E+02  0.45594000000E+02  0.51100000000E-03 0. -1.
    9900012    2    1    2    0    0 -0.12299541762E+02 -0.20369379747E+02 -0.21225814601E+02  0.59301865642E+02  0.49999857043E+02 0.  0.
        -12    1    1    2    0    0  0.12299541762E+02  0.20369379747E+02  0.21225814601E+02  0.31886134358E+02  0.00000000000E+00 0.  1.
         11    1    3    3    0    0 -0.23519445053E+02 -0.20179835421E+02 -0.12356022587E+02  0.33362574056E+02  0.51100000000E-03 0. -1.
        -11    1    3    3    0    0 -0.38344799636E+01  0.10182151390E+01  0.43360613171E+01  0.58771954764E+01  0.51100000000E-03 0.  1.
        -12    1    3    3    0    0  0.15054383254E+02 -0.12077594650E+01 -0.13205853332E+02  0.20062096110E+02  0.00000000000E+00 0.  1.
</event>
<event>
 7    1  0.1327607E-011  0.5930195E+02  0.7816164E-02  0.1266605E+00
        -11   -1    0    0    0    0  0.00000000000E+00  0.00000000000E+00  0.45593999997E+02  0.45594000000E+02  0.51100000000E-03 0. -1.
         11   -1    0    0    0    0 -0.00000000000E+00 -0.00000000000E+00 -0.45593999997E+02  0.45594000000E+02  0.51100000000E-03 0.  1.
    9900012    2    1    2    0    0 -0.40751009431E+01  0.31367358163E+02  0.40252376577E+01  0.59301950636E+02  0.50000012053E+02 0.  0.
        -12    1    1    2    0    0  0.40751009431E+01 -0.31367358163E+02 -0.40252376577E+01  0.31886049364E+02  0.00000000000E+00 0.  1.
         11    1    3    3    0    0  0.11998359273E+02 -0.76334189761E+01  0.40539042438E+01  0.14787286782E+02  0.51100000000E-03 0. -1.
        -11    1    3    3    0    0  0.25714458138E+01  0.28715655645E+01 -0.15950815843E+00  0.38579353906E+01  0.51100000000E-03 0.  1.
         12    1    3    3    0    0 -0.18644906030E+02  0.36129211575E+02  0.13084157240E+00  0.40656728464E+02  0.00000000000E+00 0. -1.
</event>
<event>
 7    1  0.1327607E-011  0.5930194E+02  0.7816164E-02  0.1266605E+00
        -11   -1    0    0    0    0  0.00000000000E+00  0.00000000000E+00  0.45593999997E+02  0.45594000000E+02  0.51100000000E-03 0.  1.
         11   -1    0    0    0    0 -0.00000000000E+00 -0.00000000000E+00 -0.45593999997E+02  0.45594000000E+02  0.51100000000E-03 0. -1.
    9900012    2    1    2    0    0  0.56616308431E+01  0.10875980834E+02 -0.29434334410E+02  0.59301936194E+02  0.49999985713E+02 0.  0.
        -12    1    1    2    0    0 -0.56616308431E+01 -0.10875980834E+02  0.29434334410E+02  0.31886063806E+02  0.00000000000E+00 0.  1.
         11    1    3    3    0    0  0.20178157891E+01  0.86048216196E+01  0.91897567354E+01  0.12750143716E+02  0.51100000000E-03 0. -1.
        -11    1    3    3    0    0  0.36105087354E+00  0.53447176722E+01  0.19712840207E+01  0.57080929986E+01  0.51100000000E-03 0.  1.
         12    1    3    3    0    0  0.32827641805E+01 -0.30735584581E+01 -0.40595375166E+02  0.40843699479E+02  0.00000000000E+00 0. -1.
</event>
<event>
 7    1  0.1327607E-011  0.5930194E+02  0.7816164E-02  0.1266605E+00
        -11   -1    0    0    0    0  0.00000000000E+00  0.00000000000E+00  0.45593999997E+02  0.45594000000E+02  0.51100000000E-03 0.  1.
         11   -1    0    0    0    0 -0.00000000000E+00 -0.00000000000E+00 -0.45593999997E+02  0.45594000000E+02  0.51100000000E-03 0. -1.
    9900012    2    1    2    0    0 -0.13619069891E+02 -0.67516188655E+01 -0.28029575660E+02  0.59301944526E+02  0.50000000909E+02 0.  0.
        -12    1    1    2    0    0  0.13619069891E+02  0.67516188655E+01  0.28029575660E+02  0.31886055474E+02  0.00000000000E+00 0.  1.
         11    1    3    3    0    0 -0.81241653837E+01  0.12015255507E+02 -0.30940034455E+02  0.34170954924E+02  0.51100000000E-03 0. -1.
        -11    1    3    3    0    0 -0.10469967277E+02 -0.83071743592E+01  0.19797153775E+01  0.13511055986E+02  0.51100000000E-03 0.  1.
        -12    1    3    3    0    0  0.49750627701E+01 -0.10459700013E+02  0.93074341786E+00  0.11619933616E+02  0.00000000000E+00 0.  1.
</event>
<event>
 7    1  0.1327607E-011  0.5930195E+02  0.7816164E-02  0.1266605E+00
        -11   -1    0    0    0    0  0.00000000000E+00  0.00000000000E+00  0.45593999997E+02  0.45594000000E+02  0.51100000000E-03 0.  1.
         11   -1    0    0    0    0 -0.00000000000E+00 -0.00000000000E+00 -0.45593999997E+02  0.45594000000E+02  0.51100000000E-03 0. -1.
    9900012    2    1    2    0    0  0.15602547954E+02 -0.14810619961E+02 -0.23535636668E+02  0.59301950391E+02  0.50000011605E+02 0.  0.
        -12    1    1    2    0    0 -0.15602547954E+02  0.14810619961E+02  0.23535636668E+02  0.31886049609E+02  0.00000000000E+00 0.  1.
         11    1    3    3    0    0  0.10154238390E+01 -0.22002794989E+02 -0.20463937783E+00  0.22027163922E+02  0.51100000000E-03 0. -1.
        -11    1    3    3    0    0  0.66207324918E+01  0.94181988893E-01  0.41367983135E+01  0.78074368088E+01  0.51100000000E-03 0.  1.
         12    1    3    3    0    0  0.79663916237E+01  0.70979930392E+01 -0.27467795604E+02  0.29467349660E+02  0.00000000000E+00 0. -1.
</event>
<event>
 7    1  0.1327607E-011  0.5930195E+02  0.7816164E-02  0.1266605E+00
        -11   -1    0    0    0    0  0.00000000000E+00  0.00000000000E+00  0.45593999997E+02  0.45594000000E+02  0.51100000000E-03 0. -1.
         11   -1    0    0    0    0 -0.00000000000E+00 -0.00000000000E+00 -0.45593999997E+02  0.45594000000E+02  0.51100000000E-03 0.  1.
    9900012    2    1    2    0    0  0.30096285915E+02  0.96182761223E+01 -0.42921462289E+01  0.59301950062E+02  0.50000011005E+02 0.  0.
        -12    1    1    2    0    0 -0.30096285915E+02 -0.96182761223E+01  0.42921462289E+01  0.31886049938E+02  0.00000000000E+00 0.  1.
         11    1    3    3    0    0  0.35626596961E+01 -0.60603089960E+01  0.61679671744E+01  0.93522034068E+01  0.51100000000E-03 0. -1.
        -11    1    3    3    0    0  0.13148651283E+02  0.12246100419E+02  0.13374445288E+02  0.22399325728E+02  0.51100000000E-03 0.  1.
        -12    1    3    3    0    0  0.13384974936E+02  0.34324846990E+01 -0.23834558691E+02  0.27550420927E+02  0.00000000000E+00 0.  1.
</event>
<event>
 7    1  0.1327607E-011  0.5930195E+02  0.7816164E-02  0.1266605E+00
        -11   -1    0    0    0    0  0.00000000000E+00  0.00000000000E+00  0.45593999997E+02  0.45594000000E+02  0.51100000000E-03 0.  1.
         11   -1    0    0    0    0 -0.00000000000E+00 -0.00000000000E+00 -0.45593999997E+02  0.45594000000E+02  0.51100000000E-03 0. -1.
    9900012    2    1    2    0    0 -0.11603242134E+02 -0.28030462817E+02  0.98172436021E+01  0.59301947474E+02  0.50000006285E+02 0.  0.
        -12    1    1    2    0    0  0.11603242134E+02  0.28030462817E+02 -0.98172436021E+01  0.31886052526E+02  0.00000000000E+00 0.  1.
         11    1    3    3    0    0 -0.88875172267E+01 -0.57724205188E+01 -0.14985260715E+02  0.18353932550E+02  0.51100000000E-03 0. -1.
        -11    1    3    3    0    0 -0.34369320710E+01 -0.13309404320E+02 -0.84766193736E+00  0.13772119533E+02  0.51100000000E-03 0.  1.
        -12    1    3    3    0    0  0.72120716394E+00 -0.89486379787E+01  0.25650166254E+02  0.27175895391E+02  0.00000000000E+00 0.  1.
</event>
<event>
 7    1  0.1327607E-011  0.5930197E+02  0.7816164E-02  0.1266605E+00
        -11   -1    0    0    0    0  0.00000000000E+00  0.00000000000E+00  0.45593999997E+02  0.45594000000E+02  0.51100000000E-03 0.  1.
         11   -1    0    0    0    0 -0.00000000000E+00 -0.00000000000E+00 -0.45593999997E+02  0.45594000000E+02  0.51100000000E-03 0. -1.
    9900012    2    1    2    0    0  0.33671540227E+01 -0.28771535325E+02  0.13325923457E+02  0.59301965327E+02  0.50000038845E+02 0.  0.
        -12    1    1    2    0    0 -0.33671540227E+01  0.28771535325E+02 -0.13325923457E+02  0.31886034673E+02  0.00000000000E+00 0.  1.
         11    1    3    3    0    0  0.50106904807E+01  0.58804077788E+01 -0.17505572336E+01  0.79215317728E+01  0.51100000000E-03 0. -1.
        -11    1    3    3    0    0 -0.64328667282E+01 -0.10651020655E+00  0.15198724517E+02  0.16504373541E+02  0.51100000000E-03 0.  1.
         12    1    3    3    0    0  0.47893302702E+01 -0.34545432898E+02 -0.12224382671E+00  0.34876060014E+02  0.00000000000E+00 0. -1.
</event>
<event>
 7    1  0.1327607E-011  0.5930190E+02  0.7816164E-02  0.1266605E+00
        -11   -1    0    0    0    0  0.00000000000E+00  0.00000000000E+00  0.45593999997E+02  0.45594000000E+02  0.51100000000E-03 0. -1.
         11   -1    0    0    0    0 -0.00000000000E+00 -0.00000000000E+00 -0.45593999997E+02  0.45594000000E+02  0.51100000000E-03 0.  1.
    9900012    2    1    2    0    0  0.31194649437E+02 -0.44532458877E+01 -0.48770930703E+01  0.59301896612E+02  0.49999913526E+02 0.  0.
        -12    1    1    2    0    0 -0.31194649437E+02  0.44532458877E+01  0.48770930703E+01  0.31886103388E+02  0.00000000000E+00 0.  1.
         11    1    3    3    0    0  0.77279387959E+01 -0.51194366951E+01 -0.80487375449E+01  0.12276475326E+02  0.51100000000E-03 0. -1.
        -11    1    3    3    0    0 -0.89967078119E+01 -0.90459043863E+01 -0.13944631768E+01  0.12834082181E+02  0.51100000000E-03 0.  1.
         12    1    3    3    0    0  0.32463418453E+02  0.97120951937E+01  0.45661076513E+01  0.34191339105E+02  0.00000000000E+00 0. -1.
</event>
<event>
 7    1  0.1327607E-011  0.5930199E+02  0.7816164E-02  0.1266605E+00
        -11   -1    0    0    0    0  0.00000000000E+00  0.00000000000E+00  0.45593999997E+02  0.45594000000E+02  0.51100000000E-03 0. -1.
         11   -1    0    0    0    0 -0.00000000000E+00 -0.00000000000E+00 -0.45593999997E+02  0.45594000000E+02  0.51100000000E-03 0.  1.
    9900012    2    1    2    0    0 -0.14157297284E+02  0.22163526994E+02  0.18029606811E+02  0.59301988694E+02  0.50000081461E+02 0.  0.
        -12    1    1    2    0    0  0.14157297284E+02 -0.22163526994E+02 -0.18029606811E+02  0.31886011306E+02  0.00000000000E+00 0.  1.
         11    1    3    3    0    0 -0.25470465180E+02  0.14791835466E+01  0.10985055103E+02  0.27777761182E+02  0.51100000000E-03 0. -1.
        -11    1    3    3    0    0  0.40742105242E+00 -0.32640792689E+01  0.37752087596E+01  0.50072354476E+01  0.51100000000E-03 0.  1.
         12    1    3    3    0    0  0.10905746843E+02  0.23948422717E+02  0.32693429488E+01  0.26516992064E+02  0.00000000000E+00 0. -1.
</event>
<event>
 7    1  0.1327607E-011  0.5930195E+02  0.7816164E-02  0.1266605E+00
        -11   -1    0    0    0    0  0.00000000000E+00  0.00000000000E+00  0.45593999997E+02  0.45594000000E+02  0.51100000000E-03 0. -1.
         11   -1    0    0    0    0 -0.00000000000E+00 -0.00000000000E+00 -0.45593999997E+02  0.45594000000E+02  0.51100000000E-03 0.  1.
    9900012    2    1    2    0    0  0.22173300753E+01  0.23082574482E+00  0.31808028095E+02  0.59301945297E+02  0.50000002315E+02 0.  0.
        -12    1    1    2    0    0 -0.22173300753E+01 -0.23082574482E+00 -0.31808028095E+02  0.31886054703E+02  0.00000000000E+00 0.  1.
         11    1    3    3    0    0 -0.40512547920E+01  0.71981910401E+00  0.21572735592E+01  0.46459266462E+01  0.51100000000E-03 0. -1.
        -11    1    3    3    0    0 -0.21993062809E+01 -0.20661280193E+02  0.43867691648E+01  0.21236035206E+02  0.51100000000E-03 0.  1.
         12    1    3    3    0    0  0.84678911482E+01  0.20172286834E+02  0.25263985371E+02  0.33419983445E+02  0.00000000000E+00 0. -1.
</event>
<event>
 7    1  0.1327607E-011  0.5930193E+02  0.7816164E-02  0.1266605E+00
        -11   -1    0    0    0    0  0.00000000000E+00  0.00000000000E+00  0.45593999997E+02  0.45594000000E+02  0.51100000000E-03 0. -1.
         11   -1    0    0    0    0 -0.00000000000E+00 -0.00000000000E+00 -0.45593999997E+02  0.45594000000E+02  0.51100000000E-03 0.  1.
    9900012    2    1    2    0    0  0.11257590786E+02  0.28820727430E+02  0.77041538379E+01  0.59301926767E+02  0.49999968520E+02 0.  0.
        -12    1    1    2    0    0 -0.11257590786E+02 -0.28820727430E+02 -0.77041538379E+01  0.31886073233E+02  0.00000000000E+00 0.  1.
         11    1    3    3    0    0 -0.11165263477E+01  0.18854935393E+02 -0.42020705218E+00  0.18892638619E+02  0.51100000000E-03 0. -1.
        -11    1    3    3    0    0 -0.11808971615E+02  0.49308914454E+01 -0.32670181643E+01  0.13207532282E+02  0.51100000000E-03 0.  1.
        -12    1    3    3    0    0  0.24183088748E+02  0.50349005912E+01  0.11391379054E+02  0.27201755865E+02  0.00000000000E+00 0.  1.
</event>
<event>
 7    1  0.1327607E-011  0.5930194E+02  0.7816164E-02  0.1266605E+00
        -11   -1    0    0    0    0  0.00000000000E+00  0.00000000000E+00  0.45593999997E+02  0.45594000000E+02  0.51100000000E-03 0. -1.
         11   -1    0    0    0    0 -0.00000000000E+00 -0.00000000000E+00 -0.45593999997E+02  0.45594000000E+02  0.51100000000E-03 0.  1.
    9900012    2    1    2    0    0 -0.33866233725E+01  0.25265546756E+02  0.19154731324E+02  0.59301940305E+02  0.49999993211E+02 0.  0.
        -12    1    1    2    0    0  0.33866233725E+01 -0.25265546756E+02 -0.19154731324E+02  0.31886059695E+02  0.00000000000E+00 0.  1.
         11    1    3    3    0    0  0.73770287731E+01  0.71479704179E+01 -0.77753631974E+01  0.12882946392E+02  0.51100000000E-03 0. -1.
        -11    1    3    3    0    0 -0.15002180772E+02 -0.37425410842E+01  0.12525765260E+02  0.19898915480E+02  0.51100000000E-03 0.  1.
         12    1    3    3    0    0  0.42385286268E+01  0.21860117423E+02  0.14404329261E+02  0.26520078433E+02  0.00000000000E+00 0. -1.
</event>
<event>
 7    1  0.1327607E-011  0.5930195E+02  0.7816164E-02  0.1266605E+00
        -11   -1    0    0    0    0  0.00000000000E+00  0.00000000000E+00  0.45593999997E+02  0.45594000000E+02  0.51100000000E-03 0.  1.
         11   -1    0    0    0    0 -0.00000000000E+00 -0.00000000000E+00 -0.45593999997E+02  0.45594000000E+02  0.51100000000E-03 0. -1.
    9900012    2    1    2    0    0 -0.17873080738E+02 -0.16916650240E+02 -0.20275607161E+02  0.59301947937E+02  0.50000007129E+02 0.  0.
        -12    1    1    2    0    0  0.17873080738E+02  0.16916650240E+02  0.20275607161E+02  0.31886052063E+02  0.00000000000E+00 0.  1.
         11    1    3    3    0    0 -0.45324477113E+01 -0.93242443757E+01 -0.22384040741E+00  0.10369894899E+02  0.51100000000E-03 0. -1.
        -11    1    3    3    0    0 -0.25288271262E+02  0.45728159101E+01 -0.18788654387E+02  0.31834271512E+02  0.51100000000E-03 0.  1.
         12    1    3    3    0    0  0.11947638235E+02 -0.12165221775E+02 -0.12631123671E+01  0.17097781525E+02  0.00000000000E+00 0. -1.
</event>
<event>
 7    1  0.1327607E-011  0.5930198E+02  0.7816164E-02  0.1266605E+00
        -11   -1    0    0    0    0  0.00000000000E+00  0.00000000000E+00  0.45593999997E+02  0.45594000000E+02  0.51100000000E-03 0. -1.
         11   -1    0    0    0    0 -0.00000000000E+00 -0.00000000000E+00 -0.45593999997E+02  0.45594000000E+02  0.51100000000E-03 0.  1.
    9900012    2    1    2    0    0  0.64157766397E+01  0.26302564487E+02  0.16844321003E+02  0.59301980516E+02  0.50000066545E+02 0.  0.
        -12    1    1    2    0    0 -0.64157766397E+01 -0.26302564487E+02 -0.16844321003E+02  0.31886019484E+02  0.00000000000E+00 0.  1.
         11    1    3    3    0    0  0.47222497106E+01 -0.10652503746E+02  0.99609566709E+01  0.15329583701E+02  0.51100000000E-03 0. -1.
        -11    1    3    3    0    0  0.10712745734E+01 -0.24465703991E+01  0.35256272391E+01  0.44230513924E+01  0.51100000000E-03 0.  1.
         12    1    3    3    0    0  0.62225235564E+00  0.39401638633E+02  0.33577370931E+01  0.39549345422E+02  0.00000000000E+00 0. -1.
</event>
<event>
 7    1  0.1327607E-011  0.5930194E+02  0.7816164E-02  0.1266605E+00
        -11   -1    0    0    0    0  0.00000000000E+00  0.00000000000E+00  0.45593999997E+02  0.45594000000E+02  0.51100000000E-03 0.  1.
         11   -1    0    0    0    0 -0.00000000000E+00 -0.00000000000E+00 -0.45593999997E+02  0.45594000000E+02  0.51100000000E-03 0. -1.
    9900012    2    1    2    0    0  0.16084634426E+02  0.11766698957E+02  0.24890759093E+02  0.59301944157E+02  0.50000000236E+02 0.  0.
        -12    1    1    2    0    0 -0.16084634426E+02 -0.11766698957E+02 -0.24890759093E+02  0.31886055843E+02  0.00000000000E+00 0.  1.
         11    1    3    3    0    0  0.34935726579E+01 -0.11937451286E+01  0.26384253127E+02  0.26641300469E+02  0.51100000000E-03 0. -1.
        -11    1    3    3    0    0 -0.87421316853E+00  0.17746740217E+00  0.10512590855E+02  0.10550370140E+02  0.51100000000E-03 0.  1.
         12    1    3    3    0    0  0.13465274937E+02  0.12782976683E+02 -0.12006084889E+02  0.22110273548E+02  0.00000000000E+00 0. -1.
</event>
<event>
 7    1  0.1327607E-011  0.5930194E+02  0.7816164E-02  0.1266605E+00
        -11   -1    0    0    0    0  0.00000000000E+00  0.00000000000E+00  0.45593999997E+02  0.45594000000E+02  0.51100000000E-03 0. -1.
         11   -1    0    0    0    0 -0.00000000000E+00 -0.00000000000E+00 -0.45593999997E+02  0.45594000000E+02  0.51100000000E-03 0.  1.
    9900012    2    1    2    0    0  0.16078653964E+02  0.12014193811E+02  0.24776136973E+02  0.59301938319E+02  0.49999989589E+02 0.  0.
        -12    1    1    2    0    0 -0.16078653964E+02 -0.12014193811E+02 -0.24776136973E+02  0.31886061681E+02  0.00000000000E+00 0.  1.
         11    1    3    3    0    0  0.17776715266E+00  0.16112777631E+02  0.14172087311E+02  0.21459293165E+02  0.51100000000E-03 0. -1.
        -11    1    3    3    0    0 -0.85726371948E+01 -0.44280203533E-01  0.98029141842E+01  0.13022641666E+02  0.51100000000E-03 0.  1.
        -12    1    3    3    0    0  0.24473524006E+02 -0.40543036163E+01  0.80113547854E+00  0.24820003488E+02  0.00000000000E+00 0.  1.
</event>
<event>
 7    1  0.1327607E-011  0.5930208E+02  0.7816164E-02  0.1266604E+00
        -11   -1    0    0    0    0  0.00000000000E+00  0.00000000000E+00  0.45593999997E+02  0.45594000000E+02  0.51100000000E-03 0. -1.
         11   -1    0    0    0    0 -0.00000000000E+00 -0.00000000000E+00 -0.45593999997E+02  0.45594000000E+02  0.51100000000E-03 0.  1.
    9900012    2    1    2    0    0 -0.10178715268E+02  0.10754411362E+02  0.28239123105E+02  0.59302083328E+02  0.50000254051E+02 0.  0.
        -12    1    1    2    0    0  0.10178715268E+02 -0.10754411362E+02 -0.28239123105E+02  0.31885916672E+02  0.00000000000E+00 0.  1.
         11    1    3    3    0    0  0.10939235183E+02  0.86902667268E+01  0.15988810459E+02  0.21232749759E+02  0.51100000000E-03 0. -1.
        -11    1    3    3    0    0  0.64951695388E+01  0.50667365343E+01  0.34702585762E+01  0.89387773936E+01  0.51100000000E-03 0.  1.
        -12    1    3    3    0    0 -0.27613119989E+02 -0.30025918988E+01  0.87800540701E+01  0.29130556176E+02  0.00000000000E+00 0.  1.
</event>
<event>
 7    1  0.1327607E-011  0.5930195E+02  0.7816164E-02  0.1266605E+00
        -11   -1    0    0    0    0  0.00000000000E+00  0.00000000000E+00  0.45593999997E+02  0.45594000000E+02  0.51100000000E-03 0. -1.
         11   -1    0    0    0    0 -0.00000000000E+00 -0.00000000000E+00 -0.45593999997E+02  0.45594000000E+02  0.51100000000E-03 0.  1.
    9900012    2    1    2    0    0  0.31327969008E+02 -0.46656618734E+01  0.36756248036E+01  0.59301948809E+02  0.50000008720E+02 0.  0.
        -12    1    1    2    0    0 -0.31327969008E+02  0.46656618734E+01 -0.36756248036E+01  0.31886051191E+02  0.00000000000E+00 0.  1.
         11    1    3    3    0    0  0.17616841620E+02  0.96281356196E+01  0.25953531563E+01  0.20243269559E+02  0.51100000000E-03 0. -1.
        -11    1    3    3    0    0  0.43534894476E+01 -0.13507492507E+01 -0.15428963515E+02  0.16088204042E+02  0.51100000000E-03 0.  1.
         12    1    3    3    0    0  0.93576379399E+01 -0.12943048242E+02  0.16509235162E+02  0.22970475207E+02  0.00000000000E+00 0. -1.
</event>
<event>
 7    1  0.1327607E-011  0.5930194E+02  0.7816164E-02  0.1266605E+00
        -11   -1    0    0    0    0  0.00000000000E+00  0.00000000000E+00  0.45593999997E+02  0.45594000000E+02  0.51100000000E-03 0.  1.
         11   -1    0    0    0    0 -0.00000000000E+00 -0.00000000000E+00 -0.45593999997E+02  0.45594000000E+02  0.51100000000E-03 0. -1.
    9900012    2    1    2    0    0 -0.56581046868E+01 -0.30049662776E+02 -0.90401522701E+01  0.59301941374E+02  0.49999995161E+02 0.  0.
        -12    1    1    2    0    0  0.56581046868E+01  0.30049662776E+02  0.90401522701E+01  0.31886058626E+02  0.00000000000E+00 0.  1.
         11    1    3    3    0    0 -0.79202648088E+01 -0.74958001341E+01  0.15281529624E+02  0.18773458983E+02  0.51100000000E-03 0. -1.
        -11    1    3    3    0    0  0.66387606540E+00  0.31800195176E+00  0.40127219787E+01  0.40796806997E+01  0.51100000000E-03 0.  1.
         12    1    3    3    0    0  0.15982840566E+01 -0.22871864594E+02 -0.28334403873E+02  0.36448801691E+02  0.00000000000E+00 0. -1.
</event>
<event>
 7    1  0.1327607E-011  0.5930193E+02  0.7816164E-02  0.1266605E+00
        -11   -1    0    0    0    0  0.00000000000E+00  0.00000000000E+00  0.45593999997E+02  0.45594000000E+02  0.51100000000E-03 0. -1.
         11   -1    0    0    0    0 -0.00000000000E+00 -0.00000000000E+00 -0.45593999997E+02  0.45594000000E+02  0.51100000000E-03 0.  1.
    9900012    2    1    2    0    0 -0.27117717015E+02  0.92644536312E+01  0.13982867234E+02  0.59301933242E+02  0.49999980330E+02 0.  0.
        -12    1    1    2    0    0  0.27117717015E+02 -0.92644536312E+01 -0.13982867234E+02  0.31886066758E+02  0.00000000000E+00 0.  1.
         11    1    3    3    0    0  0.17676279603E+01  0.74937632236E+01  0.10178995212E+02  0.12762951839E+02  0.51100000000E-03 0. -1.
        -11    1    3    3    0    0 -0.18053089441E+02  0.62163937434E+01  0.19278718029E+02  0.27133495142E+02  0.51100000000E-03 0.  1.
        -12    1    3    3    0    0 -0.10832255534E+02 -0.44457033358E+01 -0.15474846007E+02  0.19405486262E+02  0.00000000000E+00 0.  1.
</event>
<event>
 7    1  0.1327607E-011  0.5930192E+02  0.7816164E-02  0.1266605E+00
        -11   -1    0    0    0    0  0.00000000000E+00  0.00000000000E+00  0.45593999997E+02  0.45594000000E+02  0.51100000000E-03 0.  1.
         11   -1    0    0    0    0 -0.00000000000E+00 -0.00000000000E+00 -0.45593999997E+02  0.45594000000E+02  0.51100000000E-03 0. -1.
    9900012    2    1    2    0    0 -0.30871828574E+02  0.42887504145E+01 -0.67274655574E+01  0.59301921965E+02  0.49999959763E+02 0.  0.
        -12    1    1    2    0    0  0.30871828574E+02 -0.42887504145E+01  0.67274655574E+01  0.31886078035E+02  0.00000000000E+00 0.  1.
         11    1    3    3    0    0 -0.10341557281E+02  0.23441506646E+00  0.10338736090E+02  0.14625054585E+02  0.51100000000E-03 0. -1.
        -11    1    3    3    0    0 -0.12687161744E+02  0.96086555509E+01  0.80135565900E+01  0.17818738005E+02  0.51100000000E-03 0.  1.
         12    1    3    3    0    0 -0.78431095488E+01 -0.55543202028E+01 -0.25079758237E+02  0.26858129375E+02  0.00000000000E+00 0. -1.
</event>
<event>
 7    1  0.1327607E-011  0.5930194E+02  0.7816164E-02  0.1266605E+00
        -11   -1    0    0    0    0  0.00000000000E+00  0.00000000000E+00  0.45593999997E+02  0.45594000000E+02  0.51100000000E-03 0.  1.
         11   -1    0    0    0    0 -0.00000000000E+00 -0.00000000000E+00 -0.45593999997E+02  0.45594000000E+02  0.51100000000E-03 0. -1.
    9900012    2    1    2    0    0  0.17489914196E+02  0.99743505798E+01 -0.24725216699E+02  0.59301935507E+02  0.49999984460E+02 0.  0.
        -12    1    1    2    0    0 -0.17489914196E+02 -0.99743505798E+01  0.24725216699E+02  0.31886064493E+02  0.00000000000E+00 0.  1.
         11    1    3    3    0    0 -0.63348359186E+01  0.91852035286E+01 -0.13825470426E+02  0.17766309204E+02  0.51100000000E-03 0. -1.
        -11    1    3    3    0    0 -0.50736820423E+01  0.32634029560E+01  0.55450444499E+01  0.81938737195E+01  0.51100000000E-03 0.  1.
         12    1    3    3    0    0  0.28898432157E+02 -0.24742559048E+01 -0.16444790723E+02  0.33341752583E+02  0.00000000000E+00 0. -1.
</event>
<event>
 7    1  0.1327607E-011  0.5930193E+02  0.7816164E-02  0.1266605E+00
        -11   -1    0    0    0    0  0.00000000000E+00  0.00000000000E+00  0.45593999997E+02  0.45594000000E+02  0.51100000000E-03 0. -1.
         11   -1    0    0    0    0 -0.00000000000E+00 -0.00000000000E+00 -0.45593999997E+02  0.45594000000E+02  0.51100000000E-03 0.  1.
    9900012    2    1    2    0    0 -0.29971596235E+02 -0.60843783214E+01  0.90224705919E+01  0.59301933827E+02  0.49999981396E+02 0.  0.
        -12    1    1    2    0    0  0.29971596235E+02  0.60843783214E+01 -0.90224705919E+01  0.31886066173E+02  0.00000000000E+00 0.  1.
         11    1    3    3    0    0 -0.69881327048E+01 -0.52894513661E+01 -0.10484345802E+02  0.13665057688E+02  0.51100000000E-03 0.  1.
        -11    1    3    3    0    0 -0.21766930725E+02  0.14211934376E+01 -0.38441881167E+01  0.22149420906E+02  0.51100000000E-03 0. -1.
         12    1    3    3    0    0 -0.12165328054E+01 -0.22161203929E+01  0.23351004510E+02  0.23487455233E+02  0.00000000000E+00 0. -1.
</event>
<event>
 7    1  0.1327607E-011  0.5930194E+02  0.7816164E-02  0.1266605E+00
        -11   -1    0    0    0    0  0.00000000000E+00  0.00000000000E+00  0.45593999997E+02  0.45594000000E+02  0.51100000000E-03 0.  1.
         11   -1    0    0    0    0 -0.00000000000E+00 -0.00000000000E+00 -0.45593999997E+02  0.45594000000E+02  0.51100000000E-03 0. -1.
    9900012    2    1    2    0    0 -0.11248699573E+02  0.27793530765E+02  0.10849290459E+02  0.59301941951E+02  0.49999996212E+02 0.  0.
        -12    1    1    2    0    0  0.11248699573E+02 -0.27793530765E+02 -0.10849290459E+02  0.31886058049E+02  0.00000000000E+00 0.  1.
         11    1    3    3    0    0 -0.76318842342E+01  0.16267845760E+02  0.50155780561E+00  0.17976095881E+02  0.51100000000E-03 0. -1.
        -11    1    3    3    0    0 -0.19709953408E+02  0.13361128326E+02  0.62044065371E+01  0.24606842021E+02  0.51100000000E-03 0.  1.
        -12    1    3    3    0    0  0.16093138069E+02 -0.18354433209E+01  0.41433261160E+01  0.16719004050E+02  0.00000000000E+00 0.  1.
</event>
<event>
 7    1  0.1327607E-011  0.5930196E+02  0.7816164E-02  0.1266605E+00
        -11   -1    0    0    0    0  0.00000000000E+00  0.00000000000E+00  0.45593999997E+02  0.45594000000E+02  0.51100000000E-03 0. -1.
         11   -1    0    0    0    0 -0.00000000000E+00 -0.00000000000E+00 -0.45593999997E+02  0.45594000000E+02  0.51100000000E-03 0.  1.
    9900012    2    1    2    0    0  0.22616457394E+02 -0.11602679040E+02 -0.19250801617E+02  0.59301958088E+02  0.50000025642E+02 0.  0.
        -12    1    1    2    0    0 -0.22616457394E+02  0.11602679040E+02  0.19250801617E+02  0.31886041912E+02  0.00000000000E+00 0.  1.
         11    1    3    3    0    0  0.52475025292E+01  0.75012525972E+01 -0.13892601066E+01  0.92593259596E+01  0.51100000000E-03 0. -1.
        -11    1    3    3    0    0 -0.68441615380E+01 -0.27992010115E+01 -0.19450180474E+02  0.20808353952E+02  0.51100000000E-03 0.  1.
        -12    1    3    3    0    0  0.24213116403E+02 -0.16304730626E+02  0.15886389637E+01  0.29234278176E+02  0.00000000000E+00 0.  1.
</event>
<event>
 7    1  0.1327607E-011  0.5930212E+02  0.7816164E-02  0.1266604E+00
        -11   -1    0    0    0    0  0.00000000000E+00  0.00000000000E+00  0.45593999997E+02  0.45594000000E+02  0.51100000000E-03 0.  1.
         11   -1    0    0    0    0 -0.00000000000E+00 -0.00000000000E+00 -0.45593999997E+02  0.45594000000E+02  0.51100000000E-03 0. -1.
    9900012    2    1    2    0    0  0.39244508826E+01 -0.12214655207E+02 -0.29190929079E+02  0.59302118218E+02  0.50000317680E+02 0.  0.
        -12    1    1    2    0    0 -0.39244508826E+01  0.12214655207E+02  0.29190929079E+02  0.31885881782E+02  0.00000000000E+00 0.  1.
         11    1    3    3    0    0  0.15309181339E+02  0.39937433885E+01 -0.86800854856E+01  0.18046188069E+02  0.51100000000E-03 0.  1.
        -11    1    3    3    0    0  0.36634675506E+01 -0.29920173042E+00 -0.18948396822E+02  0.19301612849E+02  0.51100000000E-03 0. -1.
         12    1    3    3    0    0 -0.15048198007E+02 -0.15909196865E+02 -0.15624467707E+01  0.21954317299E+02  0.00000000000E+00 0. -1.
</event>
<event>
 7    1  0.1327607E-011  0.5930190E+02  0.7816164E-02  0.1266605E+00
        -11   -1    0    0    0    0  0.00000000000E+00  0.00000000000E+00  0.45593999997E+02  0.45594000000E+02  0.51100000000E-03 0.  1.
         11   -1    0    0    0    0 -0.00000000000E+00 -0.00000000000E+00 -0.45593999997E+02  0.45594000000E+02  0.51100000000E-03 0. -1.
    9900012    2    1    2    0    0  0.15396366222E+01  0.28434239343E+02 -0.14347375060E+02  0.59301896145E+02  0.49999912673E+02 0.  0.
        -12    1    1    2    0    0 -0.15396366222E+01 -0.28434239343E+02  0.14347375060E+02  0.31886103855E+02  0.00000000000E+00 0.  1.
         11    1    3    3    0    0 -0.16906066142E+01  0.30063716102E+02  0.87936930905E+01  0.31369000861E+02  0.51100000000E-03 0. -1.
        -11    1    3    3    0    0 -0.23907435437E+01  0.25984074400E+01  0.21823920419E+00  0.35376552301E+01  0.51100000000E-03 0.  1.
         12    1    3    3    0    0  0.56209867801E+01 -0.42278841992E+01 -0.23359307355E+02  0.24395240054E+02  0.00000000000E+00 0. -1.
</event>
<event>
 7    1  0.1327607E-011  0.5930196E+02  0.7816164E-02  0.1266605E+00
        -11   -1    0    0    0    0  0.00000000000E+00  0.00000000000E+00  0.45593999997E+02  0.45594000000E+02  0.51100000000E-03 0. -1.
         11   -1    0    0    0    0 -0.00000000000E+00 -0.00000000000E+00 -0.45593999997E+02  0.45594000000E+02  0.51100000000E-03 0.  1.
    9900012    2    1    2    0    0 -0.98257722508E+01 -0.11084695421E+01  0.30314110285E+02  0.59301956228E+02  0.50000022250E+02 0.  0.
        -12    1    1    2    0    0  0.98257722508E+01  0.11084695421E+01 -0.30314110285E+02  0.31886043772E+02  0.00000000000E+00 0.  1.
         11    1    3    3    0    0 -0.14304629218E+02  0.31663083605E+01  0.92054702588E+01  0.17302849726E+02  0.51100000000E-03 0.  1.
        -11    1    3    3    0    0  0.85972259241E+01 -0.15176242679E+02 -0.49895049453E+00  0.17449343463E+02  0.51100000000E-03 0. -1.
         12    1    3    3    0    0 -0.41183689570E+01  0.10901464776E+02  0.21607590521E+02  0.24549763039E+02  0.00000000000E+00 0. -1.
</event>
<event>
 7    1  0.1327607E-011  0.5930196E+02  0.7816164E-02  0.1266605E+00
        -11   -1    0    0    0    0  0.00000000000E+00  0.00000000000E+00  0.45593999997E+02  0.45594000000E+02  0.51100000000E-03 0. -1.
         11   -1    0    0    0    0 -0.00000000000E+00 -0.00000000000E+00 -0.45593999997E+02  0.45594000000E+02  0.51100000000E-03 0.  1.
    9900012    2    1    2    0    0 -0.14355710801E+02  0.26459606470E+02 -0.10512958071E+02  0.59301960821E+02  0.50000030626E+02 0.  0.
        -12    1    1    2    0    0  0.14355710801E+02 -0.26459606470E+02  0.10512958071E+02  0.31886039179E+02  0.00000000000E+00 0.  1.
         11    1    3    3    0    0 -0.71105174135E+01  0.47011521821E+01  0.81404257534E+01  0.11786722251E+02  0.51100000000E-03 0. -1.
        -11    1    3    3    0    0 -0.20657002281E+02  0.63115790366E+01 -0.16014515455E+02  0.26888891363E+02  0.51100000000E-03 0.  1.
        -12    1    3    3    0    0  0.13411808893E+02  0.15446875251E+02 -0.26388683690E+01  0.20626347207E+02  0.00000000000E+00 0.  1.
</event>
<event>
 7    1  0.1327607E-011  0.5930194E+02  0.7816164E-02  0.1266605E+00
        -11   -1    0    0    0    0  0.00000000000E+00  0.00000000000E+00  0.45593999997E+02  0.45594000000E+02  0.51100000000E-03 0.  1.
         11   -1    0    0    0    0 -0.00000000000E+00 -0.00000000000E+00 -0.45593999997E+02  0.45594000000E+02  0.51100000000E-03 0. -1.
    9900012    2    1    2    0    0 -0.28040678719E+02 -0.13804340451E+02 -0.63151499081E+01  0.59301943538E+02  0.49999999107E+02 0.  0.
        -12    1    1    2    0    0  0.28040678719E+02  0.13804340451E+02  0.63151499081E+01  0.31886056462E+02  0.00000000000E+00 0.  1.
         11    1    3    3    0    0 -0.50226013870E+01 -0.10527619263E+02 -0.16878618398E+02  0.20516945468E+02  0.51100000000E-03 0. -1.
        -11    1    3    3    0    0 -0.13514899380E+01 -0.10681437344E+02 -0.41826238766E+01  0.11550496593E+02  0.51100000000E-03 0.  1.
         12    1    3    3    0    0 -0.21666587394E+02  0.74047161558E+01  0.14746092367E+02  0.27234501478E+02  0.00000000000E+00 0. -1.
</event>
<event>
 7    1  0.1327607E-011  0.5930203E+02  0.7816164E-02  0.1266604E+00
        -11   -1    0    0    0    0  0.00000000000E+00  0.00000000000E+00  0.45593999997E+02  0.45594000000E+02  0.51100000000E-03 0. -1.
         11   -1    0    0    0    0 -0.00000000000E+00 -0.00000000000E+00 -0.45593999997E+02  0.45594000000E+02  0.51100000000E-03 0.  1.
    9900012    2    1    2    0    0 -0.12647978994E+02  0.29263887071E+02 -0.60700742494E+00  0.59302032599E+02  0.50000161532E+02 0.  0.
        -12    1    1    2    0    0  0.12647978994E+02 -0.29263887071E+02  0.60700742494E+00  0.31885967401E+02  0.00000000000E+00 0.  1.
         11    1    3    3    0    0 -0.73918392953E+01  0.77646685402E+01  0.23979456338E+01  0.10985422579E+02  0.51100000000E-03 0. -1.
        -11    1    3    3    0    0 -0.13517124983E+02  0.31409461208E+02  0.25078051724E+01  0.34286382256E+02  0.51100000000E-03 0.  1.
        -12    1    3    3    0    0  0.82609852840E+01 -0.99102426776E+01 -0.55127582312E+01  0.14030227764E+02  0.00000000000E+00 0.  1.
</event>
<event>
 7    1  0.1327607E-011  0.5930194E+02  0.7816164E-02  0.1266605E+00
        -11   -1    0    0    0    0  0.00000000000E+00  0.00000000000E+00  0.45593999997E+02  0.45594000000E+02  0.51100000000E-03 0.  1.
         11   -1    0    0    0    0 -0.00000000000E+00 -0.00000000000E+00 -0.45593999997E+02  0.45594000000E+02  0.51100000000E-03 0. -1.
    9900012    2    1    2    0    0  0.22334774616E+02  0.22672376960E+02  0.19601555316E+01  0.59301936526E+02  0.49999986318E+02 0.  0.
        -12    1    1    2    0    0 -0.22334774616E+02 -0.22672376960E+02 -0.19601555316E+01  0.31886063474E+02  0.00000000000E+00 0.  1.
         11    1    3    3    0    0  0.23862273850E+02  0.20885034751E+02  0.79376428804E+01  0.32689432002E+02  0.51100000000E-03 0. -1.
        -11    1    3    3    0    0  0.88205194906E+01  0.67319056278E+01 -0.95083453951E+01  0.14612622964E+02  0.51100000000E-03 0.  1.
        -12    1    3    3    0    0 -0.10348018724E+02 -0.49445634193E+01  0.35308580463E+01  0.11999881560E+02  0.00000000000E+00 0.  1.
</event>
<event>
 7    1  0.1327607E-011  0.5930176E+02  0.7816164E-02  0.1266605E+00
        -11   -1    0    0    0    0  0.00000000000E+00  0.00000000000E+00  0.45593999997E+02  0.45594000000E+02  0.51100000000E-03 0. -1.
         11   -1    0    0    0    0 -0.00000000000E+00 -0.00000000000E+00 -0.45593999997E+02  0.45594000000E+02  0.51100000000E-03 0.  1.
    9900012    2    1    2    0    0 -0.41140015570E+00 -0.20221546947E+02  0.24650596979E+02  0.59301762492E+02  0.49999668921E+02 0.  0.
        -12    1    1    2    0    0  0.41140015570E+00  0.20221546947E+02 -0.24650596979E+02  0.31886237508E+02  0.00000000000E+00 0.  1.
         11    1    3    3    0    0  0.28401071872E+01  0.11119404467E+02 -0.10583570124E+01  0.11525080666E+02  0.51100000000E-03 0. -1.
        -11    1    3    3    0    0 -0.18596245360E+01  0.16940937808E+01 -0.30510931346E+01  0.39544059895E+01  0.51100000000E-03 0.  1.
         12    1    3    3    0    0 -0.13918828069E+01 -0.33035045195E+02  0.28760047126E+02  0.43822275836E+02  0.00000000000E+00 0. -1.
</event>
<event>
 7    1  0.1327607E-011  0.5930195E+02  0.7816164E-02  0.1266605E+00
        -11   -1    0    0    0    0  0.00000000000E+00  0.00000000000E+00  0.45593999997E+02  0.45594000000E+02  0.51100000000E-03 0.  1.
         11   -1    0    0    0    0 -0.00000000000E+00 -0.00000000000E+00 -0.45593999997E+02  0.45594000000E+02  0.51100000000E-03 0. -1.
    9900012    2    1    2    0    0 -0.57800212965E+01  0.95103284031E+01 -0.29880846540E+02  0.59301953169E+02  0.50000016672E+02 0.  0.
        -12    1    1    2    0    0  0.57800212965E+01 -0.95103284031E+01  0.29880846540E+02  0.31886046831E+02  0.00000000000E+00 0.  1.
         11    1    3    3    0    0 -0.57399910195E+01  0.16191060928E+01  0.81742719362E+00  0.60197332933E+01  0.51100000000E-03 0. -1.
        -11    1    3    3    0    0 -0.15521637765E+02 -0.86489928515E+01 -0.39015209958E+01  0.18191981272E+02  0.51100000000E-03 0.  1.
         12    1    3    3    0    0  0.15481607488E+02  0.16540215162E+02 -0.26796752738E+02  0.35090238604E+02  0.00000000000E+00 0. -1.
</event>
<event>
 7    1  0.1327607E-011  0.5930194E+02  0.7816164E-02  0.1266605E+00
        -11   -1    0    0    0    0  0.00000000000E+00  0.00000000000E+00  0.45593999997E+02  0.45594000000E+02  0.51100000000E-03 0.  1.
         11   -1    0    0    0    0 -0.00000000000E+00 -0.00000000000E+00 -0.45593999997E+02  0.45594000000E+02  0.51100000000E-03 0. -1.
    9900012    2    1    2    0    0 -0.11067700631E+02 -0.14776532640E+02 -0.25997704951E+02  0.59301943850E+02  0.49999999675E+02 0.  0.
        -12    1    1    2    0    0  0.11067700631E+02  0.14776532640E+02  0.25997704951E+02  0.31886056150E+02  0.00000000000E+00 0.  1.
         11    1    3    3    0    0 -0.55049196595E+01 -0.19955772811E+02 -0.20004985290E+02  0.28787782924E+02  0.51100000000E-03 0. -1.
        -11    1    3    3    0    0  0.22792499518E-01  0.12407416716E+01 -0.17277013695E+02  0.17321523082E+02  0.51100000000E-03 0.  1.
         12    1    3    3    0    0 -0.55855734710E+01  0.39384985000E+01  0.11284294034E+02  0.13192637844E+02  0.00000000000E+00 0. -1.
</event>
<event>
 7    1  0.1327607E-011  0.5930193E+02  0.7816164E-02  0.1266605E+00
        -11   -1    0    0    0    0  0.00000000000E+00  0.00000000000E+00  0.45593999997E+02  0.45594000000E+02  0.51100000000E-03 0.  1.
         11   -1    0    0    0    0 -0.00000000000E+00 -0.00000000000E+00 -0.45593999997E+02  0.45594000000E+02  0.51100000000E-03 0. -1.
    9900012    2    1    2    0    0  0.12567106741E+02  0.60962874712E+01 -0.28663991877E+02  0.59301932148E+02  0.49999978334E+02 0.  0.
        -12    1    1    2    0    0 -0.12567106741E+02 -0.60962874712E+01  0.28663991877E+02  0.31886067852E+02  0.00000000000E+00 0.  1.
         11    1    3    3    0    0 -0.21318204215E+00  0.19823027142E+02 -0.11663922149E+02  0.23000976758E+02  0.51100000000E-03 0. -1.
        -11    1    3    3    0    0  0.84233242041E+01 -0.46108068069E+01  0.59004458647E+01  0.11270634043E+02  0.51100000000E-03 0.  1.
        -12    1    3    3    0    0  0.43569645787E+01 -0.91159328642E+01 -0.22900515593E+02  0.25030321347E+02  0.00000000000E+00 0.  1.
</event>
<event>
 7    1  0.1327607E-011  0.5930194E+02  0.7816164E-02  0.1266605E+00
        -11   -1    0    0    0    0  0.00000000000E+00  0.00000000000E+00  0.45593999997E+02  0.45594000000E+02  0.51100000000E-03 0.  1.
         11   -1    0    0    0    0 -0.00000000000E+00 -0.00000000000E+00 -0.45593999997E+02  0.45594000000E+02  0.51100000000E-03 0. -1.
    9900012    2    1    2    0    0 -0.44153745211E+01 -0.15185828909E+02 -0.27687831893E+02  0.59301937735E+02  0.49999988524E+02 0.  0.
        -12    1    1    2    0    0  0.44153745211E+01  0.15185828909E+02  0.27687831893E+02  0.31886062265E+02  0.00000000000E+00 0.  1.
         11    1    3    3    0    0  0.67476886211E+01 -0.59152878403E+01 -0.31769298062E+01  0.95191814362E+01  0.51100000000E-03 0. -1.
        -11    1    3    3    0    0 -0.14975679073E+02 -0.21028608101E+02 -0.44168568147E+01  0.26191257067E+02  0.51100000000E-03 0.  1.
         12    1    3    3    0    0  0.38126159312E+01  0.11758067033E+02 -0.20094045273E+02  0.23591499232E+02  0.00000000000E+00 0. -1.
</event>
<event>
 7    1  0.1327607E-011  0.5930195E+02  0.7816164E-02  0.1266605E+00
        -11   -1    0    0    0    0  0.00000000000E+00  0.00000000000E+00  0.45593999997E+02  0.45594000000E+02  0.51100000000E-03 0.  1.
         11   -1    0    0    0    0 -0.00000000000E+00 -0.00000000000E+00 -0.45593999997E+02  0.45594000000E+02  0.51100000000E-03 0. -1.
    9900012    2    1    2    0    0 -0.16326477305E+02 -0.54868619234E+01 -0.26833941025E+02  0.59301954370E+02  0.50000018862E+02 0.  0.
        -12    1    1    2    0    0  0.16326477305E+02  0.54868619234E+01  0.26833941025E+02  0.31886045630E+02  0.00000000000E+00 0.  1.
         11    1    3    3    0    0 -0.19025153004E+02 -0.12681347129E+02 -0.15449346434E+02  0.27594479834E+02  0.51100000000E-03 0. -1.
        -11    1    3    3    0    0  0.48550830329E+01  0.84418821745E+01 -0.20265411595E+02  0.22483863397E+02  0.51100000000E-03 0.  1.
        -12    1    3    3    0    0 -0.21564073341E+01 -0.12473969688E+01  0.88808170034E+01  0.92236111386E+01  0.00000000000E+00 0.  1.
</event>
<event>
 7    1  0.1327607E-011  0.5930194E+02  0.7816164E-02  0.1266605E+00
        -11   -1    0    0    0    0  0.00000000000E+00  0.00000000000E+00  0.45593999997E+02  0.45594000000E+02  0.51100000000E-03 0.  1.
         11   -1    0    0    0    0 -0.00000000000E+00 -0.00000000000E+00 -0.45593999997E+02  0.45594000000E+02  0.51100000000E-03 0. -1.
    9900012    2    1    2    0    0  0.16598683697E+02 -0.21968060405E+02 -0.16081309971E+02  0.59301944916E+02  0.50000001620E+02 0.  0.
        -12    1    1    2    0    0 -0.16598683697E+02  0.21968060405E+02  0.16081309971E+02  0.31886055084E+02  0.00000000000E+00 0.  1.
         11    1    3    3    0    0  0.34180836453E+01 -0.12409538165E+02 -0.66040515035E+01  0.14466977217E+02  0.51100000000E-03 0. -1.
        -11    1    3    3    0    0  0.94210160596E+01 -0.21803381042E+02  0.62415424022E+01  0.24558090730E+02  0.51100000000E-03 0.  1.
         12    1    3    3    0    0  0.37595839925E+01  0.12244858802E+02 -0.15718800869E+02  0.20276876970E+02  0.00000000000E+00 0. -1.
</event>
<event>
 7    1  0.1327607E-011  0.5930194E+02  0.7816164E-02  0.1266605E+00
        -11   -1    0    0    0    0  0.00000000000E+00  0.00000000000E+00  0.45593999997E+02  0.45594000000E+02  0.51100000000E-03 0. -1.
         11   -1    0    0    0    0 -0.00000000000E+00 -0.00000000000E+00 -0.45593999997E+02  0.45594000000E+02  0.51100000000E-03 0.  1.
    9900012    2    1    2    0    0 -0.24268988944E+02  0.17801314671E+02  0.10528540175E+02  0.59301940561E+02  0.49999993677E+02 0.  0.
        -12    1    1    2    0    0  0.24268988944E+02 -0.17801314671E+02 -0.10528540175E+02  0.31886059439E+02  0.00000000000E+00 0.  1.
         11    1    3    3    0    0 -0.21893925092E+02  0.12552712140E+02  0.14269882730E+02  0.28992138441E+02  0.51100000000E-03 0.  1.
        -11    1    3    3    0    0 -0.37208463354E+00 -0.84279241842E+00  0.12663147835E+02  0.12696616061E+02  0.51100000000E-03 0. -1.
        -12    1    3    3    0    0 -0.20029792182E+01  0.60913949495E+01 -0.16404490390E+02  0.17613186059E+02  0.00000000000E+00 0.  1.
</event>
<event>
 7    1  0.1327607E-011  0.5930195E+02  0.7816164E-02  0.1266605E+00
        -11   -1    0    0    0    0  0.00000000000E+00  0.00000000000E+00  0.45593999997E+02  0.45594000000E+02  0.51100000000E-03 0. -1.
         11   -1    0    0    0    0 -0.00000000000E+00 -0.00000000000E+00 -0.45593999997E+02  0.45594000000E+02  0.51100000000E-03 0.  1.
    9900012    2    1    2    0    0  0.16457313170E+02 -0.16601462145E+02  0.21685668698E+02  0.59301954008E+02  0.50000018202E+02 0.  0.
        -12    1    1    2    0    0 -0.16457313170E+02  0.16601462145E+02 -0.21685668698E+02  0.31886045992E+02  0.00000000000E+00 0.  1.
         11    1    3    3    0    0  0.27235409843E+00 -0.47536338301E+01  0.15797971761E+01  0.50166692860E+01  0.51100000000E-03 0. -1.
        -11    1    3    3    0    0 -0.12904508274E+02 -0.91821207569E+01 -0.40867075124E+01  0.16356614991E+02  0.51100000000E-03 0.  1.
         12    1    3    3    0    0  0.29089467346E+02 -0.26657075576E+01  0.24192579034E+02  0.37928669731E+02  0.00000000000E+00 0. -1.
</event>
<event>
 7    1  0.1327607E-011  0.5930193E+02  0.7816164E-02  0.1266605E+00
        -11   -1    0    0    0    0  0.00000000000E+00  0.00000000000E+00  0.45593999997E+02  0.45594000000E+02  0.51100000000E-03 0.  1.
         11   -1    0    0    0    0 -0.00000000000E+00 -0.00000000000E+00 -0.45593999997E+02  0.45594000000E+02  0.51100000000E-03 0. -1.
    9900012    2    1    2    0    0 -0.24972245837E+02  0.18006965139E+02 -0.82980398113E+01  0.59301932190E+02  0.49999978411E+02 0.  0.
        -12    1    1    2    0    0  0.24972245837E+02 -0.18006965139E+02  0.82980398113E+01  0.31886067810E+02  0.00000000000E+00 0.  1.
         11    1    3    3    0    0 -0.11039259872E+02  0.14333391166E+02  0.94965225652E+01  0.20432701778E+02  0.51100000000E-03 0. -1.
        -11    1    3    3    0    0  0.71379172972E+01  0.57095474667E+01  0.25701054380E+01  0.94949585486E+01  0.51100000000E-03 0.  1.
         12    1    3    3    0    0 -0.21070903262E+02 -0.20359734934E+01 -0.20364667814E+02  0.29374271864E+02  0.00000000000E+00 0. -1.
</event>
<event>
 7    1  0.1327607E-011  0.5930194E+02  0.7816164E-02  0.1266605E+00
        -11   -1    0    0    0    0  0.00000000000E+00  0.00000000000E+00  0.45593999997E+02  0.45594000000E+02  0.51100000000E-03 0.  1.
         11   -1    0    0    0    0 -0.00000000000E+00 -0.00000000000E+00 -0.45593999997E+02  0.45594000000E+02  0.51100000000E-03 0. -1.
    9900012    2    1    2    0    0 -0.22790703321E+02 -0.13198742436E+02 -0.17974926123E+02  0.59301938329E+02  0.49999989607E+02 0.  0.
        -12    1    1    2    0    0  0.22790703321E+02  0.13198742436E+02  0.17974926123E+02  0.31886061671E+02  0.00000000000E+00 0.  1.
         11    1    3    3    0    0 -0.21769425483E+02 -0.15121855777E+02 -0.50173782954E+00  0.26510943950E+02  0.51100000000E-03 0. -1.
        -11    1    3    3    0    0 -0.49011253217E+01 -0.10517894937E+02 -0.80310422993E+00  0.11631514088E+02  0.51100000000E-03 0.  1.
        -12    1    3    3    0    0  0.38798474839E+01  0.12441008278E+02 -0.16670084063E+02  0.21159480290E+02  0.00000000000E+00 0.  1.
</event>
<event>
 7    1  0.1327607E-011  0.5930195E+02  0.7816164E-02  0.1266605E+00
        -11   -1    0    0    0    0  0.00000000000E+00  0.00000000000E+00  0.45593999997E+02  0.45594000000E+02  0.51100000000E-03 0.  1.
         11   -1    0    0    0    0 -0.00000000000E+00 -0.00000000000E+00 -0.45593999997E+02  0.45594000000E+02  0.51100000000E-03 0. -1.
    9900012    2    1    2    0    0  0.49886499987E+01  0.22742142707E+02 -0.21785963745E+02  0.59301954463E+02  0.50000019031E+02 0.  0.
        -12    1    1    2    0    0 -0.49886499987E+01 -0.22742142707E+02  0.21785963745E+02  0.31886045537E+02  0.00000000000E+00 0.  1.
         11    1    3    3    0    0 -0.81104858105E+01  0.14103042733E+02 -0.69398350093E+01  0.17687201718E+02  0.51100000000E-03 0. -1.
        -11    1    3    3    0    0  0.12314878769E+02 -0.53267580785E+01  0.74101873993E+01  0.15327800503E+02  0.51100000000E-03 0.  1.
         12    1    3    3    0    0  0.78425704016E+00  0.13965858052E+02 -0.22256316135E+02  0.26286952241E+02  0.00000000000E+00 0. -1.
</event>
<event>
 7    1  0.1327607E-011  0.5930156E+02  0.7816164E-02  0.1266606E+00
        -11   -1    0    0    0    0  0.00000000000E+00  0.00000000000E+00  0.45593999997E+02  0.45594000000E+02  0.51100000000E-03 0.  1.
         11   -1    0    0    0    0 -0.00000000000E+00 -0.00000000000E+00 -0.45593999997E+02  0.45594000000E+02  0.51100000000E-03 0. -1.
    9900012    2    1    2    0    0 -0.11916697230E+02  0.29198254056E+02 -0.47116139594E+01  0.59301560580E+02  0.49999300678E+02 0.  0.
        -12    1    1    2    0    0  0.11916697230E+02 -0.29198254056E+02  0.47116139594E+01  0.31886439420E+02  0.00000000000E+00 0.  1.
         11    1    3    3    0    0 -0.60940485703E+01  0.33797663651E+02 -0.16300145123E+02  0.38014658061E+02  0.51100000000E-03 0. -1.
        -11    1    3    3    0    0 -0.42090644458E+01  0.43329770731E+01 -0.62139782686E+00  0.60726476388E+01  0.51100000000E-03 0.  1.
        -12    1    3    3    0    0 -0.16135842144E+01 -0.89323866682E+01  0.12209928990E+02  0.15214254880E+02  0.00000000000E+00 0.  1.
</event>
<event>
 7    1  0.1327607E-011  0.5930201E+02  0.7816164E-02  0.1266605E+00
        -11   -1    0    0    0    0  0.00000000000E+00  0.00000000000E+00  0.45593999997E+02  0.45594000000E+02  0.51100000000E-03 0. -1.
         11   -1    0    0    0    0 -0.00000000000E+00 -0.00000000000E+00 -0.45593999997E+02  0.45594000000E+02  0.51100000000E-03 0.  1.
    9900012    2    1    2    0    0  0.22783352151E+02  0.21616516916E+02  0.55101224396E+01  0.59302009532E+02  0.50000119464E+02 0.  0.
        -12    1    1    2    0    0 -0.22783352151E+02 -0.21616516916E+02 -0.55101224396E+01  0.31885990468E+02  0.00000000000E+00 0.  1.
         11    1    3    3    0    0 -0.10406096062E+02  0.13433271126E+02  0.28239655460E+01  0.17225399562E+02  0.51100000000E-03 0. -1.
        -11    1    3    3    0    0  0.17144928787E+02  0.12557237065E+02 -0.75451162662E+01  0.22551309619E+02  0.51100000000E-03 0.  1.
        -12    1    3    3    0    0  0.16044519427E+02 -0.43739912748E+01  0.10231273160E+02  0.19525300351E+02  0.00000000000E+00 0.  1.
</event>
<event>
 7    1  0.1327607E-011  0.5930193E+02  0.7816164E-02  0.1266605E+00
        -11   -1    0    0    0    0  0.00000000000E+00  0.00000000000E+00  0.45593999997E+02  0.45594000000E+02  0.51100000000E-03 0.  1.
         11   -1    0    0    0    0 -0.00000000000E+00 -0.00000000000E+00 -0.45593999997E+02  0.45594000000E+02  0.51100000000E-03 0. -1.
    9900012    2    1    2    0    0  0.18120844562E+01  0.24920952137E+02 -0.19808679683E+02  0.59301932568E+02  0.49999979100E+02 0.  0.
        -12    1    1    2    0    0 -0.18120844562E+01 -0.24920952137E+02  0.19808679683E+02  0.31886067432E+02  0.00000000000E+00 0.  1.
         11    1    3    3    0    0  0.10177011655E+02  0.75974091835E+01  0.96848496830E+01  0.15971490418E+02  0.51100000000E-03 0. -1.
        -11    1    3    3    0    0 -0.26641355454E+01  0.25855617360E+01  0.45058327671E+01  0.58382597477E+01  0.51100000000E-03 0.  1.
         12    1    3    3    0    0 -0.57007916534E+01  0.14737981217E+02 -0.33999362133E+02  0.37492182402E+02  0.00000000000E+00 0. -1.
</event>
<event>
 7    1  0.1327607E-011  0.5930193E+02  0.7816164E-02  0.1266605E+00
        -11   -1    0    0    0    0  0.00000000000E+00  0.00000000000E+00  0.45593999997E+02  0.45594000000E+02  0.51100000000E-03 0. -1.
         11   -1    0    0    0    0 -0.00000000000E+00 -0.00000000000E+00 -0.45593999997E+02  0.45594000000E+02  0.51100000000E-03 0.  1.
    9900012    2    1    2    0    0 -0.60665213272E+01 -0.30393298432E+02  0.74944296928E+01  0.59301925500E+02  0.49999966210E+02 0.  0.
        -12    1    1    2    0    0  0.60665213272E+01  0.30393298432E+02 -0.74944296928E+01  0.31886074500E+02  0.00000000000E+00 0.  1.
         11    1    3    3    0    0 -0.28106010425E+01 -0.11538235008E+01 -0.35719943174E+01  0.46893422306E+01  0.51100000000E-03 0.  1.
        -11    1    3    3    0    0 -0.20005101631E+02 -0.28317930031E+02  0.28599992280E+00  0.34672626793E+02  0.51100000000E-03 0. -1.
        -12    1    3    3    0    0  0.16749181347E+02 -0.92154490089E+00  0.10780424087E+02  0.19939956477E+02  0.00000000000E+00 0.  1.
</event>
<event>
 7    1  0.1327607E-011  0.5930193E+02  0.7816164E-02  0.1266605E+00
        -11   -1    0    0    0    0  0.00000000000E+00  0.00000000000E+00  0.45593999997E+02  0.45594000000E+02  0.51100000000E-03 0. -1.
         11   -1    0    0    0    0 -0.00000000000E+00 -0.00000000000E+00 -0.45593999997E+02  0.45594000000E+02  0.51100000000E-03 0.  1.
    9900012    2    1    2    0    0  0.12025052177E+02 -0.27889201516E+02 -0.97114249918E+01  0.59301933820E+02  0.49999981384E+02 0.  0.
        -12    1    1    2    0    0 -0.12025052177E+02  0.27889201516E+02  0.97114249918E+01  0.31886066180E+02  0.00000000000E+00 0.  1.
         11    1    3    3    0    0  0.13923644765E+02 -0.86553967199E+01 -0.14712657069E+01  0.16460510289E+02  0.51100000000E-03 0. -1.
        -11    1    3    3    0    0  0.12904791418E+02 -0.10269768119E+02  0.86810617872E+01  0.18637666506E+02  0.51100000000E-03 0.  1.
        -12    1    3    3    0    0 -0.14803384007E+02 -0.89640366765E+01 -0.16921221072E+02  0.24203757026E+02  0.00000000000E+00 0.  1.
</event>
<event>
 7    1  0.1327607E-011  0.5930195E+02  0.7816164E-02  0.1266605E+00
        -11   -1    0    0    0    0  0.00000000000E+00  0.00000000000E+00  0.45593999997E+02  0.45594000000E+02  0.51100000000E-03 0. -1.
         11   -1    0    0    0    0 -0.00000000000E+00 -0.00000000000E+00 -0.45593999997E+02  0.45594000000E+02  0.51100000000E-03 0.  1.
    9900012    2    1    2    0    0 -0.18678364811E+02 -0.12387991825E+02  0.22679875618E+02  0.59301946442E+02  0.50000004403E+02 0.  0.
        -12    1    1    2    0    0  0.18678364811E+02  0.12387991825E+02 -0.22679875618E+02  0.31886053558E+02  0.00000000000E+00 0.  1.
         11    1    3    3    0    0 -0.50790977811E+01  0.73567290836E+01  0.11452719179E+02  0.14528712053E+02  0.51100000000E-03 0. -1.
        -11    1    3    3    0    0  0.80616469418E+01  0.56291392737E+01  0.10231154972E+01  0.98855513735E+01  0.51100000000E-03 0.  1.
        -12    1    3    3    0    0 -0.21660913971E+02 -0.25373860182E+02  0.10204040942E+02  0.34887683015E+02  0.00000000000E+00 0.  1.
</event>
<event>
 7    1  0.1327607E-011  0.5930199E+02  0.7816164E-02  0.1266605E+00
        -11   -1    0    0    0    0  0.00000000000E+00  0.00000000000E+00  0.45593999997E+02  0.45594000000E+02  0.51100000000E-03 0.  1.
         11   -1    0    0    0    0 -0.00000000000E+00 -0.00000000000E+00 -0.45593999997E+02  0.45594000000E+02  0.51100000000E-03 0. -1.
    9900012    2    1    2    0    0  0.11234794283E+02  0.80035438509E+01 -0.28747873715E+02  0.59301991158E+02  0.50000085954E+02 0.  0.
        -12    1    1    2    0    0 -0.11234794283E+02 -0.80035438509E+01  0.28747873715E+02  0.31886008842E+02  0.00000000000E+00 0.  1.
         11    1    3    3    0    0 -0.35636289091E+01  0.12281065516E+02 -0.10977347488E+02  0.16853076257E+02  0.51100000000E-03 0. -1.
        -11    1    3    3    0    0 -0.64279877475E+01  0.10531183424E+02 -0.83874698499E+01  0.14918930978E+02  0.51100000000E-03 0.  1.
         12    1    3    3    0    0  0.21226410940E+02 -0.14808705089E+02 -0.93830563770E+01  0.27529983922E+02  0.00000000000E+00 0. -1.
</event>
<event>
 7    1  0.1327607E-011  0.5930192E+02  0.7816164E-02  0.1266605E+00
        -11   -1    0    0    0    0  0.00000000000E+00  0.00000000000E+00  0.45593999997E+02  0.45594000000E+02  0.51100000000E-03 0. -1.
         11   -1    0    0    0    0 -0.00000000000E+00 -0.00000000000E+00 -0.45593999997E+02  0.45594000000E+02  0.51100000000E-03 0.  1.
    9900012    2    1    2    0    0  0.23756445091E+02 -0.15891348899E+02  0.14135710998E+02  0.59301921868E+02  0.49999959587E+02 0.  0.
        -12    1    1    2    0    0 -0.23756445091E+02  0.15891348899E+02 -0.14135710998E+02  0.31886078132E+02  0.00000000000E+00 0.  1.
         11    1    3    3    0    0  0.89089515098E+01  0.10372106198E+02  0.28356790507E+00  0.13675906369E+02  0.51100000000E-03 0. -1.
        -11    1    3    3    0    0  0.16821169800E+02 -0.61808671750E+01  0.17581383834E+02  0.25104978197E+02  0.51100000000E-03 0.  1.
        -12    1    3    3    0    0 -0.19736762187E+01 -0.20082587923E+02 -0.37292407407E+01  0.20521037303E+02  0.00000000000E+00 0.  1.
</event>
<event>
 7    1  0.1327607E-011  0.5930195E+02  0.7816164E-02  0.1266605E+00
        -11   -1    0    0    0    0  0.00000000000E+00  0.00000000000E+00  0.45593999997E+02  0.45594000000E+02  0.51100000000E-03 0.  1.
         11   -1    0    0    0    0 -0.00000000000E+00 -0.00000000000E+00 -0.45593999997E+02  0.45594000000E+02  0.51100000000E-03 0. -1.
    9900012    2    1    2    0    0  0.24245657147E+02 -0.20613846679E+02  0.19842723949E+01  0.59301954426E+02  0.50000018964E+02 0.  0.
        -12    1    1    2    0    0 -0.24245657147E+02  0.20613846679E+02 -0.19842723949E+01  0.31886045574E+02  0.00000000000E+00 0.  1.
         11    1    3    3    0    0  0.22826337756E+02 -0.23967574150E+02  0.62031242385E+01  0.33674397642E+02  0.51100000000E-03 0. -1.
        -11    1    3    3    0    0  0.81655296463E+01 -0.57755106110E+01  0.48337722528E+01  0.11108454063E+02  0.51100000000E-03 0.  1.
        -12    1    3    3    0    0 -0.67462102550E+01  0.91292380826E+01 -0.90526240964E+01  0.14519102720E+02  0.00000000000E+00 0.  1.
</event>
<event>
 7    1  0.1327607E-011  0.5930194E+02  0.7816164E-02  0.1266605E+00
        -11   -1    0    0    0    0  0.00000000000E+00  0.00000000000E+00  0.45593999997E+02  0.45594000000E+02  0.51100000000E-03 0. -1.
         11   -1    0    0    0    0 -0.00000000000E+00 -0.00000000000E+00 -0.45593999997E+02  0.45594000000E+02  0.51100000000E-03 0.  1.
    9900012    2    1    2    0    0  0.16325975749E+02  0.99608565511E+00  0.27371356308E+02  0.59301940084E+02  0.49999992808E+02 0.  0.
        -12    1    1    2    0    0 -0.16325975749E+02 -0.99608565511E+00 -0.27371356308E+02  0.31886059916E+02  0.00000000000E+00 0.  1.
         11    1    3    3    0    0 -0.45301056421E+01  0.93413862211E+01  0.20032316623E+02  0.22562736164E+02  0.51100000000E-03 0. -1.
        -11    1    3    3    0    0  0.30078582831E+01  0.99767330364E+01  0.21247117761E+01  0.10634698582E+02  0.51100000000E-03 0.  1.
        -12    1    3    3    0    0  0.17848223108E+02 -0.18322033602E+02  0.52143279091E+01  0.26104505339E+02  0.00000000000E+00 0.  1.
</event>
<event>
 7    1  0.1327607E-011  0.5930194E+02  0.7816164E-02  0.1266605E+00
        -11   -1    0    0    0    0  0.00000000000E+00  0.00000000000E+00  0.45593999997E+02  0.45594000000E+02  0.51100000000E-03 0. -1.
         11   -1    0    0    0    0 -0.00000000000E+00 -0.00000000000E+00 -0.45593999997E+02  0.45594000000E+02  0.51100000000E-03 0.  1.
    9900012    2    1    2    0    0 -0.14662781859E+01  0.22908932517E+02  0.22130329243E+02  0.59301942966E+02  0.49999998064E+02 0.  0.
        -12    1    1    2    0    0  0.14662781859E+01 -0.22908932517E+02 -0.22130329243E+02  0.31886057034E+02  0.00000000000E+00 0.  1.
         11    1    3    3    0    0  0.70120613011E+01 -0.36528257654E+01  0.11376004499E+02  0.13853722185E+02  0.51100000000E-03 0. -1.
        -11    1    3    3    0    0  0.10466555240E+02 -0.10817158088E+00 -0.13773906078E+01  0.10557352169E+02  0.51100000000E-03 0.  1.
         12    1    3    3    0    0 -0.18944894727E+02  0.26669929863E+02  0.12131715352E+02  0.34890868612E+02  0.00000000000E+00 0. -1.
</event>
<event>
 7    1  0.1327607E-011  0.5930202E+02  0.7816164E-02  0.1266605E+00
        -11   -1    0    0    0    0  0.00000000000E+00  0.00000000000E+00  0.45593999997E+02  0.45594000000E+02  0.51100000000E-03 0.  1.
         11   -1    0    0    0    0 -0.00000000000E+00 -0.00000000000E+00 -0.45593999997E+02  0.45594000000E+02  0.51100000000E-03 0. -1.
    9900012    2    1    2    0    0  0.19600238761E+02 -0.25110770131E+02  0.14126774120E+01  0.59302018856E+02  0.50000136468E+02 0.  0.
        -12    1    1    2    0    0 -0.19600238761E+02  0.25110770131E+02 -0.14126774120E+01  0.31885981144E+02  0.00000000000E+00 0.  1.
         11    1    3    3    0    0  0.43581163356E+01  0.75086832755E+01  0.72452957434E+00  0.87119714124E+01  0.51100000000E-03 0. -1.
        -11    1    3    3    0    0  0.85533014585E+01  0.40422191428E+01 -0.79245905836E+01  0.12340892902E+02  0.51100000000E-03 0.  1.
        -12    1    3    3    0    0  0.66888209668E+01 -0.36661672549E+02  0.86127384212E+01  0.38249154542E+02  0.00000000000E+00 0.  1.
</event>
<event>
 7    1  0.1327607E-011  0.5930195E+02  0.7816164E-02  0.1266605E+00
        -11   -1    0    0    0    0  0.00000000000E+00  0.00000000000E+00  0.45593999997E+02  0.45594000000E+02  0.51100000000E-03 0.  1.
         11   -1    0    0    0    0 -0.00000000000E+00 -0.00000000000E+00 -0.45593999997E+02  0.45594000000E+02  0.51100000000E-03 0. -1.
    9900012    2    1    2    0    0  0.27293562296E+02 -0.93696799689E+01 -0.13564325325E+02  0.59301947139E+02  0.50000005675E+02 0.  0.
        -12    1    1    2    0    0 -0.27293562296E+02  0.93696799689E+01  0.13564325325E+02  0.31886052861E+02  0.00000000000E+00 0.  1.
         11    1    3    3    0    0  0.12506063762E+02 -0.16101323541E+02 -0.33592103246E+01  0.20662491255E+02  0.51100000000E-03 0. -1.
        -11    1    3    3    0    0 -0.25280092224E+01  0.47952797342E+01  0.10355913788E+02  0.11688904525E+02  0.51100000000E-03 0.  1.
         12    1    3    3    0    0  0.17315507756E+02  0.19363638377E+01 -0.20561028788E+02  0.26950551360E+02  0.00000000000E+00 0. -1.
</event>
<event>
 7    1  0.1327607E-011  0.5930193E+02  0.7816164E-02  0.1266605E+00
        -11   -1    0    0    0    0  0.00000000000E+00  0.00000000000E+00  0.45593999997E+02  0.45594000000E+02  0.51100000000E-03 0. -1.
         11   -1    0    0    0    0 -0.00000000000E+00 -0.00000000000E+00 -0.45593999997E+02  0.45594000000E+02  0.51100000000E-03 0.  1.
    9900012    2    1    2    0    0 -0.73568594087E+01  0.23461476297E+02 -0.20301659341E+02  0.59301927454E+02  0.49999969774E+02 0.  0.
        -12    1    1    2    0    0  0.73568594087E+01 -0.23461476297E+02  0.20301659341E+02  0.31886072546E+02  0.00000000000E+00 0.  1.
         11    1    3    3    0    0  0.37130692635E+01  0.12371499116E+02 -0.42921733455E+01  0.13611158144E+02  0.51100000000E-03 0. -1.
        -11    1    3    3    0    0  0.83010853563E+01  0.12136198560E+02 -0.21022518687E+02  0.25654271102E+02  0.51100000000E-03 0.  1.
         12    1    3    3    0    0 -0.19371014029E+02 -0.10462213790E+01  0.50130326914E+01  0.20036498208E+02  0.00000000000E+00 0. -1.
</event>
<event>
 7    1  0.1327607E-011  0.5930180E+02  0.7816164E-02  0.1266605E+00
        -11   -1    0    0    0    0  0.00000000000E+00  0.00000000000E+00  0.45593999997E+02  0.45594000000E+02  0.51100000000E-03 0. -1.
         11   -1    0    0    0    0 -0.00000000000E+00 -0.00000000000E+00 -0.45593999997E+02  0.45594000000E+02  0.51100000000E-03 0.  1.
    9900012    2    1    2    0    0 -0.20274798876E+02 -0.45426505709E+01  0.24187317597E+02  0.59301804300E+02  0.49999745169E+02 0.  0.
        -12    1    1    2    0    0  0.20274798876E+02  0.45426505709E+01 -0.24187317597E+02  0.31886195700E+02  0.00000000000E+00 0.  1.
         11    1    3    3    0    0  0.69639752710E+01 -0.18972473302E+01  0.10830182213E+02  0.13014966233E+02  0.51100000000E-03 0. -1.
        -11    1    3    3    0    0  0.53515926163E+01  0.57062403932E+01  0.96755493023E+01  0.12442547067E+02  0.51100000000E-03 0.  1.
         12    1    3    3    0    0 -0.32590366764E+02 -0.83516436338E+01  0.36815860816E+01  0.33844291000E+02  0.00000000000E+00 0. -1.
</event>
<event>
 7    1  0.1327607E-011  0.5930196E+02  0.7816164E-02  0.1266605E+00
        -11   -1    0    0    0    0  0.00000000000E+00  0.00000000000E+00  0.45593999997E+02  0.45594000000E+02  0.51100000000E-03 0. -1.
         11   -1    0    0    0    0 -0.00000000000E+00 -0.00000000000E+00 -0.45593999997E+02  0.45594000000E+02  0.51100000000E-03 0.  1.
    9900012    2    1    2    0    0  0.25664741878E+02 -0.26718774620E+01  0.18732374667E+02  0.59301956572E+02  0.50000022878E+02 0.  0.
        -12    1    1    2    0    0 -0.25664741878E+02  0.26718774620E+01 -0.18732374667E+02  0.31886043428E+02  0.00000000000E+00 0.  1.
         11    1    3    3    0    0  0.66202168013E+01 -0.72976266689E+00  0.85804637585E+01  0.10862052413E+02  0.51100000000E-03 0. -1.
        -11    1    3    3    0    0  0.31218223552E+02  0.35136222537E+01  0.14233219292E+02  0.34489238246E+02  0.51100000000E-03 0.  1.
        -12    1    3    3    0    0 -0.12173698475E+02 -0.54557370488E+01 -0.40813083839E+01  0.13950665914E+02  0.00000000000E+00 0.  1.
</event>
<event>
 7    1  0.1327607E-011  0.5930193E+02  0.7816164E-02  0.1266605E+00
        -11   -1    0    0    0    0  0.00000000000E+00  0.00000000000E+00  0.45593999997E+02  0.45594000000E+02  0.51100000000E-03 0.  1.
         11   -1    0    0    0    0 -0.00000000000E+00 -0.00000000000E+00 -0.45593999997E+02  0.45594000000E+02  0.51100000000E-03 0. -1.
    9900012    2    1    2    0    0 -0.18021599794E+02 -0.11897181515E+02 -0.23460614011E+02  0.59301930990E+02  0.49999976223E+02 0.  0.
        -12    1    1    2    0    0  0.18021599794E+02  0.11897181515E+02  0.23460614011E+02  0.31886069010E+02  0.00000000000E+00 0.  1.
         11    1    3    3    0    0 -0.42357184574E+01 -0.13497766822E+02 -0.20382011479E+02  0.24810429505E+02  0.51100000000E-03 0. -1.
        -11    1    3    3    0    0 -0.23934273130E+02  0.74693449188E+00 -0.39521475638E+01  0.24269874577E+02  0.51100000000E-03 0.  1.
         12    1    3    3    0    0  0.10148391794E+02  0.85365081560E+00  0.87354503185E+00  0.10221626907E+02  0.00000000000E+00 0. -1.
</event>
<event>
 7    1  0.1327607E-011  0.5930191E+02  0.7816164E-02  0.1266605E+00
        -11   -1    0    0    0    0  0.00000000000E+00  0.00000000000E+00  0.45593999997E+02  0.45594000000E+02  0.51100000000E-03 0.  1.
         11   -1    0    0    0    0 -0.00000000000E+00 -0.00000000000E+00 -0.45593999997E+02  0.45594000000E+02  0.51100000000E-03 0. -1.
    9900012    2    1    2    0    0 -0.17516743991E+02  0.13088454875E+02 -0.23207294891E+02  0.59301913579E+02  0.49999944470E+02 0.  0.
        -12    1    1    2    0    0  0.17516743991E+02 -0.13088454875E+02  0.23207294891E+02  0.31886086421E+02  0.00000000000E+00 0.  1.
         11    1    3    3    0    0 -0.11796893548E+02  0.22916290790E+02 -0.39145614437E+01  0.26070037831E+02  0.51100000000E-03 0. -1.
        -11    1    3    3    0    0  0.63360719195E+00  0.77819409996E+01 -0.88256474854E+01  0.11783552843E+02  0.51100000000E-03 0.  1.
        -12    1    3    3    0    0 -0.63534576349E+01 -0.17609776915E+02 -0.10467085962E+02  0.21448322905E+02  0.00000000000E+00 0.  1.
</event>
<event>
 7    1  0.1327607E-011  0.5930181E+02  0.7816164E-02  0.1266605E+00
        -11   -1    0    0    0    0  0.00000000000E+00  0.00000000000E+00  0.45593999997E+02  0.45594000000E+02  0.51100000000E-03 0. -1.
         11   -1    0    0    0    0 -0.00000000000E+00 -0.00000000000E+00 -0.45593999997E+02  0.45594000000E+02  0.51100000000E-03 0.  1.
    9900012    2    1    2    0    0  0.84242576760E+01  0.17808344723E+02  0.25072375986E+02  0.59301807115E+02  0.49999750303E+02 0.  0.
        -12    1    1    2    0    0 -0.84242576760E+01 -0.17808344723E+02 -0.25072375986E+02  0.31886192885E+02  0.00000000000E+00 0.  1.
         11    1    3    3    0    0 -0.84681463957E+01  0.20136766448E+00  0.25134939535E+02  0.26523861672E+02  0.51100000000E-03 0. -1.
        -11    1    3    3    0    0  0.18838729196E+01  0.16938200084E+02 -0.34236792388E+01  0.17383129150E+02  0.51100000000E-03 0.  1.
        -12    1    3    3    0    0  0.15008531152E+02  0.66877697410E+00  0.33611156894E+01  0.15394816292E+02  0.00000000000E+00 0.  1.
</event>
<event>
 7    1  0.1327607E-011  0.5930198E+02  0.7816164E-02  0.1266605E+00
        -11   -1    0    0    0    0  0.00000000000E+00  0.00000000000E+00  0.45593999997E+02  0.45594000000E+02  0.51100000000E-03 0.  1.
         11   -1    0    0    0    0 -0.00000000000E+00 -0.00000000000E+00 -0.45593999997E+02  0.45594000000E+02  0.51100000000E-03 0. -1.
    9900012    2    1    2    0    0  0.73794006313E+01 -0.21977588973E+02 -0.21891739348E+02  0.59301980769E+02  0.50000067007E+02 0.  0.
        -12    1    1    2    0    0 -0.73794006313E+01  0.21977588973E+02  0.21891739348E+02  0.31886019231E+02  0.00000000000E+00 0.  1.
         11    1    3    3    0    0 -0.49380160809E+01 -0.43565604277E+01 -0.59598602518E+01  0.88816415181E+01  0.51100000000E-03 0. -1.
        -11    1    3    3    0    0 -0.66217582459E+01 -0.52527724129E+01  0.11874473344E+02  0.14575404548E+02  0.51100000000E-03 0.  1.
         12    1    3    3    0    0  0.18939174958E+02 -0.12368256132E+02 -0.27806352440E+02  0.35844934703E+02  0.00000000000E+00 0. -1.
</event>
<event>
 7    1  0.1327607E-011  0.5930193E+02  0.7816164E-02  0.1266605E+00
        -11   -1    0    0    0    0  0.00000000000E+00  0.00000000000E+00  0.45593999997E+02  0.45594000000E+02  0.51100000000E-03 0. -1.
         11   -1    0    0    0    0 -0.00000000000E+00 -0.00000000000E+00 -0.45593999997E+02  0.45594000000E+02  0.51100000000E-03 0.  1.
    9900012    2    1    2    0    0  0.27969485539E+02  0.14195256171E+02  0.57379413161E+01  0.59301931104E+02  0.49999976430E+02 0.  0.
        -12    1    1    2    0    0 -0.27969485539E+02 -0.14195256171E+02 -0.57379413161E+01  0.31886068896E+02  0.00000000000E+00 0.  1.
         11    1    3    3    0    0  0.21415142242E+02  0.15772105467E+02  0.35358827631E+01  0.26830394989E+02  0.51100000000E-03 0. -1.
        -11    1    3    3    0    0  0.14874446580E+02 -0.38326090746E+01 -0.94069304101E+01  0.18011895886E+02  0.51100000000E-03 0.  1.
         12    1    3    3    0    0 -0.83201032828E+01  0.22557597789E+01  0.11608988963E+02  0.14459640229E+02  0.00000000000E+00 0. -1.
</event>
<event>
 7    1  0.1327607E-011  0.5930195E+02  0.7816164E-02  0.1266605E+00
        -11   -1    0    0    0    0  0.00000000000E+00  0.00000000000E+00  0.45593999997E+02  0.45594000000E+02  0.51100000000E-03 0.  1.
         11   -1    0    0    0    0 -0.00000000000E+00 -0.00000000000E+00 -0.45593999997E+02  0.45594000000E+02  0.51100000000E-03 0. -1.
    9900012    2    1    2    0    0 -0.15065438735E+02 -0.90576646446E+01 -0.26602848989E+02  0.59301948074E+02  0.50000007380E+02 0.  0.
        -12    1    1    2    0    0  0.15065438735E+02  0.90576646446E+01  0.26602848989E+02  0.31886051926E+02  0.00000000000E+00 0.  1.
         11    1    3    3    0    0 -0.11838216209E+02  0.13394311339E+02 -0.79387475368E+01  0.19559515638E+02  0.51100000000E-03 0. -1.
        -11    1    3    3    0    0  0.61347653483E+01 -0.28307617076E+01  0.43877042131E+01  0.80560850447E+01  0.51100000000E-03 0.  1.
         12    1    3    3    0    0 -0.93619878742E+01 -0.19621214276E+02 -0.23051805665E+02  0.31686347392E+02  0.00000000000E+00 0. -1.
</event>
<event>
 7    1  0.1327607E-011  0.5930193E+02  0.7816164E-02  0.1266605E+00
        -11   -1    0    0    0    0  0.00000000000E+00  0.00000000000E+00  0.45593999997E+02  0.45594000000E+02  0.51100000000E-03 0. -1.
         11   -1    0    0    0    0 -0.00000000000E+00 -0.00000000000E+00 -0.45593999997E+02  0.45594000000E+02  0.51100000000E-03 0.  1.
    9900012    2    1    2    0    0 -0.19860924805E+02  0.19946306731E+02  0.14980322979E+02  0.59301928387E+02  0.49999971475E+02 0.  0.
        -12    1    1    2    0    0  0.19860924805E+02 -0.19946306731E+02 -0.14980322979E+02  0.31886071613E+02  0.00000000000E+00 0.  1.
         11    1    3    3    0    0 -0.15327842334E+01 -0.27581857351E+01  0.59352120993E+00  0.32108073351E+01  0.51100000000E-03 0. -1.
        -11    1    3    3    0    0 -0.97929283846E+01 -0.10679629826E+02 -0.64092528044E+01  0.15844067071E+02  0.51100000000E-03 0.  1.
         12    1    3    3    0    0 -0.85352121872E+01  0.33384122293E+02  0.20796054574E+02  0.40247053981E+02  0.00000000000E+00 0. -1.
</event>
<event>
 7    1  0.1327607E-011  0.5930194E+02  0.7816164E-02  0.1266605E+00
        -11   -1    0    0    0    0  0.00000000000E+00  0.00000000000E+00  0.45593999997E+02  0.45594000000E+02  0.51100000000E-03 0. -1.
         11   -1    0    0    0    0 -0.00000000000E+00 -0.00000000000E+00 -0.45593999997E+02  0.45594000000E+02  0.51100000000E-03 0.  1.
    9900012    2    1    2    0    0 -0.27683745524E+02 -0.13294830830E+02  0.85777963608E+01  0.59301939042E+02  0.49999990906E+02 0.  0.
        -12    1    1    2    0    0  0.27683745524E+02  0.13294830830E+02 -0.85777963608E+01  0.31886060958E+02  0.00000000000E+00 0.  1.
         11    1    3    3    0    0 -0.34081267995E+02 -0.82026879495E+01  0.20809286011E+01  0.35116195435E+02  0.51100000000E-03 0.  1.
        -11    1    3    3    0    0  0.44641017891E+01 -0.12906248948E+02  0.82394496989E+01  0.15949545395E+02  0.51100000000E-03 0. -1.
        -12    1    3    3    0    0  0.19334206820E+01  0.78141060674E+01 -0.17425819392E+01  0.82361982116E+01  0.00000000000E+00 0.  1.
</event>
<event>
 7    1  0.1327607E-011  0.5930195E+02  0.7816164E-02  0.1266605E+00
        -11   -1    0    0    0    0  0.00000000000E+00  0.00000000000E+00  0.45593999997E+02  0.45594000000E+02  0.51100000000E-03 0. -1.
         11   -1    0    0    0    0 -0.00000000000E+00 -0.00000000000E+00 -0.45593999997E+02  0.45594000000E+02  0.51100000000E-03 0.  1.
    9900012    2    1    2    0    0  0.62587932592E+01 -0.28624865463E+02 -0.12576347266E+02  0.59301954049E+02  0.50000018277E+02 0.  0.
        -12    1    1    2    0    0 -0.62587932592E+01  0.28624865463E+02  0.12576347266E+02  0.31886045951E+02  0.00000000000E+00 0.  1.
         11    1    3    3    0    0 -0.28664068847E+01 -0.24282237810E+02  0.91884537913E+01  0.26120318620E+02  0.51100000000E-03 0. -1.
        -11    1    3    3    0    0 -0.61323961011E+01 -0.52848723523E+01 -0.13661709441E+02  0.15880127923E+02  0.51100000000E-03 0.  1.
        -12    1    3    3    0    0  0.15257596245E+02  0.94224469984E+00 -0.81030916161E+01  0.17301507506E+02  0.00000000000E+00 0.  1.
</event>
<event>
 7    1  0.1327607E-011  0.5930197E+02  0.7816164E-02  0.1266605E+00
        -11   -1    0    0    0    0  0.00000000000E+00  0.00000000000E+00  0.45593999997E+02  0.45594000000E+02  0.51100000000E-03 0.  1.
         11   -1    0    0    0    0 -0.00000000000E+00 -0.00000000000E+00 -0.45593999997E+02  0.45594000000E+02  0.51100000000E-03 0. -1.
    9900012    2    1    2    0    0 -0.26117685144E+02 -0.10608826177E+01 -0.18260893382E+02  0.59301965811E+02  0.50000039727E+02 0.  0.
        -12    1    1    2    0    0  0.26117685144E+02  0.10608826177E+01  0.18260893382E+02  0.31886034189E+02  0.00000000000E+00 0.  1.
         11    1    3    3    0    0 -0.10537628059E+02  0.14148568182E+02 -0.18740064752E+02  0.25737397186E+02  0.51100000000E-03 0. -1.
        -11    1    3    3    0    0 -0.10143111219E+02  0.41733011240E+01  0.62487508142E+01  0.12623233915E+02  0.51100000000E-03 0.  1.
        -12    1    3    3    0    0 -0.54369458660E+01 -0.19382751924E+02 -0.57695794440E+01  0.20941334710E+02  0.00000000000E+00 0.  1.
</event>
<event>
 7    1  0.1327607E-011  0.5930196E+02  0.7816164E-02  0.1266605E+00
        -11   -1    0    0    0    0  0.00000000000E+00  0.00000000000E+00  0.45593999997E+02  0.45594000000E+02  0.51100000000E-03 0. -1.
         11   -1    0    0    0    0 -0.00000000000E+00 -0.00000000000E+00 -0.45593999997E+02  0.45594000000E+02  0.51100000000E-03 0.  1.
    9900012    2    1    2    0    0  0.25916549925E+02  0.73395042436E+01 -0.17064096113E+02  0.59301964518E+02  0.50000037370E+02 0.  0.
        -12    1    1    2    0    0 -0.25916549925E+02 -0.73395042436E+01  0.17064096113E+02  0.31886035482E+02  0.00000000000E+00 0.  1.
         11    1    3    3    0    0  0.12031469860E+02 -0.80445667355E+01  0.10968834931E+02  0.18160029212E+02  0.51100000000E-03 0. -1.
        -11    1    3    3    0    0  0.23596663843E+01  0.27472161409E+01  0.36471961722E+01  0.51397725776E+01  0.51100000000E-03 0.  1.
        -12    1    3    3    0    0  0.11525413681E+02  0.12636854838E+02 -0.31680127217E+02  0.36002162729E+02  0.00000000000E+00 0.  1.
</event>
<event>
 7    1  0.1327607E-011  0.5930194E+02  0.7816164E-02  0.1266605E+00
        -11   -1    0    0    0    0  0.00000000000E+00  0.00000000000E+00  0.45593999997E+02  0.45594000000E+02  0.51100000000E-03 0.  1.
         11   -1    0    0    0    0 -0.00000000000E+00 -0.00000000000E+00 -0.45593999997E+02  0.45594000000E+02  0.51100000000E-03 0. -1.
    9900012    2    1    2    0    0  0.10352945182E+02  0.13281500740E+02 -0.27076541082E+02  0.59301940149E+02  0.49999992927E+02 0.  0.
        -12    1    1    2    0    0 -0.10352945182E+02 -0.13281500740E+02  0.27076541082E+02  0.31886059851E+02  0.00000000000E+00 0.  1.
         11    1    3    3    0    0  0.47939119092E+01  0.11475688169E+02 -0.13656227430E+02  0.18470667509E+02  0.51100000000E-03 0. -1.
        -11    1    3    3    0    0  0.12478591882E+02  0.15830865894E+02  0.10023447521E+00  0.20157916993E+02  0.51100000000E-03 0.  1.
         12    1    3    3    0    0 -0.69195586091E+01 -0.14025053323E+02 -0.13520548127E+02  0.20673355647E+02  0.00000000000E+00 0. -1.
</event>
<event>
 7    1  0.2407263E-011  0.5930193E+02  0.7816164E-02  0.1266605E+00
        -11   -1    0    0    0    0  0.00000000000E+00  0.00000000000E+00  0.45593999997E+02  0.45594000000E+02  0.51100000000E-03 0. -1.
         11   -1    0    0    0    0 -0.00000000000E+00 -0.00000000000E+00 -0.45593999997E+02  0.45594000000E+02  0.51100000000E-03 0.  1.
    9900012    2    1    2    0    0  0.37419818481E+01 -0.94927649595E+01  0.30209372827E+02  0.59301933743E+02  0.49999981244E+02 0.  0.
        -12    1    1    2    0    0 -0.37419818481E+01  0.94927649595E+01 -0.30209372827E+02  0.31886066257E+02  0.00000000000E+00 0.  1.
         11    1    3    3    0    0 -0.35519538661E-01  0.12574241947E+02  0.12899001320E+02  0.18013801861E+02  0.51100000000E-03 0. -1.
        -11    1    3    3    0    0 -0.12933848875E+00 -0.78324752877E+01 -0.84973845141E+01  0.11557246273E+02  0.51100000000E-03 0.  1.
         12    1    3    3    0    0  0.39068398755E+01 -0.14234531619E+02  0.25807756021E+02  0.29730885609E+02  0.00000000000E+00 0. -1.
</event>
<event>
 7    1  0.1327607E-011  0.5930183E+02  0.7816164E-02  0.1266605E+00
        -11   -1    0    0    0    0  0.00000000000E+00  0.00000000000E+00  0.45593999997E+02  0.45594000000E+02  0.51100000000E-03 0.  1.
         11   -1    0    0    0    0 -0.00000000000E+00 -0.00000000000E+00 -0.45593999997E+02  0.45594000000E+02  0.51100000000E-03 0. -1.
    9900012    2    1    2    0    0  0.43307737055E+01 -0.62270480681E+01 -0.30970888737E+02  0.59301832503E+02  0.49999796605E+02 0.  0.
        -12    1    1    2    0    0 -0.43307737055E+01  0.62270480681E+01  0.30970888737E+02  0.31886167497E+02  0.00000000000E+00 0.  1.
         11    1    3    3    0    0 -0.18591973947E+02 -0.10255488547E+02 -0.63039565921E+01  0.22148959559E+02  0.51100000000E-03 0. -1.
        -11    1    3    3    0    0  0.45676718651E+01 -0.17426044043E+01 -0.14683768707E+02  0.15476219179E+02  0.51100000000E-03 0.  1.
        -12    1    3    3    0    0  0.18355075787E+02  0.57710448834E+01 -0.99831634375E+01  0.21676653764E+02  0.00000000000E+00 0.  1.
</event>
<event>
 7    1  0.1327607E-011  0.5930197E+02  0.7816164E-02  0.1266605E+00
        -11   -1    0    0    0    0  0.00000000000E+00  0.00000000000E+00  0.45593999997E+02  0.45594000000E+02  0.51100000000E-03 0.  1.
         11   -1    0    0    0    0 -0.00000000000E+00 -0.00000000000E+00 -0.45593999997E+02  0.45594000000E+02  0.51100000000E-03 0. -1.
    9900012    2    1    2    0    0 -0.12987032151E+02 -0.27999002742E+02  0.80070012253E+01  0.59301965012E+02  0.50000038270E+02 0.  0.
        -12    1    1    2    0    0  0.12987032151E+02  0.27999002742E+02 -0.80070012253E+01  0.31886034988E+02  0.00000000000E+00 0.  1.
         11    1    3    3    0    0 -0.96988516289E+01 -0.23730261139E+01  0.31343223629E+01  0.10465321438E+02  0.51100000000E-03 0. -1.
        -11    1    3    3    0    0  0.23605156546E+01 -0.28974185352E+02  0.17976667753E+02  0.34179468028E+02  0.51100000000E-03 0.  1.
         12    1    3    3    0    0 -0.56486961761E+01  0.33482087236E+01 -0.13103988890E+02  0.14657175546E+02  0.00000000000E+00 0. -1.
</event>
<event>
 7    1  0.1327607E-011  0.5930195E+02  0.7816164E-02  0.1266605E+00
        -11   -1    0    0    0    0  0.00000000000E+00  0.00000000000E+00  0.45593999997E+02  0.45594000000E+02  0.51100000000E-03 0.  1.
         11   -1    0    0    0    0 -0.00000000000E+00 -0.00000000000E+00 -0.45593999997E+02  0.45594000000E+02  0.51100000000E-03 0. -1.
    9900012    2    1    2    0    0  0.22008274529E+02 -0.22418733790E+02 -0.54549204826E+01  0.59301953993E+02  0.50000018173E+02 0.  0.
        -12    1    1    2    0    0 -0.22008274529E+02  0.22418733790E+02  0.54549204826E+01  0.31886046007E+02  0.00000000000E+00 0.  1.
         11    1    3    3    0    0  0.10894255641E+02 -0.72587023582E+01  0.36993529821E+01  0.13603631083E+02  0.51100000000E-03 0. -1.
        -11    1    3    3    0    0  0.13292495481E+02 -0.24016484424E+02  0.59190082669E+01  0.28080538088E+02  0.51100000000E-03 0.  1.
        -12    1    3    3    0    0 -0.21784765922E+01  0.88564529918E+01 -0.15073281732E+02  0.17617784822E+02  0.00000000000E+00 0.  1.
</event>
<event>
 7    1  0.1327607E-011  0.5930194E+02  0.7816164E-02  0.1266605E+00
        -11   -1    0    0    0    0  0.00000000000E+00  0.00000000000E+00  0.45593999997E+02  0.45594000000E+02  0.51100000000E-03 0. -1.
         11   -1    0    0    0    0 -0.00000000000E+00 -0.00000000000E+00 -0.45593999997E+02  0.45594000000E+02  0.51100000000E-03 0.  1.
    9900012    2    1    2    0    0  0.19477845261E+02 -0.20189505756E+02  0.15156450456E+02  0.59301943657E+02  0.49999999324E+02 0.  0.
        -12    1    1    2    0    0 -0.19477845261E+02  0.20189505756E+02 -0.15156450456E+02  0.31886056343E+02  0.00000000000E+00 0.  1.
         11    1    3    3    0    0  0.80355258154E+00  0.68502792671E+01  0.44477489480E+01  0.82069783572E+01  0.51100000000E-03 0. -1.
        -11    1    3    3    0    0 -0.46310284741E+01 -0.14192508635E+02  0.18112841125E+02  0.23472297288E+02  0.51100000000E-03 0.  1.
         12    1    3    3    0    0  0.23305321153E+02 -0.12847276388E+02 -0.74041396171E+01  0.27622668012E+02  0.00000000000E+00 0. -1.
</event>
<event>
 7    1  0.1327607E-011  0.5930197E+02  0.7816164E-02  0.1266605E+00
        -11   -1    0    0    0    0  0.00000000000E+00  0.00000000000E+00  0.45593999997E+02  0.45594000000E+02  0.51100000000E-03 0.  1.
         11   -1    0    0    0    0 -0.00000000000E+00 -0.00000000000E+00 -0.45593999997E+02  0.45594000000E+02  0.51100000000E-03 0. -1.
    9900012    2    1    2    0    0  0.26376691111E+02 -0.10939176869E+02 -0.14188842311E+02  0.59301973740E+02  0.50000054188E+02 0.  0.
        -12    1    1    2    0    0 -0.26376691111E+02  0.10939176869E+02  0.14188842311E+02  0.31886026260E+02  0.00000000000E+00 0.  1.
         11    1    3    3    0    0 -0.17693732537E+01 -0.29850514484E+01 -0.34815827134E+01  0.49155500518E+01  0.51100000000E-03 0. -1.
        -11    1    3    3    0    0  0.10899263660E+02 -0.23019737846E+02 -0.17018669626E+02  0.30632293334E+02  0.51100000000E-03 0.  1.
        -12    1    3    3    0    0  0.17246800705E+02  0.15065612426E+02  0.63114100285E+01  0.23754130354E+02  0.00000000000E+00 0.  1.
</event>
<event>
 7    1  0.1327607E-011  0.5930195E+02  0.7816164E-02  0.1266605E+00
        -11   -1    0    0    0    0  0.00000000000E+00  0.00000000000E+00  0.45593999997E+02  0.45594000000E+02  0.51100000000E-03 0. -1.
         11   -1    0    0    0    0 -0.00000000000E+00 -0.00000000000E+00 -0.45593999997E+02  0.45594000000E+02  0.51100000000E-03 0.  1.
    9900012    2    1    2    0    0  0.17213603826E+02  0.17138807405E+02  0.20656073828E+02  0.59301948787E+02  0.50000008680E+02 0.  0.
        -12    1    1    2    0    0 -0.17213603826E+02 -0.17138807405E+02 -0.20656073828E+02  0.31886051213E+02  0.00000000000E+00 0.  1.
         11    1    3    3    0    0  0.36101051452E+01 -0.82794143208E+01  0.38440140377E+01  0.98162113282E+01  0.51100000000E-03 0. -1.
        -11    1    3    3    0    0  0.58327532308E+01 -0.91654323739E+01  0.60857504826E+01  0.12452410210E+02  0.51100000000E-03 0.  1.
        -12    1    3    3    0    0  0.77707454503E+01  0.34583654100E+02  0.10726309307E+02  0.37033327249E+02  0.00000000000E+00 0.  1.
</event>
<event>
 7    1  0.1327607E-011  0.5930199E+02  0.7816164E-02  0.1266605E+00
        -11   -1    0    0    0    0  0.00000000000E+00  0.00000000000E+00  0.45593999997E+02  0.45594000000E+02  0.51100000000E-03 0.  1.
         11   -1    0    0    0    0 -0.00000000000E+00 -0.00000000000E+00 -0.45593999997E+02  0.45594000000E+02  0.51100000000E-03 0. -1.
    9900012    2    1    2    0    0 -0.26126764409E+02  0.13274971517E+02 -0.12565239526E+02  0.59301985329E+02  0.50000075324E+02 0.  0.
        -12    1    1    2    0    0  0.26126764409E+02 -0.13274971517E+02  0.12565239526E+02  0.31886014671E+02  0.00000000000E+00 0.  1.
         11    1    3    3    0    0 -0.12773118054E+02  0.50395446677E+01 -0.23841334133E+02  0.27512883687E+02  0.51100000000E-03 0. -1.
        -11    1    3    3    0    0  0.65837001675E+01  0.34226175965E+01 -0.15750568781E+01  0.75855272419E+01  0.51100000000E-03 0.  1.
         12    1    3    3    0    0 -0.19937346522E+02  0.48128092526E+01  0.12851151485E+02  0.24203574400E+02  0.00000000000E+00 0. -1.
</event>
<event>
 7    1  0.1327607E-011  0.5930195E+02  0.7816164E-02  0.1266605E+00
        -11   -1    0    0    0    0  0.00000000000E+00  0.00000000000E+00  0.45593999997E+02  0.45594000000E+02  0.51100000000E-03 0.  1.
         11   -1    0    0    0    0 -0.00000000000E+00 -0.00000000000E+00 -0.45593999997E+02  0.45594000000E+02  0.51100000000E-03 0. -1.
    9900012    2    1    2    0    0 -0.27233295623E+02  0.14222410924E+02 -0.85317596964E+01  0.59301948402E+02  0.50000007978E+02 0.  0.
        -12    1    1    2    0    0  0.27233295623E+02 -0.14222410924E+02  0.85317596964E+01  0.31886051598E+02  0.00000000000E+00 0.  1.
         11    1    3    3    0    0  0.27500886114E+01  0.10903504455E+02 -0.16392208126E+02  0.19878477917E+02  0.51100000000E-03 0. -1.
        -11    1    3    3    0    0 -0.11762071487E+02 -0.82401898340E+01 -0.38551880457E+01  0.14869752160E+02  0.51100000000E-03 0.  1.
         12    1    3    3    0    0 -0.18221312748E+02  0.11559096303E+02  0.11715636475E+02  0.24553718326E+02  0.00000000000E+00 0. -1.
</event>
<event>
 7    1  0.1327607E-011  0.5930196E+02  0.7816164E-02  0.1266605E+00
        -11   -1    0    0    0    0  0.00000000000E+00  0.00000000000E+00  0.45593999997E+02  0.45594000000E+02  0.51100000000E-03 0.  1.
         11   -1    0    0    0    0 -0.00000000000E+00 -0.00000000000E+00 -0.45593999997E+02  0.45594000000E+02  0.51100000000E-03 0. -1.
    9900012    2    1    2    0    0  0.31268663139E+02  0.60450797010E+01  0.15644330950E+01  0.59301957065E+02  0.50000023778E+02 0.  0.
        -12    1    1    2    0    0 -0.31268663139E+02 -0.60450797010E+01 -0.15644330950E+01  0.31886042935E+02  0.00000000000E+00 0.  1.
         11    1    3    3    0    0  0.52312524821E+01 -0.28404527837E+01 -0.13136115129E+02  0.14421917192E+02  0.51100000000E-03 0. -1.
        -11    1    3    3    0    0  0.16737383711E+01 -0.10386286928E+02  0.76988422588E+01  0.13036430826E+02  0.51100000000E-03 0.  1.
         12    1    3    3    0    0  0.24363672286E+02  0.19271819413E+02  0.70017059650E+01  0.31843609048E+02  0.00000000000E+00 0. -1.
</event>
<event>
 7    1  0.1327607E-011  0.5930193E+02  0.7816164E-02  0.1266605E+00
        -11   -1    0    0    0    0  0.00000000000E+00  0.00000000000E+00  0.45593999997E+02  0.45594000000E+02  0.51100000000E-03 0. -1.
         11   -1    0    0    0    0 -0.00000000000E+00 -0.00000000000E+00 -0.45593999997E+02  0.45594000000E+02  0.51100000000E-03 0.  1.
    9900012    2    1    2    0    0 -0.28752069199E+02  0.35674291465E+01  0.13315912131E+02  0.59301928592E+02  0.49999971849E+02 0.  0.
        -12    1    1    2    0    0  0.28752069199E+02 -0.35674291465E+01 -0.13315912131E+02  0.31886071408E+02  0.00000000000E+00 0.  1.
         11    1    3    3    0    0 -0.15459819354E+02 -0.56784514237E+01 -0.99676759249E+01  0.19251113958E+02  0.51100000000E-03 0. -1.
        -11    1    3    3    0    0 -0.11621710209E+02 -0.53611500848E+01  0.34295384248E+00  0.12803268958E+02  0.51100000000E-03 0.  1.
         12    1    3    3    0    0 -0.16705396362E+01  0.14607030655E+02  0.22940634214E+02  0.27247545676E+02  0.00000000000E+00 0. -1.
</event>
<event>
 7    1  0.1327607E-011  0.5930195E+02  0.7816164E-02  0.1266605E+00
        -11   -1    0    0    0    0  0.00000000000E+00  0.00000000000E+00  0.45593999997E+02  0.45594000000E+02  0.51100000000E-03 0. -1.
         11   -1    0    0    0    0 -0.00000000000E+00 -0.00000000000E+00 -0.45593999997E+02  0.45594000000E+02  0.51100000000E-03 0.  1.
    9900012    2    1    2    0    0 -0.18814771017E+02 -0.23423720325E+02  0.10679606013E+02  0.59301948710E+02  0.50000008539E+02 0.  0.
        -12    1    1    2    0    0  0.18814771017E+02  0.23423720325E+02 -0.10679606013E+02  0.31886051290E+02  0.00000000000E+00 0.  1.
         11    1    3    3    0    0 -0.15650619136E+02 -0.15116134931E+02  0.47725889041E+00  0.21763896501E+02  0.51100000000E-03 0. -1.
        -11    1    3    3    0    0 -0.73616333863E+01  0.10721348718E+01  0.21211475733E+02  0.22478207721E+02  0.51100000000E-03 0.  1.
         12    1    3    3    0    0  0.41974815052E+01 -0.93797202658E+01 -0.11009128610E+02  0.15059844488E+02  0.00000000000E+00 0. -1.
</event>
<event>
 7    1  0.1327607E-011  0.5930193E+02  0.7816164E-02  0.1266605E+00
        -11   -1    0    0    0    0  0.00000000000E+00  0.00000000000E+00  0.45593999997E+02  0.45594000000E+02  0.51100000000E-03 0.  1.
         11   -1    0    0    0    0 -0.00000000000E+00 -0.00000000000E+00 -0.45593999997E+02  0.45594000000E+02  0.51100000000E-03 0. -1.
    9900012    2    1    2    0    0 -0.87517925626E+01 -0.26216224569E+02 -0.15900846370E+02  0.59301933780E+02  0.49999981310E+02 0.  0.
        -12    1    1    2    0    0  0.87517925626E+01  0.26216224569E+02  0.15900846370E+02  0.31886066220E+02  0.00000000000E+00 0.  1.
         11    1    3    3    0    0  0.35058040809E+01  0.90810962223E+01 -0.32385980878E+01  0.10258922394E+02  0.51100000000E-03 0. -1.
        -11    1    3    3    0    0 -0.17839040553E+02 -0.90973200805E+01 -0.91833891190E+01  0.22030143814E+02  0.51100000000E-03 0.  1.
        -12    1    3    3    0    0  0.55814439094E+01 -0.26200000711E+02 -0.34788591630E+01  0.27012867572E+02  0.00000000000E+00 0.  1.
</event>
<event>
 7    1  0.1327607E-011  0.5930195E+02  0.7816164E-02  0.1266605E+00
        -11   -1    0    0    0    0  0.00000000000E+00  0.00000000000E+00  0.45593999997E+02  0.45594000000E+02  0.51100000000E-03 0. -1.
         11   -1    0    0    0    0 -0.00000000000E+00 -0.00000000000E+00 -0.45593999997E+02  0.45594000000E+02  0.51100000000E-03 0.  1.
    9900012    2    1    2    0    0  0.18722068607E+02  0.25360439358E+02  0.48013253537E+01  0.59301945642E+02  0.50000002944E+02 0.  0.
        -12    1    1    2    0    0 -0.18722068607E+02 -0.25360439358E+02 -0.48013253537E+01  0.31886054358E+02  0.00000000000E+00 0.  1.
         11    1    3    3    0    0 -0.12060874592E+00  0.40346299356E+01  0.12101413849E+02  0.12756841403E+02  0.51100000000E-03 0. -1.
        -11    1    3    3    0    0  0.25779449372E+02  0.13457352858E+02  0.59118391699E+01  0.29675414041E+02  0.51100000000E-03 0.  1.
         12    1    3    3    0    0 -0.69367720187E+01  0.78684565640E+01 -0.13211927665E+02  0.16869690198E+02  0.00000000000E+00 0. -1.
</event>
<event>
 7    1  0.1327607E-011  0.5930195E+02  0.7816164E-02  0.1266605E+00
        -11   -1    0    0    0    0  0.00000000000E+00  0.00000000000E+00  0.45593999997E+02  0.45594000000E+02  0.51100000000E-03 0.  1.
         11   -1    0    0    0    0 -0.00000000000E+00 -0.00000000000E+00 -0.45593999997E+02  0.45594000000E+02  0.51100000000E-03 0. -1.
    9900012    2    1    2    0    0 -0.27048734835E+02  0.58603158940E+01 -0.15834864661E+02  0.59301948231E+02  0.50000007666E+02 0.  0.
        -12    1    1    2    0    0  0.27048734835E+02 -0.58603158940E+01  0.15834864661E+02  0.31886051769E+02  0.00000000000E+00 0.  1.
         11    1    3    3    0    0 -0.35083172869E+02 -0.36347429157E+01 -0.10582289071E+02  0.36824247675E+02  0.51100000000E-03 0. -1.
        -11    1    3    3    0    0 -0.56333289073E+01  0.13380846609E+01 -0.25852209402E+00  0.57958346312E+01  0.51100000000E-03 0.  1.
        -12    1    3    3    0    0  0.13667766941E+02  0.81569741488E+01 -0.49940534959E+01  0.16681865925E+02  0.00000000000E+00 0.  1.
</event>
<event>
 7    1  0.1327607E-011  0.5930197E+02  0.7816164E-02  0.1266605E+00
        -11   -1    0    0    0    0  0.00000000000E+00  0.00000000000E+00  0.45593999997E+02  0.45594000000E+02  0.51100000000E-03 0.  1.
         11   -1    0    0    0    0 -0.00000000000E+00 -0.00000000000E+00 -0.45593999997E+02  0.45594000000E+02  0.51100000000E-03 0. -1.
    9900012    2    1    2    0    0 -0.17077133627E+02  0.21654966957E+01 -0.26840292534E+02  0.59301965876E+02  0.50000039846E+02 0.  0.
        -12    1    1    2    0    0  0.17077133627E+02 -0.21654966957E+01  0.26840292534E+02  0.31886034124E+02  0.00000000000E+00 0.  1.
         11    1    3    3    0    0 -0.10272886136E+01 -0.17491535428E+02 -0.13678293728E+02  0.22228469427E+02  0.51100000000E-03 0. -1.
        -11    1    3    3    0    0 -0.74883747954E+01  0.62676243013E+01 -0.17985089323E+02  0.20465148660E+02  0.51100000000E-03 0.  1.
        -12    1    3    3    0    0 -0.85614702185E+01  0.13389407822E+02  0.48230905175E+01  0.16608347789E+02  0.00000000000E+00 0.  1.
</event>
<event>
 7    1  0.1327607E-011  0.5930193E+02  0.7816164E-02  0.1266605E+00
        -11   -1    0    0    0    0  0.00000000000E+00  0.00000000000E+00  0.45593999997E+02  0.45594000000E+02  0.51100000000E-03 0.  1.
         11   -1    0    0    0    0 -0.00000000000E+00 -0.00000000000E+00 -0.45593999997E+02  0.45594000000E+02  0.51100000000E-03 0. -1.
    9900012    2    1    2    0    0 -0.28581093797E+01  0.57729497500E+01 -0.31228607334E+02  0.59301926958E+02  0.49999968869E+02 0.  0.
        -12    1    1    2    0    0  0.28581093797E+01 -0.57729497500E+01  0.31228607334E+02  0.31886073042E+02  0.00000000000E+00 0.  1.
         11    1    3    3    0    0 -0.96588330580E+01  0.12974747985E+02 -0.66740205550E+01  0.17497991083E+02  0.51100000000E-03 0. -1.
        -11    1    3    3    0    0 -0.10893356165E+02 -0.61223203417E+01 -0.13002537114E+01  0.12563386283E+02  0.51100000000E-03 0.  1.
         12    1    3    3    0    0  0.17694079844E+02 -0.10794778934E+01 -0.23254333067E+02  0.29240549592E+02  0.00000000000E+00 0. -1.
</event>
<event>
 7    1  0.1327607E-011  0.5930200E+02  0.7816164E-02  0.1266605E+00
        -11   -1    0    0    0    0  0.00000000000E+00  0.00000000000E+00  0.45593999997E+02  0.45594000000E+02  0.51100000000E-03 0. -1.
         11   -1    0    0    0    0 -0.00000000000E+00 -0.00000000000E+00 -0.45593999997E+02  0.45594000000E+02  0.51100000000E-03 0.  1.
    9900012    2    1    2    0    0  0.14291908064E+02  0.28501253738E+02 -0.37006928522E+00  0.59301999122E+02  0.50000100479E+02 0.  0.
        -12    1    1    2    0    0 -0.14291908064E+02 -0.28501253738E+02  0.37006928522E+00  0.31886000878E+02  0.00000000000E+00 0.  1.
         11    1    3    3    0    0  0.85326657566E+01  0.32125658194E+02 -0.19136934144E+01  0.33294541926E+02  0.51100000000E-03 0. -1.
        -11    1    3    3    0    0  0.97625336046E+01  0.55321394293E+01 -0.66857009861E+01  0.13061784985E+02  0.51100000000E-03 0.  1.
        -12    1    3    3    0    0 -0.40032912975E+01 -0.91565438859E+01  0.82293251152E+01  0.12945672211E+02  0.00000000000E+00 0.  1.
</event>
<event>
 7    1  0.1327607E-011  0.5930196E+02  0.7816164E-02  0.1266605E+00
        -11   -1    0    0    0    0  0.00000000000E+00  0.00000000000E+00  0.45593999997E+02  0.45594000000E+02  0.51100000000E-03 0.  1.
         11   -1    0    0    0    0 -0.00000000000E+00 -0.00000000000E+00 -0.45593999997E+02  0.45594000000E+02  0.51100000000E-03 0. -1.
    9900012    2    1    2    0    0 -0.15577591638E+02 -0.76845361992E+01 -0.26739597191E+02  0.59301960488E+02  0.50000030019E+02 0.  0.
        -12    1    1    2    0    0  0.15577591638E+02  0.76845361992E+01  0.26739597191E+02  0.31886039512E+02  0.00000000000E+00 0.  1.
         11    1    3    3    0    0  0.32482774840E+01 -0.10010798673E+02 -0.89788746196E+01  0.13834290238E+02  0.51100000000E-03 0. -1.
        -11    1    3    3    0    0 -0.19471407828E+02 -0.24014208086E+01  0.65574409639E+01  0.20685806172E+02  0.51100000000E-03 0.  1.
         12    1    3    3    0    0  0.64553870597E+00  0.47276832827E+01 -0.24318163535E+02  0.24781864078E+02  0.00000000000E+00 0. -1.
</event>
<event>
 7    1  0.1327607E-011  0.5930195E+02  0.7816164E-02  0.1266605E+00
        -11   -1    0    0    0    0  0.00000000000E+00  0.00000000000E+00  0.45593999997E+02  0.45594000000E+02  0.51100000000E-03 0. -1.
         11   -1    0    0    0    0 -0.00000000000E+00 -0.00000000000E+00 -0.45593999997E+02  0.45594000000E+02  0.51100000000E-03 0.  1.
    9900012    2    1    2    0    0  0.21358216352E+02  0.23350537173E+02  0.39114434852E+01  0.59301946903E+02  0.50000005243E+02 0.  0.
        -12    1    1    2    0    0 -0.21358216352E+02 -0.23350537173E+02 -0.39114434852E+01  0.31886053097E+02  0.00000000000E+00 0.  1.
         11    1    3    3    0    0  0.27635671896E+02  0.18214854080E+02  0.12340790382E+01  0.33121506935E+02  0.51100000000E-03 0. -1.
        -11    1    3    3    0    0  0.21438594975E+00  0.13524585911E+02  0.63666605453E+01  0.14949740873E+02  0.51100000000E-03 0.  1.
        -12    1    3    3    0    0 -0.64918414935E+01 -0.83889028181E+01 -0.36892960983E+01  0.11230699095E+02  0.00000000000E+00 0.  1.
</event>
<event>
 7    1  0.1327607E-011  0.5930193E+02  0.7816164E-02  0.1266605E+00
        -11   -1    0    0    0    0  0.00000000000E+00  0.00000000000E+00  0.45593999997E+02  0.45594000000E+02  0.51100000000E-03 0.  1.
         11   -1    0    0    0    0 -0.00000000000E+00 -0.00000000000E+00 -0.45593999997E+02  0.45594000000E+02  0.51100000000E-03 0. -1.
    9900012    2    1    2    0    0  0.71334343019E+00  0.31361379566E+02 -0.57163594325E+01  0.59301925418E+02  0.49999966060E+02 0.  0.
        -12    1    1    2    0    0 -0.71334343019E+00 -0.31361379566E+02  0.57163594325E+01  0.31886074582E+02  0.00000000000E+00 0.  1.
         11    1    3    3    0    0  0.15335444791E+02  0.19915544537E+02  0.16712070345E+01  0.25191222963E+02  0.51100000000E-03 0. -1.
        -11    1    3    3    0    0 -0.99749034374E+01  0.55617830568E+01  0.99970835344E+01  0.15178069996E+02  0.51100000000E-03 0.  1.
         12    1    3    3    0    0 -0.46471979238E+01  0.58840519722E+01 -0.17384650001E+02  0.18932632459E+02  0.00000000000E+00 0. -1.
</event>
<event>
 7    1  0.1327607E-011  0.5930195E+02  0.7816164E-02  0.1266605E+00
        -11   -1    0    0    0    0  0.00000000000E+00  0.00000000000E+00  0.45593999997E+02  0.45594000000E+02  0.51100000000E-03 0. -1.
         11   -1    0    0    0    0 -0.00000000000E+00 -0.00000000000E+00 -0.45593999997E+02  0.45594000000E+02  0.51100000000E-03 0.  1.
    9900012    2    1    2    0    0  0.30730713180E+02  0.74013727608E+01 -0.41908712934E+01  0.59301945784E+02  0.50000003203E+02 0.  0.
        -12    1    1    2    0    0 -0.30730713180E+02 -0.74013727608E+01  0.41908712934E+01  0.31886054216E+02  0.00000000000E+00 0.  1.
         11    1    3    3    0    0  0.32237422909E+02 -0.24793820013E+01  0.13252109928E+02  0.34943056373E+02  0.51100000000E-03 0. -1.
        -11    1    3    3    0    0  0.26098855278E+01  0.27020757085E+00  0.12763104780E+01  0.29177873975E+01  0.51100000000E-03 0.  1.
        -12    1    3    3    0    0 -0.41165952566E+01  0.96105471912E+01 -0.18719291699E+02  0.21441102013E+02  0.00000000000E+00 0.  1.
</event>
<event>
 7    1  0.1327607E-011  0.5930193E+02  0.7816164E-02  0.1266605E+00
        -11   -1    0    0    0    0  0.00000000000E+00  0.00000000000E+00  0.45593999997E+02  0.45594000000E+02  0.51100000000E-03 0.  1.
         11   -1    0    0    0    0 -0.00000000000E+00 -0.00000000000E+00 -0.45593999997E+02  0.45594000000E+02  0.51100000000E-03 0. -1.
    9900012    2    1    2    0    0  0.23455086073E+02 -0.17368300417E+02 -0.12842206038E+02  0.59301934423E+02  0.49999982483E+02 0.  0.
        -12    1    1    2    0    0 -0.23455086073E+02  0.17368300417E+02  0.12842206038E+02  0.31886065577E+02  0.00000000000E+00 0.  1.
         11    1    3    3    0    0  0.11172558081E+02  0.59358650178E+01 -0.15749781370E+02  0.20201885087E+02  0.51100000000E-03 0. -1.
        -11    1    3    3    0    0  0.16451506031E+01  0.56651983527E+01  0.55848471993E+01  0.81235159496E+01  0.51100000000E-03 0.  1.
        -12    1    3    3    0    0  0.10637377389E+02 -0.28969363788E+02 -0.26772718669E+01  0.30976533386E+02  0.00000000000E+00 0.  1.
</event>
